$hessian                                                                        
        0.5964184615  -0.0554325734  -0.1357813666  -0.1853910413  -0.0531176314
        0.0625264045   0.0453700730  -0.0548039045   0.0045895263  -0.0471876147
       -0.0154489707   0.0182808827  -0.0000676540   0.0040511371  -0.0013995725
       -0.0004824561  -0.0044999234   0.0016604544  -0.0001617886   0.0025424740
       -0.0007696361  -0.0008812970  -0.0009004377   0.0005403128   0.0005240671
        0.0000699692  -0.0001699780  -0.0001518597  -0.0002611868   0.0001232023
        0.0001756301   0.0001182126  -0.0000907950  -0.0003124325  -0.0001940718
        0.0001424926   0.0000512786   0.0005774049  -0.0001986813  -0.0013470947
       -0.0009225382   0.0006866620  -0.0006301941   0.0034439368  -0.0009676904
        0.0009154186  -0.0000805204  -0.0002275127  -0.0004231108   0.0004218972
       -0.0000233700   0.0004226612   0.0001447177  -0.0001120828  -0.0003235998
        0.0000496009   0.0000737195   0.0000550847  -0.0000292178  -0.0000001492
        0.0000344957  -0.0000098432  -0.0000191651   0.0000078253   0.0000001179
       -0.0000000930   0.0000205007   0.0000131379   0.0000086418  -0.0000143370
       -0.0000042354  -0.0000018753   0.0000023616   0.0000005754   0.0000013583
       -0.0000616749  -0.0000134941  -0.0000238287  -0.0000539284   0.0000411449
        0.0000450283   0.0000021301  -0.0000015132  -0.0000035280  -0.0000398446
        0.0000107095   0.0000049883  -0.0000003175   0.0000081282   0.0000046570
        0.0000083445  -0.0000016103   0.0000108861  -0.0000042215  -0.0000077020
       -0.0000030914   0.0000020072  -0.0000039720   0.0000003506   0.0000038287
       -0.0000140060   0.0000056794   0.0000034854   0.0000182759  -0.0000005026
        0.0000025362  -0.0000076977   0.0000026819  -0.0000042506   0.0000117478
       -0.0000028562   0.0000112136  -0.0000162375   0.0000087113  -0.0000022035
        0.0000062499  -0.0000072958  -0.0000008317   0.0000073802  -0.0000049069
       -0.0000071135   0.0000024465   0.0000006590   0.0000075147   0.0000013461
        0.0000002440   0.0000352468  -0.0000198558  -0.0000048986  -0.0000102019
       -0.0000218398  -0.0000061375   0.0000460073   0.0000075626  -0.0000018242
        0.0002368212  -0.0002771299  -0.0000274878   0.0000432895   0.0000410693
       -0.0000118514   0.0000010839  -0.0000367051   0.0000016476   0.0000156968
        0.0000033970  -0.0000003849   0.0000038858  -0.0000062037  -0.0000061957
       -0.0000000857  -0.0000076644  -0.0000081702  -0.0000134410  -0.0000143486
        0.0000063975  -0.0003901367  -0.0002342517   0.0001507235   0.0013229398
       -0.0017904031   0.0002083048  -0.0129998245   0.0851270282  -0.0245809820
       -0.2895934733   0.0273559779   0.0684689725  -0.0655906666   0.0720106679
       -0.0143664879  -0.0214961829  -0.0170343521   0.0130167703   0.0011970409
        0.0029247471   0.0012763711   0.0000800930   0.0000000071  -0.0000136917
        0.0000289316  -0.0000110989  -0.0000122770   0.0000112821   0.0000033333
       -0.0000066355  -0.0000043569   0.0000157395  -0.0000124826   0.0000119710
        0.0000238422  -0.0000007077  -0.0000117913  -0.0000083549  -0.0000112663
       -0.0000087063   0.0000097855  -0.0000095684  -0.0000036381  -0.0000026841
       -0.0000074167   0.0000010732   0.0000017191   0.0000028508  -0.0000011484
        0.0000029949   0.0000012382  -0.0000026313   0.0000042189   0.0000005408
       -0.0000026130   0.0000001653  -0.0000009202   0.0000020502   0.0000012525
        0.0000008498  -0.0000028085   0.0000047408  -0.0000005532  -0.0000035152
        0.0000019903  -0.0000002263  -0.0000030697   0.0000006589   0.0000003137
       -0.0000050745   0.0000019884  -0.0000004384  -0.0000030987  -0.0000026142
        0.0000018931  -0.0000024775  -0.0000001316  -0.0000003412  -0.0000025054
        0.0000038785  -0.0000033630  -0.0000044270   0.0000035366  -0.0000008233
        0.0000002510   0.0000086278   0.0000059536   0.0000008251   0.0000275338
        0.0000136232  -0.0000098082   0.0000035529   0.0000032908  -0.0000073980
       -0.0000001996   0.0000050629  -0.0000076945   0.0000038150   0.0000120813
        0.0000007732   0.0000070016  -0.0000002400   0.0000681465   0.0000382231
       -0.0000162840   0.0013503512   0.0022726785   0.0014407682  -0.0207670368
        0.0037867800   0.0055844368
       -0.0554325734   0.6155843158  -0.1539104352  -0.1259372763  -0.1817345111
        0.0865838271   0.0006302804  -0.0541524071   0.0186715660  -0.0151581739
        0.0078067574  -0.0001494206   0.0032666345  -0.0097657143   0.0022362085
        0.0007562502   0.0084621343  -0.0030623845   0.0028104299  -0.0063209975
        0.0012635071   0.0012216137   0.0008712137  -0.0006294876  -0.0005934647
        0.0000206025   0.0001526655   0.0002086003   0.0001949679  -0.0001107017
       -0.0002663901  -0.0000539051   0.0001009129   0.0004020009   0.0002288469
       -0.0001654010  -0.0001785210  -0.0006660257   0.0002590711  -0.0007194971
        0.0020259750  -0.0004506133   0.0028910616  -0.0080281117   0.0018707726
       -0.0032282159   0.0007744202   0.0006330546   0.0012488670  -0.0013398198
        0.0001096123  -0.0012362278  -0.0002681114   0.0002953252   0.0007999235
       -0.0001309537  -0.0002041945  -0.0000410413   0.0000657972  -0.0000068820
       -0.0000933416   0.0000928677   0.0000692145  -0.0000248337  -0.0000272532
       -0.0000145036  -0.0000623776  -0.0000357494  -0.0000158379   0.0000378396
        0.0000065519   0.0000064660  -0.0000001284   0.0000023044   0.0000017650
        0.0001770137   0.0000252776   0.0000655931   0.0001586541  -0.0001087040
       -0.0001203137  -0.0000117957   0.0000090756   0.0000039479   0.0000688428
       -0.0000333057  -0.0000239133   0.0000022408  -0.0000031077  -0.0000140219
        0.0000138303  -0.0000148596  -0.0000022428   0.0000048906   0.0000191553
        0.0000116814  -0.0000002885   0.0000085776   0.0000075241  -0.0000071548
        0.0000439992  -0.0000153924   0.0000044464  -0.0000566403   0.0000112444
       -0.0000259805   0.0000214051  -0.0000140458   0.0000086305  -0.0000437567
        0.0000112721  -0.0000293824   0.0000637603  -0.0000271205   0.0000208807
       -0.0000166757   0.0000318800   0.0000118835  -0.0000142814   0.0000175202
        0.0000358312  -0.0000136665   0.0000033844  -0.0000182591   0.0000207915
       -0.0000085617  -0.0000831931   0.0000333028   0.0000138788   0.0000508433
        0.0000559746   0.0000263892  -0.0001658508  -0.0000754679  -0.0000117453
       -0.0006974667   0.0007929129   0.0000787975  -0.0001584760  -0.0001583446
        0.0000571972   0.0000525736   0.0000665579  -0.0000541136  -0.0000312219
       -0.0000187925  -0.0000177094  -0.0000126526   0.0000032040   0.0000076895
       -0.0000065841   0.0000076434   0.0000254662   0.0000426996   0.0000753507
       -0.0000325968   0.0013377749   0.0005755642  -0.0004608295  -0.0063797395
        0.0082123857  -0.0009553009   0.0303505912  -0.0127455956  -0.0050299101
        0.0999134421  -0.1071414416  -0.0116312813   0.0720569920  -0.2640799645
        0.0560224273   0.0047257728   0.0048460448  -0.0029715135   0.0024365425
       -0.0040571662   0.0034042780   0.0000303908  -0.0000031395  -0.0000244521
       -0.0000123302  -0.0000053245   0.0000224341   0.0000013089  -0.0000076795
        0.0000081029   0.0000024682  -0.0000281764   0.0000252045  -0.0000298713
       -0.0000406025  -0.0000021913   0.0000433748   0.0000098947   0.0000330305
        0.0000223036  -0.0000292495   0.0000370974   0.0000129882   0.0000101614
        0.0000231777  -0.0000021607  -0.0000023335  -0.0000044299   0.0000036409
       -0.0000045730   0.0000006821   0.0000062825  -0.0000073814   0.0000020324
        0.0000034923  -0.0000024528   0.0000095184  -0.0000071752  -0.0000022810
       -0.0000002073   0.0000071409  -0.0000047079   0.0000026444   0.0000050924
        0.0000005317  -0.0000000493   0.0000062693  -0.0000018618  -0.0000031627
        0.0000068022  -0.0000008494  -0.0000017163   0.0000007965   0.0000048378
       -0.0000095685   0.0000032578   0.0000045116  -0.0000010988  -0.0000054942
       -0.0000046526   0.0000037159   0.0000086904  -0.0000027675   0.0000047288
       -0.0000064890  -0.0000182275  -0.0000148245  -0.0000278573  -0.0000424268
       -0.0000143661   0.0000186057   0.0000076003   0.0000053888   0.0000143825
        0.0000057293  -0.0000074116   0.0000179777  -0.0000023195  -0.0000277820
       -0.0000091052  -0.0000122126   0.0000094133  -0.0000261161  -0.0000021168
       -0.0000470724   0.0027789177  -0.0041557161   0.0034380044  -0.0180153541
        0.0044253776   0.0045894922
       -0.1357813666  -0.1539104352   0.2112382535   0.0875647225   0.0631524416
       -0.0969690396  -0.0144175464   0.0364759911  -0.0067904458   0.0182195062
        0.0000019186  -0.0124183149  -0.0010271647   0.0019552123  -0.0005933579
       -0.0002511211  -0.0014168188   0.0005402694  -0.0007959783   0.0013238637
       -0.0001859861  -0.0001518666  -0.0000106673   0.0000376983   0.0000418121
       -0.0000291301  -0.0000010080  -0.0000211836   0.0000125822  -0.0000034019
        0.0000383257  -0.0000142621  -0.0000015289  -0.0000422637  -0.0000120896
        0.0000117722   0.0000469250   0.0000515959  -0.0000212260   0.0006315864
       -0.0003501195  -0.0000617326  -0.0007058412   0.0016646127  -0.0003379274
        0.0007890343  -0.0002418264  -0.0001478895  -0.0002833133   0.0003225365
       -0.0000221892   0.0002827597   0.0000425226  -0.0000619879  -0.0001684435
        0.0000272506   0.0000493750  -0.0000091652  -0.0000146304   0.0000021887
        0.0000224292  -0.0000345596  -0.0000146907   0.0000070027   0.0000078304
        0.0000028177   0.0000150226   0.0000074172   0.0000050563  -0.0000066529
       -0.0000001284   0.0000004894   0.0000002673  -0.0000024551  -0.0000004995
       -0.0000417341  -0.0000033823  -0.0000134878  -0.0000408102   0.0000183819
        0.0000329382   0.0000056472  -0.0000015181   0.0000046039  -0.0000186000
        0.0000073228   0.0000014066   0.0000030641   0.0000009306   0.0000064659
       -0.0000079684   0.0000070325   0.0000012916   0.0000030204  -0.0000019737
        0.0000011301  -0.0000004045  -0.0000009407  -0.0000037542   0.0000005254
       -0.0000059826   0.0000084549  -0.0000020899   0.0000101415  -0.0000071316
        0.0000023716   0.0000007909   0.0000074388  -0.0000004426   0.0000074170
       -0.0000026611   0.0000045694  -0.0000110937   0.0000072289  -0.0000047441
        0.0000039479  -0.0000058520  -0.0000024009   0.0000007762  -0.0000104544
       -0.0000096687   0.0000040955   0.0000007172   0.0000051702  -0.0000089242
       -0.0000010826   0.0000188424  -0.0000042349  -0.0000038459  -0.0000150782
       -0.0000118782  -0.0000111819   0.0000478442   0.0000266055   0.0000110486
        0.0001524217  -0.0001761551  -0.0000214915   0.0000404564   0.0000395611
       -0.0000175561  -0.0000215574  -0.0000090596   0.0000163798   0.0000066936
        0.0000016373   0.0000052100   0.0000026654   0.0000022123  -0.0000025706
        0.0000046130  -0.0000031763  -0.0000026062  -0.0000101663  -0.0000206999
        0.0000097647  -0.0003214914  -0.0001215589   0.0001073397   0.0016639952
       -0.0023146979   0.0002772665  -0.0058377897  -0.0225846495   0.0109038463
        0.0434589726   0.0117040846  -0.0657953111  -0.0143849622   0.0560069428
       -0.0481346581   0.0055465550   0.0040500473  -0.0023620438   0.0014101466
        0.0032704143   0.0066271653  -0.0000373709   0.0000024170   0.0000178648
       -0.0000073169   0.0000070173  -0.0000052200  -0.0000049698   0.0000022918
        0.0000004618   0.0000013958   0.0000055643  -0.0000034236   0.0000060788
        0.0000054437   0.0000017791  -0.0000112110   0.0000007015  -0.0000068283
       -0.0000054566   0.0000063418  -0.0000094153  -0.0000034848  -0.0000038978
       -0.0000042589   0.0000007350  -0.0000016159   0.0000027142  -0.0000003630
       -0.0000009634   0.0000023723  -0.0000007929   0.0000012852   0.0000019997
       -0.0000034430  -0.0000010235  -0.0000032723   0.0000025712   0.0000011250
        0.0000016729  -0.0000017226   0.0000020170   0.0000029508  -0.0000014068
        0.0000005295   0.0000025857   0.0000003693   0.0000010332   0.0000007792
       -0.0000008713   0.0000011421  -0.0000001795   0.0000004375  -0.0000012569
        0.0000007086  -0.0000002393  -0.0000001042   0.0000003931   0.0000023699
        0.0000008158  -0.0000021629   0.0000010202  -0.0000000929  -0.0000004060
        0.0000034113   0.0000033973   0.0000030136   0.0000082672   0.0000032749
       -0.0000002262  -0.0000024614  -0.0000049032  -0.0000065598  -0.0000022415
       -0.0000031763  -0.0000011785  -0.0000024206  -0.0000024954   0.0000044476
        0.0000044869   0.0000011607  -0.0000015196  -0.0000155716  -0.0000096005
        0.0000283983   0.0012875233   0.0035502865   0.0066503438   0.0131275252
       -0.0024577838  -0.0025685374
       -0.1853910413  -0.1259372763   0.0875647225   0.6229217946  -0.0588622763
       -0.1427785029  -0.1121426245   0.1084631161  -0.0160956047  -0.0102745655
        0.0296848519  -0.0063654988  -0.0056887988   0.0034753501   0.0029515702
        0.0011465487  -0.0007444840  -0.0002862546  -0.0006141082   0.0002882307
        0.0000645575   0.0002634619   0.0001264457  -0.0000800746  -0.0002050316
        0.0000600753   0.0000454268   0.0000762628   0.0000412983  -0.0000416927
       -0.0000556431  -0.0000757304   0.0000412721   0.0000623699   0.0000335612
       -0.0000349642   0.0000214350  -0.0001572211   0.0000483072   0.0012194787
       -0.0001185999  -0.0003140282  -0.0008330978  -0.0002929447   0.0000641993
        0.0001026239  -0.0001738215  -0.0000161263  -0.0000352998   0.0000889852
        0.0000053945   0.0000179445   0.0000212710   0.0000163794  -0.0000509317
        0.0000618899  -0.0000111293  -0.0000432431  -0.0000762938  -0.0000458191
       -0.0000129225   0.0000295565   0.0000107287   0.0000440096  -0.0000076270
       -0.0000100134  -0.0000226858   0.0000455073   0.0000237869   0.0000566973
        0.0000348619   0.0000284191  -0.0000267902  -0.0000709261  -0.0000470062
        0.0000038935   0.0000685721   0.0000586138  -0.0001246634  -0.0000449111
       -0.0000256110   0.0000579721   0.0001538626   0.0000427980  -0.0001788676
       -0.0001207996  -0.0001020234   0.0001156769   0.0000509616   0.0000474290
       -0.0000100320  -0.0000009371   0.0000465329   0.0000298431   0.0000196772
        0.0000030746  -0.0000265190   0.0000194864  -0.0000217988   0.0000238576
        0.0000715334   0.0000002515   0.0000345000  -0.0000911198   0.0000233793
       -0.0000585309   0.0000773944  -0.0000357333  -0.0000171990  -0.0000995805
        0.0000066050  -0.0000225393   0.0000924253  -0.0000191696   0.0000509885
       -0.0000503742   0.0000098425  -0.0000142651  -0.0000390097  -0.0000075607
        0.0000257836   0.0000093250   0.0000208203   0.0000225356  -0.0000019993
       -0.0000364661   0.0000711809  -0.0000486529   0.0000223613  -0.0000431301
       -0.0000803125  -0.0000656560   0.0001009086   0.0000593648   0.0000592829
        0.0000500759  -0.0000799745  -0.0000142836  -0.0000073076  -0.0000092554
        0.0000084263   0.0000106991  -0.0000082658  -0.0000181344  -0.0000084567
       -0.0000093693   0.0000044794   0.0000059905   0.0000107095  -0.0000090943
       -0.0000071512  -0.0000081579   0.0000033907   0.0000005797   0.0000000979
        0.0000000396  -0.0000922857  -0.0000530342   0.0000470835  -0.0004016777
        0.0004190520   0.0000977443   0.0011596865  -0.0124712348   0.0021461565
       -0.0501924328  -0.0026448305   0.0174070090   0.0050930683   0.0048720611
       -0.0030405748  -0.2670886375   0.0688946639   0.0509620358   0.0046933632
       -0.0170220572   0.0047236475   0.0000448617   0.0001140787  -0.0000454762
       -0.0000126095   0.0000023112  -0.0000034891  -0.0000143394  -0.0000308104
        0.0000123634   0.0000041410  -0.0000134779   0.0000041793   0.0000028183
        0.0000137536   0.0000058945  -0.0000189888   0.0000104787  -0.0000123001
        0.0000068117  -0.0000036008  -0.0000189865  -0.0000162430   0.0000019185
       -0.0000011700  -0.0000033411  -0.0000072046  -0.0000052355   0.0000066436
       -0.0000108168  -0.0000068285   0.0000118535   0.0000024101   0.0000049611
        0.0000117268  -0.0000046723  -0.0000035607  -0.0000069319  -0.0000028806
       -0.0000046639  -0.0000072880  -0.0000064322   0.0000013306   0.0000090886
       -0.0000049248   0.0000044181   0.0000082478   0.0000072477   0.0000005908
        0.0000071075   0.0000023012   0.0000037653   0.0000060580   0.0000096880
        0.0000063299  -0.0000044647   0.0000075696  -0.0000054066  -0.0000099373
       -0.0000049411  -0.0000058095   0.0000038184   0.0000072954   0.0000080739
       -0.0000121231   0.0000068959  -0.0000017121   0.0000153086   0.0000041748
        0.0000316541   0.0000130879   0.0000202282  -0.0000012726   0.0000045661
        0.0000016961   0.0000000056   0.0000020969  -0.0000006296   0.0000114117
        0.0000059814   0.0000005189   0.0000064857   0.0000092491   0.0000545332
       -0.0000242792   0.0007008976  -0.0003115898  -0.0002138413  -0.0045608485
        0.0022617702   0.0031696207
       -0.0531176314  -0.1817345111   0.0631524416  -0.0588622763   0.5962407901
       -0.1462063033   0.0362343489  -0.2973926005   0.0743913754   0.0801244141
       -0.0213878300  -0.0177958784  -0.0041205058   0.0172590058  -0.0022007129
       -0.0005794935  -0.0121718110   0.0040925679  -0.0045927840   0.0095419554
       -0.0018475883  -0.0016664350  -0.0012104433   0.0008968847   0.0007475314
        0.0000950074  -0.0002362120  -0.0002504532  -0.0003133295   0.0001625612
        0.0003868065   0.0000599562  -0.0001335823  -0.0005993113  -0.0003071578
        0.0002494182   0.0002816160   0.0009283786  -0.0003760177   0.0016146610
       -0.0037756982   0.0007953695  -0.0044881305   0.0121684696  -0.0031099997
        0.0046920839  -0.0012563312  -0.0009249550  -0.0017892789   0.0018757586
       -0.0001141242   0.0017621657   0.0003457881  -0.0003956660  -0.0011166107
        0.0001538542   0.0002981831   0.0000250411  -0.0001013216  -0.0000053222
        0.0001402990  -0.0001635796  -0.0001194581   0.0000081163   0.0000271229
        0.0000171808   0.0000706698   0.0000432665   0.0000240797  -0.0000381024
       -0.0000016853   0.0000033588   0.0000025329  -0.0000230103  -0.0000232871
       -0.0002600441  -0.0000166776  -0.0000706954  -0.0002523627   0.0001471096
        0.0001604640   0.0000341544   0.0000169528   0.0000171673  -0.0001319581
        0.0000299802   0.0000167740   0.0000441111   0.0000305663   0.0000283219
       -0.0000243290   0.0000307623   0.0000025343  -0.0000128909  -0.0000315119
       -0.0000084145   0.0000020159  -0.0000151981   0.0000017661   0.0000045873
       -0.0000575417   0.0000144486  -0.0000080018   0.0000768999  -0.0000147119
        0.0000325838  -0.0000306126   0.0000193812   0.0000000414   0.0000586280
       -0.0000126831   0.0000308960  -0.0000750837   0.0000258894  -0.0000268947
        0.0000330192  -0.0000303342  -0.0000110256   0.0000211484  -0.0000140990
       -0.0000368082   0.0000131664  -0.0000116248   0.0000116080  -0.0000443009
       -0.0000019290   0.0001447236  -0.0000628400  -0.0000198809  -0.0000788597
       -0.0000812661  -0.0000363871   0.0003079918   0.0001325185   0.0000416512
        0.0009622599  -0.0011134373  -0.0001061227   0.0002266634   0.0002169487
       -0.0000647870  -0.0000763037  -0.0000794989   0.0000752861   0.0000374026
        0.0000179046   0.0000087122   0.0000130230  -0.0000060641  -0.0000132198
        0.0000140328  -0.0000043073  -0.0000376148  -0.0000638524  -0.0001043451
        0.0000399835  -0.0018625889  -0.0007501499   0.0006241786   0.0102703266
       -0.0134205920   0.0017440934  -0.0088203684  -0.0475007027   0.0173409281
       -0.0537700098   0.0466187068   0.0016750078  -0.0168700183  -0.0208718679
        0.0128378818   0.0687437538  -0.0634261210  -0.0120462431   0.0040454838
       -0.0201560054   0.0060020926   0.0000236698   0.0000757879  -0.0000151668
        0.0000534171   0.0000044673  -0.0000284349   0.0000142674   0.0000089078
       -0.0000092091  -0.0000083445   0.0000321844  -0.0000201366   0.0000026576
        0.0000430237   0.0000027687  -0.0000289213   0.0000269880  -0.0000581501
       -0.0000195873   0.0000445166  -0.0000534927  -0.0000059456  -0.0000194853
       -0.0000283861   0.0000059507   0.0000003135   0.0000115353  -0.0000022828
        0.0000052820   0.0000064117  -0.0000080140   0.0000067206   0.0000001996
       -0.0000167731   0.0000013704   0.0000024580   0.0000094710   0.0000006959
        0.0000042224  -0.0000015162   0.0000104183   0.0000005842  -0.0000067539
        0.0000048163  -0.0000000379  -0.0000052828  -0.0000007073   0.0000017192
       -0.0000092230   0.0000048743  -0.0000026040  -0.0000034187  -0.0000077063
        0.0000016787   0.0000019771  -0.0000030434   0.0000010387   0.0000104926
        0.0000096273  -0.0000055228  -0.0000071043   0.0000041050  -0.0000119225
        0.0000225152   0.0000262181   0.0000163757   0.0000148755   0.0000242915
       -0.0000020484  -0.0000138886  -0.0000142515  -0.0000100366  -0.0000152605
       -0.0000102253   0.0000089083  -0.0000217937   0.0000078362   0.0000296564
        0.0000112407   0.0000274522  -0.0000083472  -0.0000886225  -0.0000376688
        0.0001092402  -0.0002726480  -0.0002567051   0.0000654117   0.0028762298
        0.0014836642   0.0012091582
        0.0625264045   0.0865838271  -0.0969690396  -0.1427785029  -0.1462063033
        0.2110764724   0.0087069623   0.0513232918  -0.0670216908  -0.0238089793
       -0.0017452181   0.0096713924   0.0056630463  -0.0045328900   0.0069500077
       -0.0004665555   0.0044130523  -0.0018097912   0.0018698657  -0.0035332860
        0.0005004652   0.0005327863   0.0004592834  -0.0001880962  -0.0002202945
       -0.0000407840   0.0000825930   0.0000608906   0.0001054638  -0.0000589302
       -0.0001258727  -0.0000069625   0.0000451141   0.0001941308   0.0000981340
       -0.0000905487  -0.0000889711  -0.0002975279   0.0001192909  -0.0009084322
        0.0015903005  -0.0002487906   0.0016399344  -0.0043694914   0.0002434837
       -0.0016548104   0.0004334252   0.0001941102   0.0006342425  -0.0006216955
        0.0000780642  -0.0005969245  -0.0001176227   0.0001560129   0.0003851815
       -0.0000636260  -0.0000942794  -0.0000338914   0.0000362662   0.0000005783
       -0.0000421936   0.0000408336   0.0000384692  -0.0000147335  -0.0000119145
       -0.0000043071  -0.0000253697  -0.0000277411  -0.0000091384   0.0000114578
       -0.0000051726  -0.0000024038   0.0000092913   0.0000123037   0.0000128432
        0.0000847997  -0.0000029135   0.0000219607   0.0000865016  -0.0000511778
       -0.0000490974  -0.0000021610  -0.0000146206  -0.0000036469   0.0000289873
       -0.0000073940  -0.0000060875  -0.0000179854  -0.0000115576  -0.0000114998
        0.0000266971  -0.0000203537   0.0000088890  -0.0000018793   0.0000114060
        0.0000055943   0.0000024589  -0.0000022227   0.0000051659  -0.0000002294
        0.0000179211   0.0000012982   0.0000080715  -0.0000187243   0.0000036807
       -0.0000164701   0.0000077999  -0.0000015601   0.0000000235  -0.0000160982
        0.0000041688  -0.0000044343   0.0000291059  -0.0000056969   0.0000100487
        0.0000001391   0.0000153674   0.0000029171   0.0000029721  -0.0000009276
        0.0000062799  -0.0000103404  -0.0000008237   0.0000017775   0.0000392246
       -0.0000030387  -0.0000432699   0.0000279552   0.0000119076   0.0000201997
        0.0000355776   0.0000155407  -0.0000920462  -0.0000362698  -0.0000092347
       -0.0003467789   0.0003998197   0.0000457775  -0.0000711351  -0.0000689144
        0.0000183524   0.0000202340   0.0000289402  -0.0000232658  -0.0000093136
       -0.0000048494  -0.0000057295  -0.0000063636  -0.0000012970   0.0000043565
       -0.0000000427   0.0000002390   0.0000134129   0.0000209202   0.0000335228
       -0.0000123056   0.0006512963   0.0002479795  -0.0002233548  -0.0034004938
        0.0042934074  -0.0000826444   0.0009103001   0.0184747524  -0.0120061827
        0.0350087929  -0.0147890832  -0.0050746044   0.0044336862   0.0058928134
       -0.0025016354   0.0510017757  -0.0121388867  -0.0464784391  -0.0025321555
        0.0127606642  -0.0024809204  -0.0000290124  -0.0000674692   0.0000093502
       -0.0000141930  -0.0000005479   0.0000074574   0.0000011213   0.0000106951
        0.0000031037   0.0000031598  -0.0000022038   0.0000089214  -0.0000051350
       -0.0000165129   0.0000011851   0.0000058222  -0.0000144580   0.0000275145
        0.0000044140  -0.0000203730   0.0000208232   0.0000070989   0.0000038786
        0.0000120906  -0.0000001809  -0.0000011805   0.0000018287  -0.0000001102
       -0.0000015412   0.0000052363   0.0000003736  -0.0000038909   0.0000032021
       -0.0000019385  -0.0000022490   0.0000022180   0.0000010118   0.0000028165
        0.0000030292   0.0000027171   0.0000031382   0.0000043088  -0.0000026715
        0.0000034861   0.0000017023  -0.0000005614  -0.0000009834  -0.0000010706
       -0.0000010317   0.0000000769  -0.0000021860  -0.0000019747  -0.0000016359
       -0.0000062323   0.0000014163  -0.0000013279   0.0000001928   0.0000008012
       -0.0000005765   0.0000020978   0.0000026019  -0.0000022820   0.0000010390
       -0.0000004902  -0.0000084731  -0.0000082495  -0.0000096129  -0.0000108815
       -0.0000110200   0.0000004288  -0.0000026887  -0.0000007495   0.0000040511
        0.0000006719  -0.0000059518   0.0000083451  -0.0000059451  -0.0000156602
       -0.0000043797  -0.0000113239   0.0000020493   0.0000174891  -0.0000019953
       -0.0000335733  -0.0002039759   0.0001120276  -0.0001788679   0.0029647441
        0.0014162653   0.0062795521
        0.0453700730   0.0006302804  -0.0144175464  -0.1121426245   0.0362343489
        0.0087069623   0.5872103783  -0.0384119612  -0.1381418614  -0.2739606694
        0.0699663836   0.0479547853  -0.0213234139   0.0404278210  -0.0071723275
       -0.0036484953  -0.0219981074   0.0087395490  -0.0065351228   0.0145356673
       -0.0030464438  -0.0029622108  -0.0021496145   0.0015489123   0.0014594220
       -0.0001322002  -0.0003311375  -0.0004595900  -0.0004310629   0.0002503731
        0.0005961722   0.0001978247  -0.0002432518  -0.0009690431  -0.0005141945
        0.0003937399   0.0002673211   0.0016863495  -0.0005982004   0.0007748213
       -0.0044205672   0.0013212165  -0.0060721652   0.0194318198  -0.0047830006
        0.0066577745  -0.0014353651  -0.0014570901  -0.0025542003   0.0028170648
       -0.0002307972   0.0025582073   0.0006140463  -0.0005655082  -0.0017500774
        0.0002019445   0.0004591891   0.0000338323  -0.0003039871  -0.0000916349
        0.0001483354  -0.0001494780  -0.0001565381   0.0000986160   0.0000193867
        0.0000133884   0.0000653681   0.0001224617   0.0000784957   0.0000196756
        0.0000588164   0.0000389618  -0.0000646580  -0.0001260800  -0.0000984412
       -0.0003469259   0.0000688661  -0.0000163718  -0.0005365112   0.0001372277
        0.0001862106   0.0001080716   0.0002389301   0.0000938219  -0.0003864498
       -0.0001038465  -0.0000984224   0.0002304655   0.0001124236   0.0001180590
       -0.0000779771   0.0000551491   0.0000335870   0.0000397697  -0.0000128443
       -0.0000034348  -0.0000316606   0.0000132396  -0.0000211781   0.0000214635
        0.0000184864   0.0000085485   0.0000270703  -0.0000213143   0.0000103860
       -0.0000297303   0.0000469111  -0.0000192155  -0.0000095302  -0.0000276339
       -0.0000052940   0.0000067774   0.0000142690   0.0000109621   0.0000257050
       -0.0000338905  -0.0000099416  -0.0000308041  -0.0000072130  -0.0000128792
       -0.0000074653   0.0000402360   0.0000049249   0.0000205497  -0.0000895187
       -0.0000434570   0.0002958796  -0.0001665977  -0.0000018426  -0.0001269031
       -0.0002375849  -0.0001480510   0.0005905479   0.0002526397   0.0001201373
        0.0013384482  -0.0015933392  -0.0001943003   0.0002870045   0.0002899289
       -0.0000660792  -0.0000756745  -0.0001200963   0.0000657023   0.0000422935
        0.0000249328   0.0000167441   0.0000242132  -0.0000022762  -0.0000219150
        0.0000088913  -0.0000015742  -0.0000450424  -0.0000929825  -0.0001248839
        0.0000528130  -0.0025666129  -0.0012485952   0.0009339387   0.0165374245
       -0.0191771028   0.0023535107  -0.0432673528  -0.0415169988   0.0286611900
       -0.0264960708   0.0277996097  -0.0027783849  -0.0011563792  -0.0024936195
        0.0036548502  -0.0113454021   0.0272250397  -0.0054413890  -0.1445196613
       -0.1053840274   0.0715665473  -0.0000545609  -0.0001524555   0.0000656300
        0.0000266365  -0.0000251536  -0.0000267577   0.0000162360   0.0000277638
       -0.0000189978  -0.0000002494   0.0000417711  -0.0000508895   0.0001027151
        0.0000289768   0.0000063571  -0.0001021163  -0.0000754774  -0.0000518124
       -0.0000377502   0.0000425809  -0.0000760182  -0.0000400614  -0.0000160283
       -0.0000442099   0.0000014922  -0.0000059351   0.0000047938  -0.0000001604
       -0.0000051316  -0.0000040907  -0.0000015500   0.0000136490   0.0000032026
       -0.0000118322  -0.0000071675  -0.0000053345   0.0000046015  -0.0000031704
       -0.0000022263  -0.0000012769   0.0000013151   0.0000031808   0.0000016487
       -0.0000095883   0.0000112928  -0.0000003006   0.0000086590   0.0000091560
       -0.0000064197   0.0000077927   0.0000066778   0.0000067447   0.0000037737
        0.0000048822  -0.0000040038   0.0000056920  -0.0000030555   0.0000099266
        0.0000019209  -0.0000151699  -0.0000082768   0.0000175425  -0.0000155303