102
 energy: -170.230860993218 gnorm: 0.000056685658 xtb: 6.7.1 (edcfbbe)
C           10.32027798525115       -2.87485852856849       -2.19802656332366
C            8.96120553169867       -3.05154002040419       -2.01789856315729
C            8.21216006319631       -2.09799496119302       -1.34781625374308
C            8.81370923229143       -0.95172667836855       -0.83802675500887
C           10.18957882406868       -0.77099978266147       -1.04707240130997
C           10.93230934859418       -1.72745762851714       -1.71574159411757
O           10.85539293611045        0.35035869441199       -0.61623867830837
C           10.12301328506597        1.31135021475281        0.03693056603258
C           10.80179848614867        2.43845871261336        0.46405102061040
C           10.12977272421791        3.44067739431259        1.14788644763029
C            8.78010699496881        3.30121316478143        1.41161864659933
C            8.09449791770239        2.17499609624296        0.98617154284020
C            8.74801220181983        1.16991095735461        0.28018201165197
N            8.09002021000459        0.02613448580360       -0.16225373263648
C            6.70634368622899       -0.14980500789404        0.08797257286939
C            6.27829164346556       -1.12892599650230        0.98421374194819
C            4.93559482971877       -1.30024206297353        1.23162182343752
C            3.98386792421695       -0.49657858940689        0.58679864329967
C            2.58289014222587       -0.67693842715514        0.84427103910739
N            2.19498000573029       -1.60889858313619        1.78375831127908
N            0.95915109078199       -1.87111943691925        1.91177960943801
C           -0.01191717222484       -1.26848328031224        1.28058196887252
C           -1.34535209390953       -1.82628338649280        1.35192683866447
C           -1.78587096379466       -2.44747105509914        2.52679417301880
C           -3.04573845814007       -2.99938890708125        2.60229872198408
C           -3.89472974332864       -2.96100883638378        1.49695547700565
N           -5.19211145092502       -3.52001937041773        1.57422178927778
C           -5.36190251361581       -4.88882685717822        1.77627337569401
C           -4.28659989085843       -5.76872437866964        1.84392104519893
C           -4.49084643040748       -7.12390456824205        2.04819568427488
C           -5.77133706917010       -7.62745658454033        2.17600598252703
C           -6.85644093487687       -6.76890965873576        2.08158966569109
C           -6.65832114810151       -5.41527451324514        1.87724073422874
O           -7.78060392517528       -4.63064686722953        1.76737799843916
C           -7.59585165523045       -3.28797716460859        1.54410058439792
C           -8.73354593046234       -2.50968606077351        1.42696872776048
C           -8.62704253693832       -1.14125148661921        1.22845181337763
C           -7.37628246910768       -0.55752403175933        1.16463894069369
C           -6.23351438552520       -1.33297944304559        1.27864185788346
C           -6.32049460797750       -2.71039929961016        1.45266980417314
C           -3.45425435955874       -2.37349102917232        0.31281405697092
C           -2.19914749886351       -1.81050171448393        0.24092397419891
C            0.38002051128677       -0.11579315158298        0.44582506289576
C           -0.54385951789826        0.85198708544872       -0.07308560251621
C           -1.76832876775594        1.13015503114869        0.56153909746563
C           -2.62615006584064        2.07557963934928        0.05012087997073
C           -2.30162630811215        2.76875715295673       -1.11575195206737
N           -3.20437009070112        3.71503313165186       -1.65802572594898
C           -4.44192162727401        3.30787703795204       -2.15043243979779
C           -4.83806757952613        1.97404423962998       -2.15651588734452
C           -6.07874085600754        1.60424934644226       -2.65005151665268
C           -6.94395791520724        2.55683915517332       -3.15375386329449
C           -6.55535322579802        3.88798632361238       -3.18066299195599
C           -5.31660598728471        4.26240916781343       -2.69194475971448
O           -4.98902410200372        5.59377783147006       -2.77758061411235
C           -3.76945355350590        5.97975109854740       -2.27673175651868
C           -3.46039015427800        7.32629837401062       -2.34312295561115
C           -2.25858623925438        7.79290659500066       -1.83161574837296
C           -1.37907109290062        6.90602119487641       -1.24009981257423
C           -1.68242760987908        5.55586307728712       -1.17274696838669
C           -2.87037655074980        5.06602157042054       -1.70607709596960
C           -1.07775942691880        2.52373988244790       -1.74084366336515
C           -0.21119408379257        1.59109170093673       -1.22301946004163
N            1.67489307199197        0.04247721753056        0.22555138967266
C            4.42563403777928        0.48591255473666       -0.31249098673826
C            5.76815867554251        0.65631379572374       -0.55785529569984
H           10.90712891259445       -3.61660760732674       -2.71628295132525
H            8.47121453403398       -3.93356492568753       -2.40062145618701
H            7.15047521354221       -2.23832533882371       -1.21960921737884
H           11.98803298531469       -1.55282638798666       -1.85149475619435
H           11.85740467667630        2.51024325903879        0.25428821602435
H           10.66617151628297        4.31734513183772        1.47492088982654
H            8.24900079361865        4.06780301288558        1.95454176705361
H            7.04421162732576        2.06834903845946        1.20665271472426
H            7.01087696090847       -1.74658770531846        1.48310877170868
H            4.59186227468096       -2.05013304691424        1.92715114152664
H           -1.12592391436184       -2.47444126444151        3.38062123858986
H           -3.38537112749128       -3.45930330407356        3.51872376705792
H           -3.28340125259718       -5.38928866149003        1.73118769543123
H           -3.63791610961598       -7.78276821670722        2.10211153970786
H           -5.93469539649094       -8.68097016856682        2.33902825282595
H           -7.86954108918407       -7.13091813731023        2.15964168086597
H           -9.69388313390393       -2.99560197114402        1.49893926628438
H           -9.51904745843200       -0.54218695572596        1.13605593869551
H           -7.27891100183855        0.50834108169541        1.02691240050646
H           -5.26317023490892       -0.86513744378441        1.24021210220200
H           -4.10170586583740       -2.37062777947783       -0.55179745381657
H           -1.85853609781439       -1.37851739637617       -0.68800030286179
H           -2.01983660651182        0.62627625196083        1.48215385868422
H           -3.55662041598216        2.29438316276124        0.55385993178181
H           -4.16549644822766        1.22186751966828       -1.77691837700255
H           -6.36226598594352        0.56310059539317       -2.63785713638179
H           -7.91234958678489        2.27369743129020       -3.53476187453018
H           -7.19838500793914        4.65443941246917       -3.58380734490627
H           -4.17715611803521        7.99347284464943       -2.79551784204719
H           -2.02379821808904        8.84392432391175       -1.88994412944598
H           -0.44852088206177        7.25838865380044       -0.82240712151850
H           -0.99513105450971        4.87346793409220       -0.69829175537255
H           -0.82182047306579        3.06758479667523       -2.63866786336423
H            0.73234603912984        1.39334548766675       -1.70804007243871
H            3.69182293548357        1.10300788582224       -0.80740805873530
H            6.10704188583152        1.41074224335503       -1.25289202019031
