$hessian                                                                        
        0.8827015514   0.6051713278   0.0568085606  -0.8514409974  -0.5710722038
       -0.0529477425  -0.0327932892  -0.0349294226  -0.0039708989  -0.0018778671
        0.0060301071   0.0061133359  -0.0032759769  -0.0016499808  -0.0006875265
        0.0027082803   0.0017212257   0.0000107467  -0.0007121505  -0.0007610610
        0.0000752574   0.0005325582  -0.0002855716  -0.0003010473  -0.0001342530
       -0.0003053161   0.0000113708   0.0003006938   0.0002092885   0.0000028935
       -0.0002950282  -0.0000252106  -0.0000733112  -0.0001141678   0.0005477428
        0.0003528392  -0.0000384663   0.0001459558  -0.0000394427  -0.0000314643
       -0.0000276333   0.0000372947   0.0000328846  -0.0000100329   0.0000119906
       -0.0001575676   0.0000617770   0.0000033777   0.0000790322  -0.0000199754
        0.0000315259  -0.0000759080   0.0000407750  -0.0000125633   0.0001462183
       -0.0000749658  -0.0000091012  -0.0002761907   0.0001150874   0.0000088087
        0.0001917287  -0.0000587943  -0.0000017208  -0.0000612479   0.0000176785
       -0.0000044591   0.0000843249  -0.0000376540  -0.0000152402  -0.0000192047
       -0.0000252176  -0.0000289486   0.0000424900   0.0000043680   0.0000081642
       -0.0000850805  -0.0000229933   0.0000010783   0.0002999413   0.0002364600
        0.0000182416  -0.0001142932  -0.0002040746   0.0000024369   0.0000467251
       -0.0000447047  -0.0000021860   0.0000067146  -0.0001056493  -0.0000408276
        0.0000287875  -0.0000115291   0.0000053664  -0.0000044424   0.0000386285
       -0.0000066792  -0.0000300240   0.0000285662  -0.0000272113   0.0000725368
       -0.0000092362   0.0000049160  -0.0000352769   0.0000009396   0.0000008660
        0.0000311769   0.0000300429  -0.0000165718  -0.0000503948   0.0000504896
       -0.0000083563   0.0001911229  -0.0000060720   0.0000009736  -0.0002031348
        0.0000059144  -0.0000004683   0.0000381605  -0.0000815736   0.0000142648
        0.0000002254   0.0000164083  -0.0000197984   0.0000098325  -0.0000130682
        0.0000074182  -0.0000040073   0.0000001021   0.0000016985   0.0000098371
       -0.0000082074  -0.0000000920  -0.0000144291   0.0000111405  -0.0000071551
        0.0000452966   0.0000803295  -0.0000168717  -0.0000005394  -0.0000160102
        0.0000190421   0.0000109366   0.0000115027  -0.0000075543  -0.0000046199
       -0.0000018718  -0.0000011991   0.0000105589   0.0000077118  -0.0000014388
       -0.0000152318  -0.0000098792   0.0000061225  -0.0000505201  -0.0000478608
        0.0000070259   0.0000248408  -0.0000330467   0.0000163271  -0.0000119233
       -0.0000238684   0.0000287778  -0.0000110579  -0.0000284312  -0.0000010264
       -0.0004131320  -0.0002531300   0.0000083773   0.0000720334   0.0002222716
        0.0000043712  -0.0000213570  -0.0000508612   0.0000124138   0.0000108116
        0.0000211175   0.0000176110   0.0000020245   0.0000086144  -0.0000036602
        0.0000064368   0.0000369650  -0.0000137666  -0.0000239000  -0.0000491682
        0.0000030967  -0.0023047927  -0.0020176910  -0.0011191325   0.0073869979
       -0.0017783435  -0.0041784088   0.0001811502  -0.0004045081  -0.0001111396
       -0.0004892233  -0.0003578122  -0.0001378461   0.0000807530  -0.0000022516
        0.0000491780  -0.0000602084  -0.0000037199   0.0000283948   0.0000097581
        0.0001118080  -0.0000527387  -0.0000369004   0.0000617802  -0.0000057244
       -0.0000175528   0.0000147052  -0.0000206827   0.0000239065   0.0000015980
        0.0000217102   0.0000138273  -0.0000172292  -0.0000130363  -0.0000076833
        0.0000026482   0.0000087187  -0.0000026762  -0.0000392240   0.0000002624
       -0.0000068828  -0.0000328944  -0.0000056231   0.0000071470  -0.0000034544
       -0.0000063352  -0.0000159164  -0.0000128911   0.0000127518   0.0000046443
        0.0000046942   0.0000077060  -0.0000087265  -0.0000098754  -0.0000015444
       -0.0000019813   0.0000028590   0.0000061405   0.0000012294   0.0000021027
       -0.0000035562  -0.0000047348   0.0000067755  -0.0000034379  -0.0000070955
        0.0000045071   0.0000031646  -0.0000012113  -0.0000022670   0.0000023918
       -0.0000019997  -0.0000028176  -0.0000067588   0.0000010923  -0.0000024201
        0.0000031190  -0.0000040339  -0.0000065593   0.0000024692  -0.0000066760
       -0.0000048463  -0.0000037100  -0.0000003692   0.0000016543  -0.0000025548
       -0.0000096981   0.0000108700   0.0000012656   0.0000049093  -0.0000037785
       -0.0000074022  -0.0000134794   0.0000130172  -0.0000112448   0.0000117522
       -0.0000038881   0.0000135648   0.0000054628   0.0000069743   0.0000022256
       -0.0000137488  -0.0000157605  -0.0000133771  -0.0000088114  -0.0000202609
       -0.0000010757   0.0000023630  -0.0000175553   0.0000120094   0.0000043654
        0.0000085153  -0.0000124053  -0.0002413591  -0.0001738442   0.0000161922
        0.0001857842   0.0001111209   0.0001367436
        0.6051713278   0.4394564778   0.0394156905  -0.5710942586  -0.4330712845
       -0.0381701071  -0.0349081578  -0.0073328874  -0.0012940970   0.0009467233
        0.0055372993   0.0027523082  -0.0017078245  -0.0011032377   0.0011545471
        0.0017053458   0.0014293038   0.0002745537  -0.0006288146  -0.0003012023
       -0.0002124899   0.0003141220  -0.0002787472  -0.0002267567  -0.0000999039
       -0.0001811923   0.0000259107   0.0002149319   0.0001286401   0.0000028530
       -0.0002320432   0.0000018072  -0.0000262463   0.0000098681   0.0004094715
        0.0002297470  -0.0000330618   0.0000884944  -0.0000274751  -0.0000030743
       -0.0000120933   0.0000187089   0.0000133267  -0.0000046377   0.0000075176
       -0.0000771286   0.0000316919   0.0000009325   0.0000336684  -0.0000098225
        0.0000265325  -0.0000307818   0.0000203702   0.0000061258   0.0000829529
       -0.0000435967  -0.0000062880  -0.0001602101   0.0000816588   0.0000067235
        0.0001023811  -0.0000539571  -0.0000033071  -0.0000357072   0.0000124851
        0.0000010247   0.0000507068  -0.0000208912  -0.0000044720  -0.0000074621
       -0.0000128246  -0.0000143471   0.0000216050   0.0000058283   0.0000062348
       -0.0000417903  -0.0000182741  -0.0000019284   0.0001996289   0.0001732052
        0.0000113860  -0.0000708921  -0.0001477805   0.0000010685   0.0000134942
       -0.0000188469  -0.0000022755   0.0000045676  -0.0000767698  -0.0000284680
        0.0000247744  -0.0000070788   0.0000033978  -0.0000034423   0.0000274275
       -0.0000031349  -0.0000220510   0.0000218203  -0.0000203066   0.0000543745
       -0.0000073159   0.0000035322  -0.0000251382   0.0000019483   0.0000005978
        0.0000212806   0.0000209762  -0.0000125819  -0.0000347336   0.0000372180
       -0.0000061775   0.0001406386  -0.0000058198  -0.0000006749  -0.0001483153
        0.0000150428  -0.0000051733   0.0000311104  -0.0000651368   0.0000145317
        0.0000019329   0.0000137505  -0.0000148385   0.0000077549  -0.0000085467
        0.0000066089  -0.0000022502   0.0000024559   0.0000009671   0.0000080234
       -0.0000057007   0.0000010146  -0.0000114320   0.0000095062  -0.0000043461
        0.0000290252   0.0000531508  -0.0000083814  -0.0000006722  -0.0000095232
        0.0000126493   0.0000071002   0.0000078592  -0.0000049938  -0.0000029182
        0.0000004167  -0.0000018539   0.0000070856   0.0000049904  -0.0000001176
       -0.0000091980  -0.0000054217   0.0000040494  -0.0000375572  -0.0000345770
        0.0000053105   0.0000179615  -0.0000265928   0.0000120778  -0.0000078822
       -0.0000179544   0.0000231778  -0.0000109493  -0.0000241789   0.0000020067
       -0.0002819740  -0.0001708127   0.0000081911   0.0000506914   0.0001521535
        0.0000029757  -0.0000151311  -0.0000354554   0.0000108142   0.0000072897
        0.0000143901   0.0000132802   0.0000007760   0.0000066715  -0.0000030992
        0.0000035606   0.0000256478  -0.0000088243  -0.0000182127  -0.0000338937
        0.0000044440  -0.0019987739  -0.0020247370   0.0007908871   0.0032909246
       -0.0028208304  -0.0047107723   0.0001234800   0.0002799641  -0.0001149978
       -0.0000941552  -0.0001029280   0.0000028084   0.0000376485  -0.0000000204
        0.0000368470  -0.0000528274  -0.0000053334   0.0000181992   0.0000147563
        0.0000947374  -0.0000350652  -0.0000225005   0.0000361373   0.0000000312
        0.0000013299   0.0000053710  -0.0000206896   0.0000029304   0.0000058457
        0.0000021579   0.0000073504  -0.0000127628  -0.0000111107  -0.0000068829
       -0.0000010645   0.0000012562  -0.0000030301  -0.0000255662  -0.0000008393
       -0.0000067576  -0.0000232170  -0.0000049968   0.0000057092  -0.0000018700
       -0.0000062704  -0.0000114072  -0.0000093337   0.0000087722   0.0000036799
        0.0000043824   0.0000056225  -0.0000059327  -0.0000062418  -0.0000011539
       -0.0000006822   0.0000021881   0.0000043805   0.0000016700   0.0000026790
       -0.0000036040  -0.0000033524   0.0000063615  -0.0000026878  -0.0000049184
        0.0000042460   0.0000024288  -0.0000003811  -0.0000010374   0.0000011997
       -0.0000008891  -0.0000019763  -0.0000047767   0.0000008294  -0.0000013410
        0.0000013609  -0.0000027114  -0.0000039853   0.0000010451  -0.0000045412
       -0.0000024206  -0.0000031935  -0.0000002034   0.0000020997  -0.0000026615
       -0.0000078903   0.0000094551   0.0000013657   0.0000048904  -0.0000014486
       -0.0000049486  -0.0000118930   0.0000108851  -0.0000095900   0.0000103874
       -0.0000033283   0.0000088341   0.0000043713   0.0000048053   0.0000002205
       -0.0000096187  -0.0000114915  -0.0000104497  -0.0000058493  -0.0000143266
       -0.0000016484   0.0000021588  -0.0000118756   0.0000067521   0.0000039479
        0.0000041017  -0.0000104908  -0.0004038658  -0.0003105140   0.0000776977
       -0.0003920624   0.0002782857   0.0000293504
        0.0568085606   0.0394156905   0.0203840612  -0.0528950983  -0.0381311503
       -0.0373916501  -0.0039668297  -0.0013247200   0.0166472067   0.0022282825
        0.0003791606   0.0005053672  -0.0005355175   0.0012358706  -0.0004620190
        0.0000125910   0.0003324918   0.0002446958   0.0000416601  -0.0002023945
        0.0002536491   0.0000886879   0.0000068692  -0.0000123333  -0.0000015642
       -0.0000458057  -0.0000114687   0.0000093598   0.0000353851   0.0000006657
       -0.0000005058  -0.0000057714  -0.0000235512  -0.0000549278   0.0000012168
        0.0000327996  -0.0000053868   0.0000008947  -0.0000027575  -0.0000015640
       -0.0000014869   0.0000084737   0.0000010084  -0.0000053566  -0.0000001006
       -0.0000122543   0.0000057035  -0.0000013167   0.0000098842  -0.0000117001
       -0.0000038504  -0.0000104423  -0.0000011550  -0.0000051825   0.0000056423
       -0.0000024549  -0.0000009990  -0.0000097334   0.0000063156  -0.0000064356
        0.0000062905  -0.0000043805   0.0000107264  -0.0000026600   0.0000011734
        0.0000030317   0.0000042413  -0.0000037330   0.0000012845  -0.0000017127
       -0.0000000808  -0.0000001813   0.0000045611   0.0000006437   0.0000019343
       -0.0000039025  -0.0000054285   0.0000001108   0.0000221771   0.0000187054
        0.0000006239  -0.0000132475  -0.0000151225  -0.0000007153   0.0000062455
       -0.0000064316   0.0000091927   0.0000020335  -0.0000034648  -0.0000085250
        0.0000036016  -0.0000012740   0.0000005126  -0.0000014070   0.0000036309
        0.0000000706  -0.0000030380   0.0000039801  -0.0000021132   0.0000035794
       -0.0000008414   0.0000000480  -0.0000032015  -0.0000002298   0.0000003491
        0.0000043151   0.0000048733  -0.0000000638  -0.0000026855   0.0000021485
       -0.0000002664   0.0000210062  -0.0000008242  -0.0000000016  -0.0000135312
       -0.0000023655   0.0000032751  -0.0000023250   0.0000025177  -0.0000045289
        0.0000008550   0.0000008267  -0.0000035709  -0.0000016106   0.0000004079
        0.0000001974   0.0000014940  -0.0000033340   0.0000016079   0.0000015579
        0.0000020251  -0.0000036306  -0.0000012932   0.0000014648   0.0000013406
        0.0000003565   0.0000019602   0.0000002119   0.0000003867  -0.0000010964
        0.0000045128  -0.0000020582   0.0000004640  -0.0000004443   0.0000016546
        0.0000032481  -0.0000001355   0.0000017299   0.0000001429   0.0000031874
       -0.0000038743  -0.0000023490   0.0000004332  -0.0000030863  -0.0000018630
        0.0000019072   0.0000042002  -0.0000053707   0.0000014791  -0.0000026596
       -0.0000020256   0.0000025728   0.0000008405   0.0000010603  -0.0000015322
       -0.0000315708  -0.0000196733   0.0000024618   0.0000051780   0.0000167449
       -0.0000042067  -0.0000033645  -0.0000044309   0.0000003702   0.0000009764
        0.0000017768   0.0000032245   0.0000003327   0.0000016402   0.0000007578
       -0.0000009403   0.0000018596  -0.0000013745  -0.0000031481  -0.0000040041
       -0.0000007014  -0.0012724867   0.0006415742  -0.0005502561  -0.0003565022
       -0.0023180578  -0.0003419556   0.0002152483   0.0000909415   0.0003960419
        0.0001289035   0.0001832637  -0.0000157214   0.0000135148  -0.0000017920
       -0.0000026071  -0.0000027942   0.0000009429  -0.0000003633   0.0000028874
       -0.0000032932  -0.0000067904  -0.0000013827   0.0000033858  -0.0000084699
       -0.0000048856   0.0000036385  -0.0000021795   0.0000062845  -0.0000006648
       -0.0000004276   0.0000009345   0.0000018425   0.0000009613   0.0000020694
        0.0000030071   0.0000028295   0.0000003218  -0.0000027075  -0.0000007414
       -0.0000000656  -0.0000018437  -0.0000008480   0.0000014186  -0.0000020829
        0.0000003632  -0.0000018014  -0.0000022640   0.0000019336  -0.0000001197
       -0.0000001205   0.0000006750  -0.0000010140  -0.0000002204   0.0000004487
       -0.0000009558  -0.0000003201   0.0000008969   0.0000002191  -0.0000015203
        0.0000001387  -0.0000003981  -0.0000000869  -0.0000008161  -0.0000007469
       -0.0000001363   0.0000005639   0.0000001979  -0.0000003809   0.0000005945
        0.0000005055   0.0000009057  -0.0000004764   0.0000010345   0.0000005700
        0.0000019305  -0.0000003316  -0.0000003336   0.0000020722  -0.0000000902
        0.0000002555   0.0000008041   0.0000009024  -0.0000001329   0.0000013518
       -0.0000011724   0.0000006684  -0.0000008500   0.0000000790   0.0000004686
       -0.0000018846   0.0000001402   0.0000001422  -0.0000018095   0.0000008194
       -0.0000014862  -0.0000006392   0.0000015446  -0.0000005277   0.0000011305
       -0.0000003824  -0.0000013040   0.0000002000  -0.0000003560  -0.0000020961
        0.0000016593   0.0000006563  -0.0000021985   0.0000029723   0.0000016994
        0.0000014688   0.0000004917  -0.0002484257  -0.0000852330  -0.0000346274
       -0.0001936191  -0.0001748462   0.0003747173
       -0.8514409974  -0.5710942586  -0.0528950983   1.0979607862   0.7012189024
        0.0576693107  -0.1984540731  -0.0990912242  -0.0074759599  -0.0076807539
       -0.0245559666  -0.0154671829   0.0087292160   0.0009017418   0.0007411038
       -0.0050816721  -0.0029258808   0.0001543608   0.0013237375   0.0017518656
       -0.0004438441  -0.0009829979   0.0004997129   0.0005168201   0.0002437468
        0.0005744031  -0.0000096566  -0.0005091433  -0.0003958191  -0.0000060485
        0.0005003401   0.0000474049   0.0001656244   0.0002811751  -0.0008605798
       -0.0006337784   0.0000749989  -0.0002401924   0.0000679195   0.0000354080
        0.0000443155  -0.0000555194  -0.0000493601   0.0000305023  -0.0000157655
        0.0002447937  -0.0000922375   0.0000029596  -0.0001184186   0.0000257982
       -0.0000542285   0.0001019858  -0.0000573583   0.0000135649  -0.0002195795
        0.0001111730   0.0000171633   0.0004104657  -0.0001789745  -0.0000170068
       -0.0002786691   0.0000964765   0.0000028432   0.0000941198  -0.0000324872
        0.0000004145  -0.0001347369   0.0000581718   0.0000211510   0.0000318590
        0.0000264127   0.0000420917  -0.0000802131  -0.0000121799  -0.0000131940
        0.0001514105   0.0000400392  -0.0000047963  -0.0004860033  -0.0004105860
       -0.0000287747   0.0001694055   0.0003761429  -0.0000055084  -0.0000707808
        0.0000428153  -0.0000014292  -0.0000084672   0.0002013825   0.0000661088
       -0.0000519485   0.0000176905  -0.0000101222   0.0000132506  -0.0000591877
        0.0000076265   0.0000450311  -0.0000501605   0.0000459784  -0.0001122522
        0.0000161431  -0.0000089861   0.0000536297  -0.0000012333  -0.0000008844
       -0.0000463817  -0.0000510669   0.0000260469   0.0000720410  -0.0000783513
        0.0000132155  -0.0003037797   0.0000137192  -0.0000001651   0.0003166922
       -0.0000186926   0.0000052956  -0.0000582643   0.0001259093  -0.0000231061
       -0.0000024832  -0.0000263233   0.0000317561  -0.0000122012   0.0000168529
       -0.0000127093   0.0000039197   0.0000001784  -0.0000032731  -0.0000179961
        0.0000120130   0.0000021560   0.0000236739  -0.0000195987   0.0000098035
       -0.0000647434  -0.0001161909   0.0000197998   0.0000016392   0.0000239285
       -0.0000294434  -0.0000133772  -0.0000169522   0.0000137283   0.0000034346
       -0.0000023790   0.0000048503  -0.0000176638  -0.0000101264  -0.0000016900
        0.0000227526   0.0000153712  -0.0000081213   0.0000815163   0.0000707902
       -0.0000119547  -0.0000439570   0.0000540428  -0.0000261190   0.0000243852
        0.0000371475  -0.0000468763   0.0000184294   0.0000427530   0.0000024717
        0.0006653741   0.0003826951  -0.0000135693  -0.0001132619  -0.0003545216
       -0.0000066191   0.0000347414   0.0000815382  -0.0000180373  -0.0000165904
       -0.0000320590  -0.0000286507  -0.0000038326  -0.0000151475   0.0000056145
       -0.0000087253  -0.0000566456   0.0000225006   0.0000393602   0.0000787958
       -0.0000059558   0.0011314372   0.0048942944   0.0069932014  -0.0467209961
       -0.0130531547   0.0116397503   0.0000695751   0.0023349139   0.0003119234
        0.0003995971   0.0002940795   0.0002743705  -0.0000850908  -0.0000554934
       -0.0000651644   0.0000951070  -0.0000031477  -0.0000558300  -0.0000347723
       -0.0001661081   0.0000693169   0.0000503490  -0.0000887718   0.0000061831
        0.0000219750  -0.0000210750   0.0000342773  -0.0000291711  -0.0000032799
       -0.0000283081  -0.0000205049   0.0000251135   0.0000199378   0.0000111886
       -0.0000039950  -0.0000140423   0.0000034166   0.0000580901   0.0000000145
        0.0000099922   0.0000494794   0.0000082848  -0.0000135094   0.0000051406
        0.0000097157   0.0000226455   0.0000195179  -0.0000196357  -0.0000080285
       -0.0000062425  -0.0000114120   0.0000126409   0.0000134421   0.0000024179
        0.0000017649  -0.0000047128  -0.0000093377  -0.0000033118  -0.0000041852
        0.0000058749   0.0000068276  -0.0000114616   0.0000056462   0.0000101836
       -0.0000074350  -0.0000053426   0.0000007187   0.0000031070  -0.0000027695
        0.0000015741   0.0000033875   0.0000102517  -0.0000026139   0.0000033731
       -0.0000042140   0.0000061429   0.0000100403  -0.0000034096   0.0000094899
        0.0000060749   0.0000070736   0.0000000191  -0.0000038070   0.0000048105
        0.0000146460  -0.0000165961  -0.0000017937  -0.0000085020   0.0000038633
        0.0000114174   0.0000186802  -0.0000198387   0.0000170508  -0.0000190479
        0.0000057786  -0.0000202388  -0.0000090396  -0.0000112980  -0.0000024651
        0.0000197737   0.0000228423   0.0000201598   0.0000123770   0.0000295687
        0.0000022212  -0.0000050127   0.0000256489  -0.0000174566  -0.0000105238
       -0.0000130689   0.0000177457  -0.0007415265  -0.0004380190  -0.0000660996
        0.0004915350  -0.0000565133  -0.0014523309
       -0.5710722038  -0.4330712845  -0.0381311503   0.7012189024   0.5826319675
        0.0574111399  -0.0990985373  -0.1254517111  -0.0089503299  -0.0246164179
       -0.0310594317  -0.0117084533   0.0026072922   0.0000108733  -0.0075102050
       -0.0028926559  -0.0028607799  -0.0007087446   0.0014898918   0.0002403340
        0.0009179683  -0.0003952457   0.0005295252   0.0004207887   0.0001697440
        0.0002781564  -0.0000844092  -0.0003944199  -0.0001904801  -0.0000054624
        0.0004604987   0.0000233274   0.0000137175  -0.0000947391  -0.0008165724
       -0.0003848805   0.0000487395  -0.0001881484   0.0000466627   0.0000077841
        0.0000314360  -0.0000280538  -0.0000304340   0.0000103544  -0.0000111075
        0.0001411027  -0.0000562839   0.0000001142  -0.0000691030   0.0000132866
       -0.0000412263   0.0000572838  -0.0000339340   0.0000004280  -0.0001358304
        0.0000661949   0.0000082487   0.0002574922  -0.0001207613  -0.0000118131
       -0.0001718062   0.0000747768   0.0000040976   0.0000601967  -0.0000210610
       -0.0000013352  -0.0000859538   0.0000375902   0.0000129401   0.0000260915
        0.0000163609   0.0000250631  -0.0000539541  -0.0000087972  -0.0000095123
        0.0001123111   0.0000202157   0.0000017851  -0.0003383987  -0.0002759301
       -0.0000177364   0.0000977445   0.0002564476   0.0000043425  -0.0000320275
        0.0000224490   0.0000041182  -0.0000054220   0.0001432584   0.0000433932
       -0.0000368640   0.0000120348  -0.0000069947   0.0000083961  -0.0000415285
        0.0000047003   0.0000319833  -0.0000360765   0.0000330534  -0.0000791972
        0.0000119124  -0.0000065792   0.0000374711  -0.0000021648  -0.0000006072
       -0.0000342667  -0.0000357441   0.0000188750   0.0000516840  -0.0000559675
        0.0000095016  -0.0002146352   0.0000092114   0.0000005159   0.0002235647
       -0.0000167648   0.0000049470  -0.0000436799   0.0000913209  -0.0000172735
       -0.0000020529  -0.0000204572   0.0000230931  -0.0000097730   0.0000123256
       -0.0000101967   0.0000020587  -0.0000004000  -0.0000028843  -0.0000131264
        0.0000082670   0.0000008114   0.0000172992  -0.0000154170   0.0000071278
       -0.0000443058  -0.0000805231   0.0000130295   0.0000011343   0.0000158795
       -0.0000200860  -0.0000098455  -0.0000119310   0.0000090754   0.0000031014
       -0.0000012220   0.0000031592  -0.0000121684  -0.0000078867  -0.0000002048
        0.0000151710   0.0000098419  -0.0000057557   0.0000581953   0.0000507693
       -0.0000084020  -0.0000313683   0.0000412040  -0.0000184060   0.0000170311
        0.0000269471  -0.0000344939   0.0000148931   0.0000334015   0.0000002876
        0.0004555917   0.0002650771  -0.0000114865  -0.0000788490  -0.0002463684
       -0.0000064007   0.0000234953   0.0000568107  -0.0000144212  -0.0000114134
       -0.0000216799  -0.0000203058  -0.0000020219  -0.0000107678   0.0000049131
       -0.0000059536  -0.0000397532   0.0000152216   0.0000276861   0.0000541004
       -0.0000056771   0.0032921766   0.0069391202  -0.0027516184  -0.0129497273
        0.0041677476   0.0097191674   0.0000422233  -0.0004598447   0.0016170002
       -0.0007925638  -0.0005347737  -0.0001409770  -0.0000687863  -0.0000079285
       -0.0000482836   0.0000806450   0.0000066545  -0.0000310582  -0.0000525518
       -0.0000943334   0.0000545908   0.0000274830  -0.0000472604  -0.0000051946
        0.0000050272  -0.0000111350   0.0000258816  -0.0000112405  -0.0000068265
       -0.0000116347  -0.0000118603   0.0000187626   0.0000155178   0.0000100715
        0.0000009695  -0.0000050805   0.0000027528   0.0000394716   0.0000002673
        0.0000084064   0.0000341548   0.0000074579  -0.0000096479   0.0000026223
        0.0000079582   0.0000156615   0.0000134241  -0.0000133807  -0.0000056799
       -0.0000053321  -0.0000083018   0.0000085479   0.0000088068   0.0000017045
        0.0000008846  -0.0000034550  -0.0000067545  -0.0000029183  -0.0000037182
        0.0000046855   0.0000047799  -0.0000092544   0.0000040510   0.0000069887
       -0.0000059388  -0.0000039229   0.0000003249   0.0000019670  -0.0000020237
        0.0000008881   0.0000025367   0.0000072397  -0.0000017332   0.0000022136
       -0.0000023682   0.0000040528   0.0000063544  -0.0000017421   0.0000065291
        0.0000036873   0.0000052245  -0.0000000274  -0.0000031407   0.0000037934
        0.0000109134  -0.0000125886  -0.0000016504  -0.0000070054   0.0000019594
        0.0000075707   0.0000143707  -0.0000148414   0.0000126199  -0.0000148608
        0.0000044011  -0.0000145962  -0.0000060840  -0.0000078865  -0.0000007811
        0.0000140033   0.0000163740   0.0000147246   0.0000086454   0.0000207888
        0.0000022111  -0.0000037318   0.0000176705  -0.0000111668  -0.0000077009
       -0.0000078781   0.0000135331   0.0005755266   0.0004608516  -0.0002261137
        0.0021780555  -0.0008402327   0.0004929251
       -0.0529477425  -0.0381701071  -0.0373916501   0.0576693107   0.0574111399
        0.0948620058  -0.0074177922  -0.0090106400  -0.0565487375  -0.0156773119
       -0.0119065882  -0.0022683752   0.0017369093  -0.0067707497   0.0021452915
        0.0002512947  -0.0009799254  -0.0009604022  -0.0003716419   0.0009051937
       -0.0010986184  -0.0002664905  -0.0001178691   0.0000429207   0.0000048746
        0.0001388453   0.0000617451  -0.0000150322  -0.0000779478  -0.0000092287
       -0.0000534664   0.0000306176   0.0000919110   0.0002410929   0.0000782069
       -0.0000330896   0.0000106700   0.0000025086   0.0000059665   0.0000242772
        0.0000006886  -0.0000048760  -0.0000082236   0.0000071796   0.0000001889
        0.0000198253  -0.0000070330   0.0000003173  -0.0000125987   0.0000124021
        0.0000066367   0.0000109918  -0.0000027649   0.0000035370  -0.0000144438
        0.0000059677   0.0000000856   0.0000222946  -0.0000105844   0.0000033712
       -0.0000130700   0.0000059916  -0.0000067368   0.0000064561  -0.0000010080
       -0.0000010602  -0.0000079314   0.0000045328   0.0000002526  -0.0000055306
        0.0000030873   0.0000031777   0.0000020081  -0.0000061337  -0.0000017185
       -0.0000016777   0.0000089866  -0.0000042387  -0.0000245702  -0.0000342495
       -0.0000012100   0.0000189692   0.0000378286  -0.0000045381  -0.0000125153
        0.0000044988  -0.0000055157   0.0000027783   0.0000160276   0.0000079405
       -0.0000011604   0.0000017510  -0.0000009881   0.0000011664  -0.0000048416
        0.0000009338   0.0000019636  -0.0000024473   0.0000020252  -0.0000086982
        0.0000013171  -0.0000005184   0.0000024639   0.0000001635  -0.0000002324
       -0.0000009842  -0.0000004556   0.0000012706   0.0000050382  -0.0000063164
       -0.0000005759  -0.0000121799   0.0000006547   0.0000000164   0.0000204542
        0.0000012568  -0.0000022863  -0.0000056117   0.0000115606  -0.0000027755
       -0.0000001635  -0.0000002078  -0.0000002400  -0.0000035763   0.0000021581
        0.0000013412   0.0000021429  -0.0000024011   0.0000011207  -0.0000006290
        0.0000020702  -0.0000019938  -0.0000008262  -0.0000002043   0.0000020377
       -0.0000098053  -0.0000145837   0.0000052013   0.0000009128   0.0000013450
       -0.0000007949  -0.0000033003  -0.0000032689  -0.0000000104   0.0000016382
        0.0000020465  -0.0000026386  -0.0000005048  -0.0000025459   0.0000015715
        0.0000006449  -0.0000002830  -0.0000019956   0.0000054519   0.0000059000
       -0.0000002756  -0.0000006758   0.0000007079  -0.0000020284   0.0000010179
        0.0000013958  -0.0000022995  -0.0000004380   0.0000006768   0.0000013619
        0.0000431404   0.0000268742  -0.0000005606  -0.0000075882  -0.0000241783
        0.0000002608   0.0000029193   0.0000042042   0.0000000795  -0.0000002986
       -0.0000019307  -0.0000009595  -0.0000003875  -0.0000000227  -0.0000015048
       -0.0000011107  -0.0000051455   0.0000013077   0.0000038811   0.0000058893
        0.0000027146   0.0059054005  -0.0032385165   0.0028642647   0.0118904953
        0.0098500138   0.0014543390  -0.0013059122   0.0006368006  -0.0015900888
       -0.0007346478  -0.0007863248  -0.0000196321  -0.0000550799   0.0000116000
       -0.0000268866  -0.0000089319  -0.0000053195  -0.0000087387   0.0000032562
        0.0000444738  -0.0000263195  -0.0000020497   0.0000032569   0.0000037971
        0.0000046885  -0.0000021748  -0.0000004021  -0.0000069451   0.0000013750
       -0.0000008153  -0.0000011961  -0.0000004242  -0.0000006460  -0.0000010163
       -0.0000018996  -0.0000028993  -0.0000005989   0.0000036374  -0.0000000175
        0.0000000533   0.0000037484  -0.0000005026  -0.0000010039   0.0000013132
       -0.0000001005   0.0000018370   0.0000015558  -0.0000015617  -0.0000010417
       -0.0000007722  -0.0000009151   0.0000004111   0.0000013586  -0.0000001216
        0.0000001962  -0.0000003941   0.0000001484   0.0000003711   0.0000003011
        0.0000003640   0.0000001303  -0.0000000010   0.0000006953   0.0000008162
       -0.0000010704   0.0000000836   0.0000006694  -0.0000000777  -0.0000009997
       -0.0000006441  -0.0000001623  -0.0000002865  -0.0000000473   0.0000000785
       -0.0000017598   0.0000001915   0.0000000059  -0.0000013824   0.0000005604
        0.0000006893  -0.0000010029   0.0000002904   0.0000000470  -0.0000001773
        0.0000004462  -0.0000017723   0.0000004024  -0.0000013273   0.0000003313
        0.0000016452   0.0000001658  -0.0000002622   0.0000014463  -0.0000010921
        0.0000010999  -0.0000004790  -0.0000012332   0.0000004781  -0.0000015347
        0.0000006092   0.0000015419  -0.0000003258   0.0000007179   0.0000019951
       -0.0000010171  -0.0000002892   0.0000027255  -0.0000027017  -0.0000014372
       -0.0000014382  -0.0000002612   0.0009418341   0.0004033958   0.0000777548
        0.0001647416   0.0014895457  -0.0016072820
       -0.0327932892  -0.0349081578  -0.0039668297  -0.1984540731  -0.0990985373
       -0.0074177922   0.5811290327   0.1196369471  -0.1285900650  -0.0777161828
       -0.0213777478  -0.0022955556   0.0145380363  -0.0166116878  -0.0195554493
       -0.0056155304   0.0227731414   0.0171529242  -0.0028388437  -0.0018956826
       -0.0003173863   0.0009525475  -0.0004690688  -0.0007516524  -0.0001983292