$hessian                                                                        
        0.6564907317   0.0070777292  -0.0913098309  -0.0955569399   0.0544263611
        0.0185153138   0.0180393606   0.0289754588   0.0029712705  -0.0068288605
       -0.0273610719  -0.0049903482  -0.0021307251   0.0007801959   0.0006405604
        0.0004161661  -0.0007905876  -0.0000759846  -0.0003702201  -0.0000783718
        0.0001670585   0.0001123288   0.0000079400  -0.0001108150   0.0000138906
        0.0000279885  -0.0000094163   0.0000168181  -0.0000012269  -0.0000002452
        0.0000032733   0.0000163404   0.0000014085   0.0000075682   0.0000035295
       -0.0000071955  -0.0000120930  -0.0000042535   0.0000051967  -0.0000040384
       -0.0000016506   0.0000017215   0.0000005382  -0.0000003654  -0.0000025624
       -0.0000000007  -0.0000011830   0.0000037748  -0.0000070977  -0.0000052314
        0.0000001197  -0.0000015764  -0.0000006780  -0.0000044065   0.0000008804
        0.0000009639   0.0000003210  -0.0000118068   0.0000008559   0.0000091511
        0.0000193555   0.0000011955  -0.0000154165  -0.0000064578  -0.0000170403
       -0.0000033719  -0.0000216699   0.0000014918  -0.0000020895   0.0000112452
        0.0000005014   0.0000021983  -0.0000153257   0.0000103799  -0.0000039007
        0.0000027667   0.0000003403   0.0000010894   0.0000034465  -0.0000030640
        0.0000002714   0.0000005494   0.0000102317   0.0000012736  -0.0000057631
        0.0000083133  -0.0000010467  -0.0000040608  -0.0000020223  -0.0000016221
       -0.0000040528  -0.0000049670  -0.0000026139   0.0000052317   0.0000089623
        0.0000018530  -0.0000032818  -0.0000015222   0.0000000110   0.0000005394
       -0.0000010159   0.0000027850  -0.0000029344  -0.0000017202  -0.0000008858
        0.0000000074   0.0000015745   0.0000017081  -0.0000016848  -0.0000000556
       -0.0000017021  -0.0000002069   0.0000001886   0.0000002707  -0.0000009348
        0.0000010364  -0.0000003273  -0.0000007770   0.0000002095   0.0000003564
       -0.0000012845   0.0000010197   0.0000000515  -0.0000019546   0.0000000458
       -0.0000004428  -0.0000010297  -0.0000005121  -0.0000000355  -0.0000002641
        0.0000004713   0.0000006527   0.0000009674   0.0000005590   0.0000007679
       -0.0000007922  -0.0000004349   0.0000005125  -0.0000012395   0.0000008824
       -0.0000004225  -0.0000025653  -0.0000000234   0.0000003073  -0.0000005579
       -0.0000014211   0.0000017714  -0.0000005532  -0.0000002152   0.0000002028
        0.0000011188   0.0000000953   0.0000002587  -0.0000006999  -0.0000008095
        0.0000012224  -0.0000028093  -0.0000001964  -0.0000007032   0.0000012989
        0.0000029622   0.0000003268  -0.0000004637   0.0000078952   0.0000004931
        0.0000207086  -0.0000035709   0.0000064801  -0.0001329323   0.0001910496
       -0.0001138943   0.0004656793   0.0003527751   0.0001444099  -0.0662735158
        0.0177636294   0.0144490062  -0.2506954424  -0.1511851886   0.0058033600
       -0.2460492005   0.0902333845   0.0535244942   0.0000394347  -0.0247284060
       -0.0046172050  -0.0042584029   0.0026816726   0.0025323783   0.0000220405
        0.0000585110   0.0000580378   0.0000357950  -0.0000001208   0.0000295892
        0.0000141150  -0.0000009113   0.0000040760  -0.0000021885  -0.0000014629
       -0.0000009393  -0.0000007093   0.0000014950  -0.0000014333  -0.0000006912
        0.0000001240  -0.0000017785   0.0000009888   0.0000013442  -0.0000000963
       -0.0000010697   0.0000002601   0.0000017802   0.0000012952   0.0000018121
        0.0000015982  -0.0000053942  -0.0000018138   0.0000001064  -0.0000042541
        0.0000015752   0.0000006639   0.0000080571  -0.0000072621  -0.0000039627
        0.0000008104   0.0000072577   0.0000004201  -0.0000019202  -0.0000002362
        0.0000007173  -0.0000014626  -0.0000020103  -0.0000001056   0.0000023873
       -0.0000014300   0.0000013191   0.0000021184   0.0000002379   0.0000014351
       -0.0000003184   0.0000023110  -0.0000006799  -0.0000013982   0.0000012432
       -0.0000003131  -0.0000007950   0.0000006766   0.0000010995  -0.0000010947
        0.0000001514   0.0000008866  -0.0000009192   0.0000006222   0.0000007437
       -0.0000005485  -0.0000000182   0.0000005988   0.0000002137  -0.0000005258
        0.0000011006  -0.0000006245   0.0000000988   0.0000005097  -0.0000000724
       -0.0000001022   0.0000007056  -0.0000002241  -0.0000001576   0.0000003012
        0.0000005216  -0.0000006130   0.0000003058   0.0000008357  -0.0000002131
       -0.0000004808   0.0000002898  -0.0000013061   0.0000004220  -0.0000002677
       -0.0000016974   0.0000041885   0.0000168669  -0.0000048803  -0.0000283835
        0.0000519117   0.0001472060  -0.0001563660  -0.0042291543   0.0020772787
        0.0024763637   0.0008351707  -0.0006788688   0.0000896457
        0.0070777292   0.6363378106   0.0981012246  -0.0227566942  -0.3188776508
       -0.0479391585   0.0869557021  -0.0236456391  -0.0200030408  -0.0271928210
       -0.0518734724  -0.0037849707   0.0008840066  -0.0007201332   0.0001033395
        0.0003793149   0.0000877891   0.0002415832  -0.0000947543   0.0000000085
       -0.0000957274  -0.0000526340   0.0001497776  -0.0001806604   0.0000495596
        0.0000765781   0.0000315531   0.0000002728  -0.0000245923   0.0000085013
        0.0000092321  -0.0000021026  -0.0000141404  -0.0000043364   0.0000058639
        0.0000031897   0.0000077786   0.0000033445  -0.0000033115   0.0000011905
        0.0000012957   0.0000002349   0.0000012906   0.0000013775   0.0000007603
        0.0000000318   0.0000000284  -0.0000005872   0.0000019558   0.0000017529
       -0.0000008108   0.0000016148   0.0000011595   0.0000012741  -0.0000002120
        0.0000004509   0.0000005534  -0.0000009434  -0.0000001404  -0.0000052770
        0.0000025332   0.0000060302   0.0000033335  -0.0000137408  -0.0000264368
        0.0000153029  -0.0000043190   0.0000146000  -0.0000101124  -0.0000004642
       -0.0000001813  -0.0000009588   0.0000037323  -0.0000016162   0.0000013161
        0.0000002509  -0.0000020227  -0.0000000255  -0.0000012572   0.0000056796
        0.0000005138  -0.0000041464  -0.0000028448  -0.0000015720   0.0000021329
       -0.0000078794   0.0000003136   0.0000044973   0.0000039947   0.0000026628
       -0.0000036695   0.0000030782   0.0000008290   0.0000021780  -0.0000003169
        0.0000017918  -0.0000045666  -0.0000012192  -0.0000014904  -0.0000013151
        0.0000012030  -0.0000020668  -0.0000011123  -0.0000014140   0.0000018107
        0.0000011016   0.0000003174   0.0000005160  -0.0000015741  -0.0000015923
        0.0000031677   0.0000007193   0.0000015418  -0.0000033500   0.0000003609
        0.0000006162   0.0000008370   0.0000005837   0.0000000024   0.0000012051
       -0.0000007555   0.0000004622  -0.0000001833   0.0000000914  -0.0000006721
        0.0000006348   0.0000002391   0.0000001405   0.0000005019  -0.0000000450
        0.0000007818   0.0000002424  -0.0000011260  -0.0000008027   0.0000002429
       -0.0000001929   0.0000009599  -0.0000005071   0.0000002208  -0.0000004046
        0.0000002967   0.0000007187   0.0000003389  -0.0000003383   0.0000003004
        0.0000001560  -0.0000001408   0.0000005792  -0.0000005642   0.0000006637
        0.0000001082   0.0000002459   0.0000001865  -0.0000004882  -0.0000002810
        0.0000013157  -0.0000003145   0.0000012200  -0.0000030182  -0.0000003476
       -0.0000007352   0.0000017740   0.0000029896  -0.0000114790  -0.0000049613
       -0.0000114781   0.0000157513  -0.0000005596   0.0001686477  -0.0002802339
       -0.0000792233  -0.0006697083   0.0000211467   0.0004290121  -0.0404561960
        0.0553229469   0.0172814141  -0.0740888563  -0.1726625455  -0.0112648252
        0.0902309097  -0.0843537437  -0.0251355368  -0.0012078032  -0.0201647898
       -0.0035398080   0.0020406485   0.0005019381  -0.0019694731  -0.0000095967
        0.0002769013  -0.0001266366   0.0000097075   0.0000149350  -0.0000355671
       -0.0000016647  -0.0000052395   0.0000053433   0.0000050335   0.0000041950
        0.0000013811   0.0000000671  -0.0000008478  -0.0000008517   0.0000009748
        0.0000002217  -0.0000003044   0.0000002031  -0.0000003023   0.0000000279
        0.0000003422   0.0000001124  -0.0000000874  -0.0000002109  -0.0000011348
       -0.0000001590   0.0000028092   0.0000020914   0.0000006476  -0.0000011034
        0.0000004220   0.0000032771  -0.0000075556   0.0000031892   0.0000130670
       -0.0000001724   0.0000036769   0.0000025002   0.0000000152   0.0000022090
        0.0000005121   0.0000001203   0.0000014024   0.0000004803  -0.0000020061
        0.0000025597  -0.0000001805  -0.0000013953  -0.0000003709   0.0000001044
       -0.0000007919  -0.0000003467   0.0000005035  -0.0000001629   0.0000005078
        0.0000006768  -0.0000007684   0.0000000232  -0.0000000618  -0.0000002667
       -0.0000002150   0.0000003564  -0.0000001349   0.0000000941   0.0000003541
        0.0000003175   0.0000003329  -0.0000000378  -0.0000003806  -0.0000002244
       -0.0000008557  -0.0000004960  -0.0000001277   0.0000001675   0.0000000497
       -0.0000003187   0.0000001916   0.0000005505  -0.0000000658  -0.0000001228
       -0.0000000674   0.0000005787  -0.0000005277  -0.0000003762  -0.0000004645
        0.0000000835  -0.0000005551   0.0000004842  -0.0000003429   0.0000044851
        0.0000000041   0.0000004061  -0.0000228536   0.0000353089   0.0000068546
        0.0001513929   0.0001608739  -0.0000856385   0.0026788446   0.0004747585
       -0.0021173058  -0.0240617050  -0.0208801073   0.0001354811
       -0.0913098309   0.0981012246   0.1497719617   0.0033565498  -0.0607077678
       -0.0599951300   0.0142481611  -0.0095726510  -0.0031997011  -0.0052368587
       -0.0043624099  -0.0060692655   0.0004523219  -0.0003075131  -0.0003393120
        0.0000586227   0.0001138494   0.0001057260   0.0000272705   0.0000406500
       -0.0000357810  -0.0000225689   0.0000513489  -0.0000393154   0.0000039780
        0.0000095038   0.0000082789  -0.0000048173  -0.0000044909   0.0000007844
        0.0000031898  -0.0000040493  -0.0000040277  -0.0000028113  -0.0000008765
        0.0000017817   0.0000032504   0.0000018445  -0.0000009370   0.0000010468
        0.0000005138   0.0000004333  -0.0000009557  -0.0000003036  -0.0000009809
        0.0000009223   0.0000008165  -0.0000013706   0.0000017122   0.0000009931
        0.0000006235  -0.0000000397   0.0000001769   0.0000002203   0.0000005041
        0.0000007057  -0.0000009737   0.0000030822  -0.0000003739  -0.0000031943
       -0.0000027896  -0.0000004352   0.0000031707  -0.0000031504   0.0000034629
        0.0000018192   0.0000011871   0.0000018848  -0.0000007496  -0.0000012106
       -0.0000002591   0.0000004014   0.0000029590  -0.0000020115   0.0000010487
       -0.0000008707  -0.0000001206  -0.0000003708  -0.0000005208   0.0000019618
        0.0000005061  -0.0000007361  -0.0000021177  -0.0000001562   0.0000008159
       -0.0000032813   0.0000002279   0.0000016514   0.0000013960   0.0000012242
        0.0000001620   0.0000011445   0.0000003029   0.0000020271  -0.0000013589
        0.0000017042  -0.0000011723  -0.0000012618  -0.0000003284   0.0000009873
        0.0000019845  -0.0000011953  -0.0000015921  -0.0000003444  -0.0000001670
        0.0000018620  -0.0000001668   0.0000008935  -0.0000022057  -0.0000012773
        0.0000019383  -0.0000006012  -0.0000006626  -0.0000016391   0.0000006990
        0.0000011242   0.0000003713   0.0000010142  -0.0000007581   0.0000013185
       -0.0000001082   0.0000011166   0.0000000741  -0.0000006331  -0.0000008321
       -0.0000002479   0.0000003384  -0.0000006201   0.0000005292   0.0000002122
        0.0000017083   0.0000001291   0.0000002621   0.0000007190  -0.0000008557
        0.0000014016   0.0000005665  -0.0000002164   0.0000010245   0.0000003740
       -0.0000000729  -0.0000002136   0.0000000398   0.0000000274   0.0000003442
       -0.0000002715   0.0000004335   0.0000006207   0.0000005362  -0.0000006699
       -0.0000014403   0.0000000356  -0.0000003430  -0.0000004155  -0.0000008685
        0.0000007917  -0.0000002100   0.0000002734  -0.0000013702  -0.0000010312
       -0.0000004418  -0.0000001993  -0.0000005442  -0.0000036451  -0.0000023493
       -0.0000047203   0.0000031130   0.0000000997   0.0000895618  -0.0000865957
        0.0000056804  -0.0002382798  -0.0000484639   0.0001218428   0.0035949959
        0.0077704900   0.0021453580   0.0211546179   0.0019274825  -0.0510885564
        0.0535203173  -0.0250963626  -0.0477942618  -0.0000982213   0.0001214666
        0.0009055474   0.0024796043  -0.0020110362   0.0073760010   0.0000145314
        0.0000398710  -0.0000576179  -0.0000061684   0.0000037526  -0.0000095459
       -0.0000036706  -0.0000001162   0.0000003977   0.0000015642   0.0000018119
        0.0000005140   0.0000005766  -0.0000001888   0.0000010193  -0.0000001077
       -0.0000003809   0.0000008966  -0.0000002412  -0.0000003252  -0.0000000015
        0.0000006135   0.0000001169   0.0000000584  -0.0000004104  -0.0000008759
        0.0000001965   0.0000008880   0.0000009706   0.0000004822   0.0000004057
        0.0000006382   0.0000007745  -0.0000017020   0.0000020043   0.0000025677
       -0.0000003203  -0.0000006276  -0.0000001537   0.0000002982   0.0000005175
       -0.0000004211   0.0000003199   0.0000003500  -0.0000001076  -0.0000004812
        0.0000005071  -0.0000003226  -0.0000004000  -0.0000001075  -0.0000003193
       -0.0000002266  -0.0000010776   0.0000003124   0.0000006912  -0.0000002693
        0.0000005966  -0.0000001819   0.0000000886  -0.0000004629   0.0000002678
       -0.0000004087   0.0000000111   0.0000004443   0.0000000999   0.0000001558
        0.0000000219   0.0000001669  -0.0000003046  -0.0000000867  -0.0000001919
       -0.0000004250   0.0000000153  -0.0000001873  -0.0000000351   0.0000000445
       -0.0000001292   0.0000000061  -0.0000001081  -0.0000001032   0.0000000441
       -0.0000000278  -0.0000002360   0.0000004116   0.0000001664   0.0000000252
        0.0000000251   0.0000000504   0.0000003612   0.0000000134   0.0000013370
        0.0000005012  -0.0000010432  -0.0000054738   0.0000076719   0.0000068750
       -0.0000045989   0.0000217602  -0.0000018130   0.0026063523  -0.0019165909
        0.0073557432  -0.0046831113  -0.0040982778   0.0008239595
       -0.0955569399  -0.0227566942   0.0033565498   0.6535648057   0.0249280857
       -0.0856443201  -0.2852236026   0.1217665252   0.0631383921  -0.0648950370
       -0.0368871668   0.0040535112  -0.0000106782  -0.0045762137   0.0006819234
        0.0002887748   0.0006971519   0.0002982072   0.0005349309  -0.0000288313
       -0.0002056322  -0.0006726858   0.0003798864   0.0000398228   0.0005880266
       -0.0002528014  -0.0001618035  -0.0001295618  -0.0001493510   0.0001201954
        0.0000592964   0.0000571606  -0.0000101606  -0.0000280770  -0.0000219704
       -0.0000072933   0.0000113487   0.0000073575  -0.0000015754  -0.0000277091
       -0.0000198455   0.0000028646   0.0000087609   0.0000084948   0.0000084261
       -0.0000056080  -0.0000068481   0.0000030118  -0.0000005245   0.0000005169
        0.0000004856  -0.0000112161  -0.0000036044  -0.0000016235   0.0000107691
        0.0000061929  -0.0000098421  -0.0000206646   0.0000075507   0.0000126682
        0.0000433611   0.0000145145  -0.0000115025  -0.0000425799   0.0002476016
       -0.0000468678  -0.0000233595  -0.0000666176  -0.0000277584  -0.0000117704
        0.0000420991   0.0000059220   0.0000487627   0.0000021928   0.0000160936
       -0.0000141650   0.0000141499  -0.0000046963   0.0000111753   0.0000101511
        0.0000043016   0.0000251899  -0.0000007334   0.0000089294  -0.0000146164
       -0.0000041600  -0.0000064066  -0.0000205804   0.0000141458  -0.0000054886
        0.0000257360  -0.0000130068   0.0000188144   0.0000817886  -0.0000327571
        0.0000251902  -0.0000616872  -0.0000281864  -0.0000277549   0.0000166630
       -0.0000013470   0.0000064853  -0.0000032996  -0.0000035938  -0.0000019456
        0.0000024442   0.0000040060   0.0000033037   0.0000029744  -0.0000066110
        0.0000090307  -0.0000047691   0.0000086779  -0.0000205728  -0.0000012938
        0.0000014454  -0.0000004349  -0.0000005948   0.0000028354  -0.0000048099
       -0.0000002670   0.0000010444  -0.0000004462  -0.0000017371   0.0000013242
       -0.0000018241  -0.0000012949  -0.0000048488  -0.0000013782  -0.0000004070
       -0.0000034874   0.0000021719  -0.0000047217  -0.0000013252   0.0000125404
        0.0000005387   0.0000006336  -0.0000024357  -0.0000057650   0.0000006344
       -0.0000034700  -0.0000026252   0.0000001390   0.0000001782  -0.0000017794
       -0.0000007437   0.0000006313  -0.0000007425  -0.0000013074   0.0000004110
       -0.0000021916  -0.0000020765   0.0000037392   0.0000164730  -0.0000045518
        0.0000029352  -0.0000193881  -0.0000009994  -0.0000098122   0.0000173274
        0.0000129098  -0.0000039816  -0.0000888374   0.0000677574  -0.0000297075
        0.0000382366  -0.0000750101  -0.0000004408   0.0001946050  -0.0006142185
        0.0002001263  -0.0022837597   0.0000068148   0.0008006794  -0.0183906993
        0.0294515254   0.0079217387   0.0351054665  -0.0187279577  -0.0091970304
       -0.0043169036   0.0267892642   0.0058883114  -0.2123550195  -0.1206519078
        0.0067429937  -0.0034441083   0.0031361811   0.0010556629  -0.0001266124
        0.0002245289  -0.0001114031   0.0000334668  -0.0000359017  -0.0000125450
       -0.0000008955  -0.0000054265   0.0000070958   0.0000075956   0.0000136771
        0.0000129918  -0.0000008675  -0.0000020081  -0.0000021018   0.0000030864
        0.0000044952  -0.0000063820   0.0000064404   0.0000045028  -0.0000004521
        0.0000063898   0.0000019743   0.0000056319  -0.0000015019   0.0000001803
        0.0000026052   0.0000058608  -0.0000007936  -0.0000099255  -0.0000030135
       -0.0000090270   0.0000017866  -0.0000036339   0.0000022962   0.0000128843
       -0.0000080339  -0.0000026857  -0.0000062475  -0.0000053557   0.0000012364
       -0.0000021744  -0.0000026393  -0.0000102615  -0.0000020806   0.0000050776
       -0.0000102327   0.0000006891   0.0000073631  -0.0000009961   0.0000016381
       -0.0000015436  -0.0000002607  -0.0000004812   0.0000011489  -0.0000007148
        0.0000036174  -0.0000006991  -0.0000009009   0.0000004180   0.0000025953
       -0.0000010723   0.0000022794   0.0000029213   0.0000013625   0.0000018365
       -0.0000000018   0.0000019609  -0.0000000935   0.0000013557  -0.0000010615
        0.0000019634   0.0000016667  -0.0000010349   0.0000019557   0.0000042613
        0.0000008949  -0.0000003570   0.0000019404   0.0000025378  -0.0000022673
       -0.0000002797   0.0000002278   0.0000003623   0.0000018533   0.0000004800
        0.0000007989  -0.0000028739   0.0000002793   0.0000062864   0.0000015565
        0.0000045695  -0.0000030862  -0.0000272579   0.0000782705   0.0000226510
        0.0000801445   0.0002601415  -0.0001611613   0.0004114719   0.0007498914
       -0.0000416397  -0.0033971739  -0.0040113256   0.0012796739
        0.0544263611  -0.3188776508  -0.0607077678   0.0249280857   0.6419137598
        0.0971252560   0.0461200557  -0.1312858071  -0.0236362760   0.0182270338
        0.0537262320   0.0064263028  -0.0056762175  -0.0003202296  -0.0008208750
       -0.0000823769  -0.0007410348   0.0000292104  -0.0001620271   0.0002042317
        0.0002639381   0.0001352050  -0.0001771100   0.0001248733   0.0000107884
       -0.0001087997  -0.0001080635  -0.0000261081  -0.0000097987  -0.0000031202
        0.0000007746   0.0000295261   0.0000315712   0.0000012072  -0.0000084663
       -0.0000058133  -0.0000022242  -0.0000035649  -0.0000028213  -0.0000118998
       -0.0000083522  -0.0000001364   0.0000019169   0.0000004975  -0.0000012711
       -0.0000009758  -0.0000011748   0.0000025276  -0.0000037313  -0.0000023971
       -0.0000000582  -0.0000022728  -0.0000012779  -0.0000024529   0.0000020975
        0.0000011853  -0.0000001602  -0.0000035889   0.0000033891   0.0000097594
        0.0000239040   0.0000000043  -0.0000146878  -0.0000010200   0.0000660752
       -0.0000344287  -0.0000380797  -0.0000189709  -0.0000130249   0.0000147973
        0.0000128296   0.0000067319  -0.0000039087  -0.0000046534  -0.0000019238
       -0.0000027922   0.0000085906  -0.0000013410   0.0000101870   0.0000011951
        0.0000028945   0.0000037661   0.0000052874   0.0000012887  -0.0000031454
       -0.0000014988  -0.0000019166  -0.0000021377   0.0000047905  -0.0000011202
        0.0000058448   0.0000012517   0.0000008355   0.0000125372  -0.0000076880
        0.0000025810  -0.0000080096  -0.0000049956  -0.0000018767   0.0000019187
       -0.0000005624   0.0000001559  -0.0000009147  -0.0000018594  -0.0000006692
        0.0000010281   0.0000014349   0.0000010231  -0.0000000713  -0.0000028659
        0.0000012499   0.0000005917   0.0000027360  -0.0000030627  -0.0000004253
        0.0000003769  -0.0000004244   0.0000007849   0.0000003035   0.0000004982
       -0.0000002135   0.0000013217  -0.0000000657  -0.0000010325   0.0000005609
       -0.0000004339  -0.0000002404  -0.0000003400   0.0000000541  -0.0000007231
        0.0000018120  -0.0000006059  -0.0000008592   0.0000004045   0.0000008203
       -0.0000005635  -0.0000002404   0.0000003865  -0.0000008301   0.0000009651
       -0.0000004542  -0.0000007619   0.0000006507  -0.0000001327  -0.0000007493
       -0.0000001814   0.0000005939  -0.0000001714  -0.0000001717   0.0000002680
       -0.0000012968  -0.0000001067  -0.0000001937   0.0000012143  -0.0000030437
        0.0000021273  -0.0000028754   0.0000003558  -0.0000027341   0.0000029102
        0.0000023735  -0.0000007519  -0.0000066400   0.0000175274   0.0000045967
        0.0000437284  -0.0000278743   0.0000055710  -0.0002373564   0.0005020054
        0.0003806270   0.0006474854   0.0003537488  -0.0003249071   0.0317631108
       -0.0394772146  -0.0121061584  -0.0761781044  -0.0453040898   0.0040793976
        0.0033172930  -0.0139391184  -0.0033458237  -0.1207710149  -0.1297381129
        0.0014772950   0.0264616950  -0.0153868229  -0.0074511900  -0.0000246891
       -0.0001829371  -0.0001825022   0.0000035316   0.0000234413   0.0000579959
        0.0000069962  -0.0000033877  -0.0000153378  -0.0000017417  -0.0000039533
       -0.0000012132  -0.0000017702   0.0000002758   0.0000002575   0.0000001385
        0.0000011929  -0.0000015986   0.0000011921   0.0000018006  -0.0000000175
        0.0000002609   0.0000009349   0.0000016656  -0.0000003693   0.0000012107
        0.0000005146  -0.0000013838  -0.0000010459  -0.0000020023  -0.0000025066
        0.0000005249   0.0000004243   0.0000042241  -0.0000012910   0.0000064790
       -0.0000020658   0.0000051505  -0.0000013584  -0.0000031291  -0.0000001839
       -0.0000005016   0.0000008620  -0.0000053616  -0.0000007723   0.0000034900
       -0.0000024614   0.0000004880   0.0000036944  -0.0000015908   0.0000006981
        0.0000008725   0.0000010583  -0.0000007264   0.0000008028   0.0000006568
        0.0000000324  -0.0000001232   0.0000005329   0.0000004058  -0.0000000792
        0.0000003378   0.0000004334  -0.0000003661   0.0000005621   0.0000003775
       -0.0000006241  -0.0000003714   0.0000004016   0.0000000561  -0.0000009752
        0.0000012599   0.0000003491   0.0000002939   0.0000003779   0.0000004040
        0.0000006781   0.0000002432   0.0000001324   0.0000005183   0.0000001857
       -0.0000001684  -0.0000005191   0.0000007063  -0.0000002455   0.0000000870
        0.0000002000  -0.0000006729  -0.0000014707   0.0000020795  -0.0000024131
       -0.0000029639   0.0000016697  -0.0000143393  -0.0000345564  -0.0000220000
       -0.0001257863  -0.0001197545  -0.0000273035   0.0006681895  -0.0000386981
        0.0000154988  -0.0034436856  -0.0010370824  -0.0012227522
        0.0185153138  -0.0479391585  -0.0599951300  -0.0856443201   0.0971252560
        0.1495588200   0.0490079985  -0.0373918568  -0.0619240184   0.0146203757
        0.0176502177   0.0011746660   0.0006398534  -0.0009854313   0.0067831538
        0.0007266103  -0.0005155118  -0.0002044058  -0.0002628538  -0.0002321714
       -0.0000593633  -0.0000223435   0.0001228152  -0.0000239649   0.0001479333
       -0.0000630551   0.0000070573  -0.0000275003  -0.0000322433   0.0000241605
        0.0000012457   0.0000189539   0.0000050885  -0.0000012268  -0.0000021498
       -0.0000035541   0.0000009772   0.0000028502   0.0000030515  -0.0000047669
       -0.0000037600   0.0000007472   0.0000007458   0.0000004234  -0.0000005204
        0.0000000748  -0.0000002620   0.0000007223  -0.0000006676  -0.0000005441
        0.0000003844  -0.0000013343  -0.0000003394  -0.0000013245   0.0000018825
        0.0000016654  -0.0000015921  -0.0000048625  -0.0000033755  -0.0000010627
        0.0000146102   0.0000012315  -0.0000110951  -0.0000142864   0.0000540498
       -0.0000083306  -0.0000103888  -0.0000209904  -0.0000067785  -0.0000000094
        0.0000119209   0.0000024604   0.0000043641  -0.0000047774   0.0000017923
       -0.0000030755   0.0000046859  -0.0000003808   0.0000037163   0.0000009715
        0.0000020878   0.0000016865   0.0000017820   0.0000010400  -0.0000025618
       -0.0000027069  -0.0000009973  -0.0000009593   0.0000037198   0.0000005999
        0.0000031976  -0.0000045309   0.0000001348   0.0000092843  -0.0000002211
        0.0000044723  -0.0000070311  -0.0000045011  -0.0000021956   0.0000029820
        0.0000019175   0.0000003469  -0.0000024086  -0.0000005459  -0.0000013161
        0.0000030121   0.0000009864   0.0000017203  -0.0000027898  -0.0000022122
        0.0000014245  -0.0000011093  -0.0000005354  -0.0000027877   0.0000005347
        0.0000008061   0.0000002001   0.0000012004   0.0000000372   0.0000011210
       -0.0000006825   0.0000016042  -0.0000004391  -0.0000013554  -0.0000011313
       -0.0000007301   0.0000004461  -0.0000009088   0.0000006310  -0.0000000730
        0.0000021179   0.0000000211   0.0000003147   0.0000006764   0.0000008041
        0.0000013594   0.0000002898  -0.0000001353   0.0000007291   0.0000008805
       -0.0000006246  -0.0000014104   0.0000003326  -0.0000002269  -0.0000004702
       -0.0000009713   0.0000012289   0.0000011991   0.0000002613  -0.0000003354
       -0.0000017376   0.0000002971  -0.0000007015   0.0000002424  -0.0000016863
        0.0000007393  -0.0000016659  -0.0000000778  -0.0000014206   0.0000006263
        0.0000018807  -0.0000015591  -0.0000060094   0.0000058394  -0.0000049117
        0.0000163843  -0.0000111767   0.0000038453  -0.0002641054  -0.0004161883
       -0.0001657756  -0.0007201610   0.0004823680   0.0002481105   0.0083761286
       -0.0117517285  -0.0092352394  -0.0205486604  -0.0055930480   0.0036387555
        0.0014883733  -0.0073373661  -0.0009969117   0.0065725746   0.0017802116
       -0.0354322777   0.0059534783  -0.0037369355  -0.0008976658   0.0001916415
       -0.0000563284   0.0000035178   0.0000388458  -0.0000105334   0.0000157541
       -0.0000005401  -0.0000013128  -0.0000059682   0.0000006590  -0.0000001106
        0.0000003029  -0.0000002732  -0.0000002164   0.0000005919   0.0000001081
        0.0000001777  -0.0000000355   0.0000003961   0.0000003312  -0.0000000524
        0.0000007124   0.0000003729   0.0000006304  -0.0000004285  -0.0000002693
        0.0000004272  -0.0000008837   0.0000002608  -0.0000001199  -0.0000001174
        0.0000010655   0.0000027616   0.0000030060  -0.0000003164   0.0000009194
       -0.0000010435   0.0000004716  -0.0000018983  -0.0000015565   0.0000000080
       -0.0000009673  -0.0000000782  -0.0000022162  -0.0000006101   0.0000013005
       -0.0000009671   0.0000000166   0.0000014275  -0.0000002402   0.0000002335
       -0.0000000146  -0.0000008490  -0.0000001347   0.0000009264  -0.0000002017
        0.0000008143  -0.0000002033   0.0000001088  -0.0000003087   0.0000005091
       -0.0000003913   0.0000003331   0.0000005671   0.0000005466   0.0000004558
       -0.0000002317   0.0000001385  -0.0000002943   0.0000000734  -0.0000004724
        0.0000001007  -0.0000000218  -0.0000000825   0.0000000083   0.0000003072
        0.0000000236   0.0000000806  -0.0000000236   0.0000001489  -0.0000001047
       -0.0000002611  -0.0000003737   0.0000005642   0.0000001721   0.0000000509
        0.0000000911  -0.0000003936  -0.0000002670   0.0000011610  -0.0000017767
       -0.0000000016  -0.0000007444  -0.0000823630   0.0000030492   0.0000292483
       -0.0000060447   0.0000385112   0.0001448568   0.0000033119  -0.0001125908
       -0.0001953955   0.0012936628  -0.0010764758   0.0075221493
        0.0180393606   0.0869557021   0.0142481611  -0.2852236026   0.0461200557
        0.0490079985   0.6389467386   0.0022128911  -0.0881083829  -0.2305548088
       -0.0736465625   0.0158326427  -0.0401722420  -0.0080026055   0.0058915977
       -0.0002400661  -0.0041254124  -0.0002356329  -0.0005431098   0.0000512552
        0.0009564124   0.0013036380  -0.0010021944   0.0001105077  -0.0008432400
        0.0002358969   0.0001047778   0.0001342788   0.0001971297  -0.0001721382
       -0.0000771789  -0.0000606988  -0.0000221147   0.0000138987   0.0000224445
        0.0000304162  -0.0000046911   0.0000041729   0.0000082514   0.0000397017
        0.0000298078  -0.0000016493  -0.0000149859  -0.0000138722  -0.0000121755
        0.0000044243   0.0000074250  -0.0000081730   0.0000024632   0.0000003854
       -0.0000001424   0.0000119680   0.0000016147   0.0000066456  -0.0000171484
       -0.0000094828   0.0000131521   0.0000129133  -0.0000229101  -0.0000235043
       -0.0000409809  -0.0000286893   0.0000075675   0.0000682919  -0.0003008725
        0.0000330589   0.0000161916   0.0000987345   0.0000464563  -0.0000153138
       -0.0000645527  -0.0000171190  -0.0000481319  -0.0000043789  -0.0000147203
        0.0000176266  -0.0000123104   0.0000059559  -0.0000271945  -0.0000196964