      -----------------------------------------------------------      
     |                   =====================                   |     
     |                           x T B                           |     
     |                   =====================                   |     
     |                         S. Grimme                         |     
     |          Mulliken Center for Theoretical Chemistry        |     
     |                    University of Bonn                     |     
      -----------------------------------------------------------      

   * xtb version 6.7.1 (edcfbbe) compiled by 'albert@albert-system' on 2024-07-22

   xtb is free software: you can redistribute it and/or modify it under
   the terms of the GNU Lesser General Public License as published by
   the Free Software Foundation, either version 3 of the License, or
   (at your option) any later version.
   
   xtb is distributed in the hope that it will be useful,
   but WITHOUT ANY WARRANTY; without even the implied warranty of
   MERCHANTABILITY or FITNESS FOR A PARTICULAR PURPOSE.  See the
   GNU Lesser General Public License for more details.
   
   Cite this work as:
   * C. Bannwarth, E. Caldeweyher, S. Ehlert, A. Hansen, P. Pracht,
     J. Seibert, S. Spicher, S. Grimme, WIREs Comput. Mol. Sci., 2020, 11,
     e01493. DOI: 10.1002/wcms.1493
   
   for GFN2-xTB:
   * C. Bannwarth, S. Ehlert and S. Grimme., J. Chem. Theory Comput., 2019,
     15, 1652-1671. DOI: 10.1021/acs.jctc.8b01176
   for GFN1-xTB:
   * S. Grimme, C. Bannwarth, P. Shushkov, J. Chem. Theory Comput., 2017,
     13, 1989-2009. DOI: 10.1021/acs.jctc.7b00118
   for GFN0-xTB:
   * P. Pracht, E. Caldeweyher, S. Ehlert, S. Grimme, ChemRxiv, 2019, preprint.
     DOI: 10.26434/chemrxiv.8326202.v1
   for GFN-FF:
   * S. Spicher and S. Grimme, Angew. Chem. Int. Ed., 2020, 59, 15665-15673.
     DOI: 10.1002/anie.202004239
   
   for ALPB and GBSA implicit solvation:
   * S. Ehlert, M. Stahn, S. Spicher, S. Grimme, J. Chem. Theory Comput.,
     2021, 17, 4250-4261. DOI: 10.1021/acs.jctc.1c00471
   
   for ddCOSMO and CPCM-X implicit solvation:
   * M. Stahn, S. Ehlert, S. Grimme, J. Phys. Chem. A,
     2023, XX, XXXX-XXXX. DOI: 10.1021/acs.jpca.3c04382
   
   for DFT-D4:
   * E. Caldeweyher, C. Bannwarth and S. Grimme, J. Chem. Phys., 2017,
     147, 034112. DOI: 10.1063/1.4993215
   * E. Caldeweyher, S. Ehlert, A. Hansen, H. Neugebauer, S. Spicher,
     C. Bannwarth and S. Grimme, J. Chem. Phys., 2019, 150, 154122.
     DOI: 10.1063/1.5090222
   * E. Caldeweyher, J.-M. Mewes, S. Ehlert and S. Grimme, Phys. Chem. Chem. Phys.
     2020, 22, 8499-8512. DOI: 10.1039/D0CP00502A
   
   for sTDA-xTB:
   * S. Grimme and C. Bannwarth, J. Chem. Phys., 2016, 145, 054103.
     DOI: 10.1063/1.4959605
   
   in the mass-spec context:
   * V. Asgeirsson, C. Bauer and S. Grimme, Chem. Sci., 2017, 8, 4879.
     DOI: 10.1039/c7sc00601b
   * J. Koopman and S. Grimme, ACS Omega 2019, 4, 12, 15120-15133.
     DOI: 10.1021/acsomega.9b02011
   
   for metadynamics refer to:
   * S. Grimme, J. Chem. Theory Comput., 2019, 155, 2847-2862
     DOI: 10.1021/acs.jctc.9b00143
   
   for SPH calculations refer to:
   * S. Spicher and S. Grimme, J. Chem. Theory Comput., 2021, 17, 1701-1714
     DOI: 10.1021/acs.jctc.0c01306
   
   for ONIOM refer to:
   * C. Plett, A. Katbashev, S. Ehlert, S. Grimme, M. Bursch,
     Phys. Chem. Chem. Phys., 2023, 25, 17860-17868. DOI: 10.1039/D3CP02178E
   
   for DIPRO refer to:
   * J. Kohn, N. Gildemeister, S. Grimme, D. Fazzi, A. Hansen,
     J. Chem. Phys., 2023, just accepted.
   
   for PTB refer to:
   * S. Grimme, M. Mueller, A. Hansen, J. Chem. Phys., 2023, 158, 124111.
     DOI: 10.1063/5.0137838
   
   with help from (in alphabetical order)
   P. Atkinson, C. Bannwarth, F. Bohle, G. Brandenburg, E. Caldeweyher
   M. Checinski, S. Dohm, S. Ehlert, S. Ehrlich, I. Gerasimov, C. Hölzer
   A. Katbashev, J. Kohn, J. Koopman, C. Lavigne, S. Lehtola, F. März, M. Müller,
   F. Musil, H. Neugebauer, J. Pisarek, C. Plett, P. Pracht, F. Pultar,
   J. Seibert, P. Shushkov, S. Spicher, M. Stahn, M. Steiner, T. Strunk,
   J. Stückrath, T. Rose, and J. Unsleber
   
 * started run on 2025/09/12 at 23:53:07.705     
   ID    Z sym.   atoms
    1    8 O      1
    2    6 C      2-21, 23-34
    3    7 N      22
    4    1 H      35-55

           -------------------------------------------------
          |                Calculation Setup                |
           -------------------------------------------------

          program call               : xtb data2507/gas/ACRSA/ACRSA_gas_S0_finalOpt.xtbopt.xyz --gfn 2 --spinpol --tblite --uhf 2 --ohess vtight --parallel 40 --molden --ceasefiles --namespace data2507/gas/ACRSA/ACRSA_gas_T1_preOpt
          calculation namespace      : data2507/gas/ACRSA/ACRSA_gas_T1_preOpt
          coordinate file            : data2507/gas/ACRSA/ACRSA_gas_S0_finalOpt.xtbopt.xyz
          omp threads                :                    40

repulsion energy          1.5879482700438E+00 Eh
dispersion energy         2.1688042892421E-03 Eh
interaction energy        0.0000000000000E+00 Eh
number of electrons       1.6000000000000E+02 e
integral cutoff           1.7347787504999E+01 bohr

------------------------------------------------------------
  cycle        total energy    energy error   density error
------------------------------------------------------------
      1     -85.95289071977  -8.7543008E+01   1.1522194E-01
      2     -85.69503600044   2.5785472E-01   7.5750418E-02
      3     -85.60154451715   9.3491483E-02   6.4919228E-02
      4     -86.06047206175  -4.5892754E-01   3.0402097E-02
      5     -86.14669966261  -8.6227601E-02   2.2784548E-02
      6     -86.15734724711  -1.0647584E-02   1.5496231E-02
      7     -86.13818113652   1.9166111E-02   2.1178805E-02
      8     -86.15481551500  -1.6634378E-02   8.4993987E-03
      9     -86.15909688110  -4.2813661E-03   2.6118193E-03
     10     -86.15880264342   2.9423768E-04   2.7527358E-03
     11     -86.15933126364  -5.2862023E-04   4.5684068E-04
     12     -86.15933520129  -3.9376454E-06   3.4387559E-04
     13     -86.15931625197   1.8949317E-05   5.3210016E-04
     14     -86.15934219877  -2.5946796E-05   9.7965162E-05
     15     -86.15934172605   4.7271500E-07   8.8636520E-05
     16     -86.15934240898  -6.8292668E-07   3.3687970E-05
     17     -86.15934240604   2.9378384E-09   2.9018506E-05
     18     -86.15934238834   1.7705730E-08   2.6627823E-05
     19     -86.15934244321  -5.4874434E-08   1.0394494E-05
------------------------------------------------------------

electronic energy        -8.7749459517545E+01 Eh
total energy             -8.6159342443212E+01 Eh

 total:                                   0.363 sec
 - repulsion                              0.001 sec (  0%)
 - dispersion                             0.009 sec (  2%)
 - coulomb                                0.005 sec (  1%)
 - hamiltonian                            0.012 sec (  3%)
 - scc                                    0.336 sec ( 92%)

      ----------------------------------------------------------- 
     |                   =====================                   |
     |                        A N C O P T                        |
     |                   =====================                   |
     |               Approximate Normal Coordinate               |
     |                Rational Function Optimizer                |
      ----------------------------------------------------------- 

Optimization log is written to '/dev/null'
      ----------------------------------------------------------- 
     |                   =====================                   |
     |                        A N C O P T                        |
     |                   =====================                   |
     |               Approximate Normal Coordinate               |
     |                Rational Function Optimizer                |
      ----------------------------------------------------------- 

          ...................................................
          :                      SETUP                      :
          :.................................................:
          :   optimization level         verytight          :
          :   max. optcycles                  1100          :
          :   ANC micro-cycles                  20          :
          :   degrees of freedom               159          :
          :.................................................:
          :   RF solver                   davidson          :
          :   write xtbopt.log                true          :
          :   linear?                        false          :
          :   energy convergence         0.1000000E-06 Eh   :
          :   grad. convergence          0.2000000E-03 Eh/α :
          :   maxmium RF displ.          1.0000000          :
          :   Hlow (freq-cutoff)         0.1000000E-01      :
          :   Hmax (freq-cutoff)         5.0000000          :
          :   S6 in model hess.         20.0000000          :
          ...................................................

generating ANC from exact Hessian ...
Using Lindh-Hessian (1995)
 Shifting diagonal of input Hessian by   9.693197836596683E-003
 Lowest  eigenvalues of input Hessian
    0.000000    0.000000    0.000000    0.000000    0.000000    0.000000
    0.010000    0.010344    0.010721    0.011109    0.011235    0.011269
    0.011300    0.012036    0.012906    0.013576    0.015440    0.017767
 Highest eigenvalues
    2.028198    2.030019    2.047983    2.163408    2.166699    2.237918
 

........................................................................
.............................. CYCLE    1 ..............................
........................................................................
------------------------------------------------------------
  cycle        total energy    energy error   density error
------------------------------------------------------------
      1     -86.15933744967  -8.7749455E+01   2.0746866E-04
      2     -86.15905758130   2.7986837E-04   1.5608210E-03
      3     -86.15934244595  -2.8486464E-04   9.2392831E-06
      4     -86.15934245601  -1.0060063E-08   1.1502403E-06
------------------------------------------------------------

 total:                                   0.073 sec
 * total energy  :   -86.1593425 Eh     change       -0.1279464E-07 Eh
   gradient norm :     0.0897273 Eh/α   predicted     0.0000000E+00 (-100.00%)
   displ. norm   :     0.1257089 α      lambda       -0.4715099E-02
   maximum displ.:     0.0766023 α      in ANC's #32, #11, #159, ...

........................................................................
.............................. CYCLE    2 ..............................
........................................................................
------------------------------------------------------------
  cycle        total energy    energy error   density error
------------------------------------------------------------
      1     -86.14973595615  -8.7732158E+01   1.0211880E-02
      2     -86.09127464947   5.8461307E-02   2.3989327E-02
      3     -86.15265934826  -6.1384699E-02   1.0525984E-02
      4     -86.15769575707  -5.0364088E-03   7.0620405E-03
      5     -86.16247627983  -4.7805228E-03   8.2371057E-04
      6     -86.16233635425   1.3992558E-04   1.4668178E-03
      7     -86.16232383181   1.2522438E-05   1.4822406E-03
      8     -86.16245002286  -1.2619105E-04   9.0453420E-04
      9     -86.16251532500  -6.5302140E-05   3.4506536E-04
     10     -86.16252581718  -1.0492181E-05   3.3075998E-05
     11     -86.16252133334   4.4838407E-06   2.1567027E-04
     12     -86.16252461436  -3.2810241E-06   1.1516340E-04
     13     -86.16252569279  -1.0784314E-06   4.3999786E-05
     14     -86.16252586378  -1.7098198E-07   3.7192772E-06
------------------------------------------------------------

 total:                                   0.134 sec
 * total energy  :   -86.1625259 Eh     change       -0.3183408E-02 Eh
   gradient norm :     0.0353871 Eh/α   predicted    -0.2394883E-02 ( -24.77%)
   displ. norm   :     0.0975315 α      lambda       -0.1257822E-02
   maximum displ.:     0.0758811 α      in ANC's #11, #32, #159, ...

........................................................................
.............................. CYCLE    3 ..............................
........................................................................
------------------------------------------------------------
  cycle        total energy    energy error   density error
------------------------------------------------------------
      1     -86.15957792703  -8.7741503E+01   5.6463901E-03
      2     -86.12612945549   3.3448472E-02   1.8773118E-02
      3     -86.15975245823  -3.3623003E-02   5.9974705E-03
      4     -86.16269643890  -2.9439807E-03   2.4434691E-03
      5     -86.16307955802  -3.8311912E-04   1.1580207E-03
      6     -86.16316752452  -8.7966502E-05   7.7808860E-04
      7     -86.16321828514  -5.0760623E-05   3.8318772E-04
      8     -86.16322447183  -6.1866838E-06   2.7449667E-04
      9     -86.16323084847  -6.3766478E-06   1.0656225E-04
     10     -86.16323205804  -1.2095638E-06   3.3356974E-05
     11     -86.16323144252   6.1551322E-07   8.1559742E-05
     12     -86.16323211386  -6.7133134E-07   1.8572762E-05
------------------------------------------------------------

 total:                                   0.115 sec
 * total energy  :   -86.1632321 Eh     change       -0.7062501E-03 Eh
   gradient norm :     0.0055043 Eh/α   predicted    -0.6349615E-03 ( -10.09%)
   displ. norm   :     0.0349671 α      lambda       -0.5422965E-04
   maximum displ.:     0.0328143 α      in ANC's #11, #61, #21, ...

........................................................................
.............................. CYCLE    4 ..............................
........................................................................
------------------------------------------------------------
  cycle        total energy    energy error   density error
------------------------------------------------------------
      1     -86.16314052324  -8.7745197E+01   1.1023427E-03
      2     -86.15777458349   5.3659398E-03   7.1328152E-03
      3     -86.16326279541  -5.4882119E-03   2.6802314E-04
      4     -86.16326224858   5.4683825E-07   2.0907568E-04
      5     -86.16326664230  -4.3937253E-06   5.4540202E-05
      6     -86.16326691724  -2.7493434E-07   2.1488249E-05
      7     -86.16326686210   5.5137406E-08   3.0774757E-05
      8     -86.16326696068  -9.8577587E-08   9.3992408E-06
------------------------------------------------------------

 total:                                   0.079 sec
 * total energy  :   -86.1632670 Eh     change       -0.3484682E-04 Eh
   gradient norm :     0.0015784 Eh/α   predicted    -0.2717340E-04 ( -22.02%)
   displ. norm   :     0.0402499 α      lambda       -0.1268858E-04
   maximum displ.:     0.0368069 α      in ANC's #11, #32, #21, ...

........................................................................
.............................. CYCLE    5 ..............................
........................................................................
------------------------------------------------------------
  cycle        total energy    energy error   density error
------------------------------------------------------------
      1     -86.16327424904  -8.7745091E+01   2.5696705E-04
      2     -86.16324197596   3.2273086E-05   5.6978678E-04
      3     -86.16327157290  -2.9596948E-05   2.3281261E-04
      4     -86.16327245063  -8.7772591E-07   1.2897678E-04
      5     -86.16327499700  -2.5463734E-06   4.4845478E-05
      6     -86.16327524970  -2.5269642E-07   9.9997756E-06
------------------------------------------------------------

 total:                                   0.062 sec
 * total energy  :   -86.1632752 Eh     change       -0.8289024E-05 Eh
   gradient norm :     0.0013457 Eh/α   predicted    -0.6449376E-05 ( -22.19%)
   displ. norm   :     0.0067662 α      lambda       -0.1535432E-05
   maximum displ.:     0.0045517 α      in ANC's #11, #7, #5, ...

........................................................................
.............................. CYCLE    6 ..............................
........................................................................
------------------------------------------------------------
  cycle        total energy    energy error   density error
------------------------------------------------------------
      1     -86.16326118755  -8.7744987E+01   3.7986885E-04
      2     -86.16217668229   1.0845053E-03   3.1594322E-03
      3     -86.16327697989  -1.1002976E-03   6.2980454E-05
      4     -86.16327677709   2.0279393E-07   6.1607225E-05
      5     -86.16327710650  -3.2940426E-07   1.9766084E-05
------------------------------------------------------------

 total:                                   0.054 sec
 * total energy  :   -86.1632771 Eh     change       -0.1856798E-05 Eh
   gradient norm :     0.0003317 Eh/α   predicted    -0.9552106E-06 ( -48.56%)
   displ. norm   :     0.0117983 α      lambda       -0.6619631E-06
   maximum displ.:     0.0088836 α      in ANC's #11, #7, #5, ...

........................................................................
.............................. CYCLE    7 ..............................
........................................................................
------------------------------------------------------------
  cycle        total energy    energy error   density error
------------------------------------------------------------
      1     -86.16326290752  -8.7744949E+01   3.7439786E-04
      2     -86.16227223248   9.9067504E-04   3.0137121E-03
      3     -86.16327745630  -1.0052238E-03   6.1043543E-05
      4     -86.16327763199  -1.7569255E-07   3.5112657E-05
      5     -86.16327773262  -1.0062661E-07   1.4298917E-05
------------------------------------------------------------

 total:                                   0.054 sec
 * total energy  :   -86.1632777 Eh     change       -0.6261233E-06 Eh
   gradient norm :     0.0001066 Eh/α   predicted    -0.3313553E-06 ( -47.08%)
   displ. norm   :     0.0082149 α      lambda       -0.1635058E-06
   maximum displ.:     0.0054442 α      in ANC's #7, #11, #5, ...

........................................................................
.............................. CYCLE    8 ..............................
........................................................................
------------------------------------------------------------
  cycle        total energy    energy error   density error
------------------------------------------------------------
      1     -86.16326907081  -8.7744950E+01   2.8387337E-04
      2     -86.16268274668   5.8632413E-04   2.3174173E-03
      3     -86.16327790844  -5.9516176E-04   2.9605234E-05
      4     -86.16327789067   1.7767817E-08   2.4813798E-05
      5     -86.16327795687  -6.6200300E-08   6.5938125E-06
------------------------------------------------------------

 total:                                   0.057 sec
 * total energy  :   -86.1632780 Eh     change       -0.2242530E-06 Eh
   gradient norm :     0.0001236 Eh/α   predicted    -0.8472779E-07 ( -62.22%)
   displ. norm   :     0.0113295 α      lambda       -0.2037621E-06
   maximum displ.:     0.0076715 α      in ANC's #7, #5, #4, ...

........................................................................
.............................. CYCLE    9 ..............................
........................................................................
------------------------------------------------------------
  cycle        total energy    energy error   density error
------------------------------------------------------------
      1     -86.16327733779  -8.7744956E+01   1.1031194E-04
      2     -86.16322181922   5.5518575E-05   7.1532756E-04
      3     -86.16327819121  -5.6371991E-05   4.0694026E-05
      4     -86.16327811318   7.8034191E-08   2.6814832E-05
      5     -86.16327823458  -1.2140491E-07   1.6572097E-06
------------------------------------------------------------

 total:                                   0.049 sec
 * total energy  :   -86.1632782 Eh     change       -0.2777075E-06 Eh
   gradient norm :     0.0001224 Eh/α   predicted    -0.1067402E-06 ( -61.56%)
   displ. norm   :     0.0188245 α      lambda       -0.3286248E-06
   maximum displ.:     0.0124819 α      in ANC's #7, #5, #4, ...

........................................................................
.............................. CYCLE   10 ..............................
........................................................................
------------------------------------------------------------
  cycle        total energy    energy error   density error
------------------------------------------------------------
      1     -86.16327863151  -8.7744952E+01   1.1075941E-04
      2     -86.16327601982   2.6116877E-06   1.6726156E-04
      3     -86.16327422821   1.7916121E-06   2.0935228E-04
      4     -86.16327863527  -4.4070618E-06   1.6491404E-05
      5     -86.16327867847  -4.3193154E-08   1.9804871E-06
------------------------------------------------------------

 total:                                   0.049 sec
 * total energy  :   -86.1632787 Eh     change       -0.4438868E-06 Eh
   gradient norm :     0.0001473 Eh/α   predicted    -0.1652140E-06 ( -62.78%)
   displ. norm   :     0.0280156 α      lambda       -0.4546259E-06
   maximum displ.:     0.0183339 α      in ANC's #7, #5, #4, ...

........................................................................
.............................. CYCLE   11 ..............................
........................................................................
------------------------------------------------------------
  cycle        total energy    energy error   density error
------------------------------------------------------------
      1     -86.16327911266  -8.7744957E+01   1.6652429E-04
      2     -86.16326916446   9.9482054E-06   3.1766734E-04
      3     -86.16327335131  -4.1868505E-06   2.4776427E-04
      4     -86.16327926130  -5.9099971E-06   1.0800364E-05
      5     -86.16327928231  -2.1007523E-08   2.1523686E-06
------------------------------------------------------------

 total:                                   0.048 sec
 * total energy  :   -86.1632793 Eh     change       -0.6038453E-06 Eh
   gradient norm :     0.0001505 Eh/α   predicted    -0.2281458E-06 ( -62.22%)
   displ. norm   :     0.0333075 α      lambda       -0.4784346E-06
   maximum displ.:     0.0217343 α      in ANC's #7, #5, #4, ...

........................................................................
.............................. CYCLE   12 ..............................
........................................................................
------------------------------------------------------------
  cycle        total energy    energy error   density error
------------------------------------------------------------
      1     -86.16327978474  -8.7744965E+01   1.9528619E-04
      2     -86.16327338499   6.3997513E-06   2.6825687E-04
      3     -86.16326261721   1.0767781E-05   4.0826085E-04
      4     -86.16327981702  -1.7199808E-05   2.1573313E-05
      5     -86.16327990446  -8.7446637E-08   2.3825703E-06
------------------------------------------------------------

 total:                                   0.048 sec
 * total energy  :   -86.1632799 Eh     change       -0.6221519E-06 Eh
   gradient norm :     0.0001103 Eh/α   predicted    -0.2425298E-06 ( -61.02%)
   displ. norm   :     0.0361028 α      lambda       -0.4539940E-06
   maximum displ.:     0.0235760 α      in ANC's #7, #5, #3, ...

........................................................................
.............................. CYCLE   13 ..............................
........................................................................
------------------------------------------------------------
  cycle        total energy    energy error   density error
------------------------------------------------------------
      1     -86.16328035892  -8.7744977E+01   2.1241903E-04
      2     -86.16327224173   8.1171850E-06   2.9993410E-04
      3     -86.16326113813   1.1103597E-05   4.3314300E-04
      4     -86.16328046762  -1.9329491E-05   1.4068634E-05
      5     -86.16328050342  -3.5791388E-08   2.5218992E-06
------------------------------------------------------------

 total:                                   0.048 sec
 * total energy  :   -86.1632805 Eh     change       -0.5989520E-06 Eh
   gradient norm :     0.0000733 Eh/α   predicted    -0.2287694E-06 ( -61.81%)
   displ. norm   :     0.0377029 α      lambda       -0.4504298E-06
   maximum displ.:     0.0246316 α      in ANC's #7, #5, #3, ...

........................................................................
.............................. CYCLE   14 ..............................
........................................................................
------------------------------------------------------------
  cycle        total energy    energy error   density error
------------------------------------------------------------
      1     -86.16328099592  -8.7744985E+01   2.2135394E-04
      2     -86.16327421564   6.7802778E-06   2.8119831E-04
      3     -86.16325463982   1.9575813E-05   5.0270069E-04
      4     -86.16328106495  -2.6425128E-05   1.7636792E-05
      5     -86.16328112129  -5.6340767E-08   2.6339028E-06
------------------------------------------------------------

 total:                                   0.048 sec
 * total energy  :   -86.1632811 Eh     change       -0.6178769E-06 Eh
   gradient norm :     0.0000828 Eh/α   predicted    -0.2282540E-06 ( -63.06%)
   displ. norm   :     0.0433077 α      lambda       -0.5341445E-06
   maximum displ.:     0.0281719 α      in ANC's #7, #5, #3, ...

........................................................................
.............................. CYCLE   15 ..............................
........................................................................
------------------------------------------------------------
  cycle        total energy    energy error   density error
------------------------------------------------------------
      1     -86.16328175149  -8.7744992E+01   2.5352113E-04
      2     -86.16327616257   5.5889231E-06   2.7105047E-04
      3     -86.16323163900   4.4523570E-05   6.8570814E-04
      4     -86.16328181633  -5.0177335E-05   1.6330913E-05
      5     -86.16328185832  -4.1992109E-08   3.3294119E-06
------------------------------------------------------------

 total:                                   0.048 sec
 * total energy  :   -86.1632819 Eh     change       -0.7370316E-06 Eh
   gradient norm :     0.0001075 Eh/α   predicted    -0.2675401E-06 ( -63.70%)
   displ. norm   :     0.0585119 α      lambda       -0.7223464E-06
   maximum displ.:     0.0378711 α      in ANC's #7, #5, #3, ...

........................................................................
.............................. CYCLE   16 ..............................
........................................................................
------------------------------------------------------------
  cycle        total energy    energy error   density error
------------------------------------------------------------
      1     -86.16328261858  -8.7744984E+01   3.4171346E-04
      2     -86.16327167883   1.0939742E-05   3.7528706E-04
      3     -86.16319623235   7.5446486E-05   9.0123980E-04
      4     -86.16328273203  -8.6499681E-05   2.5420924E-05
      5     -86.16328282550  -9.3472806E-08   5.4274731E-06
------------------------------------------------------------

 total:                                   0.049 sec
 * total energy  :   -86.1632828 Eh     change       -0.9671761E-06 Eh
   gradient norm :     0.0001120 Eh/α   predicted    -0.3625741E-06 ( -62.51%)
   displ. norm   :     0.0808606 α      lambda       -0.8861948E-06
   maximum displ.:     0.0521741 α      in ANC's #7, #5, #3, ...

........................................................................
.............................. CYCLE   17 ..............................
........................................................................
------------------------------------------------------------
  cycle        total energy    energy error   density error
------------------------------------------------------------
      1     -86.16328324380  -8.7744945E+01   4.7436262E-04
      2     -86.16324394778   3.9296022E-05   6.6264758E-04
      3     -86.16318443627   5.9511515E-05   9.7992427E-04
      4     -86.16328370278  -9.9266514E-05   4.1494047E-05
      5     -86.16328393864  -2.3585712E-07   9.8482438E-06
------------------------------------------------------------

 total:                                   0.048 sec
 * total energy  :   -86.1632839 Eh     change       -0.1113138E-05 Eh
   gradient norm :     0.0001067 Eh/α   predicted    -0.4455698E-06 ( -59.97%)
   displ. norm   :     0.0881780 α      lambda       -0.7506481E-06
   maximum displ.:     0.0569101 α      in ANC's #7, #5, #3, ...

........................................................................
.............................. CYCLE   18 ..............................
........................................................................
------------------------------------------------------------
  cycle        total energy    energy error   density error
------------------------------------------------------------
      1     -86.16328165073  -8.7744923E+01   5.3660879E-04
      2     -86.16309603780   1.8561294E-04   1.3442848E-03
      3     -86.16325221797  -1.5618018E-04   6.1113311E-04
      4     -86.16328456505  -3.2347079E-05   4.4092023E-05
      5     -86.16328484045  -2.7539704E-07   9.2225037E-06
------------------------------------------------------------

 total:                                   0.049 sec
 * total energy  :   -86.1632848 Eh     change       -0.9018108E-06 Eh
   gradient norm :     0.0001000 Eh/α   predicted    -0.3803083E-06 ( -57.83%)
   displ. norm   :     0.0821123 α      lambda       -0.5209465E-06
   maximum displ.:     0.0530534 α      in ANC's #7, #3, #5, ...

........................................................................
.............................. CYCLE   19 ..............................
........................................................................
------------------------------------------------------------
  cycle        total energy    energy error   density error
------------------------------------------------------------
      1     -86.16328393009  -8.7744925E+01   4.8845185E-04
      2     -86.16319961770   8.4312391E-05   9.2746361E-04
      3     -86.16323181326  -3.2195556E-05   7.4169205E-04
      4     -86.16328398019  -5.2166934E-05   9.3640639E-05
      5     -86.16328546083  -1.4806434E-06   1.1926068E-05
      6     -86.16328547392  -1.3088524E-08   3.1346841E-06
------------------------------------------------------------

 total:                                   0.056 sec
 * total energy  :   -86.1632855 Eh     change       -0.6334711E-06 Eh
   gradient norm :     0.0000968 Eh/α   predicted    -0.2653514E-06 ( -58.11%)
   displ. norm   :     0.0742472 α      lambda       -0.4021919E-06
   maximum displ.:     0.0480098 α      in ANC's #7, #3, #5, ...

........................................................................
.............................. CYCLE   20 ..............................
........................................................................
------------------------------------------------------------
  cycle        total energy    energy error   density error
------------------------------------------------------------
      1     -86.16328585712  -8.7744963E+01   4.2992581E-04
      2     -86.16328332221   2.5349123E-06   2.9510447E-04
      3     -86.16300799465   2.7532756E-04   1.5940355E-03
      4     -86.16328587497  -2.7788032E-04   2.4763251E-05
      5     -86.16328594779  -7.2814004E-08   4.5121347E-06
------------------------------------------------------------

 total:                                   0.049 sec
 * total energy  :   -86.1632859 Eh     change       -0.4738677E-06 Eh
   gradient norm :     0.0000833 Eh/α   predicted    -0.2019910E-06 ( -57.37%)
   displ. norm   :     0.0468841 α      lambda       -0.2774665E-06
   maximum displ.:     0.0301973 α      in ANC's #7, #3, #5, ...
 * RMSD in coord.:     0.0954842 α      energy gain  -0.3943505E-02 Eh

generating ANC from exact Hessian ...
Using Lindh-Hessian (1995)
 Shifting diagonal of input Hessian by   9.693524450393442E-003
 Lowest  eigenvalues of input Hessian
    0.000000    0.000000    0.000000    0.000000    0.000000    0.000000
    0.010000    0.010340    0.010714    0.011135    0.011237    0.011278
    0.011304    0.012029    0.012930    0.013592    0.015530    0.017780
 Highest eigenvalues
    2.026319    2.027094    2.056923    2.161844    2.165658    2.169367
 

........................................................................
.............................. CYCLE   21 ..............................
........................................................................
------------------------------------------------------------
  cycle        total energy    energy error   density error
------------------------------------------------------------
      1     -86.16328625107  -8.7745034E+01   2.7302583E-04
      2     -86.16328565926   5.9181673E-07   1.7698147E-04
      3     -86.16318250827   1.0315099E-04   9.7184757E-04
      4     -86.16328615092  -1.0364265E-04   2.8243029E-05
      5     -86.16328629410  -1.4318280E-07   4.9679653E-06
------------------------------------------------------------

 total:                                   0.053 sec
 * total energy  :   -86.1632863 Eh     change       -0.3463107E-06 Eh
   gradient norm :     0.0000553 Eh/α   predicted     0.0000000E+00 (-100.00%)
   displ. norm   :     0.0000829 α      lambda        0.0000000E+00
   maximum displ.:     0.0000267 α      in ANC's #8, #144, #10, ...

........................................................................
.............................. CYCLE   22 ..............................
........................................................................
------------------------------------------------------------
  cycle        total energy    energy error   density error
------------------------------------------------------------
      1     -86.16328563988  -8.7745030E+01   7.5864709E-05
      2     -86.16324683977   3.8800113E-05   5.9760001E-04
      3     -86.16328628233  -3.9442561E-05   9.6484992E-06
      4     -86.16328629984  -1.7514338E-08   1.5459401E-06
------------------------------------------------------------

 total:                                   0.041 sec
 * total energy  :   -86.1632863 Eh     change       -0.5744425E-08 Eh
   gradient norm :     0.0000434 Eh/α   predicted    -0.1915106E-08 ( -66.66%)
   displ. norm   :     0.0000829 α      lambda        0.0000000E+00
   maximum displ.:     0.0000267 α      in ANC's #8, #144, #10, ...

   *** GEOMETRY OPTIMIZATION CONVERGED AFTER 22 ITERATIONS ***

------------------------------------------------------------------------
 total energy gain   :        -0.0039439 Eh       -2.4748 kcal/mol
 total RMSD          :         0.0954843 a0        0.0505 Å
 total power (kW/mol):        -0.4706634 (step)   -7.3956 (real)
------------------------------------------------------------------------

 ANCopt (total)                0 d,  0 h,  0 min,  1.400 sec
 optimizer setup                ...        0 min,  0.000 sec (  0.017%)
 model hessian                  ...        0 min,  0.061 sec (  4.351%)
 ANC generation                 ...        0 min,  0.009 sec (  0.645%)
 coordinate transformation      ...        0 min,  0.002 sec (  0.171%)
 single point calculation       ...        0 min,  1.317 sec ( 94.070%)
 optimization log               ...        0 min,  0.004 sec (  0.253%)
 hessian update                 ...        0 min,  0.002 sec (  0.175%)
 rational function              ...        0 min,  0.002 sec (  0.150%)

================
 final structure:
================
55
 xtb: 6.7.1 (edcfbbe)
O           -5.14576085086402       -0.01468611352861        0.07066209181109
C           -3.88162096716241       -0.01070925085933        0.04879628674893
C           -3.11754559277512       -1.23581937233812        0.09232161119703
C           -3.82131155753969       -2.45609342293639        0.15785937407503
C           -3.14596305944680       -3.65005957016738        0.20090172784720
C           -1.75624409372698       -3.67155190934290        0.18009504822315
C           -1.05731345146739       -2.47688011855361        0.11596961222631
C           -1.71877499221616       -1.26200353303122        0.07192299716988
C           -0.87100413209168       -0.00059517067213        0.00672841737801
C           -1.72886531108206        1.25438102612766       -0.04592161538855
C           -1.07706479626359        2.47320960322958       -0.11681984411458
C           -1.78540964962599        3.66305355551718       -0.16534379031975
C           -3.17491550947941        3.63266380267882       -0.14192248227300
C           -3.84081033998554        2.43465309494996       -0.07187901680784
C           -3.12741023344770        1.21923471095338       -0.02278020379073
C           -0.03879839622008       -0.05528641851359       -1.24871155604705
C           -0.68883736994434       -0.10917377601416       -2.47414703738431
C            0.01966255301743       -0.15613198086248       -3.65813637335337
C            1.40749460893582       -0.14721742657149       -3.62436059141230
C            2.07337636223420       -0.09430044336144       -2.41980093492751
C            1.36162037998208       -0.05010367524714       -1.21450869637164
N            2.03676361756633        0.00229313267486       -0.00968684987632
C            3.46199527114352        0.00752941730782       -0.01810683440260
C            4.14807980517527        1.21479983990584       -0.01087162259494
C            5.53170734066425        1.21605380284726       -0.01937351012438
C            6.22809000923074        0.01883989149392       -0.03569716112811
C            5.54131536018353       -1.18399630671155       -0.04305266819915
C            4.15768079261989       -1.19410516418306       -0.03394577693341
C            1.37522944986726        0.05587736822576        1.20261418101232
C            2.10059640309153        0.10297406236546        2.39963899829919
C            1.44841097171686        0.15845817875641        3.61155187954020
C            0.06104742958358        0.16700647673432        3.66102049590476
C           -0.66082938240169        0.11623347247393        2.48531650218150
C           -0.02468859863157        0.05960386632283        1.25271963420675
H           -4.89964810833206       -2.41293432537420        0.17283288170539
H           -3.70042703568789       -4.57599287448036        0.25138532521646
H           -1.22072793357730       -4.60806258763881        0.21391300932014
H            0.02446789914762       -2.48682792019278        0.10017611756577
H            0.00461660235339        2.48999088670326       -0.13451031507451
H           -1.25732713074229        4.60275434662706       -0.22062739181802
H           -3.73669358466018        4.55481361839633       -0.17890703623508
H           -4.91877322223012        2.38466468806038       -0.05248880063820
H           -1.76859919733569       -0.11301483773579       -2.48579150592136
H           -0.50193284960782       -0.19772757336381       -4.60140517704961
H            1.97325492817538       -0.18101225131509       -4.54314197988446
H            3.15253144082630       -0.08549259167345       -2.40318525774227
H            3.59389603036050        2.14153647489146        0.00214843312808
H            6.06603674413393        2.15395646420014       -0.01372738865001
H            7.30741172506448        0.02324124301902       -0.04273159616230
H            6.08323014203354       -2.11747194458560       -0.05558810056701
H            3.61107821608475       -2.12539864890237       -0.03987868370520
H            3.17949928138213        0.09453129936207        2.37073898356080
H            2.02449568311522        0.19470568538384        4.52379627532917
H           -0.44990553421328        0.21113154415200        4.60998120401454
H           -1.74036698894291        0.11934624070758        2.50945547826436
 
 Bond Distances (Angstroems)
 ---------------------------
O1-C2=1.2643         C2-O1=1.2643         C2-C3=1.4445         C2-C15=1.4445        C3-C2=1.4445         C3-C4=1.4102         
C3-C8=1.3992         C4-C3=1.4102         C4-C5=1.3724         C4-H35=1.0793        C5-C4=1.3724         C5-C6=1.3900         
C5-H36=1.0804        C6-C5=1.3900         C6-C7=1.3856         C6-H37=1.0793        C7-C6=1.3856         C7-C8=1.3840         
C7-H38=1.0819        C8-C3=1.3992         C8-C7=1.3840         C8-C9=1.5212         C9-C8=1.5212         C9-C10=1.5211        
C9-C16=1.5072        C9-C34=1.5074        C10-C9=1.5211        C10-C11=1.3840       C10-C15=1.3992       C11-C10=1.3840       
C11-C12=1.3856       C11-H39=1.0820       C12-C11=1.3856       C12-C13=1.3900       C12-H40=1.0793       C13-C12=1.3900       
C13-C14=1.3724       C13-H41=1.0804       C14-C13=1.3724       C14-C15=1.4102       C14-H42=1.0793       C15-C2=1.4445        
C15-C10=1.3992       C15-C14=1.4102       C16-C9=1.5072        C16-C17=1.3882       C16-C21=1.4008       C17-C16=1.3882       
C17-C18=1.3806       C17-H43=1.0798       C18-C17=1.3806       C18-C19=1.3883       C18-H44=1.0787       C19-C18=1.3883       
C19-C20=1.3774       C19-H45=1.0795       C20-C19=1.3774       C20-C21=1.4005       C20-H46=1.0793       C21-C16=1.4008       
C21-C20=1.4005       C21-N22=1.3821       N22-C21=1.3821       N22-C23=1.4253       N22-C29=1.3821       C23-N22=1.4253       
C23-C24=1.3886       C23-C28=1.3886       C24-C23=1.3886       C24-C25=1.3837       C24-H47=1.0799       C25-C24=1.3837       
C25-C26=1.3851       C25-H48=1.0794       C26-C25=1.3851       C26-C27=1.3851       C26-H49=1.0794       C27-C26=1.3851       
C27-C28=1.3837       C27-H50=1.0794       C28-C23=1.3886       C28-C27=1.3837       C28-H51=1.0799       C29-N22=1.3821       
C29-C30=1.4004       C29-C34=1.4008       C30-C29=1.4004       C30-C31=1.3774       C30-H52=1.0793       C31-C30=1.3774       
C31-C32=1.3883       C31-H53=1.0795       C32-C31=1.3883       C32-C33=1.3806       C32-H54=1.0787       C33-C32=1.3806       
C33-C34=1.3882       C33-H55=1.0798       C34-C9=1.5074        C34-C29=1.4008       C34-C33=1.3882       H35-C4=1.0793        
H36-C5=1.0804        H37-C6=1.0793        H38-C7=1.0819        H39-C11=1.0820       H40-C12=1.0793       H41-C13=1.0804       
H42-C14=1.0793       H43-C17=1.0798       H44-C18=1.0787       H45-C19=1.0795       H46-C20=1.0793       H47-C24=1.0799       
H48-C25=1.0794       H49-C26=1.0794       H50-C27=1.0794       H51-C28=1.0799       H52-C30=1.0793       H53-C31=1.0795       
H54-C32=1.0787       H55-C33=1.0798       
 C  H  Rav=1.0797 sigma=0.0008  Rmin=1.0787  Rmax=1.0820    21
 C  C  Rav=1.4060 sigma=0.0413  Rmin=1.3724  Rmax=1.5212    36
 N  C  Rav=1.3965 sigma=0.0204  Rmin=1.3821  Rmax=1.4253     3
 O  C  Rav=1.2643 sigma=0.0000  Rmin=1.2643  Rmax=1.2643     1
 
 selected bond angles (degree)
 --------------------
C3-C2-O1=121.71                C15-C2-O1=121.71               C15-C2-C3=116.58               C4-C3-C2=118.12                
C8-C3-C2=122.97                C8-C3-C4=118.91                C5-C4-C3=120.58                H35-C4-C3=117.69               
H35-C4-C5=121.74               C6-C5-C4=120.33                H36-C5-C4=119.64               H36-C5-C6=120.03               
C7-C6-C5=119.45                H37-C6-C5=120.60               H37-C6-C7=119.95               C8-C7-C6=121.15                
H38-C7-C6=119.81               H38-C7-C8=119.04               C7-C8-C3=119.59                C9-C8-C3=122.84                
C9-C8-C7=117.57                C10-C9-C8=111.80               C16-C9-C8=108.26               C16-C9-C10=108.21              
C34-C9-C8=108.09               C34-C9-C10=108.20              C34-C9-C16=112.33              C11-C10-C9=117.57              
C15-C10-C9=122.85              C15-C10-C11=119.59             
 
 selected dihedral angles (degree)
 ---------------------------------
C4-C3-C2-O1=  0.14            C4-C3-C2-C15=180.21           C8-C3-C2-O1=180.12            C8-C3-C2-C15=  0.20           
C5-C4-C3-C2=179.98            C5-C4-C3-C8=  0.00            H35-C4-C3-C2=359.97           H35-C4-C3-C8=179.98           
C6-C5-C4-C3=  0.00            C6-C5-C4-H35=180.00           H36-C5-C4-C3=179.97           H36-C5-C4-H35=  0.00          
C7-C6-C5-C4=  0.00            C7-C6-C5-H36=180.04           H37-C6-C5-C4=179.99           H37-C6-C5-H36=  0.00          
C8-C7-C6-C5=  0.00            C8-C7-C6-H37=180.02           H38-C7-C6-C5=179.96           H38-C7-C6-H37=  0.00          
C7-C8-C3-C2=180.03            C7-C8-C3-C4=  0.00            C9-C8-C3-C2=  0.22            C9-C8-C3-C4=180.20            
C3-C8-C7-C6=  0.00            C3-C8-C7-H38=180.03           C9-C8-C7-C6=179.82            C9-C8-C7-H38=359.85           
C10-C9-C8-C3=359.44           C10-C9-C8-C7=179.62           C16-C9-C8-C3=240.33           C16-C9-C8-C7= 60.52           
C34-C9-C8-C3=118.42           C34-C9-C8-C7=298.60           C11-C10-C9-C8=180.42          C11-C10-C9-C16=299.56         
C11-C10-C9-C34= 61.51         C15-C10-C9-C8=  0.56          C15-C10-C9-C16=119.69         C15-C10-C9-C34=241.64         
           -------------------------------------------------
          |                Final Singlepoint                |
           -------------------------------------------------
repulsion energy          1.5795914784585E+00 Eh
dispersion energy         2.1524520417848E-03 Eh
interaction energy        0.0000000000000E+00 Eh
number of electrons       1.6000000000000E+02 e
integral cutoff           1.7347787504999E+01 bohr

------------------------------------------------------------
  cycle        total energy    energy error   density error
------------------------------------------------------------
      1     -86.16328627654  -8.7745030E+01   1.3656437E-05
      2     -86.16328512870   1.1478411E-06   1.0269258E-04
      3     -86.16328629634  -1.1676450E-06   4.5463878E-06
      4     -86.16328630018  -3.8418904E-09   1.3692220E-07
------------------------------------------------------------

electronic energy        -8.7745030230685E+01 Eh
total energy             -8.6163286300184E+01 Eh

 total:                                   0.040 sec
 - repulsion                              0.000 sec (  0%)
 - dispersion                             0.001 sec (  3%)
 - coulomb                                0.002 sec (  5%)
 - hamiltonian                            0.004 sec ( 11%)
 - scc                                    0.032 sec ( 79%)

           ------------------------------------------------- 
          |                Numerical Hessian                |
           ------------------------------------------------- 
step length          :   0.00500
SCC accuracy         :   0.30000
Hessian scale factor :   1.00000
frozen atoms in %    :   0.00000    0
RMS gradient         :   0.00004
estimated CPU  time     18.31 min
estimated wall time      0.47 min

writing file <hessian>.

 projected vibrational frequencies (cm⁻¹)
eigval :       -0.00    -0.00     0.00     0.00     0.00     0.00
eigval :        9.89    13.19    14.13    46.25    50.72    61.84
eigval :       70.06    73.15   100.41   118.31   132.89   140.45
eigval :      173.52   198.09   228.66   229.00   247.90   250.10
eigval :      262.24   279.45   304.57   345.09   355.70   372.19
eigval :      381.83   389.98   398.44   400.04   409.20   424.10
eigval :      443.04   452.49   457.20   478.93   494.37   511.47
eigval :      512.92   531.31   532.96   585.66   590.77   592.70
eigval :      595.05   597.93   606.86   624.80   654.33   657.07
eigval :      667.96   684.69   694.52   694.66   711.24   753.34
eigval :      759.11   763.34   766.01   771.05   776.55   854.12
eigval :      855.20   867.05   868.04   875.38   884.02   884.56
eigval :      889.64   893.42   896.55   904.03   908.27   909.26
eigval :      909.59   913.12   914.14   922.79   922.84   928.96
eigval :      934.24   937.41   943.31   995.67  1077.73  1079.07
eigval :     1087.19  1087.89  1100.68  1102.02  1107.82  1114.17
eigval :     1125.19  1134.50  1161.45  1169.81  1174.89  1180.03
eigval :     1180.34  1182.14  1185.34  1191.20  1191.97  1194.84
eigval :     1204.57  1222.72  1231.09  1251.99  1254.10  1260.84
eigval :     1266.85  1272.69  1309.37  1315.30  1319.59  1335.98
eigval :     1338.86  1341.28  1342.15  1381.03  1406.08  1427.36
eigval :     1432.21  1433.43  1440.58  1441.16  1452.93  1465.43
eigval :     1470.37  1479.60  1522.25  1528.00  1554.48  1555.74
eigval :     1569.61  1577.34  1580.41  1583.34  1591.18  1595.44
eigval :     3057.62  3057.81  3073.24  3073.39  3084.95  3085.82
eigval :     3086.02  3086.25  3089.73  3089.96  3091.07  3091.27
eigval :     3092.69  3097.53  3098.26  3098.50  3098.64  3099.34
eigval :     3103.79  3105.30  3105.53
           -------------------------------------------------
          |                Property Printout                |
           -------------------------------------------------
           -------------------------------------------------
          |                Geometry Summary                 |
           -------------------------------------------------

      molecular mass/u    :      435.5164127
   center of mass at/Å    :       -0.0001137       0.0008068       0.0056104
  moments of inertia/u·Å² :        0.2312149E+04   0.5018415E+04   0.5117282E+04
rotational constants/cm⁻¹ :        0.7290895E-02   0.3359154E-02   0.3294255E-02

 * 54 selected distances

     #   Z          #   Z                                           value/Å
     3   6 C        4   6 C                                       1.4101953
     4   6 C        5   6 C                                       1.3724080
     5   6 C        6   6 C                                       1.3900410
     6   6 C        7   6 C                                       1.3855891
     3   6 C        8   6 C                                       1.3991645
     7   6 C        8   6 C                                       1.3839787
    10   6 C       11   6 C                                       1.3839848
    11   6 C       12   6 C                                       1.3855815
    12   6 C       13   6 C                                       1.3900356
    13   6 C       14   6 C                                       1.3724256
    10   6 C       15   6 C                                       1.3991780
    14   6 C       15   6 C                                       1.4101747
    16   6 C       17   6 C                                       1.3882172
    17   6 C       18   6 C                                       1.3805826
    18   6 C       19   6 C                                       1.3882717
    19   6 C       20   6 C                                       1.3773754
    16   6 C       21   6 C                                       1.4008461
    20   6 C       21   6 C                                       1.4004570
    21   6 C       22   7 N                                       1.3820853
    22   7 N       23   6 C                                       1.4252663 (max)
    23   6 C       24   6 C                                       1.3886204
    24   6 C       25   6 C                                       1.3836544
    25   6 C       26   6 C                                       1.3851126
    26   6 C       27   6 C                                       1.3851097
    23   6 C       28   6 C                                       1.3885803
    27   6 C       28   6 C                                       1.3837016
    22   7 N       29   6 C                                       1.3820900
    29   6 C       30   6 C                                       1.4004442
    30   6 C       31   6 C                                       1.3773734
    31   6 C       32   6 C                                       1.3882716
    32   6 C       33   6 C                                       1.3805666
    29   6 C       34   6 C                                       1.4008195
    33   6 C       34   6 C                                       1.3882282
     4   6 C       35   1 H                                       1.0793039
     5   6 C       36   1 H                                       1.0804312
     6   6 C       37   1 H                                       1.0793395
     7   6 C       38   1 H                                       1.0819425
    11   6 C       39   1 H                                       1.0819563
    12   6 C       40   1 H                                       1.0793355
    13   6 C       41   1 H                                       1.0804272
    14   6 C       42   1 H                                       1.0792956
    17   6 C       43   1 H                                       1.0798315
    18   6 C       44   1 H                                       1.0786789
    19   6 C       45   1 H                                       1.0795306
    20   6 C       46   1 H                                       1.0793190
    24   6 C       47   1 H                                       1.0798751
    25   6 C       48   1 H                                       1.0794450
    26   6 C       49   1 H                                       1.0793537
    27   6 C       50   1 H                                       1.0794470
    28   6 C       51   1 H                                       1.0798691
    30   6 C       52   1 H                                       1.0793230
    31   6 C       53   1 H                                       1.0795265
    32   6 C       54   1 H                                       1.0786782 (min)
    33   6 C       55   1 H                                       1.0798120

 * 3 distinct bonds (by element types)

   Z      Z             #   av. dist./Å        max./Å        min./Å
   1 H    6 C          21     1.0797486     1.0819563     1.0786782
   6 C    6 C          30     1.3889663     1.4101953     1.3724080
   6 C    7 N           3     1.3964805     1.4252663     1.3820853

           -------------------------------------------------
          |               Frequency Printout                |
           -------------------------------------------------
 projected vibrational frequencies (cm⁻¹)
eigval :       -0.00    -0.00     0.00     0.00     0.00     0.00
eigval :        9.89    13.19    14.13    46.25    50.72    61.84
eigval :       70.06    73.15   100.41   118.31   132.89   140.45
eigval :      173.52   198.09   228.66   229.00   247.90   250.10
eigval :      262.24   279.45   304.57   345.09   355.70   372.19
eigval :      381.83   389.98   398.44   400.04   409.20   424.10
eigval :      443.04   452.49   457.20   478.93   494.37   511.47
eigval :      512.92   531.31   532.96   585.66   590.77   592.70
eigval :      595.05   597.93   606.86   624.80   654.33   657.07
eigval :      667.96   684.69   694.52   694.66   711.24   753.34
eigval :      759.11   763.34   766.01   771.05   776.55   854.12
eigval :      855.20   867.05   868.04   875.38   884.02   884.56
eigval :      889.64   893.42   896.55   904.03   908.27   909.26
eigval :      909.59   913.12   914.14   922.79   922.84   928.96
eigval :      934.24   937.41   943.31   995.67  1077.73  1079.07
eigval :     1087.19  1087.89  1100.68  1102.02  1107.82  1114.17
eigval :     1125.19  1134.50  1161.45  1169.81  1174.89  1180.03
eigval :     1180.34  1182.14  1185.34  1191.20  1191.97  1194.84
eigval :     1204.57  1222.72  1231.09  1251.99  1254.10  1260.84
eigval :     1266.85  1272.69  1309.37  1315.30  1319.59  1335.98
eigval :     1338.86  1341.28  1342.15  1381.03  1406.08  1427.36
eigval :     1432.21  1433.43  1440.58  1441.16  1452.93  1465.43
eigval :     1470.37  1479.60  1522.25  1528.00  1554.48  1555.74
eigval :     1569.61  1577.34  1580.41  1583.34  1591.18  1595.44
eigval :     3057.62  3057.81  3073.24  3073.39  3084.95  3085.82
eigval :     3086.02  3086.25  3089.73  3089.96  3091.07  3091.27
eigval :     3092.69  3097.53  3098.26  3098.50  3098.64  3099.34
eigval :     3103.79  3105.30  3105.53
 reduced masses (amu)
   1: 11.88   2: 11.26   3: 11.44   4: 11.36   5: 11.32   6: 11.74   7: 11.04   8:  9.78
   9: 12.53  10: 10.71  11: 10.59  12: 10.84  13: 10.72  14: 10.64  15:  9.83  16:  9.80
  17: 12.01  18: 11.23  19: 10.47  20: 10.84  21: 10.55  22: 10.87  23: 11.30  24: 10.32
  25: 10.89  26: 10.20  27: 13.36  28: 11.31  29: 10.13  30:  8.85  31: 11.26  32: 10.75
  33: 11.79  34: 10.80  35: 11.21  36:  9.55  37:  9.66  38: 10.85  39: 10.86  40: 10.06
  41: 10.07  42:  9.93  43: 11.06  44: 12.24  45: 10.81  46: 11.41  47: 11.15  48: 11.30
  49: 11.49  50: 10.88  51: 11.10  52: 11.30  53: 11.49  54: 11.17  55: 10.01  56: 10.36
  57: 11.62  58: 11.58  59: 11.21  60: 11.47  61:  3.62  62:  3.22  63:  5.24  64:  3.60
  65:  3.53  66:  3.73  67:  3.66  68:  3.88  69:  3.52  70:  3.33  71: 10.86  72:  6.01
  73:  3.61  74: 11.39  75:  6.99  76:  5.00  77:  3.34  78:  4.35  79: 11.76  80:  4.44
  81:  3.92  82:  3.21  83:  3.23  84:  4.16  85:  3.30  86: 10.89  87: 10.96  88: 10.86
  89:  8.37  90:  8.55  91:  7.03  92:  6.07  93:  6.87  94:  6.01  95:  7.51  96:  3.88
  97:  6.82  98:  8.15  99:  4.92 100:  2.27 101:  2.00 102:  1.37 103:  2.37 104:  1.43
 105:  2.00 106:  9.46 107:  5.45 108:  7.59 109:  8.93 110:  8.87 111:  5.74 112:  4.04
 113:  5.02 114:  4.19 115:  6.55 116:  3.62 117: 11.81 118: 10.37 119: 10.74 120: 11.67
 121: 11.97 122: 11.57 123: 11.73 124:  8.73 125:  9.54 126:  9.94 127:  8.93 128:  9.55
 129: 10.61 130:  9.18 131:  9.44 132:  9.26 133: 11.14 134:  9.95 135: 11.44 136: 11.51
 137: 11.38 138: 11.52 139: 11.65 140: 11.61 141: 11.40 142: 11.53 143: 11.47 144: 11.51
 145:  1.79 146:  1.79 147:  1.78 148:  1.78 149:  1.75 150:  1.76 151:  1.76 152:  1.79
 153:  1.86 154:  1.86 155:  1.80 156:  1.80 157:  1.84 158:  1.88 159:  1.87 160:  1.85
 161:  1.86 162:  1.86 163:  1.93 164:  1.91 165:  1.91
 IR intensities (km·mol⁻¹)
   1:  0.24   2:  0.25   3:  0.67   4:  0.26   5:  0.53   6:  1.03   7:  0.09   8:  0.01
   9:  1.06  10:  0.00  11:  0.00  12:  0.28  13:  0.04  14:  0.23  15:  0.01  16:  0.00
  17:  3.70  18:  2.04  19:  0.02  20:  1.47  21:  0.03  22:  0.12  23:  3.74  24:  0.11
  25:  0.01  26:  0.08  27:  1.80  28:  4.52  29:  0.64  30:  0.00  31:  4.88  32:  0.92
  33:  1.32  34:  0.30  35:  0.01  36:  0.16  37:  0.07  38:  0.64  39:  0.04  40:  0.25
  41:  3.89  42:  0.00  43:  0.65  44:  7.54  45:  9.20  46:  2.98  47:  3.23  48:  0.78
  49:  0.43  50:  3.37  51:  0.00  52:  0.75  53:  0.09  54:  0.06  55:  2.35  56:  3.36
  57:  0.60  58:  0.48  59:  8.41  60: 19.21  61: 45.05  62:  0.13  63:  0.72  64: 40.33
  65:  0.30  66:  3.51  67:  0.27  68:  0.01  69:  0.13  70:  0.00  71:  2.25  72:  0.87
  73:  0.10  74:  2.12  75:  2.98  76:  0.66  77:  0.03  78:  1.74  79:  0.00  80:  0.01
  81:  0.16  82:  0.01  83:  0.40  84:  0.03  85:  0.09  86:  0.81  87:  7.75  88:  6.32
  89:  0.14  90:  0.84  91:  1.10  92:  6.94  93: 67.63  94:  0.07  95: 11.06  96:  2.74
  97:  3.84  98:  9.67  99:151.80 100: 36.26 101:  0.03 102:  0.04 103: 73.24 104:  0.11
 105:  6.09 106:195.35 107:  6.73 108:128.09 109:  0.84 110:  3.49 111:  0.58 112: 65.76
 113:  6.36 114: 39.18 115:  0.17 116:  0.04 117:  0.72 118: 54.18 119: 49.68 120: 35.75
 121: 18.16 122: 16.48 123: 16.75 124: 56.20 125:  6.63 126: 69.45 127:  1.43 128:  9.43
 129:128.79 130: 33.46 131: 19.49 132:  3.95 133: 67.40 134:307.30 135: 19.42 136:  0.05
 137:176.86 138:  9.24 139:105.47 140: 29.63 141:  2.41 142:  1.45 143: 37.22 144:  6.70
 145:  8.55 146:  8.15 147: 22.20 148: 50.67 149: 11.53 150:  9.04 151: 21.68 152:  0.15
 153: 73.22 154: 26.49 155: 49.30 156: 34.58 157: 18.77 158: 53.10 159:  7.97 160:  1.63
 161: 33.76 162:  6.63 163: 55.12 164: 79.87 165:102.29
 Raman intensities (Ä⁴*amu⁻¹)
   1:  0.00   2:  0.00   3:  0.00   4:  0.00   5:  0.00   6:  0.00   7:  0.00   8:  0.00
   9:  0.00  10:  0.00  11:  0.00  12:  0.00  13:  0.00  14:  0.00  15:  0.00  16:  0.00
  17:  0.00  18:  0.00  19:  0.00  20:  0.00  21:  0.00  22:  0.00  23:  0.00  24:  0.00
  25:  0.00  26:  0.00  27:  0.00  28:  0.00  29:  0.00  30:  0.00  31:  0.00  32:  0.00
  33:  0.00  34:  0.00  35:  0.00  36:  0.00  37:  0.00  38:  0.00  39:  0.00  40:  0.00
  41:  0.00  42:  0.00  43:  0.00  44:  0.00  45:  0.00  46:  0.00  47:  0.00  48:  0.00
  49:  0.00  50:  0.00  51:  0.00  52:  0.00  53:  0.00  54:  0.00  55:  0.00  56:  0.00
  57:  0.00  58:  0.00  59:  0.00  60:  0.00  61:  0.00  62:  0.00  63:  0.00  64:  0.00
  65:  0.00  66:  0.00  67:  0.00  68:  0.00  69:  0.00  70:  0.00  71:  0.00  72:  0.00
  73:  0.00  74:  0.00  75:  0.00  76:  0.00  77:  0.00  78:  0.00  79:  0.00  80:  0.00
  81:  0.00  82:  0.00  83:  0.00  84:  0.00  85:  0.00  86:  0.00  87:  0.00  88:  0.00
  89:  0.00  90:  0.00  91:  0.00  92:  0.00  93:  0.00  94:  0.00  95:  0.00  96:  0.00
  97:  0.00  98:  0.00  99:  0.00 100:  0.00 101:  0.00 102:  0.00 103:  0.00 104:  0.00
 105:  0.00 106:  0.00 107:  0.00 108:  0.00 109:  0.00 110:  0.00 111:  0.00 112:  0.00
 113:  0.00 114:  0.00 115:  0.00 116:  0.00 117:  0.00 118:  0.00 119:  0.00 120:  0.00
 121:  0.00 122:  0.00 123:  0.00 124:  0.00 125:  0.00 126:  0.00 127:  0.00 128:  0.00
 129:  0.00 130:  0.00 131:  0.00 132:  0.00 133:  0.00 134:  0.00 135:  0.00 136:  0.00
 137:  0.00 138:  0.00 139:  0.00 140:  0.00 141:  0.00 142:  0.00 143:  0.00 144:  0.00
 145:  0.00 146:  0.00 147:  0.00 148:  0.00 149:  0.00 150:  0.00 151:  0.00 152:  0.00
 153:  0.00 154:  0.00 155:  0.00 156:  0.00 157:  0.00 158:  0.00 159:  0.00 160:  0.00
 161:  0.00 162:  0.00 163:  0.00 164:  0.00 165:  0.00
 output can be read by thermo (or use thermo option).
 writing <g98.out> molden fake output.
 recommended (thermochemical) frequency scaling factor: 1.0
           -------------------------------------------------
          |             Thermodynamic Functions             |
           -------------------------------------------------

Molecule has the following symmetry elements: (C2) 
It seems to be the C2 point group
c2  symmetry found (for desy threshold:  0.10E+00) used in thermo

          ...................................................
          :                      SETUP                      :
          :.................................................:
          :  # frequencies                         159      :
          :  # imaginary freq.                       0      :
          :  linear?                             false      :
          :  only rotor calc.                    false      :
          :  symmetry                               c2      :
          :  rotational number                       2      :
          :  scaling factor                  1.0000000      :
          :  rotor cutoff                   50.0000000 cm⁻¹ :
          :  imag. cutoff                  -20.0000000 cm⁻¹ :
          :.................................................:

    mode    ω/cm⁻¹     T·S(HO)/kcal·mol⁻¹    T·S(FR)/kcal·mol⁻¹   T·S(vib)
   ------------------------------------------------------------------------
       1      9.89    -2.39485 (  0.15%)    -1.53639 ( 99.85%)    -1.53771
       2     13.19    -2.22439 (  0.48%)    -1.45117 ( 99.52%)    -1.45490
       3     14.13    -2.18368 (  0.63%)    -1.43081 ( 99.37%)    -1.43559
       4     46.25    -1.48229 ( 42.27%)    -1.07962 ( 57.73%)    -1.24981
       5     50.72    -1.42784 ( 51.43%)    -1.05228 ( 48.57%)    -1.24545
       6     61.84    -1.31115 ( 70.06%)    -0.99358 ( 29.94%)    -1.21606
       7     70.06    -1.23784 ( 79.40%)    -0.95661 ( 20.60%)    -1.17991
       8     73.15    -1.21251 ( 82.08%)    -0.94382 ( 17.92%)    -1.16437
       9    100.41    -1.02755 ( 94.21%)    -0.85000 (  5.79%)    -1.01726
      10    118.31    -0.93254 ( 96.91%)    -0.80139 (  3.09%)    -0.92849
      11    132.89    -0.86578 ( 98.04%)    -0.76697 (  1.96%)    -0.86384
      12    140.45    -0.83412 ( 98.42%)    -0.75056 (  1.58%)    -0.83280
      13    173.52    -0.71467 ( 99.32%)    -0.68794 (  0.68%)    -0.71449
      14    198.09    -0.64124 ( 99.60%)    -0.64870 (  0.40%)    -0.64127
      15    228.66    -0.56335 ( 99.77%)    -0.60620 (  0.23%)    -0.56344
      16    229.00    -0.56253 ( 99.77%)    -0.60575 (  0.23%)    -0.56263
      17    247.90    -0.52040 ( 99.83%)    -0.58226 (  0.17%)    -0.52050
      18    250.10    -0.51575 ( 99.84%)    -0.57964 (  0.16%)    -0.51585
      19    262.24    -0.49100 ( 99.87%)    -0.56560 (  0.13%)    -0.49110
      20    279.45    -0.45827 ( 99.90%)    -0.54677 (  0.10%)    -0.45836
   ------------------------------------------------------------------------

   temp. (K)  partition function   enthalpy   heat capacity  entropy
                                   cal/mol     cal/K/mol   cal/K/mol   J/K/mol
 298.15  VIB  0.179E+12            14776.154     97.512     90.968
         ROT  0.931E+07              888.752      2.981     34.869
         INT  0.167E+19            15664.907    100.493    125.837
         TR   0.879E+28             1481.254      4.968     44.084
         TOT                       17146.1605   105.4610   169.9208   710.9488

       T/K    H(0)-H(T)+PV         H(T)/Eh          T*S/Eh         G(T)/Eh
   ------------------------------------------------------------------------
    298.15    0.273241E-01    0.445836E+00    0.807349E-01    0.365101E+00
   ------------------------------------------------------------------------

         :::::::::::::::::::::::::::::::::::::::::::::::::::::
         ::                  THERMODYNAMIC                  ::
         :::::::::::::::::::::::::::::::::::::::::::::::::::::
         :: total free energy         -85.798184805041 Eh   ::
         ::.................................................::
         :: total energy              -86.163286300184 Eh   ::
         :: zero point energy           0.418512224138 Eh   ::
         :: G(RRHO) w/o ZPVE           -0.053410728996 Eh   ::
         :: G(RRHO) contrib.            0.365101495142 Eh   ::
         :::::::::::::::::::::::::::::::::::::::::::::::::::::

optimized geometry written to: xtbopt.xyz


           -------------------------------------------------
          | TOTAL ENERGY              -86.163286300184 Eh   |
          | TOTAL ENTHALPY            -85.717449929964 Eh   |
          | TOTAL FREE ENERGY         -85.798184805041 Eh   |
          | GRADIENT NORM               0.000042826198 Eh/α |
           -------------------------------------------------

------------------------------------------------------------------------
 * finished run on 2025/09/12 at 23:53:11.588     
------------------------------------------------------------------------
 total:
 * wall-time:     0 d,  0 h,  0 min,  3.882 sec
 *  cpu-time:     0 d,  0 h,  2 min, 19.585 sec
 * ratio c/w:    35.955 speedup
 SCF:
 * wall-time:     0 d,  0 h,  0 min,  0.365 sec
 *  cpu-time:     0 d,  0 h,  0 min, 13.557 sec
 * ratio c/w:    37.163 speedup
 ANC optimizer:
 * wall-time:     0 d,  0 h,  0 min,  1.442 sec
 *  cpu-time:     0 d,  0 h,  0 min, 57.575 sec
 * ratio c/w:    39.926 speedup
 analytical hessian:
 * wall-time:     0 d,  0 h,  0 min,  2.020 sec
 *  cpu-time:     0 d,  0 h,  1 min,  7.424 sec
 * ratio c/w:    33.385 speedup

