 Entering Gaussian System
 *********************************************
 Gaussian 98:
 frequency output generated by the xtb code
 *********************************************
                         Standard orientation:
 --------------------------------------------------------------------
  Center     Atomic     Atomic              Coordinates (Angstroms)
  Number     Number      Type              X           Y           Z
 --------------------------------------------------------------------
    1          6             0      -13.490291   -3.359178   -3.386516
    2          6             0      -13.133211   -2.059858   -3.064288
    3          6             0      -12.207989   -1.818035   -2.065059
    4          6             0      -11.626381   -2.884544   -1.385616
    5          7             0      -10.682426   -2.644817   -0.373143
    6          6             0      -10.723956   -3.161115    0.908353
    7          6             0      -11.680702   -3.970400    1.504268
    8          6             0      -11.489592   -4.329015    2.825918
    9          6             0      -10.380540   -3.889989    3.545616
   10          6             0       -9.436755   -3.064712    2.964117
   11          6             0       -9.607354   -2.691228    1.638060
   12          6             0       -8.856953   -1.855059    0.740017
   13          6             0       -7.679669   -1.139314    0.870131
   14          6             0       -7.196636   -0.413932   -0.217815
   15          6             0       -5.967414    0.371708   -0.097058
   16          6             0       -4.884239   -0.117462    0.657929
   17          6             0       -3.717009    0.596720    0.814812
   18          6             0       -3.627000    1.851206    0.219340
   19          6             0       -4.692545    2.345022   -0.580728
   20          6             0       -5.852691    1.607939   -0.731703
   21          6             0       -4.258148    3.613091   -1.095523
   22          6             0       -4.846310    4.564143   -1.917909
   23          6             0       -4.143849    5.720678   -2.202489
   24          6             0       -2.878383    5.942528   -1.662760
   25          6             0       -2.272496    5.006667   -0.843476
   26          6             0       -2.956395    3.829916   -0.579194
   27          7             0       -2.590895    2.756549    0.216712
   28          6             0       -1.389819    2.628622    0.907527
   29          6             0       -1.371613    2.183795    2.255628
   30          6             0       -0.195366    2.067492    2.926421
   31          6             0        1.060567    2.399683    2.336925
   32          6             0        2.218403    2.428875    3.152468
   33          6             0        3.410109    3.146511    2.844107
   34          6             0        4.489769    3.076969    3.679783
   35          6             0        4.412961    2.310762    4.853271
   36          6             0        3.195961    1.699019    5.125631
   37          7             0        2.154038    1.748100    4.337401
   38          6             0        1.028158    2.731755    0.932734
   39          7             0        2.213749    2.828579    0.188811
   40          6             0        2.578558    3.878630   -0.630349
   41          6             0        1.940399    5.091808   -0.844483
   42          6             0        2.538499    5.997086   -1.701252
   43          6             0        3.750256    5.710662   -2.326586
   44          6             0        4.406574    4.515740   -2.094870
   45          6             0        3.824868    3.592131   -1.238038
   46          6             0        4.221003    2.296551   -0.755775
   47          6             0        5.327820    1.497100   -0.979805
   48          6             0        5.419236    0.263720   -0.338982
   49          6             0        6.597896   -0.588224   -0.532078
   50          6             0        7.204087   -0.683904   -1.795155
   51          6             0        8.316973   -1.465918   -2.019109
   52          6             0        8.844020   -2.175386   -0.946924
   53          6             0        8.261855   -2.077612    0.339676
   54          6             0        7.138686   -1.292627    0.540202
   55          6             0        9.068819   -2.886393    1.212674
   56          6             0        8.998474   -3.198538    2.563723
   57          6             0        9.948214   -4.049054    3.096462
   58          6             0       10.950157   -4.595552    2.297317
   59          6             0       11.040843   -4.299338    0.949996
   60          6             0       10.102652   -3.428432    0.414135
   61          7             0        9.952845   -2.989866   -0.887264
   62          6             0       10.798393   -3.308893   -1.963301
   63          6             0       10.264909   -3.815671   -3.144600
   64          6             0       11.101498   -4.123727   -4.202083
   65          6             0       12.469596   -3.937601   -4.087886
   66          6             0       13.001642   -3.436948   -2.910676
   67          6             0       12.172398   -3.117883   -1.850754
   68          6             0        4.374714   -0.156322    0.501884
   69          6             0        3.259183    0.618857    0.731112
   70          6             0        3.193160    1.864031    0.117427
   71          6             0       -0.169020    2.873568    0.269163
   72          6             0       -7.902350   -0.445086   -1.433142
   73          6             0       -9.070095   -1.159712   -1.587229
   74          6             0       -9.562630   -1.853543   -0.487590
   75          6             0      -11.981885   -4.189751   -1.713235
   76          6             0      -12.914494   -4.421062   -2.707981
   77          1             0      -14.215499   -3.544032   -4.164704
   78          1             0      -13.582969   -1.229288   -3.588000
   79          1             0      -11.941805   -0.806436   -1.796737
   80          1             0      -12.551362   -4.303026    0.959705
   81          1             0      -12.218553   -4.960943    3.311933
   82          1             0      -10.265113   -4.193921    4.575637
   83          1             0       -8.585874   -2.712235    3.527588
   84          1             0       -7.156508   -1.122223    1.813942
   85          1             0       -4.959743   -1.099953    1.098885
   86          1             0       -2.888869    0.182868    1.369479
   87          1             0       -6.671486    2.001369   -1.314588
   88          1             0       -5.835589    4.404543   -2.319663
   89          1             0       -4.583743    6.471484   -2.842279
   90          1             0       -2.361798    6.864855   -1.883590
   91          1             0       -1.302466    5.195523   -0.412184
   92          1             0       -2.308706    1.986711    2.754012
   93          1             0       -0.176186    1.756798    3.959501
   94          1             0        3.436198    3.798713    1.985626
   95          1             0        5.393525    3.626037    3.451206
   96          1             0        5.248773    2.218463    5.527621
   97          1             0        3.058873    1.122811    6.035058
   98          1             0        1.013886    5.326948   -0.344047
   99          1             0        2.058785    6.947063   -1.885565
  100          1             0        4.186212    6.440888   -2.992262
  101          1             0        5.355862    4.305302   -2.564190
  102          1             0        6.124887    1.841008   -1.621391
  103          1             0        6.769914   -0.142166   -2.622170
  104          1             0        8.767551   -1.516814   -2.998728
  105          1             0        6.707035   -1.201578    1.525629
  106          1             0        8.213852   -2.786161    3.180551
  107          1             0        9.912463   -4.302725    4.145818
  108          1             0       11.669853   -5.268857    2.739592
  109          1             0       11.811385   -4.739700    0.335392
  110          1             0        9.199836   -3.976826   -3.221799
  111          1             0       10.683037   -4.517835   -5.116450
  112          1             0       13.119963   -4.182673   -4.914090
  113          1             0       14.067176   -3.286212   -2.818723
  114          1             0       12.580180   -2.709274   -0.937985
  115          1             0        4.438456   -1.130694    0.963280
  116          1             0        2.463471    0.271999    1.372518
  117          1             0       -0.161817    3.095030   -0.788935
  118          1             0       -7.497471    0.084263   -2.282654
  119          1             0       -9.578530   -1.188792   -2.539108
  120          1             0      -11.514947   -5.014866   -1.196192
  121          1             0      -13.186343   -5.435692   -2.959185
 --------------------------------------------------------------------
     1 basis functions        1 primitive gaussians
     1 alpha electrons        1 beta electrons
 
 Harmonic frequencies (cm**-1), IR intensities (km*mol⁻¹),
 Raman scattering activities (A**4/amu), Raman depolarization ratios,
 reduced masses (AMU), force constants (mDyne/A) and normal coordinates:
                      1                      2                      3
                        a                      a                      a 
 Frequencies --     5.3381                 8.7587                 9.9092
 Red. masses --    11.4706                11.1715                11.0208
 Frc consts  --     0.0000                 0.0000                 0.0000
 IR Inten    --     1.8340                 6.8103                 0.0615
 Raman Activ --     0.0000                 0.0000                 0.0000
 Depolar     --     0.0000                 0.0000                 0.0000
 Atom AN      X      Y      Z        X      Y      Z        X      Y      Z
   1   6     0.15  -0.13  -0.06     0.04  -0.10  -0.00     0.04   0.02  -0.11
   2   6     0.12  -0.12  -0.06     0.04  -0.09  -0.06     0.05   0.02  -0.12
   3   6     0.10  -0.10  -0.05     0.03  -0.05  -0.05     0.03   0.02  -0.09
   4   6     0.12  -0.09  -0.04     0.00  -0.03   0.01    -0.00   0.02  -0.07
   5   7     0.11  -0.07  -0.03    -0.02   0.01   0.02    -0.03   0.02  -0.05
   6   6     0.10  -0.06  -0.03    -0.05   0.08   0.05    -0.06   0.03  -0.04
   7   6     0.11  -0.08  -0.04    -0.07   0.12   0.07    -0.08   0.05  -0.06
   8   6     0.10  -0.07  -0.03    -0.11   0.18   0.09    -0.12   0.06  -0.05
   9   6     0.08  -0.05  -0.02    -0.12   0.21   0.09    -0.13   0.05  -0.03
  10   6     0.07  -0.03  -0.01    -0.09   0.16   0.07    -0.11   0.04  -0.01
  11   6     0.08  -0.04  -0.02    -0.06   0.10   0.04    -0.07   0.03  -0.02
  12   6     0.07  -0.02  -0.01    -0.03   0.04   0.02    -0.04   0.01  -0.01
  13   6     0.05   0.00   0.00    -0.02   0.03   0.00    -0.04  -0.00   0.01
  14   6     0.05   0.01   0.00     0.01  -0.03  -0.02    -0.01  -0.02   0.02
  15   6     0.04   0.03   0.02     0.02  -0.04  -0.04    -0.00  -0.02   0.04
  16   6     0.04   0.05   0.03    -0.00  -0.01   0.01    -0.02  -0.02   0.06
  17   6     0.03   0.06   0.04    -0.00  -0.02   0.00    -0.02  -0.02   0.07
  18   6     0.02   0.06   0.03     0.02  -0.04  -0.04    -0.00  -0.03   0.06
  19   6     0.02   0.04   0.02     0.04  -0.07  -0.09     0.01  -0.03   0.04
  20   6     0.03   0.03   0.01     0.04  -0.07  -0.09     0.01  -0.02   0.03
  21   6     0.01   0.04   0.01     0.06  -0.09  -0.13     0.02  -0.03   0.04
  22   6     0.00   0.03   0.00     0.08  -0.12  -0.18     0.03  -0.03   0.04
  23   6    -0.01   0.04  -0.00     0.09  -0.13  -0.20     0.03  -0.03   0.04
  24   6    -0.01   0.05   0.00     0.07  -0.11  -0.17     0.03  -0.03   0.05
  25   6    -0.01   0.06   0.01     0.05  -0.08  -0.12     0.02  -0.03   0.06
  26   6     0.00   0.06   0.02     0.04  -0.07  -0.10     0.01  -0.03   0.06
  27   7     0.01   0.07   0.03     0.02  -0.04  -0.05     0.00  -0.03   0.07
  28   6     0.01   0.08   0.03     0.00  -0.02  -0.02     0.00  -0.03   0.06
  29   6     0.00   0.09   0.04    -0.03   0.01  -0.01     0.01  -0.02   0.06
  30   6     0.00   0.10   0.04    -0.04   0.02   0.02     0.01  -0.01   0.06
  31   6     0.00   0.09   0.04    -0.03   0.01   0.05     0.01  -0.01   0.05
  32   6     0.00   0.10   0.04    -0.05   0.01   0.08     0.01   0.01   0.05
  33   6     0.01   0.09   0.03    -0.03  -0.00   0.10     0.01   0.02   0.03
  34   6     0.01   0.10   0.03    -0.06   0.00   0.13     0.01   0.05   0.03
  35   6    -0.00   0.12   0.05    -0.10   0.02   0.14     0.01   0.07   0.05
  36   6    -0.00   0.12   0.05    -0.11   0.03   0.12     0.02   0.07   0.06
  37   7    -0.00   0.12   0.05    -0.09   0.03   0.09     0.02   0.04   0.07
  38   6     0.00   0.08   0.04     0.00  -0.00   0.05     0.00  -0.03   0.05
  39   7     0.01   0.08   0.04     0.02   0.01   0.08    -0.00  -0.03   0.04
  40   6     0.01   0.06   0.03     0.02   0.02   0.08    -0.03  -0.05   0.00
  41   6     0.02   0.07   0.02     0.02   0.02   0.09    -0.04  -0.05  -0.00
  42   6     0.02   0.06   0.01     0.02   0.03   0.11    -0.06  -0.07  -0.04
  43   6     0.02   0.04   0.01     0.03   0.04   0.11    -0.08  -0.07  -0.06
  44   6     0.01   0.04   0.01     0.03   0.04   0.10    -0.07  -0.07  -0.05
  45   6     0.00   0.05   0.02     0.03   0.03   0.09    -0.04  -0.05  -0.02
  46   6    -0.01   0.05   0.03     0.02   0.02   0.08    -0.02  -0.04   0.00
  47   6    -0.02   0.03   0.02     0.02   0.02   0.07    -0.02  -0.03  -0.01
  48   6    -0.03   0.03   0.02     0.02   0.01   0.05     0.01  -0.01   0.02
  49   6    -0.05   0.01   0.01     0.01   0.01   0.02     0.01  -0.01   0.01
  50   6    -0.07  -0.01   0.00     0.00   0.04   0.02    -0.04  -0.06  -0.01
  51   6    -0.09  -0.03  -0.01    -0.00   0.04  -0.01    -0.05  -0.06  -0.02
  52   6    -0.09  -0.04  -0.01     0.00   0.01  -0.03     0.01   0.00  -0.01
  53   6    -0.07  -0.03  -0.01     0.01  -0.02  -0.02     0.07   0.06   0.01
  54   6    -0.05  -0.00   0.00     0.02  -0.02   0.00     0.07   0.05   0.02
  55   6    -0.08  -0.04  -0.02     0.01  -0.04  -0.05     0.13   0.12   0.01
  56   6    -0.07  -0.04  -0.02     0.02  -0.08  -0.06     0.20   0.19   0.03
  57   6    -0.08  -0.06  -0.03     0.02  -0.09  -0.08     0.24   0.23   0.03
  58   6    -0.11  -0.09  -0.04     0.01  -0.08  -0.10     0.21   0.20   0.01
  59   6    -0.12  -0.09  -0.04     0.01  -0.04  -0.09     0.14   0.13  -0.01
  60   6    -0.10  -0.07  -0.03     0.01  -0.03  -0.07     0.10   0.09  -0.01
  61   7    -0.12  -0.07  -0.03     0.00   0.01  -0.06     0.03   0.02  -0.03
  62   6    -0.13  -0.09  -0.04    -0.00   0.04  -0.07    -0.03  -0.04  -0.05
  63   6    -0.16  -0.08  -0.03    -0.00   0.07  -0.08    -0.09  -0.12   0.01
  64   6    -0.18  -0.11  -0.04    -0.01   0.11  -0.09    -0.15  -0.18  -0.02
  65   6    -0.18  -0.14  -0.06    -0.01   0.10  -0.09    -0.14  -0.16  -0.10
  66   6    -0.15  -0.15  -0.07    -0.00   0.07  -0.08    -0.08  -0.08  -0.17
  67   6    -0.12  -0.13  -0.06    -0.00   0.03  -0.07    -0.03  -0.02  -0.14
  68   6    -0.03   0.05   0.03     0.02   0.01   0.05     0.04  -0.00   0.06
  69   6    -0.02   0.06   0.04     0.02   0.01   0.06     0.03  -0.01   0.07
  70   6    -0.01   0.06   0.03     0.02   0.01   0.07     0.00  -0.02   0.04
  71   6     0.01   0.08   0.03     0.02  -0.02   0.01    -0.00  -0.04   0.05
  72   6     0.07  -0.01  -0.00     0.03  -0.08  -0.04     0.02  -0.02  -0.00
  73   6     0.08  -0.04  -0.01     0.03  -0.07  -0.02     0.02  -0.01  -0.02
  74   6     0.09  -0.04  -0.02    -0.00  -0.01   0.00    -0.01   0.00  -0.03
  75   6     0.15  -0.10  -0.04    -0.01  -0.04   0.07    -0.01   0.02  -0.07
  76   6     0.16  -0.12  -0.05     0.01  -0.08   0.06     0.01   0.02  -0.09
  77   1     0.05  -0.04  -0.02     0.02  -0.04  -0.00     0.02   0.01  -0.04
  78   1     0.03  -0.04  -0.02     0.02  -0.03  -0.03     0.02   0.01  -0.04
  79   1     0.02  -0.03  -0.01     0.01  -0.01  -0.03     0.01   0.01  -0.03
  80   1     0.03  -0.03  -0.01    -0.02   0.03   0.02    -0.02   0.02  -0.02
  81   1     0.03  -0.02  -0.01    -0.04   0.06   0.03    -0.04   0.02  -0.02
  82   1     0.02  -0.01  -0.01    -0.04   0.07   0.03    -0.05   0.02  -0.01
  83   1     0.02  -0.00  -0.00    -0.03   0.05   0.02    -0.03   0.01   0.00
  84   1     0.01   0.00   0.00    -0.01   0.02   0.00    -0.02   0.00   0.01
  85   1     0.01   0.01   0.01    -0.01   0.00   0.01    -0.01  -0.00   0.02
  86   1     0.01   0.02   0.01    -0.00   0.00   0.01    -0.01  -0.01   0.02
  87   1     0.01   0.00   0.00     0.02  -0.02  -0.04     0.00  -0.01   0.01
  88   1     0.00   0.01  -0.00     0.03  -0.04  -0.06     0.01  -0.01   0.01
  89   1    -0.00   0.01  -0.00     0.03  -0.04  -0.07     0.01  -0.01   0.01
  90   1    -0.01   0.02  -0.00     0.02  -0.03  -0.05     0.01  -0.01   0.02
  91   1    -0.00   0.02   0.01     0.01  -0.02  -0.03     0.00  -0.01   0.02
  92   1     0.00   0.03   0.01    -0.01   0.01  -0.01     0.00  -0.01   0.02
  93   1     0.00   0.03   0.01    -0.02   0.01   0.01     0.01  -0.00   0.02
  94   1     0.00   0.02   0.01    -0.00  -0.01   0.03     0.00  -0.00   0.00
  95   1     0.00   0.03   0.01    -0.01  -0.00   0.04     0.00   0.01   0.00
  96   1    -0.00   0.04   0.01    -0.03   0.01   0.05     0.00   0.03   0.02
  97   1    -0.00   0.04   0.02    -0.04   0.01   0.04     0.01   0.03   0.02
  98   1     0.01   0.02   0.01     0.00   0.00   0.03    -0.01  -0.01   0.00
  99   1     0.01   0.02   0.00     0.01   0.01   0.03    -0.02  -0.02  -0.01
 100   1     0.01   0.01   0.00     0.01   0.01   0.04    -0.03  -0.03  -0.03
 101   1     0.00   0.01   0.00     0.01   0.01   0.03    -0.02  -0.02  -0.02
 102   1    -0.01   0.00   0.00     0.01   0.01   0.02    -0.01  -0.01  -0.01
 103   1    -0.02   0.00   0.00     0.00   0.02   0.01    -0.03  -0.03  -0.00
 104   1    -0.03  -0.01  -0.00    -0.00   0.02  -0.00    -0.03  -0.03  -0.01
 105   1    -0.01   0.00   0.00     0.01  -0.01   0.00     0.03   0.03   0.01
 106   1    -0.02  -0.01  -0.00     0.01  -0.03  -0.01     0.06   0.06   0.01
 107   1    -0.02  -0.02  -0.01     0.01  -0.04  -0.03     0.08   0.08   0.01
 108   1    -0.03  -0.03  -0.01     0.00  -0.03  -0.04     0.07   0.07   0.00
 109   1    -0.04  -0.03  -0.01     0.00  -0.01  -0.03     0.03   0.03  -0.01
 110   1    -0.05  -0.02  -0.00    -0.00   0.02  -0.02    -0.03  -0.04   0.02
 111   1    -0.06  -0.03  -0.01    -0.00   0.04  -0.03    -0.06  -0.07   0.01
 112   1    -0.06  -0.05  -0.02    -0.00   0.04  -0.03    -0.05  -0.06  -0.04
 113   1    -0.04  -0.05  -0.02    -0.00   0.02  -0.02    -0.02  -0.02  -0.07
 114   1    -0.03  -0.04  -0.02     0.00   0.00  -0.02     0.01   0.01  -0.05
 115   1    -0.01   0.01   0.01     0.01   0.00   0.01     0.02   0.00   0.03
 116   1    -0.01   0.02   0.01     0.01   0.00   0.02     0.02   0.00   0.03
 117   1     0.00   0.02   0.01     0.01  -0.01   0.00    -0.00  -0.01   0.01
 118   1     0.02  -0.00   0.00     0.02  -0.04  -0.02     0.01  -0.01   0.00
 119   1     0.03  -0.01  -0.01     0.01  -0.03  -0.01     0.01  -0.00  -0.01
 120   1     0.05  -0.03  -0.01    -0.01  -0.01   0.03    -0.01   0.01  -0.01
 121   1     0.05  -0.04  -0.01     0.00  -0.02   0.03     0.00   0.01  -0.02
                      4                      5                      6
                        a                      a                      a 
 Frequencies --    12.2107                15.8522                19.3471
 Red. masses --    11.1120                11.2044                11.1626
 Frc consts  --     0.0000                 0.0000                 0.0000
 IR Inten    --     2.0464                 0.0693                21.8080
 Raman Activ --     0.0000                 0.0000                 0.0000
 Depolar     --     0.0000                 0.0000                 0.0000
 Atom AN      X      Y      Z        X      Y      Z        X      Y      Z
   1   6    -0.20   0.20   0.13    -0.01   0.12  -0.06    -0.02   0.03  -0.02
   2   6    -0.15   0.18   0.17     0.02   0.10  -0.04     0.02   0.02  -0.05
   3   6    -0.09   0.11   0.13     0.01   0.06  -0.02     0.02   0.01  -0.04
   4   6    -0.07   0.07   0.05    -0.02   0.04  -0.03    -0.03   0.00  -0.01
   5   7    -0.01  -0.00   0.01    -0.02  -0.00  -0.02    -0.03  -0.01  -0.00
   6   6     0.04  -0.05  -0.01    -0.05  -0.01  -0.03    -0.06   0.02   0.01
   7   6     0.06  -0.07   0.00    -0.07  -0.00  -0.05    -0.10   0.07   0.02
   8   6     0.12  -0.12  -0.02    -0.09  -0.02  -0.05    -0.13   0.10   0.03
   9   6     0.16  -0.17  -0.06    -0.09  -0.05  -0.03    -0.12   0.08   0.03
  10   6     0.14  -0.16  -0.07    -0.06  -0.06  -0.01    -0.08   0.03   0.02
  11   6     0.08  -0.10  -0.04    -0.04  -0.04  -0.01    -0.05   0.00   0.01
  12   6     0.05  -0.07  -0.05    -0.02  -0.04   0.00    -0.02  -0.04  -0.00
  13   6     0.06  -0.09  -0.07    -0.01  -0.06   0.02     0.00  -0.07  -0.00
  14   6     0.02  -0.05  -0.06     0.01  -0.06   0.04     0.03  -0.10  -0.01
  15   6     0.03  -0.06  -0.08     0.01  -0.06   0.06     0.03  -0.11  -0.01
  16   6     0.04  -0.06  -0.10     0.00  -0.05   0.07     0.04  -0.11  -0.01
  17   6     0.04  -0.06  -0.10     0.00  -0.05   0.07     0.03  -0.10  -0.01
  18   6     0.03  -0.05  -0.09     0.01  -0.05   0.06     0.02  -0.09   0.00
  19   6     0.02  -0.05  -0.08     0.01  -0.06   0.06     0.01  -0.09   0.01
  20   6     0.02  -0.05  -0.07     0.01  -0.06   0.06     0.02  -0.10   0.00
  21   6     0.02  -0.05  -0.08     0.01  -0.06   0.05    -0.01  -0.08   0.03
  22   6     0.01  -0.05  -0.07     0.00  -0.06   0.05    -0.03  -0.07   0.05
  23   6     0.01  -0.04  -0.07     0.00  -0.06   0.05    -0.05  -0.05   0.07
  24   6     0.01  -0.04  -0.07     0.00  -0.06   0.05    -0.05  -0.04   0.08
  25   6     0.01  -0.04  -0.07     0.00  -0.05   0.05    -0.03  -0.04   0.06
  26   6     0.02  -0.04  -0.08     0.00  -0.05   0.05    -0.01  -0.06   0.04
  27   7     0.02  -0.05  -0.09     0.01  -0.05   0.06     0.01  -0.08   0.02
  28   6     0.01  -0.03  -0.05     0.02  -0.04   0.04     0.02  -0.06  -0.00
  29   6    -0.02  -0.02  -0.05     0.04  -0.01   0.05     0.05  -0.09  -0.01
  30   6    -0.03   0.00  -0.02     0.05   0.03   0.04     0.06  -0.07  -0.03
  31   6    -0.02   0.02   0.01     0.04   0.05   0.02     0.04  -0.02  -0.03
  32   6    -0.05   0.04   0.04     0.04   0.14   0.01     0.05  -0.01  -0.05
  33   6    -0.05   0.05   0.06     0.01   0.16  -0.04     0.02   0.05  -0.05
  34   6    -0.07   0.09   0.10     0.02   0.26  -0.03     0.05   0.04  -0.08
  35   6    -0.10   0.11   0.11     0.04   0.34   0.02     0.11  -0.03  -0.13
  36   6    -0.10   0.09   0.09     0.07   0.30   0.06     0.14  -0.08  -0.12
  37   7    -0.08   0.07   0.05     0.07   0.22   0.06     0.12  -0.07  -0.09
  38   6     0.01   0.01   0.01     0.01  -0.00   0.01     0.02   0.01  -0.02
  39   7     0.02   0.03   0.04     0.00  -0.01  -0.01     0.01   0.06  -0.03
  40   6     0.02   0.03   0.03    -0.01  -0.04  -0.05     0.00   0.08   0.00
  41   6     0.02   0.02   0.03    -0.03  -0.05  -0.09    -0.02   0.07   0.01
  42   6     0.02   0.02   0.03    -0.05  -0.08  -0.12    -0.03   0.10   0.05
  43   6     0.02   0.03   0.04    -0.05  -0.08  -0.13    -0.00   0.15   0.07
  44   6     0.03   0.04   0.05    -0.04  -0.07  -0.09     0.02   0.16   0.06
  45   6     0.03   0.03   0.05    -0.02  -0.05  -0.05     0.02   0.12   0.02
  46   6     0.03   0.04   0.05    -0.00  -0.03  -0.01     0.04   0.12   0.00
  47   6     0.04   0.04   0.05     0.00  -0.03  -0.00     0.06   0.15   0.01
  48   6     0.04   0.04   0.05     0.01  -0.01   0.02     0.07   0.14  -0.01
  49   6     0.03   0.03   0.04     0.01  -0.02   0.02     0.08   0.15  -0.00
  50   6     0.01   0.02   0.03     0.02   0.01   0.02     0.11   0.16   0.01
  51   6    -0.00   0.01   0.02     0.02   0.01   0.01     0.09   0.13   0.02
  52   6     0.01   0.01   0.01     0.01  -0.02  -0.00     0.04   0.09   0.02
  53   6     0.03   0.03   0.02    -0.01  -0.05  -0.01     0.03   0.09   0.01
  54   6     0.04   0.04   0.04    -0.00  -0.05   0.00     0.05   0.12  -0.00
  55   6     0.04   0.02   0.02    -0.03  -0.09  -0.02    -0.02   0.05   0.01
  56   6     0.06   0.03   0.02    -0.05  -0.14  -0.03    -0.06   0.03   0.01
  57   6     0.06   0.03   0.01    -0.07  -0.16  -0.05    -0.11  -0.02   0.01
  58   6     0.04   0.01  -0.01    -0.06  -0.14  -0.05    -0.12  -0.06   0.02
  59   6     0.02  -0.00  -0.01    -0.04  -0.10  -0.04    -0.09  -0.05   0.02
  60   6     0.02   0.00  -0.00    -0.02  -0.07  -0.02    -0.04   0.01   0.02
  61   7    -0.00  -0.00  -0.00     0.00  -0.03  -0.01     0.00   0.04   0.02
  62   6    -0.03  -0.03  -0.02     0.03   0.02  -0.01    -0.02  -0.03   0.02
  63   6    -0.07  -0.04   0.00     0.06   0.08  -0.04    -0.06   0.01   0.02
  64   6    -0.10  -0.07  -0.01     0.09   0.13  -0.04    -0.08  -0.07   0.03
  65   6    -0.10  -0.10  -0.05     0.09   0.14   0.01    -0.07  -0.18   0.03
  66   6    -0.06  -0.09  -0.07     0.06   0.08   0.05    -0.03  -0.22   0.03
  67   6    -0.03  -0.06  -0.05     0.03   0.03   0.04    -0.00  -0.14   0.02
  68   6     0.04   0.04   0.06     0.03   0.01   0.05     0.06   0.09  -0.05
  69   6     0.04   0.04   0.05     0.03   0.01   0.05     0.04   0.07  -0.06
  70   6     0.03   0.03   0.05     0.01  -0.01   0.01     0.03   0.08  -0.03
  71   6     0.02  -0.01  -0.02     0.00  -0.04   0.02     0.01  -0.01  -0.01
  72   6    -0.03  -0.00  -0.04     0.03  -0.04   0.03     0.05  -0.11  -0.02
  73   6    -0.04   0.02  -0.01     0.02  -0.02   0.01     0.03  -0.09  -0.02
  74   6    -0.00  -0.01  -0.01    -0.01  -0.02  -0.00    -0.00  -0.05  -0.01
  75   6    -0.12   0.09   0.01    -0.05   0.05  -0.06    -0.07   0.01   0.01
  76   6    -0.18   0.16   0.05    -0.05   0.09  -0.07    -0.07   0.02   0.01
  77   1    -0.07   0.07   0.05    -0.00   0.04  -0.02    -0.00   0.01  -0.01
  78   1    -0.05   0.06   0.07     0.01   0.04  -0.01     0.02   0.01  -0.02
  79   1    -0.01   0.03   0.05     0.01   0.02  -0.00     0.02   0.00  -0.02
  80   1     0.01  -0.01   0.01    -0.02   0.01  -0.02    -0.03   0.03   0.00
  81   1     0.04  -0.04  -0.00    -0.03  -0.00  -0.02    -0.05   0.04   0.01
  82   1     0.06  -0.06  -0.02    -0.03  -0.02  -0.01    -0.04   0.03   0.01
  83   1     0.05  -0.06  -0.03    -0.02  -0.02  -0.00    -0.02   0.00   0.01
  84   1     0.03  -0.04  -0.03    -0.01  -0.02   0.01    -0.00  -0.02   0.00
  85   1     0.01  -0.02  -0.03     0.00  -0.01   0.02     0.01  -0.03  -0.01
  86   1     0.01  -0.02  -0.03    -0.00  -0.01   0.02     0.01  -0.03  -0.00
  87   1     0.01  -0.01  -0.02     0.00  -0.02   0.01     0.00  -0.03   0.00
  88   1     0.00  -0.01  -0.02     0.00  -0.02   0.02    -0.01  -0.02   0.01
  89   1     0.00  -0.01  -0.02     0.00  -0.02   0.01    -0.02  -0.01   0.02
  90   1     0.00  -0.01  -0.02    -0.00  -0.02   0.01    -0.02  -0.01   0.03
  91   1     0.00  -0.01  -0.02     0.00  -0.01   0.02    -0.01  -0.01   0.02
  92   1    -0.01  -0.01  -0.02     0.01  -0.01   0.02     0.02  -0.04  -0.00
  93   1    -0.02   0.00  -0.01     0.02   0.02   0.01     0.02  -0.03  -0.01
  94   1    -0.01   0.01   0.01    -0.00   0.03  -0.02    -0.01   0.03  -0.00
  95   1    -0.02   0.03   0.03    -0.00   0.08  -0.02     0.01   0.03  -0.02
  96   1    -0.04   0.04   0.04     0.01   0.12   0.01     0.04  -0.01  -0.05
  97   1    -0.03   0.03   0.03     0.03   0.10   0.03     0.05  -0.04  -0.04
  98   1     0.00   0.00   0.01    -0.01  -0.01  -0.02    -0.01   0.01  -0.00
  99   1     0.00   0.01   0.01    -0.02  -0.03  -0.04    -0.01   0.03   0.02
 100   1     0.01   0.01   0.01    -0.02  -0.03  -0.04    -0.00   0.05   0.03
 101   1     0.01   0.01   0.02    -0.01  -0.02  -0.03     0.01   0.06   0.02
 102   1     0.01   0.01   0.02    -0.00  -0.01  -0.01     0.02   0.05   0.01
 103   1     0.00   0.01   0.01     0.01   0.01   0.01     0.04   0.05   0.00
 104   1    -0.01  -0.00   0.00     0.01   0.01   0.00     0.03   0.04   0.01
 105   1     0.02   0.01   0.01    -0.00  -0.02   0.00     0.01   0.03  -0.00
 106   1     0.02   0.01   0.01    -0.02  -0.04  -0.01    -0.01   0.02  -0.00
 107   1     0.02   0.01   0.00    -0.03  -0.06  -0.02    -0.04  -0.01   0.00
 108   1     0.01   0.00  -0.00    -0.02  -0.05  -0.02    -0.05  -0.03   0.00
 109   1     0.00  -0.01  -0.01    -0.01  -0.02  -0.01    -0.03  -0.02   0.01
 110   1    -0.02  -0.01   0.01     0.02   0.02  -0.02    -0.02   0.03   0.01
 111   1    -0.04  -0.02   0.00     0.03   0.05  -0.02    -0.03  -0.01   0.01
 112   1    -0.04  -0.03  -0.02     0.03   0.05   0.00    -0.02  -0.07   0.01
 113   1    -0.02  -0.03  -0.03     0.02   0.03   0.02    -0.00  -0.09   0.01
 114   1     0.00  -0.02  -0.02     0.00  -0.00   0.02     0.01  -0.05   0.01
 115   1     0.01   0.01   0.02     0.01   0.01   0.02     0.02   0.02  -0.02
 116   1     0.01   0.01   0.02     0.01   0.01   0.02     0.01   0.01  -0.03
 117   1     0.01  -0.00  -0.01    -0.00  -0.02   0.00    -0.00   0.00  -0.00
 118   1    -0.02   0.01  -0.01     0.01  -0.01   0.01     0.02  -0.04  -0.01
 119   1    -0.03   0.02   0.00     0.01  -0.00   0.00     0.01  -0.03  -0.01
 120   1    -0.03   0.02  -0.02    -0.02   0.01  -0.02    -0.03   0.00   0.01
 121   1    -0.06   0.05   0.01    -0.02   0.03  -0.02    -0.03   0.01   0.01
                      7                      8                      9
                        a                      a                      a 
 Frequencies --    24.8858                27.8237                31.4758
 Red. masses --    10.9733                11.0602                10.9775
 Frc consts  --     0.0000                 0.0000                 0.0000
 IR Inten    --     2.0231                 0.2101                 5.0440
 Raman Activ --     0.0000                 0.0000                 0.0000
 Depolar     --     0.0000                 0.0000                 0.0000
 Atom AN      X      Y      Z        X      Y      Z        X      Y      Z
   1   6     0.01   0.20  -0.03    -0.06   0.03   0.07     0.00  -0.05  -0.03
   2   6     0.08   0.17   0.01     0.03   0.02   0.01    -0.03  -0.05  -0.02
   3   6     0.08   0.10   0.02     0.07   0.01  -0.02    -0.05  -0.03  -0.01
   4   6     0.03   0.05  -0.01     0.02   0.00   0.01    -0.03  -0.01  -0.00
   5   7     0.04  -0.03  -0.00     0.06  -0.01  -0.02    -0.05   0.01   0.01
   6   6     0.01  -0.04  -0.01     0.04   0.05   0.00    -0.05  -0.01   0.00
   7   6    -0.01  -0.03  -0.03    -0.00   0.13   0.06    -0.04  -0.03  -0.01
   8   6    -0.03  -0.05  -0.03    -0.01   0.19   0.07    -0.04  -0.04  -0.02
   9   6    -0.03  -0.08  -0.02     0.02   0.17   0.04    -0.05  -0.04  -0.01
  10   6    -0.01  -0.09   0.01     0.06   0.09  -0.01    -0.06  -0.03   0.01
  11   6     0.01  -0.07   0.01     0.07   0.03  -0.03    -0.05  -0.01   0.01
  12   6     0.04  -0.07   0.03     0.10  -0.05  -0.07    -0.06   0.01   0.02
  13   6     0.03  -0.07   0.06     0.12  -0.08  -0.11    -0.06   0.01   0.03
  14   6     0.06  -0.06   0.07     0.13  -0.13  -0.14    -0.06   0.02   0.04
  15   6     0.04  -0.04   0.09     0.12  -0.12  -0.14    -0.05   0.01   0.03
  16   6     0.02   0.02   0.17     0.13  -0.11  -0.15    -0.04  -0.02   0.00
  17   6     0.00   0.05   0.17     0.10  -0.07  -0.11    -0.02  -0.04  -0.02
  18   6     0.01   0.01   0.09     0.05  -0.04  -0.05    -0.01  -0.04  -0.01
  19   6     0.03  -0.05   0.02     0.05  -0.05  -0.05    -0.03  -0.01   0.02
  20   6     0.05  -0.08   0.02     0.08  -0.09  -0.10    -0.04   0.01   0.05
  21   6     0.04  -0.09  -0.06    -0.00   0.00   0.03    -0.02  -0.01   0.02
  22   6     0.06  -0.16  -0.16    -0.03   0.02   0.08    -0.03   0.01   0.05
  23   6     0.06  -0.18  -0.23    -0.08   0.07   0.16    -0.02  -0.00   0.04
  24   6     0.04  -0.12  -0.20    -0.09   0.10   0.19    -0.00  -0.03   0.01
  25   6     0.01  -0.05  -0.10    -0.06   0.07   0.14     0.01  -0.05  -0.02
  26   6     0.02  -0.04  -0.03    -0.02   0.03   0.07    -0.00  -0.04  -0.01
  27   7     0.00   0.03   0.06     0.01   0.01   0.02     0.01  -0.06  -0.04
  28   6    -0.00   0.07   0.07     0.01   0.02   0.02     0.01  -0.06  -0.05
  29   6     0.01   0.11   0.08     0.01  -0.02   0.01     0.03  -0.07  -0.06
  30   6     0.02   0.11   0.07     0.01  -0.02   0.01     0.03  -0.05  -0.05
  31   6     0.02   0.06   0.04     0.00   0.01   0.02     0.02  -0.01  -0.05
  32   6     0.04   0.00   0.01     0.00   0.01   0.02     0.02   0.05  -0.06
  33   6     0.07  -0.05  -0.01     0.01   0.00   0.02    -0.01   0.10  -0.07
  34   6     0.09  -0.13  -0.05     0.00   0.01   0.03    -0.01   0.18  -0.06
  35   6     0.10  -0.15  -0.07    -0.00   0.01   0.03     0.01   0.22  -0.04
  36   6     0.07  -0.09  -0.04    -0.01   0.01   0.03     0.04   0.16  -0.03
  37   7     0.05  -0.01   0.00    -0.00   0.01   0.03     0.05   0.09  -0.04
  38   6     0.00   0.05   0.04     0.00   0.03   0.03     0.01  -0.01  -0.06
  39   7    -0.01   0.04   0.02     0.00   0.03   0.02     0.02  -0.01  -0.05
  40   6    -0.00   0.04   0.03     0.01   0.01   0.01     0.09   0.04   0.04
  41   6     0.02   0.06   0.06     0.03   0.03   0.02     0.13   0.07   0.10
  42   6     0.02   0.06   0.07     0.04   0.01   0.00     0.22   0.12   0.22
  43   6     0.01   0.04   0.04     0.02  -0.02  -0.02     0.25   0.14   0.27
  44   6    -0.02   0.02   0.00    -0.01  -0.04  -0.03     0.19   0.10   0.20
  45   6    -0.02   0.02  -0.00    -0.01  -0.02  -0.01     0.11   0.04   0.09
  46   6    -0.04   0.00  -0.03    -0.03  -0.03  -0.02     0.04  -0.01   0.01
  47   6    -0.07  -0.02  -0.06    -0.06  -0.06  -0.04     0.02  -0.04   0.01
  48   6    -0.08  -0.03  -0.07    -0.08  -0.06  -0.04    -0.04  -0.07  -0.06
  49   6    -0.09  -0.03  -0.06    -0.10  -0.08  -0.04    -0.06  -0.09  -0.05
  50   6    -0.09  -0.05  -0.06    -0.11  -0.10  -0.05    -0.06  -0.11  -0.05
  51   6    -0.08  -0.04  -0.04    -0.10  -0.10  -0.04    -0.06  -0.10  -0.04
  52   6    -0.07  -0.02  -0.02    -0.08  -0.06  -0.02    -0.04  -0.07  -0.03
  53   6    -0.08  -0.00  -0.03    -0.08  -0.05  -0.02    -0.04  -0.06  -0.03
  54   6    -0.09  -0.01  -0.05    -0.09  -0.06  -0.03    -0.06  -0.07  -0.04
  55   6    -0.07   0.03  -0.01    -0.05  -0.00  -0.01    -0.01  -0.01  -0.01
  56   6    -0.07   0.06  -0.00    -0.04   0.03   0.00     0.01   0.03  -0.00
  57   6    -0.05   0.09   0.02    -0.01   0.08   0.02     0.05   0.09   0.02
  58   6    -0.04   0.10   0.04     0.01   0.09   0.03     0.06   0.10   0.03
  59   6    -0.04   0.07   0.03    -0.01   0.06   0.02     0.04   0.06   0.02
  60   6    -0.05   0.04   0.01    -0.04   0.01   0.01     0.01   0.01  -0.00
  61   7    -0.06   0.01  -0.00    -0.06  -0.03  -0.01    -0.02  -0.04  -0.01
  62   6    -0.03   0.02   0.01    -0.03   0.01   0.01     0.00  -0.02  -0.00
  63   6    -0.00  -0.02   0.02     0.01  -0.04   0.01     0.03  -0.09   0.01
  64   6     0.02  -0.01   0.03     0.04  -0.00   0.02     0.04  -0.08   0.02
  65   6     0.01   0.04   0.04     0.02   0.09   0.03     0.03  -0.00   0.02
  66   6    -0.02   0.08   0.04    -0.02   0.13   0.02     0.01   0.07  -0.00
  67   6    -0.04   0.07   0.03    -0.04   0.09   0.02    -0.01   0.06  -0.01
  68   6    -0.08  -0.02  -0.06    -0.08  -0.04  -0.02    -0.08  -0.08  -0.11
  69   6    -0.06   0.00  -0.04    -0.05  -0.01  -0.00    -0.07  -0.06  -0.11
  70   6    -0.04   0.01  -0.02    -0.03  -0.00  -0.00    -0.01  -0.03  -0.05
  71   6    -0.00   0.04   0.05     0.00   0.05   0.03     0.01  -0.03  -0.05
  72   6     0.09  -0.07   0.05     0.12  -0.15  -0.13    -0.06   0.04   0.04
  73   6     0.09  -0.06   0.03     0.10  -0.13  -0.10    -0.06   0.04   0.03
  74   6     0.05  -0.05   0.02     0.09  -0.07  -0.07    -0.06   0.02   0.02
  75   6    -0.04   0.07  -0.05    -0.07   0.01   0.08     0.01  -0.02  -0.01
  76   6    -0.04   0.15  -0.07    -0.11   0.02   0.11     0.02  -0.04  -0.03
  77   1     0.00   0.08  -0.01    -0.03   0.01   0.03     0.01  -0.02  -0.01
  78   1     0.03   0.06   0.01     0.02   0.01  -0.00    -0.01  -0.02  -0.01
  79   1     0.04   0.02   0.02     0.04   0.00  -0.02    -0.02  -0.01   0.00
  80   1    -0.00  -0.00  -0.01    -0.01   0.04   0.02    -0.01  -0.01  -0.01
  81   1    -0.01  -0.01  -0.01    -0.01   0.07   0.03    -0.01  -0.02  -0.01
  82   1    -0.01  -0.03  -0.01     0.00   0.06   0.02    -0.02  -0.02  -0.00
  83   1    -0.00  -0.03   0.01     0.03   0.02  -0.01    -0.02  -0.01   0.00
  84   1     0.00  -0.02   0.02     0.04  -0.02  -0.03    -0.02  -0.00   0.01
  85   1     0.01   0.01   0.07     0.05  -0.04  -0.06    -0.01  -0.01  -0.00
  86   1    -0.00   0.03   0.07     0.03  -0.02  -0.03    -0.00  -0.02  -0.01
  87   1     0.02  -0.03  -0.01     0.02  -0.03  -0.03    -0.02   0.01   0.02
  88   1     0.02  -0.06  -0.05    -0.00   0.00   0.01    -0.01   0.01   0.02
  89   1     0.02  -0.07  -0.09    -0.03   0.03   0.06    -0.01   0.00   0.02
  90   1     0.01  -0.04  -0.07    -0.04   0.04   0.07     0.00  -0.01  -0.00
  91   1    -0.00  -0.00  -0.02    -0.02   0.03   0.05     0.01  -0.02  -0.02
  92   1     0.00   0.04   0.03     0.00  -0.01  -0.00     0.01  -0.03  -0.02
  93   1     0.01   0.04   0.02     0.00  -0.01   0.00     0.01  -0.02  -0.02
  94   1     0.02  -0.01   0.00     0.00  -0.00   0.01    -0.01   0.02  -0.03
  95   1     0.03  -0.05  -0.02     0.00   0.00   0.01    -0.01   0.06  -0.02
  96   1     0.03  -0.06  -0.03    -0.00   0.01   0.01     0.00   0.08  -0.01
  97   1     0.02  -0.03  -0.01    -0.00   0.01   0.01     0.02   0.05  -0.00
  98   1     0.01   0.02   0.02     0.01   0.01   0.01     0.03   0.02   0.02
  99   1     0.01   0.02   0.03     0.02   0.01   0.00     0.08   0.05   0.08
 100   1     0.00   0.01   0.01     0.01  -0.01  -0.01     0.09   0.05   0.11
 101   1    -0.01   0.00  -0.01    -0.01  -0.02  -0.01     0.06   0.03   0.07
 102   1    -0.02  -0.01  -0.02    -0.02  -0.02  -0.02     0.02  -0.01   0.02
 103   1    -0.03  -0.02  -0.02    -0.03  -0.04  -0.02    -0.02  -0.03  -0.02
 104   1    -0.02  -0.02  -0.01    -0.03  -0.03  -0.01    -0.02  -0.03  -0.01
 105   1    -0.03   0.00  -0.02    -0.02  -0.01  -0.01    -0.02  -0.02  -0.01
 106   1    -0.02   0.02  -0.00    -0.01   0.01  -0.00    -0.00   0.01  -0.00
 107   1    -0.02   0.03   0.01     0.00   0.03   0.01     0.02   0.03   0.01
 108   1    -0.01   0.04   0.02     0.01   0.04   0.01     0.03   0.04   0.01
 109   1    -0.01   0.02   0.01     0.00   0.02   0.01     0.02   0.02   0.01
 110   1     0.00  -0.02   0.00     0.01  -0.03   0.00     0.01  -0.04   0.01
 111   1     0.01  -0.01   0.01     0.02  -0.01   0.01     0.02  -0.04   0.01
 112   1     0.01   0.01   0.02     0.01   0.03   0.01     0.01   0.00   0.01
 113   1    -0.01   0.03   0.01    -0.01   0.06   0.01    -0.00   0.04  -0.00
 114   1    -0.02   0.03   0.01    -0.02   0.04   0.00    -0.01   0.03  -0.01
 115   1    -0.03  -0.01  -0.02    -0.03  -0.01  -0.01    -0.04  -0.03  -0.04
 116   1    -0.02   0.00  -0.01    -0.02   0.00   0.00    -0.03  -0.02  -0.05
 117   1    -0.00   0.01   0.01     0.00   0.02   0.01     0.00  -0.01  -0.02
 118   1     0.03  -0.02   0.02     0.04  -0.05  -0.04    -0.02   0.01   0.01
 119   1     0.03  -0.02   0.00     0.03  -0.04  -0.03    -0.02   0.01   0.01
 120   1    -0.02   0.01  -0.02    -0.03   0.00   0.03     0.01  -0.00  -0.00
 121   1    -0.03   0.05  -0.03    -0.05   0.01   0.05     0.02  -0.01  -0.01
                     10                     11                     12
                        a                      a                      a 
 Frequencies --    33.5076                39.5103                48.6198
 Red. masses --    11.0281                11.0373                11.1402
 Frc consts  --     0.0000                 0.0000                 0.0000
 IR Inten    --     6.4317                 1.1836                 3.0193
 Raman Activ --     0.0000                 0.0000                 0.0000
 Depolar     --     0.0000                 0.0000                 0.0000
 Atom AN      X      Y      Z        X      Y      Z        X      Y      Z
   1   6    -0.03   0.01   0.01     0.16   0.16  -0.12    -0.20  -0.00   0.14
   2   6    -0.01   0.01   0.00     0.21   0.14  -0.07    -0.09  -0.02   0.07
   3   6     0.00  -0.00  -0.00     0.15   0.07  -0.00     0.02  -0.05  -0.02
   4   6    -0.01  -0.01  -0.01     0.06   0.03   0.01     0.02  -0.07  -0.05
   5   7     0.00  -0.02  -0.01     0.03  -0.03   0.05     0.08  -0.11  -0.10
   6   6    -0.00  -0.01  -0.01    -0.01  -0.02   0.05     0.04  -0.05  -0.07
   7   6    -0.01   0.00  -0.00    -0.04   0.00   0.03     0.02  -0.02  -0.06
   8   6    -0.01   0.01  -0.00    -0.08   0.01   0.04    -0.02   0.04  -0.03
   9   6    -0.01   0.01  -0.00    -0.08  -0.01   0.06    -0.05   0.08  -0.02
  10   6    -0.00  -0.00  -0.01    -0.05  -0.04   0.08    -0.03   0.05  -0.03
  11   6     0.00  -0.01  -0.01    -0.01  -0.04   0.07     0.01  -0.01  -0.05
  12   6     0.00  -0.02  -0.01     0.03  -0.06   0.08     0.03  -0.04  -0.06
  13   6     0.00  -0.02  -0.01     0.03  -0.07   0.10    -0.00   0.00  -0.04
  14   6     0.01  -0.02  -0.01     0.04  -0.07   0.10     0.02  -0.01  -0.04
  15   6    -0.00  -0.01  -0.01     0.02  -0.03   0.09    -0.02   0.04   0.00
  16   6    -0.00   0.00  -0.00     0.07  -0.01   0.03    -0.04   0.09   0.08
  17   6    -0.01   0.02   0.00     0.07   0.01  -0.04    -0.07   0.12   0.11
  18   6    -0.02   0.01  -0.00     0.00   0.02  -0.04    -0.06   0.10   0.07
  19   6    -0.02   0.00  -0.01    -0.07   0.01   0.05    -0.04   0.06   0.03
  20   6    -0.01  -0.01  -0.02    -0.06  -0.02   0.11    -0.02   0.03  -0.01
  21   6    -0.03   0.00  -0.02    -0.13   0.03   0.04    -0.04   0.06   0.01
  22   6    -0.03  -0.01  -0.03    -0.21   0.04   0.11    -0.03   0.04  -0.02
  23   6    -0.04  -0.00  -0.03    -0.26   0.05   0.07    -0.03   0.03  -0.03
  24   6    -0.05   0.01  -0.02    -0.20   0.05  -0.05    -0.04   0.05  -0.01
  25   6    -0.04   0.02  -0.01    -0.12   0.04  -0.12    -0.05   0.07   0.02
  26   6    -0.03   0.02  -0.01    -0.09   0.04  -0.07    -0.06   0.08   0.03
  27   7    -0.03   0.03  -0.00    -0.01   0.04  -0.12    -0.07   0.11   0.08
  28   6    -0.02   0.03  -0.01    -0.01   0.05  -0.11    -0.06   0.10   0.06
  29   6    -0.01   0.03  -0.01    -0.04   0.07  -0.10    -0.05   0.17   0.08
  30   6    -0.00   0.03  -0.02    -0.05   0.05  -0.08    -0.04   0.14   0.06
  31   6    -0.01   0.04  -0.03    -0.04   0.01  -0.07    -0.03   0.04   0.01
  32   6     0.01   0.03  -0.07    -0.06  -0.02  -0.03    -0.01   0.04  -0.02
  33   6    -0.03   0.09  -0.08    -0.02  -0.08   0.00     0.02  -0.05  -0.10
  34   6     0.03   0.03  -0.16    -0.06  -0.10   0.07     0.04  -0.06  -0.12
  35   6     0.13  -0.09  -0.24    -0.16  -0.04   0.09     0.03   0.03  -0.07
  36   6     0.16  -0.12  -0.20    -0.20   0.01   0.05    -0.00   0.13   0.01
  37   7     0.11  -0.06  -0.12    -0.16   0.02  -0.02    -0.02   0.14   0.03
  38   6    -0.02   0.03  -0.03    -0.01   0.00  -0.07    -0.05  -0.04  -0.01
  39   7    -0.02   0.00  -0.02     0.01  -0.01  -0.06    -0.06  -0.10  -0.04
  40   6     0.02  -0.01  -0.03     0.03  -0.01  -0.04    -0.03  -0.06   0.01
  41   6     0.03  -0.02  -0.10     0.04  -0.01  -0.06    -0.01  -0.05   0.04
  42   6     0.08  -0.04  -0.08     0.07  -0.00  -0.04     0.03  -0.01   0.11
  43   6     0.12  -0.04   0.00     0.08  -0.00  -0.00     0.05   0.01   0.14
  44   6     0.11  -0.04   0.07     0.08  -0.00   0.01     0.03  -0.01   0.11
  45   6     0.06  -0.02   0.06     0.05  -0.01  -0.01    -0.01  -0.05   0.04
  46   6     0.04  -0.01   0.11     0.04  -0.01  -0.00    -0.03  -0.06   0.01
  47   6     0.05  -0.01   0.17     0.04  -0.00   0.02    -0.01  -0.04   0.03
  48   6     0.01  -0.01   0.18     0.03  -0.01   0.02    -0.00  -0.05   0.01
  49   6    -0.00  -0.03   0.18     0.03  -0.01   0.02     0.03  -0.02   0.02
  50   6    -0.04  -0.02   0.16     0.03   0.00   0.02     0.06   0.05   0.02
  51   6    -0.06  -0.02   0.12     0.04   0.01   0.02     0.09   0.09   0.02
  52   6    -0.03  -0.03   0.10     0.04  -0.00   0.01     0.09   0.06  -0.00
  53   6     0.01  -0.05   0.12     0.04  -0.01   0.01     0.06   0.01  -0.01
  54   6     0.01  -0.05   0.15     0.03  -0.01   0.02     0.03  -0.03   0.00
  55   6     0.04  -0.06   0.08     0.04  -0.02   0.00     0.06  -0.01  -0.02
  56   6     0.10  -0.08   0.08     0.04  -0.03   0.00     0.04  -0.07  -0.04
  57   6     0.13  -0.07   0.03     0.04  -0.04  -0.01     0.04  -0.08  -0.05
  58   6     0.11  -0.05  -0.01     0.04  -0.03  -0.02     0.06  -0.04  -0.06
  59   6     0.05  -0.03  -0.01     0.04  -0.02  -0.01     0.08   0.02  -0.04
  60   6     0.02  -0.04   0.04     0.04  -0.01  -0.00     0.08   0.03  -0.02
  61   7    -0.03  -0.03   0.05     0.04  -0.00   0.00     0.11   0.09  -0.01
  62   6    -0.07   0.03  -0.00     0.03  -0.01  -0.01     0.08   0.03  -0.01
  63   6    -0.11   0.05   0.01     0.01  -0.00  -0.00     0.05   0.04  -0.00
  64   6    -0.16   0.15  -0.06     0.00  -0.01  -0.01     0.03  -0.06   0.01
  65   6    -0.17   0.21  -0.13     0.00  -0.02  -0.02     0.05  -0.17   0.01
  66   6    -0.12   0.17  -0.14     0.02  -0.03  -0.02     0.08  -0.16  -0.00
  67   6    -0.07   0.08  -0.07     0.03  -0.02  -0.02     0.09  -0.06  -0.02
  68   6    -0.02   0.01   0.15     0.01  -0.01  -0.00    -0.02  -0.07  -0.02
  69   6    -0.03   0.02   0.08     0.01  -0.01  -0.03    -0.04  -0.09  -0.04
  70   6    -0.01   0.01   0.06     0.01  -0.01  -0.03    -0.05  -0.09  -0.03
  71   6    -0.02   0.03  -0.02     0.00   0.03  -0.09    -0.06  -0.00   0.01
  72   6     0.01  -0.03  -0.02     0.07  -0.08   0.08     0.06  -0.07  -0.07
  73   6     0.01  -0.03  -0.02     0.08  -0.08   0.06     0.09  -0.11  -0.09
  74   6     0.01  -0.02  -0.01     0.05  -0.06   0.07     0.07  -0.09  -0.09
  75   6    -0.03  -0.00   0.00     0.01   0.05  -0.03    -0.09  -0.06   0.01
  76   6    -0.04   0.01   0.01     0.06   0.12  -0.10    -0.20  -0.02   0.11
  77   1    -0.01   0.01   0.00     0.06   0.06  -0.05    -0.09   0.01   0.06
  78   1     0.00   0.00   0.00     0.08   0.05  -0.02    -0.02  -0.00   0.03
  79   1     0.01  -0.00  -0.00     0.05   0.01   0.01     0.03  -0.02  -0.02
  80   1    -0.00   0.00  -0.00    -0.01   0.01   0.00     0.01  -0.01  -0.02
  81   1    -0.00   0.00   0.00    -0.03   0.01   0.01    -0.01   0.02  -0.01
  82   1    -0.00   0.00  -0.00    -0.03  -0.00   0.02    -0.02   0.04  -0.00
  83   1    -0.00  -0.00  -0.00    -0.02  -0.01   0.03    -0.01   0.02  -0.01
  84   1     0.00  -0.00  -0.00     0.01  -0.02   0.03    -0.01   0.01  -0.01
  85   1     0.00   0.00   0.00     0.03  -0.00   0.01    -0.01   0.03   0.03
  86   1    -0.00   0.01   0.00     0.03   0.01  -0.03    -0.02   0.04   0.05
  87   1    -0.00  -0.01  -0.01    -0.03  -0.01   0.05    -0.00  -0.00  -0.02
  88   1    -0.01  -0.01  -0.01    -0.07   0.01   0.06    -0.01   0.01  -0.01
  89   1    -0.01  -0.00  -0.01    -0.09   0.02   0.04    -0.01   0.01  -0.02
  90   1    -0.02   0.00  -0.01    -0.07   0.02  -0.03    -0.01   0.01  -0.01
  91   1    -0.01   0.01  -0.00    -0.02   0.01  -0.06    -0.02   0.02   0.01
  92   1    -0.00   0.01  -0.00    -0.02   0.03  -0.03    -0.01   0.07   0.03
  93   1     0.00   0.01  -0.00    -0.02   0.02  -0.02    -0.01   0.06   0.02
  94   1    -0.03   0.05  -0.00     0.02  -0.03  -0.01     0.01  -0.03  -0.04
  95   1     0.00   0.02  -0.05    -0.01  -0.04   0.03     0.02  -0.04  -0.05
  96   1     0.05  -0.04  -0.09    -0.06  -0.01   0.04     0.01   0.01  -0.02
  97   1     0.07  -0.06  -0.07    -0.08   0.01   0.02    -0.01   0.06   0.02
  98   1    -0.00  -0.00  -0.05     0.01  -0.00  -0.02    -0.01  -0.02   0.01
  99   1     0.02  -0.01  -0.04     0.02  -0.00  -0.01     0.01  -0.00   0.04
 100   1     0.04  -0.02   0.00     0.03   0.00   0.00     0.02   0.01   0.06
 101   1     0.04  -0.01   0.04     0.03  -0.00   0.01     0.01   0.00   0.04
 102   1     0.02  -0.01   0.06     0.02   0.00   0.01     0.00  -0.00   0.02
 103   1    -0.02  -0.00   0.05     0.01   0.00   0.01     0.02   0.02   0.01
 104   1    -0.02  -0.00   0.03     0.01   0.00   0.00     0.03   0.04   0.01
 105   1     0.01  -0.02   0.05     0.01  -0.01   0.01     0.00  -0.02  -0.00
 106   1     0.03  -0.03   0.03     0.01  -0.01   0.00     0.01  -0.03  -0.01
 107   1     0.05  -0.02   0.01     0.01  -0.01  -0.00     0.01  -0.04  -0.02
 108   1     0.04  -0.01  -0.01     0.01  -0.01  -0.01     0.02  -0.02  -0.02
 109   1     0.01  -0.00  -0.01     0.01  -0.00  -0.01     0.03   0.01  -0.01
 110   1    -0.03   0.00   0.02     0.00   0.00   0.00     0.01   0.04  -0.00
 111   1    -0.06   0.05  -0.01    -0.00  -0.00  -0.00     0.00  -0.01   0.01
 112   1    -0.06   0.08  -0.05    -0.00  -0.01  -0.01     0.01  -0.07   0.01
 113   1    -0.03   0.06  -0.06     0.01  -0.01  -0.01     0.03  -0.07   0.00
 114   1    -0.01   0.02  -0.02     0.01  -0.01  -0.01     0.04  -0.02  -0.01
 115   1    -0.01   0.01   0.05     0.00  -0.00   0.00    -0.00  -0.02  -0.01
 116   1    -0.02   0.01   0.01    -0.00  -0.00  -0.01    -0.01  -0.03  -0.02
 117   1    -0.01   0.01  -0.01     0.01   0.01  -0.03    -0.02  -0.01   0.00
 118   1     0.00  -0.01  -0.01     0.03  -0.03   0.03     0.02  -0.02  -0.02
 119   1     0.00  -0.01  -0.01     0.03  -0.03   0.02     0.04  -0.04  -0.03
 120   1    -0.01  -0.00  -0.00    -0.02   0.00  -0.00    -0.03  -0.02  -0.01
 121   1    -0.01   0.00   0.00     0.01   0.04  -0.04    -0.08  -0.00   0.04
                     13                     14                     15
                        a                      a                      a 
 Frequencies --    56.0241                56.5701                59.8542
 Red. masses --    10.7429                10.9587                10.3760
 Frc consts  --     0.0000                 0.0000                 0.0000
 IR Inten    --     4.6437                 5.3359                 5.7204
 Raman Activ --     0.0000                 0.0000                 0.0000
 Depolar     --     0.0000                 0.0000                 0.0000
 Atom AN      X      Y      Z        X      Y      Z        X      Y      Z
   1   6     0.06   0.06  -0.04    -0.21  -0.11   0.14    -0.06   0.08   0.05
   2   6     0.08   0.05  -0.02    -0.20  -0.10   0.08    -0.00   0.06   0.08
   3   6     0.06   0.02   0.01    -0.10  -0.07  -0.02     0.06  -0.02   0.04
   4   6     0.02  -0.00   0.02    -0.02  -0.04  -0.06     0.06  -0.06  -0.03
   5   7     0.02  -0.02   0.02     0.01  -0.03  -0.09     0.10  -0.13  -0.05
   6   6     0.02  -0.01   0.02    -0.04  -0.03  -0.08     0.05  -0.07  -0.02
   7   6     0.03  -0.02   0.04    -0.07  -0.01  -0.12     0.06  -0.08  -0.03
   8   6     0.04  -0.00   0.04    -0.13  -0.00  -0.11     0.00  -0.00  -0.00
   9   6     0.03   0.02   0.03    -0.15  -0.01  -0.07    -0.06   0.09   0.03
  10   6     0.02   0.02   0.02    -0.12  -0.02  -0.04    -0.06   0.09   0.04
  11   6     0.02   0.00   0.02    -0.06  -0.03  -0.05    -0.00   0.01   0.01
  12   6     0.01   0.00   0.01    -0.03  -0.03  -0.02     0.01   0.00   0.01
  13   6     0.00   0.01   0.00    -0.03  -0.03   0.02    -0.03   0.06   0.03
  14   6    -0.01   0.00  -0.01    -0.00  -0.00   0.05    -0.01   0.03   0.02
  15   6    -0.01   0.02  -0.02    -0.01   0.01   0.08    -0.03   0.05   0.03
  16   6    -0.01   0.02  -0.01     0.01   0.01   0.07    -0.03   0.05   0.03
  17   6    -0.02   0.03  -0.01     0.02   0.00   0.03    -0.02   0.03   0.02
  18   6    -0.03   0.03  -0.01     0.03  -0.00   0.02    -0.01   0.03   0.01
  19   6    -0.03   0.02  -0.02    -0.00   0.00   0.06    -0.01   0.04   0.02
  20   6    -0.02   0.01  -0.03    -0.01   0.01   0.09    -0.02   0.05   0.03
  21   6    -0.03   0.02  -0.03    -0.02   0.00   0.04     0.00   0.03   0.01
  22   6    -0.03   0.00  -0.05    -0.06   0.01   0.09     0.01   0.04   0.01
  23   6    -0.03   0.00  -0.06    -0.07   0.01   0.06     0.03   0.02  -0.01
  24   6    -0.04   0.02  -0.04    -0.03  -0.01  -0.02     0.04   0.00  -0.02
  25   6    -0.04   0.04  -0.02     0.01  -0.02  -0.06     0.03  -0.00  -0.02
  26   6    -0.04   0.03  -0.01     0.01  -0.01  -0.02     0.01   0.01  -0.00
  27   7    -0.04   0.05   0.00     0.05  -0.01  -0.04     0.00   0.01  -0.00
  28   6    -0.05   0.04   0.01     0.05   0.02  -0.04     0.00  -0.02  -0.01
  29   6    -0.06  -0.01  -0.00     0.04   0.06  -0.03     0.00  -0.06  -0.03
  30   6    -0.07  -0.05   0.01     0.04   0.11  -0.01     0.00  -0.10  -0.03
  31   6    -0.07  -0.02   0.03     0.04   0.10   0.00     0.00  -0.08  -0.02
  32   6    -0.06  -0.00   0.01     0.03   0.05   0.03    -0.01  -0.06  -0.02
  33   6    -0.17   0.20   0.06     0.09  -0.03   0.06    -0.05   0.03   0.02
  34   6    -0.13   0.24   0.01     0.07  -0.14   0.07    -0.07   0.10   0.05
  35   6     0.02   0.05  -0.11     0.00  -0.15   0.05    -0.04   0.08   0.04
  36   6     0.11  -0.15  -0.14    -0.06  -0.05   0.04     0.00  -0.04  -0.02
  37   7     0.07  -0.18  -0.09    -0.04   0.05   0.02     0.02  -0.11  -0.04
  38   6    -0.05   0.01   0.04     0.06   0.09   0.00     0.00  -0.04  -0.02
  39   7    -0.03   0.01   0.08     0.07   0.11   0.02     0.01  -0.02  -0.01
  40   6    -0.04   0.00   0.05     0.06   0.08  -0.02     0.00  -0.01  -0.00
  41   6    -0.06  -0.01   0.03     0.05   0.07  -0.07     0.01  -0.01   0.02
  42   6    -0.07  -0.02   0.01     0.04   0.04  -0.11     0.01   0.00   0.03
  43   6    -0.06  -0.01   0.02     0.04   0.02  -0.10     0.00   0.00   0.02
  44   6    -0.04   0.00   0.05     0.05   0.04  -0.05    -0.00  -0.00   0.00
  45   6    -0.03   0.01   0.07     0.06   0.07  -0.01    -0.00  -0.01  -0.01
  46   6    -0.01   0.03   0.09     0.07   0.08   0.02     0.00  -0.01  -0.02
  47   6    -0.01   0.02   0.08     0.06   0.07   0.02     0.00  -0.01  -0.03
  48   6     0.00   0.03   0.08     0.06   0.08   0.04     0.01  -0.01  -0.02
  49   6    -0.02   0.00   0.03     0.03   0.03   0.02     0.01  -0.01  -0.02
  50   6    -0.08  -0.03  -0.00    -0.04  -0.04  -0.01    -0.02  -0.06  -0.03
  51   6    -0.10  -0.04  -0.05    -0.09  -0.10  -0.04    -0.05  -0.10  -0.03
  52   6    -0.04  -0.03  -0.07    -0.06  -0.08  -0.04    -0.04  -0.09  -0.02
  53   6     0.01  -0.01  -0.04     0.00  -0.01  -0.01     0.01   0.01  -0.01
  54   6     0.03   0.00   0.00     0.05   0.05   0.01     0.03   0.03  -0.01
  55   6     0.03  -0.01  -0.07     0.01  -0.01  -0.02     0.02   0.04   0.02
  56   6     0.08  -0.01  -0.06     0.07   0.05  -0.00     0.08   0.19   0.05
  57   6     0.10  -0.01  -0.09     0.07   0.04  -0.01     0.08   0.20   0.09
  58   6     0.06  -0.02  -0.13     0.01  -0.02  -0.04    -0.01   0.06   0.07
  59   6     0.01  -0.03  -0.13    -0.04  -0.08  -0.06    -0.07  -0.08   0.04
  60   6     0.00  -0.02  -0.10    -0.04  -0.07  -0.04    -0.04  -0.06   0.01
  61   7    -0.04  -0.03  -0.10    -0.09  -0.12  -0.06    -0.08  -0.15  -0.02
  62   6     0.02  -0.02  -0.05    -0.03  -0.07  -0.03    -0.05  -0.09  -0.01
  63   6     0.13  -0.12  -0.06     0.06  -0.13  -0.04    -0.03   0.21  -0.14
  64   6     0.23  -0.21   0.05     0.14  -0.09   0.01     0.00   0.34  -0.16
  65   6     0.22  -0.18   0.15     0.12   0.02   0.06     0.02   0.15  -0.04
  66   6     0.11  -0.04   0.14     0.02   0.09   0.07     0.00  -0.19   0.11
  67   6     0.01   0.04   0.04    -0.05   0.04   0.03    -0.03  -0.29   0.12
  68   6     0.03   0.04   0.12     0.07   0.11   0.07     0.02  -0.01  -0.02
  69   6     0.03   0.04   0.13     0.08   0.12   0.07     0.01  -0.02  -0.01
  70   6    -0.00   0.03   0.11     0.08   0.11   0.04     0.01  -0.02  -0.01
  71   6    -0.04   0.04   0.02     0.06   0.05  -0.02     0.00  -0.01  -0.01
  72   6    -0.00  -0.02  -0.01     0.02   0.02   0.03     0.03  -0.03  -0.01
  73   6     0.01  -0.03  -0.00     0.03   0.01  -0.01     0.07  -0.09  -0.03
  74   6     0.01  -0.02   0.01     0.01  -0.02  -0.04     0.06  -0.07  -0.02
  75   6    -0.01   0.01  -0.00    -0.01  -0.06  -0.02    -0.00  -0.04  -0.06
  76   6     0.01   0.04  -0.03    -0.11  -0.09   0.08    -0.06   0.04  -0.02
  77   1     0.02   0.03  -0.02    -0.09  -0.04   0.07    -0.03   0.04   0.03
  78   1     0.03   0.02  -0.01    -0.08  -0.03   0.03    -0.00   0.03   0.04
  79   1     0.02   0.00   0.01    -0.03  -0.02  -0.02     0.03  -0.01   0.02
  80   1     0.01  -0.01   0.01    -0.02  -0.00  -0.04     0.03  -0.04  -0.02
  81   1     0.01  -0.00   0.01    -0.05   0.00  -0.04     0.00  -0.00  -0.00
  82   1     0.01   0.01   0.01    -0.06  -0.00  -0.02    -0.03   0.04   0.02
  83   1     0.01   0.01   0.00    -0.04  -0.01  -0.00    -0.03   0.05   0.02
  84   1     0.00   0.01  -0.00    -0.02  -0.01   0.01    -0.02   0.03   0.01
  85   1    -0.00   0.01  -0.00     0.00   0.00   0.02    -0.01   0.01   0.01
  86   1    -0.01   0.01  -0.00     0.01  -0.00   0.01    -0.01   0.01   0.00
  87   1    -0.01  -0.00  -0.01    -0.01   0.01   0.03    -0.01   0.01   0.01
  88   1    -0.01  -0.00  -0.02    -0.02   0.01   0.04     0.00   0.01   0.01
  89   1    -0.01  -0.00  -0.02    -0.03   0.01   0.03     0.01   0.01  -0.00
  90   1    -0.01   0.01  -0.01    -0.01  -0.00  -0.01     0.02  -0.00  -0.01
  91   1    -0.02   0.02  -0.00     0.01  -0.01  -0.03     0.01  -0.00  -0.01
  92   1    -0.02  -0.00  -0.00     0.01   0.02  -0.01     0.00  -0.02  -0.01
  93   1    -0.02  -0.02  -0.00     0.01   0.04   0.00     0.00  -0.04  -0.01
  94   1    -0.09   0.09   0.04     0.04  -0.01   0.02    -0.02   0.01   0.01
  95   1    -0.06   0.11   0.01     0.03  -0.06   0.03    -0.03   0.05   0.02
  96   1     0.02   0.02  -0.05    -0.00  -0.07   0.02    -0.02   0.04   0.02
  97   1     0.07  -0.09  -0.06    -0.03  -0.01   0.01     0.01  -0.02  -0.01
  98   1    -0.02  -0.01   0.01     0.01   0.02  -0.02     0.00  -0.00   0.01
  99   1    -0.02  -0.01  -0.00     0.01   0.01  -0.04     0.00   0.00   0.01
 100   1    -0.02  -0.01   0.00     0.01  -0.00  -0.04     0.00   0.00   0.01
 101   1    -0.01   0.00   0.02     0.02   0.01  -0.01    -0.00   0.00  -0.00
 102   1    -0.01   0.01   0.01     0.02   0.01  -0.00    -0.00  -0.00  -0.01
 103   1    -0.03  -0.01   0.00    -0.02  -0.02  -0.00    -0.01  -0.02  -0.01
 104   1    -0.04  -0.02  -0.02    -0.04  -0.05  -0.02    -0.02  -0.04  -0.01
 105   1     0.02   0.00   0.01     0.03   0.03   0.01     0.02   0.03   0.00
 106   1     0.03   0.00  -0.01     0.03   0.03   0.01     0.04   0.08   0.02
 107   1     0.04  -0.00  -0.03     0.03   0.03  -0.00     0.04   0.09   0.03
 108   1     0.02  -0.01  -0.04     0.00  -0.01  -0.01    -0.01   0.02   0.03
 109   1    -0.00  -0.01  -0.05    -0.02  -0.03  -0.02    -0.04  -0.06   0.01
 110   1     0.04  -0.04  -0.04     0.02  -0.06  -0.03    -0.01   0.09  -0.07
 111   1     0.09  -0.09   0.01     0.06  -0.04  -0.00     0.00   0.17  -0.08
 112   1     0.09  -0.07   0.07     0.05   0.02   0.03     0.01   0.07  -0.01
 113   1     0.03  -0.00   0.06     0.00   0.05   0.03     0.01  -0.10   0.06
 114   1    -0.02   0.04   0.01    -0.04   0.03   0.01    -0.01  -0.15   0.06
 115   1     0.01   0.02   0.04     0.02   0.04   0.03     0.01  -0.00  -0.00
 116   1     0.01   0.01   0.04     0.03   0.04   0.03     0.00  -0.01  -0.00
 117   1    -0.01   0.02   0.01     0.02   0.01  -0.01     0.00   0.00  -0.00
 118   1    -0.00  -0.01  -0.01     0.01   0.01   0.02     0.01  -0.01  -0.00
 119   1     0.00  -0.02  -0.00     0.02   0.01  -0.01     0.03  -0.04  -0.01
 120   1    -0.01  -0.00   0.00     0.02  -0.01  -0.02    -0.00  -0.02  -0.03
 121   1    -0.00   0.02  -0.01    -0.03  -0.03   0.03    -0.03   0.02  -0.01
                     16                     17                     18
                        a                      a                      a 
 Frequencies --    60.8161                65.5050                67.7592
 Red. masses --    10.5707                10.1101                10.7343
 Frc consts  --     0.0000                 0.0000                 0.0000
 IR Inten    --     0.8010                14.1108                 0.3781
 Raman Activ --     0.0000                 0.0000                 0.0000
 Depolar     --     0.0000                 0.0000                 0.0000
 Atom AN      X      Y      Z        X      Y      Z        X      Y      Z
   1   6     0.10  -0.11  -0.08     0.04   0.06  -0.01    -0.07  -0.09   0.07
   2   6     0.03  -0.08  -0.15    -0.23   0.06   0.27    -0.12  -0.07   0.04
   3   6    -0.06   0.02  -0.09    -0.22   0.03   0.27    -0.08  -0.01  -0.01
   4   6    -0.08   0.09   0.04     0.02  -0.01   0.01     0.00   0.03  -0.03
   5   7    -0.14   0.18   0.07     0.03  -0.02   0.02    -0.00   0.06  -0.03
   6   6    -0.07   0.09   0.04     0.01   0.00   0.02    -0.02   0.03  -0.04
   7   6    -0.09   0.13   0.06     0.03  -0.04  -0.01    -0.07   0.07  -0.07
   8   6     0.00   0.01   0.01    -0.02   0.02   0.01    -0.10   0.03  -0.07
   9   6     0.10  -0.14  -0.05    -0.09   0.12   0.06    -0.08  -0.04  -0.06
  10   6     0.10  -0.15  -0.06    -0.09   0.12   0.07    -0.03  -0.07  -0.03
  11   6     0.01  -0.03  -0.02    -0.03   0.06   0.04    -0.01  -0.03  -0.03
  12   6    -0.00  -0.01  -0.02    -0.01   0.03   0.03     0.02  -0.03  -0.00
  13   6     0.05  -0.09  -0.05     0.00   0.02  -0.00     0.04  -0.06   0.02
  14   6     0.02  -0.05  -0.03     0.01  -0.04  -0.04     0.05  -0.02   0.05
  15   6     0.04  -0.07  -0.04     0.03  -0.06  -0.07     0.04  -0.02   0.06
  16   6     0.04  -0.05  -0.04     0.03  -0.06  -0.07     0.07  -0.01   0.04
  17   6     0.03  -0.03  -0.02     0.03  -0.05  -0.06     0.06   0.01   0.01
  18   6     0.01  -0.02  -0.01     0.02  -0.05  -0.05     0.04   0.01   0.02
  19   6     0.01  -0.04  -0.02     0.03  -0.07  -0.07     0.02   0.00   0.05
  20   6     0.02  -0.06  -0.03     0.03  -0.07  -0.08     0.02  -0.01   0.08
  21   6    -0.02  -0.03  -0.01     0.01  -0.05  -0.04    -0.01  -0.00   0.02
  22   6    -0.04  -0.04  -0.01    -0.00  -0.04  -0.03    -0.05  -0.02   0.02
  23   6    -0.07  -0.02   0.00    -0.03  -0.01   0.03    -0.06  -0.03  -0.03
  24   6    -0.08   0.01   0.02    -0.06   0.02   0.08    -0.04  -0.01  -0.08
  25   6    -0.06   0.01   0.01    -0.05   0.01   0.06    -0.01   0.01  -0.08
  26   6    -0.03  -0.00   0.00    -0.01  -0.02  -0.00     0.00   0.01  -0.02
  27   7    -0.02   0.00   0.00    -0.01  -0.03  -0.02     0.04   0.03  -0.01
  28   6    -0.02   0.04   0.02    -0.01  -0.00   0.00     0.03   0.05  -0.01
  29   6    -0.03   0.11   0.04    -0.02   0.03   0.01     0.02  -0.00  -0.02
  30   6    -0.03   0.15   0.05    -0.02   0.07   0.03     0.01  -0.03  -0.01
  31   6    -0.02   0.10   0.04    -0.02   0.06   0.02     0.01   0.01   0.02
  32   6    -0.01   0.08   0.02    -0.01   0.06   0.01     0.00  -0.02   0.03
  33   6     0.04  -0.02  -0.04     0.02  -0.01  -0.03    -0.06   0.13   0.12
  34   6     0.08  -0.12  -0.11     0.05  -0.08  -0.07    -0.08   0.17   0.15
  35   6     0.07  -0.09  -0.09     0.04  -0.06  -0.06    -0.03   0.03   0.07
  36   6     0.01   0.06  -0.00     0.01   0.04  -0.00     0.04  -0.16  -0.04
  37   7    -0.03   0.15   0.06    -0.02   0.11   0.04     0.06  -0.19  -0.06
  38   6    -0.02   0.03   0.02    -0.02   0.02   0.01     0.03   0.08   0.04
  39   7    -0.02  -0.01   0.02    -0.02   0.00   0.01     0.05   0.08   0.07
  40   6    -0.01  -0.01   0.02    -0.01  -0.00   0.01     0.07   0.04   0.02
  41   6     0.00  -0.00   0.02    -0.01  -0.00  -0.00     0.12   0.06  -0.01
  42   6     0.02  -0.00   0.03     0.00  -0.01   0.00     0.12  -0.01  -0.07
  43   6     0.03  -0.01   0.04     0.01  -0.01   0.01     0.08  -0.09  -0.11
  44   6     0.01  -0.02   0.04     0.00  -0.01   0.02     0.04  -0.11  -0.09
  45   6    -0.01  -0.02   0.03    -0.01  -0.01   0.02     0.03  -0.04  -0.02
  46   6    -0.02  -0.02   0.03    -0.02  -0.01   0.02    -0.01  -0.04   0.00
  47   6    -0.02  -0.02   0.03    -0.02  -0.01   0.02    -0.06  -0.09  -0.02
  48   6    -0.02  -0.02   0.04    -0.03  -0.01   0.02    -0.09  -0.09  -0.02
  49   6    -0.02  -0.02   0.02    -0.03  -0.01   0.02    -0.09  -0.09  -0.03
  50   6    -0.05  -0.03   0.01    -0.03   0.00   0.01    -0.03  -0.00  -0.00
  51   6    -0.06  -0.03  -0.02    -0.02   0.02   0.00     0.03   0.09   0.01
  52   6    -0.02  -0.03  -0.03    -0.00   0.02  -0.01     0.03   0.07  -0.00
  53   6     0.02   0.00  -0.01    -0.00  -0.00  -0.00    -0.04  -0.03  -0.03
  54   6     0.02   0.00   0.01    -0.01  -0.02   0.01    -0.10  -0.12  -0.04
  55   6     0.04   0.03  -0.02     0.01   0.00  -0.01    -0.03  -0.01  -0.02
  56   6     0.10   0.09   0.00     0.01  -0.01  -0.01    -0.10  -0.09  -0.05
  57   6     0.10   0.10  -0.00     0.02  -0.01  -0.02    -0.06  -0.04  -0.03
  58   6     0.04   0.03  -0.02     0.02   0.01  -0.03     0.03   0.08   0.01
  59   6    -0.01  -0.03  -0.04     0.02   0.02  -0.03     0.09   0.15   0.03
  60   6     0.00  -0.02  -0.04     0.01   0.02  -0.02     0.06   0.11   0.01
  61   7    -0.03  -0.05  -0.05     0.01   0.03  -0.01     0.11   0.17   0.02
  62   6    -0.00  -0.03  -0.03     0.01   0.02  -0.01     0.06   0.10   0.01
  63   6     0.03   0.16  -0.13     0.01   0.04  -0.02    -0.02   0.18   0.00
  64   6     0.07   0.17  -0.09     0.02   0.00  -0.00    -0.07   0.08  -0.01
  65   6     0.09  -0.02   0.03     0.03  -0.06   0.03    -0.04  -0.12  -0.01
  66   6     0.06  -0.22   0.13     0.02  -0.07   0.03     0.03  -0.19  -0.01
  67   6     0.01  -0.21   0.09     0.01  -0.03   0.01     0.08  -0.07  -0.01
  68   6    -0.01  -0.01   0.05    -0.03  -0.01   0.03    -0.09  -0.04   0.01
  69   6    -0.02  -0.00   0.04    -0.02   0.00   0.02    -0.04   0.02   0.05
  70   6    -0.02  -0.01   0.03    -0.02  -0.00   0.02    -0.00   0.02   0.05
  71   6    -0.02   0.01   0.02    -0.01   0.00   0.01     0.04   0.10   0.02
  72   6    -0.05   0.04   0.01    -0.00  -0.04  -0.03     0.05   0.03   0.05
  73   6    -0.10   0.12   0.04    -0.02  -0.02   0.00     0.03   0.06   0.02
  74   6    -0.08   0.10   0.03     0.00  -0.00   0.02     0.02   0.03  -0.00
  75   6    -0.03   0.06   0.11     0.28  -0.01  -0.26     0.06   0.01  -0.00
  76   6     0.06  -0.05   0.06     0.30   0.02  -0.28     0.02  -0.05   0.05
  77   1     0.05  -0.06  -0.04     0.01   0.02  -0.00    -0.03  -0.04   0.03
  78   1     0.02  -0.04  -0.07    -0.12   0.02   0.14    -0.06  -0.03   0.02
  79   1    -0.03   0.02  -0.04    -0.11   0.01   0.14    -0.03   0.00  -0.01
  80   1    -0.05   0.07   0.03     0.03  -0.04  -0.02    -0.02   0.04  -0.02
  81   1    -0.00   0.01   0.01    -0.00  -0.00  -0.00    -0.04   0.02  -0.03
  82   1     0.05  -0.07  -0.02    -0.04   0.05   0.02    -0.03  -0.02  -0.02
  83   1     0.05  -0.07  -0.03    -0.04   0.05   0.03    -0.01  -0.04  -0.01
  84   1     0.03  -0.05  -0.02     0.00   0.01  -0.00     0.01  -0.03   0.01
  85   1     0.02  -0.02  -0.01     0.01  -0.02  -0.02     0.03  -0.00   0.01
  86   1     0.01  -0.00  -0.00     0.01  -0.01  -0.01     0.02   0.00  -0.00
  87   1     0.00  -0.02  -0.01     0.01  -0.02  -0.03     0.00  -0.00   0.03
  88   1    -0.01  -0.02  -0.01     0.00  -0.02  -0.02    -0.02  -0.01   0.02
  89   1    -0.02  -0.01   0.00    -0.01   0.00   0.01    -0.03  -0.01  -0.01
  90   1    -0.03   0.01   0.01    -0.02   0.01   0.04    -0.02  -0.01  -0.04
  91   1    -0.02   0.01   0.01    -0.02   0.01   0.03     0.00   0.01  -0.04
  92   1    -0.01   0.04   0.01    -0.01   0.01   0.00     0.00  -0.01  -0.01
  93   1    -0.01   0.06   0.02    -0.01   0.03   0.01    -0.00  -0.02  -0.01
  94   1     0.02  -0.01  -0.01     0.01  -0.00  -0.01    -0.03   0.06   0.05
  95   1     0.03  -0.06  -0.05     0.02  -0.04  -0.03    -0.04   0.09   0.07
  96   1     0.03  -0.05  -0.04     0.02  -0.03  -0.03    -0.01   0.02   0.02
  97   1    -0.00   0.03   0.01    -0.00   0.02   0.01     0.03  -0.09  -0.04
  98   1     0.00   0.00   0.00    -0.00   0.00  -0.00     0.04   0.04   0.01
  99   1     0.01   0.00   0.01     0.00  -0.00  -0.00     0.05   0.00  -0.03
 100   1     0.01  -0.00   0.02     0.00  -0.00   0.00     0.02  -0.04  -0.05
 101   1     0.00  -0.01   0.01     0.00  -0.00   0.01     0.00  -0.05  -0.03
 102   1    -0.01  -0.01   0.01    -0.00  -0.01   0.01    -0.02  -0.04  -0.01
 103   1    -0.02  -0.01   0.00    -0.01  -0.00   0.01    -0.01   0.00  -0.00
 104   1    -0.02  -0.01  -0.01    -0.01   0.01   0.00     0.02   0.05   0.01
 105   1     0.01   0.00   0.01    -0.00  -0.01   0.00    -0.04  -0.05  -0.01
 106   1     0.04   0.04   0.00     0.00  -0.01  -0.00    -0.05  -0.05  -0.02
 107   1     0.04   0.04   0.00     0.01  -0.00  -0.01    -0.03  -0.03  -0.01
 108   1     0.01   0.01  -0.01     0.01   0.00  -0.01     0.02   0.03   0.01
 109   1    -0.02  -0.03  -0.02     0.01   0.01  -0.01     0.05   0.07   0.02
 110   1     0.00   0.08  -0.07     0.00   0.02  -0.01    -0.01   0.09   0.00
 111   1     0.03   0.10  -0.05     0.01   0.01  -0.00    -0.04   0.04  -0.00
 112   1     0.04  -0.01   0.02     0.01  -0.03   0.01    -0.02  -0.06  -0.00
 113   1     0.02  -0.11   0.07     0.01  -0.03   0.02     0.02  -0.10  -0.01
 114   1    -0.00  -0.10   0.05     0.00  -0.01   0.01     0.04  -0.03  -0.01
 115   1    -0.00   0.00   0.02    -0.01  -0.00   0.01    -0.04  -0.01   0.00
 116   1    -0.00   0.00   0.02    -0.01   0.00   0.01    -0.01   0.02   0.02
 117   1    -0.00  -0.01   0.00    -0.00  -0.00   0.00     0.02   0.04   0.01
 118   1    -0.02   0.02   0.00     0.00  -0.02  -0.01     0.02   0.02   0.02
 119   1    -0.04   0.06   0.02    -0.01  -0.01   0.01     0.01   0.03   0.01
 120   1    -0.01   0.03   0.06     0.13  -0.01  -0.13     0.04   0.01  -0.00
 121   1     0.03  -0.02   0.03     0.15   0.01  -0.15     0.02  -0.02   0.02
                     19                     20                     21
                        a                      a                      a 
 Frequencies --    74.6086                80.9018                91.7798
 Red. masses --    10.8621                10.5412                10.5025
 Frc consts  --     0.0000                 0.0000                 0.0000
 IR Inten    --     6.1957                 5.4689                 9.6758
 Raman Activ --     0.0000                 0.0000                 0.0000
 Depolar     --     0.0000                 0.0000                 0.0000
 Atom AN      X      Y      Z        X      Y      Z        X      Y      Z
   1   6    -0.01  -0.09   0.06    -0.02   0.01   0.02     0.02   0.00   0.01
   2   6    -0.15  -0.06   0.08     0.01   0.00   0.01    -0.01   0.01   0.04
   3   6    -0.13   0.03   0.04     0.04  -0.01  -0.01    -0.00   0.01   0.04
   4   6     0.01   0.08  -0.00     0.02  -0.02  -0.01     0.03   0.00  -0.00
   5   7    -0.01   0.14  -0.00     0.04  -0.04  -0.02     0.05  -0.01  -0.01
   6   6    -0.01   0.09  -0.02     0.02  -0.02  -0.02     0.04   0.00  -0.01
   7   6    -0.08   0.17  -0.03     0.01  -0.01  -0.02    -0.04   0.13   0.03
   8   6    -0.09   0.12  -0.04    -0.02   0.03  -0.00    -0.07   0.18   0.05
   9   6    -0.02  -0.03  -0.06    -0.03   0.04   0.01     0.00   0.07   0.01
  10   6     0.05  -0.10  -0.06    -0.02   0.02   0.01     0.09  -0.06  -0.04
  11   6     0.05  -0.03  -0.04     0.01  -0.01  -0.01     0.10  -0.08  -0.04
  12   6     0.08  -0.05  -0.03     0.02  -0.01  -0.00     0.11  -0.11  -0.06
  13   6     0.12  -0.11  -0.03     0.01  -0.00   0.00     0.10  -0.11  -0.05
  14   6     0.11  -0.07  -0.00    -0.01   0.02   0.01     0.03  -0.01  -0.02
  15   6     0.08  -0.04   0.02    -0.01   0.02   0.01    -0.00   0.03   0.02
  16   6     0.09   0.01   0.05     0.05  -0.04  -0.11     0.03  -0.03  -0.08
  17   6     0.05   0.08   0.07     0.06  -0.06  -0.15     0.02  -0.02  -0.05
  18   6    -0.00   0.08   0.07     0.03  -0.03  -0.09    -0.04   0.03   0.06
  19   6    -0.01   0.03   0.05    -0.03   0.04   0.04    -0.07   0.10   0.15
  20   6     0.03  -0.03   0.04    -0.06   0.07   0.09    -0.08   0.11   0.15
  21   6    -0.05   0.02   0.02    -0.04   0.05   0.05    -0.04   0.09   0.13
  22   6    -0.07  -0.04  -0.03    -0.10   0.11   0.16    -0.01   0.10   0.12
  23   6    -0.09  -0.04  -0.10    -0.06   0.06   0.07     0.11  -0.01  -0.04
  24   6    -0.09   0.01  -0.11     0.05  -0.05  -0.13     0.18  -0.11  -0.18
  25   6    -0.08   0.07  -0.06     0.09  -0.09  -0.22     0.13  -0.10  -0.13
  26   6    -0.05   0.07   0.02     0.04  -0.04  -0.10     0.02  -0.01   0.02
  27   7    -0.03   0.12   0.06     0.06  -0.07  -0.15    -0.00  -0.01   0.02
  28   6    -0.02   0.10   0.04     0.02  -0.05  -0.08    -0.01  -0.07   0.00
  29   6    -0.02   0.07   0.04    -0.05   0.04  -0.05     0.00  -0.10  -0.01
  30   6    -0.01  -0.03   0.00    -0.09   0.11   0.04     0.01  -0.10  -0.02
  31   6    -0.01  -0.10  -0.02    -0.06   0.08   0.09    -0.00  -0.05  -0.01
  32   6     0.00  -0.10  -0.04    -0.06   0.12   0.08    -0.01  -0.01  -0.01
  33   6    -0.05  -0.01  -0.02    -0.07   0.12   0.01     0.01  -0.05  -0.05
  34   6    -0.07   0.12   0.02     0.02   0.01  -0.13     0.02  -0.07  -0.07
  35   6    -0.04   0.14   0.04     0.13  -0.09  -0.19     0.01  -0.01  -0.03
  36   6     0.02  -0.00  -0.01     0.11   0.00  -0.05    -0.02   0.07   0.03
  37   7     0.04  -0.14  -0.05     0.02   0.11   0.09    -0.03   0.07   0.04
  38   6    -0.02  -0.08  -0.02     0.01  -0.02   0.07    -0.02  -0.06  -0.01
  39   7    -0.03  -0.11  -0.04     0.05  -0.03   0.13    -0.03  -0.02  -0.02
  40   6    -0.05  -0.07   0.00    -0.00  -0.03   0.11    -0.04  -0.01  -0.00
  41   6    -0.06  -0.06   0.08     0.03   0.01   0.26    -0.14  -0.08  -0.13
  42   6    -0.08  -0.01   0.12    -0.04   0.02   0.23    -0.16  -0.08  -0.14
  43   6    -0.09   0.04   0.09    -0.14  -0.02   0.05    -0.07   0.01  -0.00
  44   6    -0.07   0.03   0.02    -0.16  -0.06  -0.08     0.03   0.09   0.13
  45   6    -0.05  -0.02  -0.02    -0.08  -0.06  -0.02     0.03   0.07   0.11
  46   6    -0.02  -0.03  -0.05    -0.05  -0.06  -0.05     0.06   0.08   0.12
  47   6     0.02   0.01  -0.05    -0.07  -0.06  -0.11     0.07   0.09   0.15
  48   6     0.07   0.02  -0.05     0.01  -0.03  -0.05    -0.01   0.03   0.05
  49   6     0.09   0.05  -0.02     0.02  -0.01  -0.05    -0.05  -0.00   0.02
  50   6     0.09  -0.00  -0.02     0.04  -0.03  -0.04    -0.04   0.04   0.02
  51   6     0.06  -0.05  -0.00     0.05  -0.02  -0.01    -0.06   0.03  -0.00
  52   6     0.03  -0.04   0.01     0.04  -0.01   0.00    -0.07  -0.01  -0.02
  53   6     0.06   0.03   0.02     0.02   0.01  -0.01    -0.09  -0.07  -0.02
  54   6     0.09   0.07  -0.00     0.02   0.01  -0.03    -0.09  -0.07  -0.00
  55   6     0.03   0.01   0.03     0.00   0.01   0.01    -0.07  -0.05  -0.03
  56   6     0.04   0.06   0.04    -0.04   0.00   0.01    -0.06  -0.05  -0.03
  57   6     0.00   0.02   0.05    -0.07  -0.01   0.03     0.01   0.04  -0.02
  58   6    -0.05  -0.07   0.04    -0.05  -0.02   0.05     0.06   0.11  -0.01
  59   6    -0.06  -0.12   0.03    -0.01  -0.01   0.05     0.04   0.10  -0.01
  60   6    -0.02  -0.08   0.03     0.01  -0.00   0.03    -0.03   0.02  -0.02
  61   7    -0.02  -0.12   0.02     0.04  -0.01   0.03    -0.05   0.02  -0.03
  62   6    -0.01  -0.09   0.01     0.02  -0.02   0.02    -0.03   0.03  -0.02
  63   6     0.00  -0.12   0.03    -0.00  -0.02   0.03    -0.01   0.04  -0.03
  64   6    -0.00  -0.02  -0.01    -0.03   0.02  -0.00     0.01   0.00   0.00
  65   6    -0.02   0.12  -0.05    -0.04   0.05  -0.05     0.01  -0.05   0.04
  66   6    -0.03   0.14  -0.06    -0.01   0.04  -0.05    -0.01  -0.04   0.05
  67   6    -0.02   0.03  -0.02     0.02   0.00  -0.02    -0.03   0.00   0.02
  68   6     0.08  -0.03  -0.06     0.08   0.00   0.06    -0.06  -0.02  -0.03
  69   6     0.04  -0.07  -0.07     0.09  -0.00   0.12    -0.06  -0.01  -0.04
  70   6    -0.00  -0.07  -0.06     0.03  -0.03   0.06     0.01   0.02   0.03
  71   6    -0.02   0.02   0.01     0.06  -0.07  -0.02    -0.01  -0.08  -0.01
  72   6     0.08   0.01   0.01    -0.01   0.03   0.02     0.00   0.05  -0.00
  73   6     0.05   0.07   0.01     0.01   0.00  -0.00     0.03   0.01  -0.01
  74   6     0.05   0.05  -0.01     0.02  -0.02  -0.01     0.07  -0.05  -0.03
  75   6     0.15   0.04  -0.03    -0.00  -0.01  -0.01     0.06   0.00  -0.02
  76   6     0.15  -0.05  -0.00    -0.03   0.00   0.01     0.06   0.00  -0.02
  77   1    -0.01  -0.05   0.02    -0.01   0.01   0.01     0.01   0.00   0.00
  78   1    -0.08  -0.03   0.03     0.01   0.00   0.00    -0.01   0.00   0.02
  79   1    -0.07   0.02   0.01     0.02  -0.00  -0.00    -0.01   0.00   0.02
  80   1    -0.04   0.08  -0.01     0.00  -0.00  -0.01    -0.02   0.06   0.02
  81   1    -0.04   0.05  -0.01    -0.01   0.01  -0.00    -0.04   0.08   0.03
  82   1    -0.01  -0.02  -0.02    -0.02   0.02   0.01    -0.01   0.03   0.01
  83   1     0.03  -0.06  -0.02    -0.01   0.01   0.00     0.04  -0.04  -0.02
  84   1     0.04  -0.05  -0.01     0.00  -0.00   0.00     0.04  -0.04  -0.02
  85   1     0.04   0.00   0.01     0.02  -0.02  -0.05     0.02  -0.02  -0.06
  86   1     0.02   0.03   0.03     0.03  -0.03  -0.07     0.02  -0.02  -0.04
  87   1     0.01  -0.02   0.01    -0.03   0.03   0.05    -0.03   0.04   0.07
  88   1    -0.02  -0.02  -0.01    -0.05   0.05   0.09    -0.02   0.05   0.06
  89   1    -0.03  -0.03  -0.04    -0.03   0.03   0.04     0.04  -0.00  -0.02
  90   1    -0.03   0.00  -0.05     0.03  -0.03  -0.06     0.08  -0.06  -0.09
  91   1    -0.02   0.03  -0.02     0.05  -0.05  -0.11     0.05  -0.05  -0.06
  92   1    -0.01   0.04   0.02    -0.02   0.01  -0.03     0.00  -0.04  -0.00
  93   1    -0.00  -0.01  -0.00    -0.04   0.05   0.02     0.00  -0.04  -0.01
  94   1    -0.02  -0.01  -0.01    -0.05   0.06   0.02     0.01  -0.02  -0.02
  95   1    -0.04   0.06   0.01     0.01  -0.00  -0.05     0.01  -0.03  -0.03
  96   1    -0.02   0.07   0.02     0.06  -0.06  -0.09     0.01  -0.00  -0.01
  97   1     0.02  -0.01  -0.01     0.05  -0.00  -0.02    -0.01   0.04   0.02
  98   1    -0.02  -0.03   0.03     0.03   0.01   0.11    -0.06  -0.04  -0.06
  99   1    -0.03   0.00   0.05    -0.00   0.02   0.10    -0.07  -0.04  -0.07
 100   1    -0.03   0.02   0.04    -0.06  -0.01   0.00    -0.02   0.00  -0.00
 101   1    -0.02   0.02   0.00    -0.07  -0.02  -0.06     0.03   0.05   0.07
 102   1     0.00   0.01  -0.01    -0.04  -0.02  -0.06     0.03   0.03   0.06
 103   1     0.03  -0.00  -0.01     0.01  -0.01  -0.02    -0.01   0.03   0.01
 104   1     0.02  -0.03  -0.00     0.02  -0.01  -0.00    -0.01   0.02   0.00
 105   1     0.03   0.03  -0.00     0.01   0.01  -0.01    -0.03  -0.03  -0.00
 106   1     0.02   0.04   0.01    -0.02   0.00  -0.00    -0.03  -0.03  -0.01
 107   1     0.00   0.02   0.02    -0.03  -0.01   0.01     0.01   0.01  -0.00
 108   1    -0.02  -0.03   0.01    -0.02  -0.01   0.02     0.03   0.05   0.00
 109   1    -0.03  -0.05   0.01     0.00  -0.00   0.02     0.02   0.04   0.00
 110   1     0.00  -0.06   0.02    -0.00  -0.01   0.02    -0.00   0.02  -0.02
 111   1     0.00  -0.01  -0.00    -0.02   0.01   0.00     0.01   0.00  -0.00
 112   1    -0.01   0.06  -0.02    -0.02   0.02  -0.02     0.01  -0.03   0.02
 113   1    -0.01   0.07  -0.03    -0.00   0.02  -0.03    -0.00  -0.02   0.02
 114   1    -0.01   0.01  -0.00     0.01  -0.00  -0.01    -0.01   0.00   0.01
 115   1     0.03  -0.01  -0.02     0.04   0.01   0.03    -0.03  -0.02  -0.03
 116   1     0.02  -0.03  -0.02     0.05   0.01   0.06    -0.03  -0.01  -0.03
 117   1    -0.01   0.01   0.00     0.04  -0.04  -0.01    -0.01  -0.03  -0.00
 118   1     0.02   0.01   0.01    -0.00   0.02   0.01    -0.01   0.04   0.01
 119   1     0.00   0.04   0.01     0.01   0.00  -0.00    -0.00   0.02   0.00
[...]
 Red. masses --     1.8765                 1.8916                 1.9215
 Frc consts  --     0.0000                 0.0000                 0.0000
 IR Inten    --   124.0247               142.9591                97.9654
 Raman Activ --     0.0000                 0.0000                 0.0000
 Depolar     --     0.0000                 0.0000                 0.0000
 Atom AN      X      Y      Z        X      Y      Z        X      Y      Z
   1   6     0.01   0.00   0.01    -0.02  -0.00  -0.02    -0.10  -0.03  -0.11
   2   6     0.00  -0.00   0.00    -0.01   0.01  -0.01    -0.05   0.09  -0.05
   3   6    -0.00  -0.01  -0.00     0.00   0.01   0.00     0.03   0.10   0.03
   4   6    -0.00  -0.00  -0.00     0.00   0.00   0.00     0.01   0.00   0.01
   5   7    -0.00  -0.00  -0.00    -0.00  -0.00  -0.00    -0.00  -0.00  -0.00
   6   6    -0.00  -0.00   0.00     0.00  -0.00   0.00    -0.00  -0.00   0.00
   7   6     0.00   0.00   0.00     0.02   0.01   0.01    -0.00  -0.00  -0.00
   8   6     0.00   0.00  -0.00     0.02   0.01  -0.01    -0.00  -0.00   0.00
   9   6    -0.00   0.00  -0.00    -0.00   0.01  -0.02     0.00  -0.00   0.00
  10   6    -0.00  -0.00  -0.00    -0.02  -0.01  -0.01     0.00   0.00   0.00
  11   6    -0.00  -0.00   0.00    -0.00  -0.00   0.00    -0.00  -0.00  -0.00
  12   6     0.00   0.00  -0.00     0.00   0.00  -0.00    -0.00   0.00  -0.00
  13   6    -0.02  -0.00  -0.04    -0.02  -0.00  -0.03     0.00   0.00   0.00
  14   6    -0.00  -0.00  -0.00    -0.00  -0.00  -0.00     0.00   0.00   0.00
  15   6     0.00   0.00   0.00     0.00   0.00   0.00     0.00  -0.00   0.00
  16   6     0.01   0.12  -0.05     0.01   0.06  -0.03     0.00   0.01  -0.00
  17   6    -0.12   0.06  -0.08    -0.06   0.03  -0.04    -0.01   0.00  -0.00
  18   6    -0.00  -0.00  -0.00    -0.00  -0.00  -0.00    -0.00   0.00  -0.00
  19   6     0.00  -0.00   0.00     0.00  -0.00   0.00    -0.00  -0.00   0.00
  20   6     0.03  -0.02   0.02     0.02  -0.01   0.02     0.00  -0.00   0.00
  21   6    -0.00   0.00  -0.00    -0.00   0.00  -0.00     0.00   0.00  -0.00
  22   6     0.01   0.00   0.00     0.01   0.00   0.00     0.00  -0.00   0.00
  23   6     0.00  -0.01   0.00     0.00  -0.00   0.00     0.00  -0.00   0.00
  24   6    -0.00  -0.00   0.00     0.00   0.01  -0.00    -0.00  -0.00   0.00
  25   6     0.00   0.00   0.00     0.03   0.01   0.01     0.00   0.00   0.00
  26   6     0.00   0.00  -0.00     0.00  -0.00   0.00     0.00  -0.00   0.00
  27   7    -0.00   0.00  -0.00    -0.00   0.00  -0.00    -0.00  -0.00   0.00
  28   6     0.00   0.00   0.00     0.00   0.00  -0.00    -0.00  -0.00  -0.00
  29   6     0.01   0.00  -0.01     0.00   0.00  -0.00     0.00   0.00  -0.00
  30   6     0.00  -0.00   0.01     0.00  -0.01   0.02    -0.00   0.00  -0.01
  31   6    -0.00   0.00   0.00     0.00  -0.00   0.00    -0.00   0.00  -0.00
  32   6     0.00  -0.00   0.00     0.00  -0.00   0.00    -0.00   0.00  -0.00
  33   6    -0.00  -0.04   0.05    -0.00  -0.02   0.02     0.00   0.00  -0.01
  34   6    -0.02  -0.01   0.00    -0.01  -0.01   0.00     0.00   0.00  -0.00
  35   6    -0.03   0.00  -0.02    -0.02   0.00  -0.01     0.00  -0.00   0.00
  36   6     0.00   0.00  -0.00    -0.00   0.00  -0.00    -0.00  -0.00   0.00
  37   7     0.00   0.00  -0.00     0.00   0.00  -0.00    -0.00  -0.00   0.00
  38   6    -0.00   0.00  -0.00    -0.00  -0.00   0.00    -0.00   0.00   0.00
  39   7     0.00   0.00  -0.00     0.00   0.00   0.00    -0.00   0.00  -0.00
  40   6    -0.00  -0.00   0.00     0.00   0.00  -0.00    -0.00  -0.00   0.00
  41   6    -0.09   0.02   0.05     0.15  -0.04  -0.08    -0.02   0.01   0.01
  42   6    -0.03   0.06  -0.01     0.06  -0.11   0.02    -0.01   0.02  -0.00
  43   6     0.02   0.03  -0.03    -0.04  -0.06   0.06     0.01   0.01  -0.01
  44   6     0.03  -0.01  -0.01    -0.06   0.01   0.03     0.01  -0.00  -0.01
  45   6     0.00  -0.00   0.00    -0.00   0.00  -0.00     0.00  -0.00   0.00
  46   6    -0.00   0.00   0.00    -0.00  -0.00   0.00    -0.00   0.00  -0.00
  47   6    -0.01  -0.00   0.00    -0.02  -0.01   0.01     0.01   0.00  -0.00
  48   6    -0.00   0.00   0.00    -0.00   0.00   0.00     0.00  -0.00  -0.00
  49   6     0.00  -0.00  -0.00     0.00  -0.00  -0.00    -0.00   0.00   0.00
  50   6     0.01  -0.01   0.02     0.01  -0.01   0.01    -0.00   0.00  -0.00
  51   6    -0.01   0.00   0.02    -0.00   0.00   0.01     0.00  -0.00  -0.00
  52   6    -0.00   0.00  -0.00    -0.00   0.00  -0.00     0.00  -0.00   0.00
  53   6     0.00   0.00  -0.00     0.00  -0.00  -0.00     0.00  -0.00   0.00
  54   6     0.00  -0.00  -0.01     0.00  -0.00  -0.01    -0.00   0.00   0.00
  55   6     0.00  -0.00   0.00     0.00   0.00  -0.00    -0.00   0.00  -0.00
  56   6     0.01  -0.01  -0.01     0.00  -0.00  -0.00    -0.00   0.00   0.00
  57   6     0.00   0.00  -0.02     0.00   0.00  -0.00    -0.00  -0.00   0.00
  58   6    -0.01   0.01  -0.01    -0.00   0.00  -0.00     0.00  -0.00   0.00
  59   6    -0.02   0.01   0.01    -0.00   0.00   0.00     0.00  -0.00  -0.00
  60   6     0.00  -0.00   0.00     0.00  -0.00   0.00    -0.00   0.00  -0.00
  61   7     0.00  -0.00  -0.00     0.00  -0.00   0.00    -0.00   0.00   0.00
  62   6    -0.00   0.00   0.00    -0.00   0.00   0.00     0.00  -0.00  -0.00
  63   6    -0.01  -0.00  -0.00     0.00   0.00   0.00     0.03   0.00   0.00
  64   6    -0.01  -0.00  -0.01     0.00   0.00   0.00     0.01   0.01   0.03
  65   6     0.01  -0.00  -0.01    -0.00   0.00   0.00    -0.03   0.01   0.04
  66   6     0.01   0.00   0.00    -0.00  -0.00  -0.00    -0.03  -0.00  -0.00
  67   6     0.00   0.00   0.01     0.00   0.00   0.00    -0.01  -0.01  -0.03
  68   6    -0.00   0.01  -0.01    -0.00   0.02  -0.01     0.00  -0.01   0.00
  69   6     0.02   0.01  -0.01     0.03   0.01  -0.02    -0.01  -0.00   0.01
  70   6     0.00  -0.00  -0.00     0.00  -0.00  -0.00    -0.00   0.00   0.00
  71   6     0.00   0.00  -0.00    -0.00  -0.00   0.01     0.00   0.00  -0.00
  72   6    -0.01  -0.02   0.02    -0.01  -0.01   0.02     0.00   0.00  -0.00
  73   6     0.01   0.00   0.02     0.01   0.00   0.02    -0.00  -0.00  -0.00
  74   6     0.00   0.00   0.00     0.00   0.00   0.00     0.00   0.00  -0.00
  75   6    -0.00   0.00  -0.00     0.01  -0.01   0.01     0.05  -0.08   0.05
  76   6     0.00   0.00   0.00    -0.00  -0.02  -0.00    -0.03  -0.12  -0.03
  77   1    -0.02  -0.00  -0.02     0.05   0.01   0.06     0.34   0.09   0.37
  78   1    -0.01   0.01  -0.01     0.02  -0.04   0.02     0.15  -0.28   0.18
  79   1     0.01   0.02   0.01    -0.01  -0.04  -0.01    -0.09  -0.33  -0.09
  80   1    -0.01  -0.00  -0.00    -0.06  -0.02  -0.04     0.01   0.01   0.01
  81   1    -0.01  -0.01   0.00    -0.05  -0.04   0.03     0.01   0.00  -0.00
  82   1     0.00  -0.00   0.01     0.01  -0.02   0.07    -0.00   0.00  -0.01
  83   1     0.01   0.01   0.01     0.06   0.02   0.04    -0.01  -0.00  -0.00
  84   1     0.08   0.00   0.15     0.06   0.00   0.10    -0.00  -0.00  -0.00
  85   1    -0.03  -0.41   0.19    -0.02  -0.21   0.09    -0.00  -0.02   0.01
  86   1     0.42  -0.21   0.29     0.20  -0.10   0.14     0.02  -0.01   0.01
  87   1    -0.11   0.06  -0.08    -0.08   0.04  -0.06    -0.01   0.00  -0.00
  88   1    -0.04  -0.01  -0.01    -0.02  -0.00  -0.01    -0.00  -0.00  -0.00
  89   1    -0.01   0.02  -0.01    -0.00   0.01  -0.01    -0.00   0.00  -0.00
  90   1     0.01   0.01  -0.00    -0.01  -0.03   0.01     0.00   0.00  -0.00
  91   1    -0.01  -0.00  -0.00    -0.11  -0.02  -0.05    -0.01  -0.00  -0.00
  92   1    -0.03  -0.01   0.02    -0.01  -0.00   0.00    -0.01  -0.00   0.01
  93   1    -0.00   0.01  -0.04    -0.00   0.02  -0.06     0.00  -0.01   0.04
  94   1     0.00   0.14  -0.19     0.00   0.06  -0.08    -0.00  -0.02   0.02
  95   1     0.04   0.03  -0.01     0.02   0.01  -0.01    -0.01  -0.00   0.00
  96   1     0.09  -0.01   0.07     0.06  -0.01   0.05    -0.02   0.00  -0.01
  97   1    -0.00  -0.01   0.01    -0.00  -0.00   0.01     0.00   0.00  -0.00
  98   1     0.31  -0.08  -0.16    -0.50   0.13   0.27     0.08  -0.02  -0.04
  99   1     0.10  -0.20   0.04    -0.18   0.36  -0.07     0.03  -0.06   0.01
 100   1    -0.06  -0.10   0.09     0.12   0.20  -0.19    -0.02  -0.03   0.03
 101   1    -0.09   0.02   0.05     0.20  -0.04  -0.10    -0.04   0.01   0.02
 102   1     0.02   0.01  -0.02     0.06   0.02  -0.05    -0.02  -0.01   0.02
 103   1    -0.03   0.04  -0.06    -0.02   0.02  -0.04     0.01  -0.01   0.01
 104   1     0.03  -0.00  -0.06     0.02  -0.00  -0.03    -0.01   0.00   0.01
 105   1    -0.02   0.00   0.04    -0.01   0.00   0.02     0.00  -0.00  -0.01
 106   1    -0.04   0.02   0.03    -0.01   0.00   0.01     0.01  -0.00  -0.00
 107   1    -0.00  -0.01   0.06    -0.00  -0.00   0.01     0.00   0.00  -0.01
 108   1     0.05  -0.05   0.03     0.01  -0.01   0.00    -0.01   0.01  -0.00
 109   1     0.05  -0.03  -0.04     0.01  -0.00  -0.01    -0.00   0.00   0.00
 110   1     0.03   0.00   0.00    -0.00  -0.00  -0.00    -0.10  -0.02  -0.01
 111   1     0.02   0.02   0.04    -0.00  -0.00  -0.00    -0.05  -0.04  -0.10
 112   1    -0.04   0.01   0.05     0.00  -0.00  -0.00     0.09  -0.04  -0.12
 113   1    -0.04  -0.01  -0.00     0.00   0.00   0.00     0.11   0.02   0.01
 114   1    -0.01  -0.01  -0.02    -0.00  -0.00  -0.00     0.04   0.04   0.09
 115   1     0.00  -0.05   0.02     0.00  -0.07   0.03    -0.00   0.03  -0.01
 116   1    -0.06  -0.02   0.05    -0.09  -0.04   0.07     0.03   0.02  -0.03
 117   1     0.00  -0.00   0.01    -0.00   0.01  -0.02     0.00  -0.00   0.00
 118   1     0.04   0.05  -0.09     0.04   0.05  -0.08    -0.00  -0.00   0.00
 119   1    -0.04  -0.00  -0.07    -0.04  -0.00  -0.07     0.00   0.00   0.01
 120   1     0.00  -0.01   0.01    -0.02   0.04  -0.02    -0.16   0.28  -0.18
 121   1    -0.00  -0.02  -0.00     0.01   0.05   0.01     0.10   0.38   0.09
                    355                    356                    357
                        a                      a                      a 
 Frequencies --  3098.2339              3100.6904              3102.4282
 Red. masses --     1.9223                 1.8644                 1.8647
 Frc consts  --     0.0000                 0.0000                 0.0000
 IR Inten    --   114.2612               184.3191               412.0500
 Raman Activ --     0.0000                 0.0000                 0.0000
 Depolar     --     0.0000                 0.0000                 0.0000
 Atom AN      X      Y      Z        X      Y      Z        X      Y      Z
   1   6     0.03   0.01   0.03     0.00   0.00   0.00     0.00   0.00   0.00
   2   6     0.01  -0.03   0.02     0.00  -0.00   0.00     0.00  -0.00   0.00
   3   6    -0.01  -0.03  -0.01    -0.00  -0.00  -0.00    -0.00  -0.00  -0.00
   4   6    -0.00  -0.00  -0.00    -0.00  -0.00  -0.00    -0.00  -0.00  -0.00
   5   7     0.00   0.00   0.00    -0.00  -0.00   0.00     0.00   0.00  -0.00
   6   6     0.00  -0.00   0.00     0.00  -0.00   0.00     0.00  -0.00   0.00
   7   6     0.00   0.00   0.00     0.00   0.00   0.00     0.00   0.00   0.00
   8   6     0.00   0.00  -0.00     0.00   0.00  -0.00     0.00   0.00  -0.00
   9   6    -0.00   0.00  -0.00    -0.00   0.00  -0.00    -0.00   0.00  -0.00
  10   6    -0.00  -0.00  -0.00    -0.00  -0.00  -0.00    -0.00  -0.00  -0.00
  11   6    -0.00  -0.00   0.00    -0.00  -0.00  -0.00    -0.00  -0.00   0.00
  12   6     0.00   0.00  -0.00    -0.00  -0.00  -0.00     0.00   0.00   0.00
  13   6    -0.00  -0.00  -0.01    -0.00   0.00  -0.00     0.00  -0.00   0.00
  14   6    -0.00  -0.00  -0.00    -0.00  -0.00   0.00     0.00   0.00  -0.00
  15   6     0.00   0.00   0.00     0.00   0.00   0.00    -0.00  -0.00  -0.00
  16   6     0.00   0.01  -0.00     0.00   0.00  -0.00    -0.00  -0.01   0.00
  17   6    -0.01   0.00  -0.01    -0.00   0.00  -0.00     0.01  -0.00   0.01
  18   6    -0.00  -0.00  -0.00    -0.00  -0.00   0.00     0.00   0.00  -0.00
  19   6     0.00  -0.00   0.00     0.00   0.00  -0.00     0.00   0.00  -0.00
  20   6     0.01  -0.00   0.00    -0.00   0.00  -0.00    -0.01   0.00  -0.00
  21   6    -0.00   0.00  -0.00    -0.00  -0.00  -0.00    -0.00  -0.00  -0.00
  22   6     0.00   0.00   0.00    -0.00   0.00  -0.00    -0.03  -0.00  -0.01
  23   6     0.00  -0.00   0.00    -0.00   0.00  -0.00    -0.02   0.03  -0.03
  24   6     0.00   0.00  -0.00     0.00   0.00  -0.00     0.05   0.08  -0.02
  25   6     0.01   0.00   0.00     0.01   0.00   0.01     0.23   0.05   0.10
  26   6     0.00  -0.00   0.00     0.00  -0.00   0.00     0.00  -0.01   0.01
  27   7    -0.00  -0.00  -0.00     0.00   0.00  -0.00     0.00  -0.00   0.00
  28   6    -0.00   0.00  -0.00     0.00  -0.00   0.00    -0.00   0.00  -0.00
  29   6    -0.00  -0.00   0.00     0.10   0.02  -0.05    -0.01  -0.00   0.00
  30   6     0.00  -0.00   0.00    -0.01   0.07  -0.24     0.00  -0.00   0.01
  31   6    -0.00   0.00   0.00    -0.00   0.00  -0.01     0.00  -0.00   0.00
  32   6     0.00   0.00   0.00     0.00   0.00  -0.00    -0.00   0.00  -0.00
  33   6    -0.00  -0.00   0.00     0.00  -0.00   0.01    -0.00   0.00  -0.00
  34   6    -0.00  -0.00   0.00    -0.00  -0.00   0.00     0.00   0.00  -0.00
  35   6    -0.00   0.00  -0.00    -0.01   0.00  -0.01     0.00  -0.00   0.00
  36   6     0.00   0.00  -0.00     0.00   0.00  -0.00    -0.00  -0.00   0.00
  37   7    -0.00  -0.00  -0.00    -0.00  -0.00   0.00    -0.00  -0.00  -0.00
  38   6    -0.00  -0.00   0.00    -0.00  -0.00   0.00     0.00   0.00  -0.00
  39   7     0.00   0.00  -0.00     0.00   0.00  -0.00     0.00   0.00   0.00
  40   6    -0.00  -0.00   0.00    -0.00  -0.00  -0.00    -0.00  -0.00   0.00
  41   6    -0.00   0.00   0.00     0.01  -0.00  -0.00    -0.02   0.01   0.01
  42   6    -0.00   0.00  -0.00     0.00  -0.01   0.00    -0.01   0.01  -0.00
  43   6     0.00   0.00  -0.00    -0.00  -0.00   0.00     0.00   0.01  -0.01
  44   6     0.00   0.00  -0.00    -0.00   0.00   0.00     0.01  -0.00  -0.00
  45   6     0.00  -0.00   0.00    -0.00   0.00  -0.00     0.00  -0.00  -0.00
  46   6    -0.00   0.00  -0.00     0.00  -0.00   0.00    -0.00   0.00  -0.00
  47   6    -0.00  -0.00   0.00    -0.00  -0.00   0.00     0.00   0.00  -0.00
  48   6     0.00   0.00  -0.00    -0.00   0.00   0.00     0.00  -0.00  -0.00
  49   6     0.00  -0.00  -0.00     0.00  -0.00  -0.00    -0.00   0.00   0.00
  50   6     0.00  -0.00   0.00     0.00  -0.00   0.00    -0.00   0.00  -0.00
  51   6    -0.00   0.00   0.00    -0.00   0.00   0.00     0.00  -0.00  -0.00
  52   6     0.00  -0.00   0.00    -0.00   0.00   0.00     0.00  -0.00  -0.00
  53   6    -0.00   0.00   0.00    -0.00   0.00  -0.00    -0.00  -0.00   0.00
  54   6     0.00  -0.00  -0.00     0.00  -0.00  -0.00    -0.00   0.00   0.00
  55   6    -0.00  -0.00   0.00     0.00  -0.00   0.00    -0.00   0.00  -0.00
  56   6     0.00  -0.00  -0.00     0.00  -0.00  -0.00    -0.00   0.00   0.00
  57   6     0.00   0.00  -0.00     0.00   0.00  -0.00    -0.00  -0.00   0.00
  58   6    -0.00   0.00  -0.00    -0.00   0.00  -0.00     0.00  -0.00   0.00
  59   6    -0.00   0.00   0.00    -0.00   0.00   0.00     0.00  -0.00  -0.00
  60   6    -0.00   0.00  -0.00     0.00   0.00  -0.00    -0.00   0.00  -0.00
  61   7    -0.00   0.00   0.00     0.00  -0.00   0.00    -0.00   0.00  -0.00
  62   6     0.01  -0.00  -0.01    -0.00   0.00   0.00    -0.00   0.00   0.00
  63   6     0.10   0.02   0.01    -0.00  -0.00  -0.00    -0.00  -0.00  -0.00
  64   6     0.05   0.04   0.10     0.00   0.00   0.00    -0.00  -0.00  -0.00
  65   6    -0.10   0.04   0.12    -0.00   0.00   0.00     0.00  -0.00  -0.00
  66   6    -0.12  -0.02  -0.01    -0.00  -0.00  -0.00     0.00   0.00   0.00
  67   6    -0.04  -0.04  -0.09     0.00   0.00   0.00     0.00   0.00   0.00
  68   6     0.00  -0.00   0.00    -0.00   0.00  -0.00     0.00  -0.01   0.00
  69   6    -0.00  -0.00   0.00    -0.00  -0.00   0.00    -0.01  -0.00   0.00
  70   6    -0.00  -0.00   0.00    -0.00   0.00   0.00    -0.00   0.00  -0.00
  71   6    -0.00  -0.00  -0.00     0.00  -0.00   0.00     0.00   0.00  -0.01
  72   6    -0.00  -0.00   0.01    -0.00  -0.00   0.00     0.00   0.00  -0.00
  73   6     0.00   0.00   0.01    -0.00  -0.00  -0.00    -0.00   0.00  -0.00
  74   6     0.00   0.00   0.00     0.00   0.00   0.00    -0.00  -0.00   0.00
  75   6    -0.01   0.03  -0.02    -0.00   0.00  -0.00    -0.00   0.00  -0.00
  76   6     0.01   0.04   0.01     0.00   0.00   0.00     0.00   0.00   0.00
  77   1    -0.10  -0.03  -0.11    -0.01  -0.00  -0.02    -0.00  -0.00  -0.00
  78   1    -0.05   0.09  -0.05    -0.01   0.01  -0.01    -0.00   0.00  -0.00
  79   1     0.03   0.10   0.03     0.00   0.01   0.00     0.00   0.01   0.00
  80   1    -0.02  -0.01  -0.01    -0.01  -0.00  -0.01    -0.00  -0.00  -0.00
  81   1    -0.01  -0.01   0.01    -0.01  -0.01   0.01    -0.00  -0.00   0.00
  82   1     0.00  -0.00   0.02     0.00  -0.00   0.01     0.00  -0.00   0.00
  83   1     0.01   0.01   0.01     0.01   0.00   0.00     0.00   0.00   0.00
  84   1     0.01   0.00   0.02     0.00   0.00   0.01    -0.00  -0.00  -0.00
  85   1    -0.00  -0.03   0.02    -0.00  -0.01   0.00     0.00   0.02  -0.01
  86   1     0.03  -0.02   0.02     0.02  -0.01   0.01    -0.03   0.01  -0.02
  87   1    -0.02   0.01  -0.01     0.00  -0.00   0.00     0.02  -0.01   0.01
  88   1    -0.01  -0.00  -0.00     0.00   0.00   0.00     0.09   0.01   0.03
  89   1    -0.00   0.00  -0.00     0.00  -0.00   0.00     0.06  -0.11   0.09
  90   1    -0.00  -0.00   0.00    -0.01  -0.01   0.00    -0.15  -0.26   0.06
  91   1    -0.03  -0.01  -0.01    -0.04  -0.01  -0.02    -0.79  -0.15  -0.35
  92   1     0.00   0.00  -0.00    -0.32  -0.07   0.17     0.02   0.01  -0.01
  93   1    -0.00   0.00  -0.02     0.01  -0.25   0.84    -0.00   0.01  -0.04
  94   1     0.00   0.01  -0.01     0.00   0.01  -0.02    -0.00  -0.01   0.01
  95   1     0.00   0.00  -0.00     0.01   0.01  -0.00    -0.01  -0.00   0.00
  96   1     0.01  -0.00   0.01     0.04  -0.00   0.04    -0.01   0.00  -0.01
  97   1    -0.00  -0.00   0.00    -0.00  -0.00   0.00     0.00   0.00  -0.00
  98   1     0.01  -0.00  -0.01    -0.02   0.00   0.01     0.07  -0.02  -0.04
  99   1     0.00  -0.01   0.00    -0.01   0.02  -0.00     0.02  -0.04   0.01
 100   1    -0.00  -0.00   0.00     0.01   0.01  -0.01    -0.01  -0.02   0.02
 101   1    -0.00   0.00   0.00     0.02  -0.00  -0.01    -0.02   0.00   0.01
 102   1     0.00   0.00  -0.00     0.01   0.00  -0.01    -0.01  -0.01   0.01
 103   1    -0.00   0.01  -0.01    -0.01   0.01  -0.01     0.01  -0.01   0.01
 104   1     0.01  -0.00  -0.01     0.01  -0.00  -0.01    -0.01   0.00   0.01
 105   1    -0.00   0.00   0.01    -0.01   0.00   0.02     0.00  -0.00  -0.01
 106   1    -0.01   0.00   0.01    -0.00   0.00   0.00     0.01  -0.00  -0.01
 107   1    -0.00  -0.00   0.01    -0.00  -0.00   0.01     0.00   0.00  -0.01
 108   1     0.01  -0.01   0.00     0.00  -0.00   0.00    -0.01   0.01  -0.01
 109   1     0.01  -0.01  -0.01     0.00  -0.00  -0.00    -0.01   0.01   0.01
 110   1    -0.35  -0.05  -0.03     0.00   0.00   0.00     0.01   0.00   0.00
 111   1    -0.15  -0.14  -0.33    -0.00  -0.00  -0.00     0.00   0.00   0.01
 112   1     0.32  -0.12  -0.40     0.00  -0.00  -0.00    -0.01   0.00   0.01
 113   1     0.38   0.05   0.03     0.00   0.00   0.00    -0.01  -0.00  -0.00
 114   1     0.14   0.13   0.30    -0.00  -0.00  -0.00    -0.01  -0.01  -0.01
 115   1    -0.00   0.00  -0.00     0.00  -0.02   0.01    -0.00   0.02  -0.01
 116   1     0.01   0.00  -0.00     0.00   0.00  -0.00     0.02   0.01  -0.02
 117   1    -0.00  -0.00   0.00     0.00   0.00  -0.01    -0.00  -0.01   0.04
 118   1     0.01   0.01  -0.02     0.00   0.00  -0.00    -0.00  -0.00   0.01
 119   1    -0.01  -0.00  -0.02     0.00   0.00   0.00     0.00   0.00   0.00
 120   1     0.05  -0.09   0.05     0.01  -0.01   0.01     0.00  -0.01   0.00
 121   1    -0.03  -0.12  -0.03    -0.00  -0.02  -0.00    -0.00  -0.01  -0.00
