      -----------------------------------------------------------      
     |                   =====================                   |     
     |                           x T B                           |     
     |                   =====================                   |     
     |                         S. Grimme                         |     
     |          Mulliken Center for Theoretical Chemistry        |     
     |                    University of Bonn                     |     
      -----------------------------------------------------------      

   * xtb version 6.7.1 (edcfbbe) compiled by 'albert@albert-system' on 2024-07-22

   xtb is free software: you can redistribute it and/or modify it under
   the terms of the GNU Lesser General Public License as published by
   the Free Software Foundation, either version 3 of the License, or
   (at your option) any later version.
   
   xtb is distributed in the hope that it will be useful,
   but WITHOUT ANY WARRANTY; without even the implied warranty of
   MERCHANTABILITY or FITNESS FOR A PARTICULAR PURPOSE.  See the
   GNU Lesser General Public License for more details.
   
   Cite this work as:
   * C. Bannwarth, E. Caldeweyher, S. Ehlert, A. Hansen, P. Pracht,
     J. Seibert, S. Spicher, S. Grimme, WIREs Comput. Mol. Sci., 2020, 11,
     e01493. DOI: 10.1002/wcms.1493
   
   for GFN2-xTB:
   * C. Bannwarth, S. Ehlert and S. Grimme., J. Chem. Theory Comput., 2019,
     15, 1652-1671. DOI: 10.1021/acs.jctc.8b01176
   for GFN1-xTB:
   * S. Grimme, C. Bannwarth, P. Shushkov, J. Chem. Theory Comput., 2017,
     13, 1989-2009. DOI: 10.1021/acs.jctc.7b00118
   for GFN0-xTB:
   * P. Pracht, E. Caldeweyher, S. Ehlert, S. Grimme, ChemRxiv, 2019, preprint.
     DOI: 10.26434/chemrxiv.8326202.v1
   for GFN-FF:
   * S. Spicher and S. Grimme, Angew. Chem. Int. Ed., 2020, 59, 15665-15673.
     DOI: 10.1002/anie.202004239
   
   for ALPB and GBSA implicit solvation:
   * S. Ehlert, M. Stahn, S. Spicher, S. Grimme, J. Chem. Theory Comput.,
     2021, 17, 4250-4261. DOI: 10.1021/acs.jctc.1c00471
   
   for ddCOSMO and CPCM-X implicit solvation:
   * M. Stahn, S. Ehlert, S. Grimme, J. Phys. Chem. A,
     2023, XX, XXXX-XXXX. DOI: 10.1021/acs.jpca.3c04382
   
   for DFT-D4:
   * E. Caldeweyher, C. Bannwarth and S. Grimme, J. Chem. Phys., 2017,
     147, 034112. DOI: 10.1063/1.4993215
   * E. Caldeweyher, S. Ehlert, A. Hansen, H. Neugebauer, S. Spicher,
     C. Bannwarth and S. Grimme, J. Chem. Phys., 2019, 150, 154122.
     DOI: 10.1063/1.5090222
   * E. Caldeweyher, J.-M. Mewes, S. Ehlert and S. Grimme, Phys. Chem. Chem. Phys.
     2020, 22, 8499-8512. DOI: 10.1039/D0CP00502A
   
   for sTDA-xTB:
   * S. Grimme and C. Bannwarth, J. Chem. Phys., 2016, 145, 054103.
     DOI: 10.1063/1.4959605
   
   in the mass-spec context:
   * V. Asgeirsson, C. Bauer and S. Grimme, Chem. Sci., 2017, 8, 4879.
     DOI: 10.1039/c7sc00601b
   * J. Koopman and S. Grimme, ACS Omega 2019, 4, 12, 15120-15133.
     DOI: 10.1021/acsomega.9b02011
   
   for metadynamics refer to:
   * S. Grimme, J. Chem. Theory Comput., 2019, 155, 2847-2862
     DOI: 10.1021/acs.jctc.9b00143
   
   for SPH calculations refer to:
   * S. Spicher and S. Grimme, J. Chem. Theory Comput., 2021, 17, 1701-1714
     DOI: 10.1021/acs.jctc.0c01306
   
   for ONIOM refer to:
   * C. Plett, A. Katbashev, S. Ehlert, S. Grimme, M. Bursch,
     Phys. Chem. Chem. Phys., 2023, 25, 17860-17868. DOI: 10.1039/D3CP02178E
   
   for DIPRO refer to:
   * J. Kohn, N. Gildemeister, S. Grimme, D. Fazzi, A. Hansen,
     J. Chem. Phys., 2023, just accepted.
   
   for PTB refer to:
   * S. Grimme, M. Mueller, A. Hansen, J. Chem. Phys., 2023, 158, 124111.
     DOI: 10.1063/5.0137838
   
   with help from (in alphabetical order)
   P. Atkinson, C. Bannwarth, F. Bohle, G. Brandenburg, E. Caldeweyher
   M. Checinski, S. Dohm, S. Ehlert, S. Ehrlich, I. Gerasimov, C. Hölzer
   A. Katbashev, J. Kohn, J. Koopman, C. Lavigne, S. Lehtola, F. März, M. Müller,
   F. Musil, H. Neugebauer, J. Pisarek, C. Plett, P. Pracht, F. Pultar,
   J. Seibert, P. Shushkov, S. Spicher, M. Stahn, M. Steiner, T. Strunk,
   J. Stückrath, T. Rose, and J. Unsleber
   
 * started run on 2025/09/04 at 09:56:48.466     
   ID    Z sym.   atoms
    1    6 C      1-4, 6-11, 13-17, 19-32, 34-49
    2    7 N      5, 12, 18, 33
    3    1 H      50-79

           -------------------------------------------------
          |                Calculation Setup                |
           -------------------------------------------------

          program call               : xtb data2507/gas/PPZPPI/PPZPPI.xyz --gfn 2 --ohess vtight --parallel 40 --molden --ceasefiles --namespace data2507/gas/PPZPPI/PPZPPI_gas_S0_preOpt
          calculation namespace      : data2507/gas/PPZPPI/PPZPPI_gas_S0_preOpt
          coordinate file            : data2507/gas/PPZPPI/PPZPPI.xyz
          omp threads                :                    40


           -------------------------------------------------
          |                 G F N 2 - x T B                 |
           -------------------------------------------------

        Reference                      10.1021/acs.jctc.8b01176
      * Hamiltonian:
        H0-scaling (s, p, d)           1.850000    2.230000    2.230000
        zeta-weighting                 0.500000
      * Dispersion:
        s8                             2.700000
        a1                             0.520000
        a2                             5.000000
        s9                             5.000000
      * Repulsion:
        kExp                           1.500000    1.000000
        rExp                           1.000000
      * Coulomb:
        alpha                          2.000000
        third order                    shell-resolved
        anisotropic                    true
        a3                             3.000000
        a5                             4.000000
        cn-shift                       1.200000
        cn-exp                         4.000000
        max-rad                        5.000000


          ...................................................
          :                      SETUP                      :
          :.................................................:
          :  # basis functions                 226          :
          :  # atomic orbitals                 226          :
          :  # shells                          128          :
          :  # electrons                       230          :
          :  max. iterations                   250          :
          :  Hamiltonian                  GFN2-xTB          :
          :  restarted?                      false          :
          :  GBSA solvation                  false          :
          :  PC potential                    false          :
          :  electronic temp.          300.0000000     K    :
          :  accuracy                    1.0000000          :
          :  -> integral cutoff          0.2500000E+02      :
          :  -> integral neglect         0.1000000E-07      :
          :  -> SCF convergence          0.1000000E-05 Eh   :
          :  -> wf. convergence          0.1000000E-03 e    :
          :  Broyden damping             0.4000000          :
          :  net charge                          0          :
          :  unpaired electrons                  0          :
          ...................................................

 iter      E             dE          RMSdq      gap      omega  full diag
   1   -125.4121866 -0.125412E+03  0.452E+00    1.54       0.0  T
   2   -125.5102797 -0.980931E-01  0.281E+00    1.88       1.0  T
   3   -125.4562060  0.540736E-01  0.116E+00    1.43       1.0  T
   4   -125.5247401 -0.685340E-01  0.362E-01    1.72       1.0  T
   5   -125.5341117 -0.937161E-02  0.110E-01    1.63       1.0  T
   6   -125.5347363 -0.624667E-03  0.487E-02    1.66       1.0  T
   7   -125.5348858 -0.149431E-03  0.197E-02    1.65       1.0  T
   8   -125.5348876 -0.185422E-05  0.107E-02    1.65       1.0  T
   9   -125.5348934 -0.583985E-05  0.226E-03    1.65       5.0  T
  10   -125.5348937 -0.268574E-06  0.960E-04    1.65      11.7  T
  11   -125.5348938 -0.434925E-07  0.387E-04    1.65      29.1  T

   *** convergence criteria satisfied after 11 iterations ***

         #    Occupation            Energy/Eh            Energy/eV
      -------------------------------------------------------------
         1        2.0000           -0.6829865             -18.5850
       ...           ...                  ...                  ...
       109        2.0000           -0.3955806             -10.7643
       110        2.0000           -0.3922082             -10.6725
       111        2.0000           -0.3785755             -10.3016
       112        2.0000           -0.3757303             -10.2241
       113        2.0000           -0.3698524             -10.0642
       114        2.0000           -0.3634984              -9.8913
       115        2.0000           -0.3214721              -8.7477 (HOMO)
       116                         -0.2607669              -7.0958 (LUMO)
       117                         -0.2518692              -6.8537
       118                         -0.2451274              -6.6703
       119                         -0.2427474              -6.6055
       120                         -0.2392079              -6.5092
       ...                                ...                  ...
       226                          0.7070215              19.2390
      -------------------------------------------------------------
                  HL-Gap            0.0607053 Eh            1.6519 eV
             Fermi-level           -0.2911195 Eh           -7.9218 eV

 SCC (total)                   0 d,  0 h,  0 min,  0.166 sec
 SCC setup                      ...        0 min,  0.001 sec (  0.405%)
 Dispersion                     ...        0 min,  0.004 sec (  2.495%)
 classical contributions        ...        0 min,  0.000 sec (  0.201%)
 integral evaluation            ...        0 min,  0.008 sec (  4.748%)
 iterations                     ...        0 min,  0.140 sec ( 84.817%)
 molecular gradient             ...        0 min,  0.011 sec (  6.938%)
 printout                       ...        0 min,  0.001 sec (  0.339%)

         :::::::::::::::::::::::::::::::::::::::::::::::::::::
         ::                     SUMMARY                     ::
         :::::::::::::::::::::::::::::::::::::::::::::::::::::
         :: total energy            -123.402274350420 Eh    ::
         :: gradient norm              0.095359922747 Eh/a0 ::
         :: HOMO-LUMO gap              1.651873985161 eV    ::
         ::.................................................::
         :: SCC energy              -125.534669519902 Eh    ::
         :: -> isotropic ES            0.023358860716 Eh    ::
         :: -> anisotropic ES          0.013107853644 Eh    ::
         :: -> anisotropic XC          0.077200767300 Eh    ::
         :: -> dispersion             -0.113664260376 Eh    ::
         :: repulsion energy           2.132395169482 Eh    ::
         :: add. restraining           0.000000000000 Eh    ::
         :: total charge               0.000000000000 e     ::
         :::::::::::::::::::::::::::::::::::::::::::::::::::::

      ----------------------------------------------------------- 
     |                   =====================                   |
     |                        A N C O P T                        |
     |                   =====================                   |
     |               Approximate Normal Coordinate               |
     |                Rational Function Optimizer                |
      ----------------------------------------------------------- 

Optimization log is written to '/dev/null'
      ----------------------------------------------------------- 
     |                   =====================                   |
     |                        A N C O P T                        |
     |                   =====================                   |
     |               Approximate Normal Coordinate               |
     |                Rational Function Optimizer                |
      ----------------------------------------------------------- 

          ...................................................
          :                      SETUP                      :
          :.................................................:
          :   optimization level         verytight          :
          :   max. optcycles                  1580          :
          :   ANC micro-cycles                  20          :
          :   degrees of freedom               231          :
          :.................................................:
          :   RF solver                   davidson          :
          :   write xtbopt.log                true          :
          :   linear?                        false          :
          :   energy convergence         0.1000000E-06 Eh   :
          :   grad. convergence          0.2000000E-03 Eh/α :
          :   maxmium RF displ.          1.0000000          :
          :   Hlow (freq-cutoff)         0.1000000E-01      :
          :   Hmax (freq-cutoff)         5.0000000          :
          :   S6 in model hess.         20.0000000          :
          ...................................................

generating ANC from exact Hessian ...
Using Lindh-Hessian (1995)
 Shifting diagonal of input Hessian by   9.915358522400145E-003
 Lowest  eigenvalues of input Hessian
    0.000000    0.000000    0.000000    0.000000    0.000000    0.000000
    0.010000    0.010028    0.010058    0.010199    0.010499    0.010746
    0.011045    0.011202    0.011275    0.011355    0.011643    0.011727
 Highest eigenvalues
    2.017866    2.024323    2.056026    2.083669    2.119457    2.138207
 

........................................................................
.............................. CYCLE    1 ..............................
........................................................................

 iter      E             dE          RMSdq      gap      omega  full diag
   1   -125.5348938 -0.125535E+03  0.199E-04    1.65       0.0  T
   2   -125.5348938 -0.500464E-09  0.137E-04    1.65      82.1  T
   3   -125.5348938 -0.780545E-09  0.804E-05    1.65     139.9  T
     SCC iter.                  ...        0 min,  0.027 sec
     gradient                   ...        0 min,  0.010 sec
 * total energy  :  -123.4022744 Eh     change       -0.3715954E-08 Eh
   gradient norm :     0.0953590 Eh/α   predicted     0.0000000E+00 (-100.00%)
   displ. norm   :     0.4510835 α      lambda       -0.2364533E-01
   maximum displ.:     0.3267363 α      in ANC's #49, #26, #114, ...

........................................................................
.............................. CYCLE    2 ..............................
........................................................................

 iter      E             dE          RMSdq      gap      omega  full diag
   1   -125.6456344 -0.125646E+03  0.174E-01    1.60       0.0  T
   2   -125.6458396 -0.205224E-03  0.126E-01    1.67       1.0  T
   3   -125.6460767 -0.237054E-03  0.696E-02    1.62       1.0  T
   4   -125.6462676 -0.190957E-03  0.164E-02    1.64       1.0  T
   5   -125.6462850 -0.173571E-04  0.418E-03    1.64       2.7  T
   6   -125.6462858 -0.879664E-06  0.199E-03    1.64       5.7  T
   7   -125.6462859 -0.102742E-06  0.788E-04    1.64      14.3  T
   8   -125.6462860 -0.312030E-07  0.309E-04    1.64      36.4  T
     SCC iter.                  ...        0 min,  0.067 sec
     gradient                   ...        0 min,  0.010 sec
 * total energy  :  -123.4193663 Eh     change       -0.1709190E-01 Eh
   gradient norm :     0.0410866 Eh/α   predicted    -0.1423095E-01 ( -16.74%)
   displ. norm   :     0.4491503 α      lambda       -0.9122964E-02
   maximum displ.:     0.2937955 α      in ANC's #49, #17, #26, ...

........................................................................
.............................. CYCLE    3 ..............................
........................................................................

 iter      E             dE          RMSdq      gap      omega  full diag
   1   -125.7115791 -0.125712E+03  0.138E-01    1.56       0.0  T
   2   -125.7117923 -0.213190E-03  0.109E-01    1.63       1.0  T
   3   -125.7121556 -0.363306E-03  0.551E-02    1.59       1.0  T
   4   -125.7121967 -0.410471E-04  0.177E-02    1.61       1.0  T
   5   -125.7122140 -0.173324E-04  0.352E-03    1.60       3.2  T
   6   -125.7122148 -0.767304E-06  0.155E-03    1.60       7.3  T
   7   -125.7122148 -0.649779E-07  0.656E-04    1.60      17.2  T
   8   -125.7122148 -0.210622E-07  0.259E-04    1.60      43.4  T
     SCC iter.                  ...        0 min,  0.066 sec
     gradient                   ...        0 min,  0.010 sec
 * total energy  :  -123.4249487 Eh     change       -0.5582400E-02 Eh
   gradient norm :     0.0107797 Eh/α   predicted    -0.5481698E-02 (  -1.80%)
   displ. norm   :     0.3216048 α      lambda       -0.1727610E-02
   maximum displ.:     0.1916582 α      in ANC's #17, #26, #49, ...

........................................................................
.............................. CYCLE    4 ..............................
........................................................................

 iter      E             dE          RMSdq      gap      omega  full diag
   1   -125.7244672 -0.125724E+03  0.656E-02    1.58       0.0  T
   2   -125.7244886 -0.213521E-04  0.451E-02    1.60       1.0  T
   3   -125.7244789  0.969226E-05  0.254E-02    1.58       1.0  T
   4   -125.7245211 -0.422368E-04  0.503E-03    1.59       2.2  T
   5   -125.7245231 -0.193081E-05  0.118E-03    1.59       9.6  T
   6   -125.7245231 -0.803222E-07  0.510E-04    1.59      22.1  T
   7   -125.7245231 -0.487243E-08  0.241E-04    1.59      46.6  T
     SCC iter.                  ...        0 min,  0.059 sec
     gradient                   ...        0 min,  0.010 sec
 * total energy  :  -123.4262293 Eh     change       -0.1280681E-02 Eh
   gradient norm :     0.0080896 Eh/α   predicted    -0.9531537E-03 ( -25.57%)
   displ. norm   :     0.4063873 α      lambda       -0.1259556E-02
   maximum displ.:     0.2787144 α      in ANC's #17, #16, #26, ...

........................................................................
.............................. CYCLE    5 ..............................
........................................................................

 iter      E             dE          RMSdq      gap      omega  full diag
   1   -125.7289462 -0.125729E+03  0.750E-02    1.58       0.0  T
   2   -125.7289537 -0.742803E-05  0.455E-02    1.59       1.0  T
   3   -125.7289173  0.364034E-04  0.199E-02    1.58       1.0  T
   4   -125.7289590 -0.417243E-04  0.321E-03    1.59       3.5  T
   5   -125.7289599 -0.920993E-06  0.104E-03    1.58      10.8  T
   6   -125.7289599 -0.308060E-07  0.513E-04    1.59      22.0  T
   7   -125.7289600 -0.480307E-08  0.187E-04    1.58      60.1  T
     SCC iter.                  ...        0 min,  0.058 sec
     gradient                   ...        0 min,  0.010 sec
 * total energy  :  -123.4271082 Eh     change       -0.8788246E-03 Eh
   gradient norm :     0.0052856 Eh/α   predicted    -0.7337884E-03 ( -16.50%)
   displ. norm   :     0.3163643 α      lambda       -0.5476058E-03
   maximum displ.:     0.2146841 α      in ANC's #17, #16, #13, ...

........................................................................
.............................. CYCLE    6 ..............................
........................................................................

 iter      E             dE          RMSdq      gap      omega  full diag
   1   -125.7301595 -0.125730E+03  0.594E-02    1.58       0.0  T
   2   -125.7301613 -0.174232E-05  0.349E-02    1.58       1.0  T
   3   -125.7301572  0.401335E-05  0.725E-03    1.59       1.6  T
   4   -125.7301620 -0.473373E-05  0.130E-03    1.58       8.7  T
   5   -125.7301621 -0.847416E-07  0.616E-04    1.58      18.3  T
   6   -125.7301621 -0.546061E-08  0.261E-04    1.58      43.1  T
     SCC iter.                  ...        0 min,  0.051 sec
     gradient                   ...        0 min,  0.010 sec
 * total energy  :  -123.4275220 Eh     change       -0.4138065E-03 Eh
   gradient norm :     0.0045444 Eh/α   predicted    -0.3012342E-03 ( -27.20%)
   displ. norm   :     0.3495337 α      lambda       -0.4516958E-03
   maximum displ.:     0.2035515 α      in ANC's #17, #13, #16, ...

........................................................................
.............................. CYCLE    7 ..............................
........................................................................

 iter      E             dE          RMSdq      gap      omega  full diag
   1   -125.7310632 -0.125731E+03  0.725E-02    1.58       0.0  T
   2   -125.7310649 -0.170554E-05  0.425E-02    1.58       1.0  T
   3   -125.7310598  0.506034E-05  0.784E-03    1.58       1.4  T
   4   -125.7310657 -0.587195E-05  0.120E-03    1.58       9.4  T
   5   -125.7310657 -0.688953E-07  0.591E-04    1.58      19.0  T
   6   -125.7310658 -0.695444E-08  0.286E-04    1.58      39.4  T
     SCC iter.                  ...        0 min,  0.051 sec
     gradient                   ...        0 min,  0.011 sec
 * total energy  :  -123.4278712 Eh     change       -0.3492276E-03 Eh
   gradient norm :     0.0043107 Eh/α   predicted    -0.2534431E-03 ( -27.43%)
   displ. norm   :     0.4177179 α      lambda       -0.4325979E-03
   maximum displ.:     0.2148793 α      in ANC's #13, #17, #16, ...

........................................................................
.............................. CYCLE    8 ..............................
........................................................................

 iter      E             dE          RMSdq      gap      omega  full diag
   1   -125.7318657 -0.125732E+03  0.957E-02    1.57       0.0  T
   2   -125.7318681 -0.244848E-05  0.562E-02    1.57       1.0  T
   3   -125.7318610  0.710446E-05  0.924E-03    1.58       1.2  T
   4   -125.7318693 -0.825847E-05  0.131E-03    1.58       8.6  T
   5   -125.7318694 -0.762799E-07  0.664E-04    1.58      16.9  T
   6   -125.7318694 -0.121991E-07  0.336E-04    1.58      33.5  T
     SCC iter.                  ...        0 min,  0.051 sec
     gradient                   ...        0 min,  0.011 sec
 * total energy  :  -123.4282013 Eh     change       -0.3301405E-03 Eh
   gradient norm :     0.0043102 Eh/α   predicted    -0.2540423E-03 ( -23.05%)
   displ. norm   :     0.3779631 α      lambda       -0.3615063E-03
   maximum displ.:     0.2126219 α      in ANC's #13, #6, #16, ...

........................................................................
.............................. CYCLE    9 ..............................
........................................................................

 iter      E             dE          RMSdq      gap      omega  full diag
   1   -125.7326750 -0.125733E+03  0.943E-02    1.57       0.0  T
   2   -125.7326772 -0.214653E-05  0.553E-02    1.57       1.0  T
   3   -125.7326702  0.695201E-05  0.877E-03    1.57       1.3  T
   4   -125.7326782 -0.796815E-05  0.130E-03    1.57       8.7  T
   5   -125.7326783 -0.929712E-07  0.676E-04    1.57      16.6  T
   6   -125.7326783 -0.200839E-07  0.325E-04    1.57      34.7  T
     SCC iter.                  ...        0 min,  0.051 sec
     gradient                   ...        0 min,  0.011 sec
 * total energy  :  -123.4284955 Eh     change       -0.2941820E-03 Eh
   gradient norm :     0.0043244 Eh/α   predicted    -0.2065890E-03 ( -29.78%)
   displ. norm   :     0.4146774 α      lambda       -0.4151216E-03
   maximum displ.:     0.2436262 α      in ANC's #13, #6, #16, ...

........................................................................
.............................. CYCLE   10 ..............................
........................................................................

 iter      E             dE          RMSdq      gap      omega  full diag
   1   -125.7334365 -0.125733E+03  0.109E-01    1.56       0.0  T
   2   -125.7334394 -0.286615E-05  0.636E-02    1.57       1.0  T
   3   -125.7334305  0.884232E-05  0.989E-03    1.56       1.1  T
   4   -125.7334406 -0.101185E-04  0.153E-03    1.57       7.3  T
   5   -125.7334408 -0.135150E-06  0.808E-04    1.57      13.9  T
   6   -125.7334408 -0.316791E-07  0.371E-04    1.57      30.4  T
     SCC iter.                  ...        0 min,  0.051 sec
     gradient                   ...        0 min,  0.011 sec
 * total energy  :  -123.4288335 Eh     change       -0.3380025E-03 Eh
   gradient norm :     0.0046166 Eh/α   predicted    -0.2432553E-03 ( -28.03%)
   displ. norm   :     0.4587600 α      lambda       -0.4266195E-03
   maximum displ.:     0.2785113 α      in ANC's #13, #6, #4, ...

........................................................................
.............................. CYCLE   11 ..............................
........................................................................

 iter      E             dE          RMSdq      gap      omega  full diag
   1   -125.7332045 -0.125733E+03  0.122E-01    1.55       0.0  T
   2   -125.7332086 -0.410920E-05  0.715E-02    1.56       1.0  T
   3   -125.7331968  0.117295E-04  0.118E-02    1.56       1.0  T
   4   -125.7332103 -0.134569E-04  0.168E-03    1.57       6.7  T
   5   -125.7332104 -0.145340E-06  0.892E-04    1.56      12.6  T
   6   -125.7332105 -0.382773E-07  0.429E-04    1.56      26.2  T
     SCC iter.                  ...        0 min,  0.053 sec
     gradient                   ...        0 min,  0.011 sec
 * total energy  :  -123.4291742 Eh     change       -0.3406792E-03 Eh
   gradient norm :     0.0050474 Eh/α   predicted    -0.2582049E-03 ( -24.21%)
   displ. norm   :     0.4366724 α      lambda       -0.3599636E-03
   maximum displ.:     0.2702074 α      in ANC's #13, #6, #4, ...

........................................................................
.............................. CYCLE   12 ..............................
........................................................................

 iter      E             dE          RMSdq      gap      omega  full diag
   1   -125.7329110 -0.125733E+03  0.117E-01    1.56       0.0  T
   2   -125.7329153 -0.425062E-05  0.686E-02    1.57       1.0  T
   3   -125.7329038  0.114935E-04  0.121E-02    1.56       1.0  T
   4   -125.7329170 -0.132148E-04  0.154E-03    1.57       7.3  T
   5   -125.7329171 -0.110821E-06  0.780E-04    1.57      14.4  T
   6   -125.7329171 -0.228416E-07  0.402E-04    1.57      28.0  T
     SCC iter.                  ...        0 min,  0.057 sec
     gradient                   ...        0 min,  0.011 sec
 * total energy  :  -123.4294573 Eh     change       -0.2831394E-03 Eh
   gradient norm :     0.0047083 Eh/α   predicted    -0.2143046E-03 ( -24.31%)
   displ. norm   :     0.3994113 α      lambda       -0.2969825E-03
   maximum displ.:     0.2486140 α      in ANC's #13, #4, #6, ...

........................................................................
.............................. CYCLE   13 ..............................
........................................................................

 iter      E             dE          RMSdq      gap      omega  full diag
   1   -125.7331325 -0.125733E+03  0.106E-01    1.56       0.0  T
   2   -125.7331361 -0.363985E-05  0.624E-02    1.57       1.0  T
   3   -125.7331259  0.102346E-04  0.117E-02    1.57       1.0  T
   4   -125.7331377 -0.117729E-04  0.133E-03    1.57       8.5  T
   5   -125.7331377 -0.719550E-07  0.648E-04    1.57      17.4  T
   6   -125.7331377 -0.103560E-07  0.340E-04    1.57      33.1  T
     SCC iter.                  ...        0 min,  0.056 sec
     gradient                   ...        0 min,  0.011 sec
 * total energy  :  -123.4296823 Eh     change       -0.2249767E-03 Eh
   gradient norm :     0.0039458 Eh/α   predicted    -0.1721802E-03 ( -23.47%)
   displ. norm   :     0.3732029 α      lambda       -0.2097200E-03
   maximum displ.:     0.2392443 α      in ANC's #13, #4, #10, ...

........................................................................
.............................. CYCLE   14 ..............................
........................................................................

 iter      E             dE          RMSdq      gap      omega  full diag
   1   -125.7316914 -0.125732E+03  0.986E-02    1.57       0.0  T
   2   -125.7316946 -0.321537E-05  0.579E-02    1.58       1.0  T
   3   -125.7316860  0.862341E-05  0.105E-02    1.58       1.1  T
   4   -125.7316959 -0.990284E-05  0.123E-03    1.58       9.1  T
   5   -125.7316959 -0.632853E-07  0.597E-04    1.58      18.8  T
   6   -125.7316959 -0.851422E-08  0.321E-04    1.58      35.0  T
     SCC iter.                  ...        0 min,  0.056 sec
     gradient                   ...        0 min,  0.011 sec
 * total energy  :  -123.4298399 Eh     change       -0.1576324E-03 Eh
   gradient norm :     0.0039359 Eh/α   predicted    -0.1194654E-03 ( -24.21%)
   displ. norm   :     0.3228649 α      lambda       -0.1830278E-03
   maximum displ.:     0.1859309 α      in ANC's #13, #4, #10, ...

........................................................................
.............................. CYCLE   15 ..............................
........................................................................

 iter      E             dE          RMSdq      gap      omega  full diag
   1   -125.7334241 -0.125733E+03  0.802E-02    1.59       0.0  T
   2   -125.7334258 -0.170633E-05  0.471E-02    1.59       1.0  T
   3   -125.7334209  0.492085E-05  0.804E-03    1.59       1.4  T
   4   -125.7334266 -0.570292E-05  0.100E-03    1.59      11.2  T
   5   -125.7334266 -0.322640E-07  0.523E-04    1.59      21.5  T
   6   -125.7334266 -0.627107E-08  0.274E-04    1.59      41.1  T
     SCC iter.                  ...        0 min,  0.056 sec
     gradient                   ...        0 min,  0.011 sec
 * total energy  :  -123.4299629 Eh     change       -0.1229531E-03 Eh
   gradient norm :     0.0039340 Eh/α   predicted    -0.1010543E-03 ( -17.81%)
   displ. norm   :     0.4238657 α      lambda       -0.1765266E-03
   maximum displ.:     0.2796217 α      in ANC's #13, #4, #10, ...

........................................................................
.............................. CYCLE   16 ..............................
........................................................................

 iter      E             dE          RMSdq      gap      omega  full diag
   1   -125.7281995 -0.125728E+03  0.112E-01    1.58       0.0  T
   2   -125.7282047 -0.523030E-05  0.660E-02    1.60       1.0  T
   3   -125.7281927  0.120223E-04  0.117E-02    1.60       1.0  T
   4   -125.7282063 -0.136073E-04  0.180E-03    1.60       6.2  T
   5   -125.7282065 -0.233181E-06  0.822E-04    1.60      13.7  T
   6   -125.7282066 -0.316165E-07  0.410E-04    1.60      27.4  T
     SCC iter.                  ...        0 min,  0.056 sec
     gradient                   ...        0 min,  0.011 sec
 * total energy  :  -123.4300527 Eh     change       -0.8980101E-04 Eh
   gradient norm :     0.0045962 Eh/α   predicted    -0.1041250E-03 (  15.95%)
   displ. norm   :     0.1761848 α      lambda       -0.1515283E-03
   maximum displ.:     0.0896778 α      in ANC's #5, #4, #10, ...

........................................................................
.............................. CYCLE   17 ..............................
........................................................................

 iter      E             dE          RMSdq      gap      omega  full diag
   1   -125.7314924 -0.125731E+03  0.365E-02    1.61       0.0  T
   2   -125.7314928 -0.367196E-06  0.214E-02    1.61       1.0  T
   3   -125.7314909  0.186841E-05  0.430E-03    1.61       2.6  T
   4   -125.7314930 -0.211851E-05  0.641E-04    1.61      17.5  T
   5   -125.7314931 -0.202881E-07  0.335E-04    1.61      33.6  T
   6   -125.7314931 -0.283488E-08  0.117E-04    1.61      96.0  T
     SCC iter.                  ...        0 min,  0.056 sec
     gradient                   ...        0 min,  0.011 sec
 * total energy  :  -123.4301682 Eh     change       -0.1155292E-03 Eh
   gradient norm :     0.0028881 Eh/α   predicted    -0.7811716E-04 ( -32.38%)
   displ. norm   :     0.2949581 α      lambda       -0.1559211E-03
   maximum displ.:     0.1391172 α      in ANC's #4, #5, #13, ...

........................................................................
.............................. CYCLE   18 ..............................
........................................................................

 iter      E             dE          RMSdq      gap      omega  full diag
   1   -125.7333172 -0.125733E+03  0.637E-02    1.61       0.0  T
   2   -125.7333181 -0.915163E-06  0.374E-02    1.62       1.0  T
   3   -125.7333111  0.706943E-05  0.795E-03    1.61       1.4  T
   4   -125.7333189 -0.785744E-05  0.896E-04    1.62      12.6  T
   5   -125.7333189 -0.380554E-07  0.464E-04    1.62      24.3  T
   6   -125.7333190 -0.428159E-08  0.228E-04    1.62      49.4  T
     SCC iter.                  ...        0 min,  0.056 sec
     gradient                   ...        0 min,  0.011 sec
 * total energy  :  -123.4302851 Eh     change       -0.1169180E-03 Eh
   gradient norm :     0.0033742 Eh/α   predicted    -0.8474725E-04 ( -27.52%)
   displ. norm   :     0.3106999 α      lambda       -0.1224934E-03
   maximum displ.:     0.1480642 α      in ANC's #4, #5, #13, ...

........................................................................
.............................. CYCLE   19 ..............................
........................................................................

 iter      E             dE          RMSdq      gap      omega  full diag
   1   -125.7339937 -0.125734E+03  0.670E-02    1.62       0.0  T
   2   -125.7339950 -0.126082E-05  0.393E-02    1.62       1.0  T
   3   -125.7339879  0.710797E-05  0.804E-03    1.62       1.4  T
   4   -125.7339957 -0.786917E-05  0.110E-03    1.63      10.3  T
   5   -125.7339958 -0.901733E-07  0.486E-04    1.62      23.1  T
   6   -125.7339958 -0.645613E-08  0.250E-04    1.62      45.0  T
     SCC iter.                  ...        0 min,  0.055 sec
     gradient                   ...        0 min,  0.011 sec
 * total energy  :  -123.4303762 Eh     change       -0.9107032E-04 Eh
   gradient norm :     0.0038985 Eh/α   predicted    -0.6716062E-04 ( -26.25%)
   displ. norm   :     0.2998392 α      lambda       -0.1031932E-03
   maximum displ.:     0.1453530 α      in ANC's #5, #4, #13, ...

........................................................................
.............................. CYCLE   20 ..............................
........................................................................

 iter      E             dE          RMSdq      gap      omega  full diag
   1   -125.7339816 -0.125734E+03  0.649E-02    1.62       0.0  T
   2   -125.7339829 -0.135471E-05  0.381E-02    1.63       1.0  T
   3   -125.7339781  0.481564E-05  0.671E-03    1.63       1.7  T
   4   -125.7339835 -0.533113E-05  0.118E-03    1.63       9.5  T
   5   -125.7339836 -0.123263E-06  0.486E-04    1.63      23.2  T
   6   -125.7339836 -0.715016E-08  0.246E-04    1.63      45.7  T
     SCC iter.                  ...        0 min,  0.056 sec
     gradient                   ...        0 min,  0.011 sec
 * total energy  :  -123.4304377 Eh     change       -0.6146274E-04 Eh
   gradient norm :     0.0038008 Eh/α   predicted    -0.5623738E-04 (  -8.50%)
   displ. norm   :     0.1986087 α      lambda       -0.7281507E-04
   maximum displ.:     0.1061734 α      in ANC's #5, #4, #13, ...
 * RMSD in coord.:     0.5663384 α      energy gain  -0.2816333E-01 Eh

generating ANC from exact Hessian ...
Using Lindh-Hessian (1995)
 Shifting diagonal of input Hessian by   9.910452364819123E-003
 Lowest  eigenvalues of input Hessian
    0.000000    0.000000    0.000000    0.000000    0.000000    0.000000
    0.010000    0.010034    0.010071    0.010226    0.010599    0.010812
    0.011188    0.011385    0.011464    0.011529    0.012002    0.012194
 Highest eigenvalues
    2.132192    2.142271    2.192962    2.223207    2.233013    2.248371
 

........................................................................
.............................. CYCLE   21 ..............................
........................................................................

 iter      E             dE          RMSdq      gap      omega  full diag
   1   -125.7342128 -0.125734E+03  0.429E-02    1.63       0.0  T
   2   -125.7342133 -0.493794E-06  0.251E-02    1.63       1.0  T
   3   -125.7342127  0.648530E-06  0.301E-03    1.63       3.7  T
   4   -125.7342135 -0.798331E-06  0.657E-04    1.64      17.1  T
   5   -125.7342135 -0.214382E-07  0.337E-04    1.64      33.4  T
     SCC iter.                  ...        0 min,  0.047 sec
     gradient                   ...        0 min,  0.011 sec
 * total energy  :  -123.4304773 Eh     change       -0.3964963E-04 Eh
   gradient norm :     0.0027807 Eh/α   predicted     0.0000000E+00 (-100.00%)
   displ. norm   :     0.0324612 α      lambda       -0.2584335E-04
   maximum displ.:     0.0156584 α      in ANC's #5, #4, #10, ...

........................................................................
.............................. CYCLE   22 ..............................
........................................................................

 iter      E             dE          RMSdq      gap      omega  full diag
   1   -125.7343595 -0.125734E+03  0.730E-03    1.63       0.0  T
   2   -125.7343595 -0.406377E-07  0.435E-03    1.63       2.6  T
   3   -125.7343592  0.325616E-06  0.182E-03    1.64       6.2  T
   4   -125.7343596 -0.366443E-06  0.220E-04    1.63      51.2  T
   5   -125.7343596 -0.347210E-08  0.957E-05    1.63     117.6  T
     SCC iter.                  ...        0 min,  0.047 sec
     gradient                   ...        0 min,  0.011 sec
 * total energy  :  -123.4304979 Eh     change       -0.2059876E-04 Eh
   gradient norm :     0.0011856 Eh/α   predicted    -0.1297535E-04 ( -37.01%)
   displ. norm   :     0.1231617 α      lambda       -0.3285961E-04
   maximum displ.:     0.0629662 α      in ANC's #5, #4, #10, ...

........................................................................
.............................. CYCLE   23 ..............................
........................................................................

 iter      E             dE          RMSdq      gap      omega  full diag
   1   -125.7342007 -0.125734E+03  0.245E-02    1.63       0.0  T
   2   -125.7342010 -0.309177E-06  0.145E-02    1.63       1.0  T
   3   -125.7341990  0.202263E-05  0.459E-03    1.63       2.5  T
   4   -125.7342013 -0.225725E-05  0.583E-04    1.63      19.3  T
   5   -125.7342013 -0.245778E-07  0.266E-04    1.63      42.3  T
   6   -125.7342013 -0.246936E-08  0.132E-04    1.63      85.1  T
     SCC iter.                  ...        0 min,  0.055 sec
     gradient                   ...        0 min,  0.011 sec
 * total energy  :  -123.4305234 Eh     change       -0.2551411E-04 Eh
   gradient norm :     0.0024596 Eh/α   predicted    -0.1764081E-04 ( -30.86%)
   displ. norm   :     0.0334768 α      lambda       -0.1122260E-04
   maximum displ.:     0.0186892 α      in ANC's #5, #4, #10, ...

........................................................................
.............................. CYCLE   24 ..............................
........................................................................

 iter      E             dE          RMSdq      gap      omega  full diag
   1   -125.7340516 -0.125734E+03  0.664E-03    1.63       0.0  T
   2   -125.7340516 -0.119793E-07  0.390E-03    1.63       2.9  T
   3   -125.7340516  0.258103E-07  0.555E-04    1.63      20.3  T
   4   -125.7340516 -0.304774E-07  0.120E-04    1.63      93.8  T
     SCC iter.                  ...        0 min,  0.037 sec
     gradient                   ...        0 min,  0.011 sec
 * total energy  :  -123.4305336 Eh     change       -0.1020245E-04 Eh
   gradient norm :     0.0018138 Eh/α   predicted    -0.5617852E-05 ( -44.94%)
   displ. norm   :     0.1827803 α      lambda       -0.3433347E-04
   maximum displ.:     0.0988910 α      in ANC's #5, #4, #10, ...

........................................................................
.............................. CYCLE   25 ..............................
........................................................................

 iter      E             dE          RMSdq      gap      omega  full diag
   1   -125.7333029 -0.125733E+03  0.367E-02    1.63       0.0  T
   2   -125.7333032 -0.315150E-06  0.215E-02    1.63       1.0  T
   3   -125.7333026  0.670324E-06  0.284E-03    1.63       4.0  T
   4   -125.7333034 -0.797362E-06  0.615E-04    1.63      18.3  T
   5   -125.7333034 -0.198675E-07  0.287E-04    1.63      39.2  T
     SCC iter.                  ...        0 min,  0.059 sec
     gradient                   ...        0 min,  0.013 sec
 * total energy  :  -123.4305610 Eh     change       -0.2735511E-04 Eh
   gradient norm :     0.0016908 Eh/α   predicted    -0.1742782E-04 ( -36.29%)
   displ. norm   :     0.0636723 α      lambda       -0.6734271E-05
   maximum displ.:     0.0362564 α      in ANC's #5, #4, #10, ...

........................................................................
.............................. CYCLE   26 ..............................
........................................................................

 iter      E             dE          RMSdq      gap      omega  full diag
   1   -125.7334524 -0.125733E+03  0.117E-02    1.63       0.0  T
   2   -125.7334524 -0.204483E-07  0.687E-03    1.63       1.6  T
   3   -125.7334523  0.566003E-07  0.817E-04    1.63      13.8  T
   4   -125.7334524 -0.692053E-07  0.158E-04    1.63      71.3  T
     SCC iter.                  ...        0 min,  0.039 sec
     gradient                   ...        0 min,  0.011 sec
 * total energy  :  -123.4305694 Eh     change       -0.8417513E-05 Eh
   gradient norm :     0.0010329 Eh/α   predicted    -0.3373454E-05 ( -59.92%)
   displ. norm   :     0.0821709 α      lambda       -0.8593996E-05
   maximum displ.:     0.0503937 α      in ANC's #4, #5, #9, ...

........................................................................
.............................. CYCLE   27 ..............................
........................................................................

 iter      E             dE          RMSdq      gap      omega  full diag
   1   -125.7338756 -0.125734E+03  0.142E-02    1.63       0.0  T
   2   -125.7338757 -0.383116E-07  0.836E-03    1.63       1.3  T
   3   -125.7338756  0.910109E-07  0.104E-03    1.63      10.8  T
   4   -125.7338757 -0.110338E-06  0.218E-04    1.63      51.7  T
   5   -125.7338757 -0.166058E-08  0.111E-04    1.63     101.7  T
     SCC iter.                  ...        0 min,  0.046 sec
     gradient                   ...        0 min,  0.011 sec
 * total energy  :  -123.4305788 Eh     change       -0.9389481E-05 Eh
   gradient norm :     0.0003650 Eh/α   predicted    -0.4311195E-05 ( -54.08%)
   displ. norm   :     0.0772215 α      lambda       -0.5006953E-05
   maximum displ.:     0.0489402 α      in ANC's #4, #5, #9, ...

........................................................................
.............................. CYCLE   28 ..............................
........................................................................

 iter      E             dE          RMSdq      gap      omega  full diag
   1   -125.7340210 -0.125734E+03  0.122E-02    1.63       0.0  T
   2   -125.7340211 -0.251407E-07  0.718E-03    1.63       1.6  T
   3   -125.7340210  0.549520E-07  0.833E-04    1.63      13.5  T
   4   -125.7340211 -0.682708E-07  0.162E-04    1.63      69.4  T
     SCC iter.                  ...        0 min,  0.037 sec
     gradient                   ...        0 min,  0.011 sec
 * total energy  :  -123.4305849 Eh     change       -0.6125805E-05 Eh
   gradient norm :     0.0006841 Eh/α   predicted    -0.2510417E-05 ( -59.02%)
   displ. norm   :     0.0892533 α      lambda       -0.5623549E-05
   maximum displ.:     0.0558109 α      in ANC's #4, #5, #9, ...

........................................................................
.............................. CYCLE   29 ..............................
........................................................................

 iter      E             dE          RMSdq      gap      omega  full diag
   1   -125.7342056 -0.125734E+03  0.131E-02    1.63       0.0  T
   2   -125.7342056 -0.278921E-07  0.770E-03    1.63       1.5  T
   3   -125.7342055  0.110350E-06  0.107E-03    1.63      10.6  T
   4   -125.7342057 -0.129255E-06  0.172E-04    1.63      65.3  T
   5   -125.7342057 -0.658758E-09  0.959E-05    1.63     117.4  T
     SCC iter.                  ...        0 min,  0.047 sec
     gradient                   ...        0 min,  0.011 sec
 * total energy  :  -123.4305923 Eh     change       -0.7333005E-05 Eh
   gradient norm :     0.0007391 Eh/α   predicted    -0.2824676E-05 ( -61.48%)
   displ. norm   :     0.1548482 α      lambda       -0.9493781E-05
   maximum displ.:     0.0944668 α      in ANC's #4, #5, #1, ...

........................................................................
.............................. CYCLE   30 ..............................
........................................................................

 iter      E             dE          RMSdq      gap      omega  full diag
   1   -125.7342796 -0.125734E+03  0.223E-02    1.63       0.0  T
   2   -125.7342797 -0.818415E-07  0.131E-02    1.63       1.0  T
   3   -125.7342794  0.279986E-06  0.171E-03    1.63       6.6  T
   4   -125.7342797 -0.330992E-06  0.296E-04    1.63      38.0  T
   5   -125.7342797 -0.234910E-08  0.165E-04    1.63      68.1  T
     SCC iter.                  ...        0 min,  0.046 sec
     gradient                   ...        0 min,  0.011 sec
 * total energy  :  -123.4306038 Eh     change       -0.1151057E-04 Eh
   gradient norm :     0.0005741 Eh/α   predicted    -0.4801338E-05 ( -58.29%)
   displ. norm   :     0.2031903 α      lambda       -0.1006503E-04
   maximum displ.:     0.1225875 α      in ANC's #4, #5, #1, ...

........................................................................
.............................. CYCLE   31 ..............................
........................................................................

 iter      E             dE          RMSdq      gap      omega  full diag
   1   -125.7341550 -0.125734E+03  0.295E-02    1.63       0.0  T
   2   -125.7341551 -0.140802E-06  0.173E-02    1.63       1.0  T
   3   -125.7341548  0.339690E-06  0.195E-03    1.63       5.8  T
   4   -125.7341552 -0.416455E-06  0.377E-04    1.63      29.8  T
   5   -125.7341552 -0.333014E-08  0.218E-04    1.63      51.5  T
     SCC iter.                  ...        0 min,  0.046 sec
     gradient                   ...        0 min,  0.011 sec
 * total energy  :  -123.4306149 Eh     change       -0.1116374E-04 Eh
   gradient norm :     0.0004434 Eh/α   predicted    -0.5125836E-05 ( -54.08%)
   displ. norm   :     0.1727385 α      lambda       -0.6541952E-05
   maximum displ.:     0.1028876 α      in ANC's #4, #5, #9, ...

........................................................................
.............................. CYCLE   32 ..............................
........................................................................

 iter      E             dE          RMSdq      gap      omega  full diag
   1   -125.7341238 -0.125734E+03  0.262E-02    1.63       0.0  T
   2   -125.7341239 -0.115587E-06  0.153E-02    1.63       1.0  T
   3   -125.7341237  0.206109E-06  0.161E-03    1.63       7.0  T
   4   -125.7341240 -0.262280E-06  0.316E-04    1.63      35.6  T
   5   -125.7341240 -0.179513E-08  0.186E-04    1.63      60.6  T
     SCC iter.                  ...        0 min,  0.047 sec
     gradient                   ...        0 min,  0.011 sec
 * total energy  :  -123.4306221 Eh     change       -0.7151949E-05 Eh
   gradient norm :     0.0004097 Eh/α   predicted    -0.3315823E-05 ( -53.64%)
   displ. norm   :     0.1354910 α      lambda       -0.4676509E-05
   maximum displ.:     0.0790106 α      in ANC's #4, #9, #5, ...

........................................................................
.............................. CYCLE   33 ..............................
........................................................................

 iter      E             dE          RMSdq      gap      omega  full diag
   1   -125.7339873 -0.125734E+03  0.223E-02    1.63       0.0  T
   2   -125.7339874 -0.927709E-07  0.131E-02    1.64       1.0  T
   3   -125.7339872  0.153709E-06  0.145E-03    1.64       7.8  T
   4   -125.7339874 -0.195454E-06  0.254E-04    1.64      44.2  T
   5   -125.7339874 -0.114575E-08  0.138E-04    1.64      81.8  T
     SCC iter.                  ...        0 min,  0.046 sec
     gradient                   ...        0 min,  0.011 sec
 * total energy  :  -123.4306273 Eh     change       -0.5174570E-05 Eh
   gradient norm :     0.0003453 Eh/α   predicted    -0.2362199E-05 ( -54.35%)
   displ. norm   :     0.0970953 α      lambda       -0.4019864E-05
   maximum displ.:     0.0514280 α      in ANC's #4, #9, #1, ...

........................................................................
.............................. CYCLE   34 ..............................
........................................................................

 iter      E             dE          RMSdq      gap      omega  full diag
   1   -125.7339239 -0.125734E+03  0.187E-02    1.64       0.0  T
   2   -125.7339239 -0.713914E-07  0.110E-02    1.64       1.0  T
   3   -125.7339238  0.123851E-06  0.131E-03    1.64       8.6  T
   4   -125.7339240 -0.153164E-06  0.219E-04    1.64      51.4  T
   5   -125.7339240 -0.121624E-08  0.113E-04    1.64      99.6  T
     SCC iter.                  ...        0 min,  0.046 sec
     gradient                   ...        0 min,  0.011 sec
 * total energy  :  -123.4306318 Eh     change       -0.4536176E-05 Eh
   gradient norm :     0.0002599 Eh/α   predicted    -0.2022131E-05 ( -55.42%)
   displ. norm   :     0.0818426 α      lambda       -0.3607499E-05
   maximum displ.:     0.0403304 α      in ANC's #9, #4, #1, ...

........................................................................
.............................. CYCLE   35 ..............................
........................................................................

 iter      E             dE          RMSdq      gap      omega  full diag
   1   -125.7336870 -0.125734E+03  0.172E-02    1.64       0.0  T
   2   -125.7336870 -0.632303E-07  0.101E-02    1.64       1.1  T
   3   -125.7336869  0.104019E-06  0.120E-03    1.64       9.4  T
   4   -125.7336871 -0.127608E-06  0.200E-04    1.64      56.3  T
   5   -125.7336871 -0.130468E-08  0.978E-05    1.64     115.1  T
     SCC iter.                  ...        0 min,  0.047 sec
     gradient                   ...        0 min,  0.011 sec
 * total energy  :  -123.4306360 Eh     change       -0.4208777E-05 Eh
   gradient norm :     0.0002742 Eh/α   predicted    -0.1811868E-05 ( -56.95%)
   displ. norm   :     0.0793983 α      lambda       -0.3652206E-05
   maximum displ.:     0.0422785 α      in ANC's #9, #6, #1, ...

........................................................................
.............................. CYCLE   36 ..............................
........................................................................

 iter      E             dE          RMSdq      gap      omega  full diag
   1   -125.7335240 -0.125734E+03  0.170E-02    1.64       0.0  T
   2   -125.7335241 -0.532230E-07  0.995E-03    1.64       1.1  T
   3   -125.7335240  0.587675E-07  0.940E-04    1.64      12.0  T
   4   -125.7335241 -0.763559E-07  0.192E-04    1.64      58.5  T
     SCC iter.                  ...        0 min,  0.038 sec
     gradient                   ...        0 min,  0.011 sec
 * total energy  :  -123.4306406 Eh     change       -0.4569460E-05 Eh
   gradient norm :     0.0003286 Eh/α   predicted    -0.1835398E-05 ( -59.83%)
   displ. norm   :     0.1027963 α      lambda       -0.4949859E-05
   maximum displ.:     0.0570287 α      in ANC's #9, #6, #1, ...

........................................................................
.............................. CYCLE   37 ..............................
........................................................................

 iter      E             dE          RMSdq      gap      omega  full diag
   1   -125.7334927 -0.125733E+03  0.217E-02    1.64       0.0  T
   2   -125.7334928 -0.705180E-07  0.127E-02    1.64       1.0  T
   3   -125.7334927  0.523713E-07  0.940E-04    1.64      12.0  T
   4   -125.7334928 -0.756778E-07  0.231E-04    1.64      48.7  T
     SCC iter.                  ...        0 min,  0.037 sec
     gradient                   ...        0 min,  0.011 sec
 * total energy  :  -123.4306468 Eh     change       -0.6187028E-05 Eh
   gradient norm :     0.0003638 Eh/α   predicted    -0.2490446E-05 ( -59.75%)
   displ. norm   :     0.1307120 α      lambda       -0.5868173E-05
   maximum displ.:     0.0758149 α      in ANC's #9, #6, #1, ...

........................................................................
.............................. CYCLE   38 ..............................
........................................................................

 iter      E             dE          RMSdq      gap      omega  full diag
   1   -125.7334936 -0.125733E+03  0.276E-02    1.64       0.0  T
   2   -125.7334937 -0.916325E-07  0.162E-02    1.64       1.0  T
   3   -125.7334936  0.895277E-07  0.116E-03    1.64       9.7  T
   4   -125.7334937 -0.127061E-06  0.281E-04    1.64      40.0  T
   5   -125.7334937 -0.256442E-08  0.151E-04    1.64      74.7  T
     SCC iter.                  ...        0 min,  0.046 sec
     gradient                   ...        0 min,  0.011 sec
 * total energy  :  -123.4306538 Eh     change       -0.7033581E-05 Eh
   gradient norm :     0.0003886 Eh/α   predicted    -0.2959282E-05 ( -57.93%)
   displ. norm   :     0.1157974 α      lambda       -0.4883425E-05
   maximum displ.:     0.0701612 α      in ANC's #9, #1, #6, ...

........................................................................
.............................. CYCLE   39 ..............................
........................................................................

 iter      E             dE          RMSdq      gap      omega  full diag
   1   -125.7337163 -0.125734E+03  0.249E-02    1.64       0.0  T
   2   -125.7337163 -0.709668E-07  0.146E-02    1.64       1.0  T
   3   -125.7337162  0.111113E-06  0.123E-03    1.64       9.1  T
   4   -125.7337164 -0.146991E-06  0.242E-04    1.64      46.5  T
   5   -125.7337164 -0.970090E-09  0.137E-04    1.64      81.9  T
     SCC iter.                  ...        0 min,  0.048 sec
     gradient                   ...        0 min,  0.011 sec
 * total energy  :  -123.4306599 Eh     change       -0.6123383E-05 Eh
   gradient norm :     0.0003384 Eh/α   predicted    -0.2460224E-05 ( -59.82%)
   displ. norm   :     0.1228822 α      lambda       -0.5582320E-05
   maximum displ.:     0.0777419 α      in ANC's #9, #1, #4, ...

........................................................................
.............................. CYCLE   40 ..............................
........................................................................

 iter      E             dE          RMSdq      gap      omega  full diag
   1   -125.7339162 -0.125734E+03  0.277E-02    1.64       0.0  T
   2   -125.7339163 -0.100728E-06  0.162E-02    1.64       1.0  T
   3   -125.7339161  0.183933E-06  0.157E-03    1.64       7.2  T
   4   -125.7339163 -0.233777E-06  0.269E-04    1.64      41.8  T
   5   -125.7339163 -0.110256E-08  0.147E-04    1.64      76.4  T
     SCC iter.                  ...        0 min,  0.046 sec
     gradient                   ...        0 min,  0.011 sec
 * total energy  :  -123.4306672 Eh     change       -0.7278982E-05 Eh
   gradient norm :     0.0003203 Eh/α   predicted    -0.2811013E-05 ( -61.38%)
   displ. norm   :     0.1379863 α      lambda       -0.6867756E-05
   maximum displ.:     0.0893884 α      in ANC's #9, #1, #4, ...

........................................................................
.............................. CYCLE   41 ..............................
........................................................................

 iter      E             dE          RMSdq      gap      omega  full diag
   1   -125.7340995 -0.125734E+03  0.325E-02    1.65       0.0  T
   2   -125.7340996 -0.166556E-06  0.191E-02    1.64       1.0  T
   3   -125.7340994  0.279751E-06  0.196E-03    1.64       5.7  T
   4   -125.7340997 -0.351208E-06  0.325E-04    1.64      34.6  T
   5   -125.7340997 -0.235946E-08  0.169E-04    1.64      66.4  T
     SCC iter.                  ...        0 min,  0.048 sec
     gradient                   ...        0 min,  0.012 sec
 * total energy  :  -123.4306763 Eh     change       -0.9104463E-05 Eh
   gradient norm :     0.0003691 Eh/α   predicted    -0.3466961E-05 ( -61.92%)
   displ. norm   :     0.1648046 α      lambda       -0.8541311E-05
   maximum displ.:     0.1085151 α      in ANC's #9, #1, #4, ...

........................................................................
.............................. CYCLE   42 ..............................
........................................................................

 iter      E             dE          RMSdq      gap      omega  full diag
   1   -125.7341450 -0.125734E+03  0.399E-02    1.65       0.0  T
   2   -125.7341453 -0.267235E-06  0.234E-02    1.65       1.0  T
   3   -125.7341449  0.380004E-06  0.233E-03    1.65       4.8  T
   4   -125.7341454 -0.481464E-06  0.409E-04    1.64      27.5  T
   5   -125.7341454 -0.449494E-08  0.213E-04    1.64      52.8  T
     SCC iter.                  ...        0 min,  0.045 sec
     gradient                   ...        0 min,  0.011 sec
 * total energy  :  -123.4306874 Eh     change       -0.1108510E-04 Eh
   gradient norm :     0.0004490 Eh/α   predicted    -0.4324628E-05 ( -60.99%)
   displ. norm   :     0.1730291 α      lambda       -0.8706845E-05
   maximum displ.:     0.1160477 α      in ANC's #9, #1, #4, ...
 * RMSD in coord.:     0.2247823 α      energy gain  -0.2497136E-03 Eh

generating ANC from exact Hessian ...
Using Lindh-Hessian (1995)
 Shifting diagonal of input Hessian by   9.911566156268432E-003
 Lowest  eigenvalues of input Hessian
    0.000000    0.000000    0.000000    0.000000    0.000000    0.000000
    0.010000    0.010034    0.010073    0.010219    0.010597    0.010807
    0.011190    0.011374    0.011477    0.011530    0.012004    0.012193
 Highest eigenvalues
    2.131243    2.142333    2.191573    2.222359    2.231710    2.248084
 

........................................................................
.............................. CYCLE   43 ..............................
........................................................................

 iter      E             dE          RMSdq      gap      omega  full diag
   1   -125.7340894 -0.125734E+03  0.428E-02    1.65       0.0  T
   2   -125.7340897 -0.311633E-06  0.251E-02    1.65       1.0  T
   3   -125.7340893  0.441403E-06  0.247E-03    1.65       4.6  T
   4   -125.7340899 -0.551438E-06  0.457E-04    1.64      24.6  T
   5   -125.7340899 -0.764958E-08  0.244E-04    1.65      46.2  T
     SCC iter.                  ...        0 min,  0.046 sec
     gradient                   ...        0 min,  0.011 sec
 * total energy  :  -123.4306985 Eh     change       -0.1108811E-04 Eh
   gradient norm :     0.0004805 Eh/α   predicted     0.0000000E+00 (-100.00%)
   displ. norm   :     0.0195137 α      lambda       -0.2376627E-06
   maximum displ.:     0.0128022 α      in ANC's #9, #16, #6, ...

........................................................................
.............................. CYCLE   44 ..............................
........................................................................

 iter      E             dE          RMSdq      gap      omega  full diag
   1   -125.7343185 -0.125734E+03  0.535E-03    1.65       0.0  T
   2   -125.7343185 -0.575369E-08  0.315E-03    1.65       3.6  T
   3   -125.7343184  0.150345E-07  0.442E-04    1.65      25.5  T
   4   -125.7343185 -0.179157E-07  0.764E-05    1.65     147.2  T
     SCC iter.                  ...        0 min,  0.037 sec
     gradient                   ...        0 min,  0.011 sec
 * total energy  :  -123.4307017 Eh     change       -0.3190176E-05 Eh
   gradient norm :     0.0002395 Eh/α   predicted    -0.1263241E-05 ( -60.40%)
   displ. norm   :     0.0640381 α      lambda       -0.6068570E-05
   maximum displ.:     0.0400900 α      in ANC's #9, #6, #16, ...

........................................................................
.............................. CYCLE   45 ..............................
........................................................................

 iter      E             dE          RMSdq      gap      omega  full diag
   1   -125.7342281 -0.125734E+03  0.164E-02    1.65       0.0  T
   2   -125.7342282 -0.416024E-07  0.963E-03    1.65       1.2  T
   3   -125.7342279  0.205064E-06  0.143E-03    1.65       7.8  T
   4   -125.7342282 -0.233797E-06  0.215E-04    1.65      52.4  T
   5   -125.7342282 -0.221796E-08  0.110E-04    1.65     102.5  T
     SCC iter.                  ...        0 min,  0.046 sec
     gradient                   ...        0 min,  0.011 sec
 * total energy  :  -123.4307085 Eh     change       -0.6793654E-05 Eh
   gradient norm :     0.0005267 Eh/α   predicted    -0.3040688E-05 ( -55.24%)
   displ. norm   :     0.0631762 α      lambda       -0.4040548E-05
   maximum displ.:     0.0420250 α      in ANC's #9, #6, #16, ...

........................................................................
.............................. CYCLE   46 ..............................
........................................................................

 iter      E             dE          RMSdq      gap      omega  full diag
   1   -125.7338419 -0.125734E+03  0.162E-02    1.65       0.0  T
   2   -125.7338420 -0.347399E-07  0.948E-03    1.65       1.2  T
   3   -125.7338419  0.869262E-07  0.988E-04    1.65      11.4  T
   4   -125.7338420 -0.105282E-06  0.186E-04    1.65      60.5  T
     SCC iter.                  ...        0 min,  0.037 sec
     gradient                   ...        0 min,  0.011 sec
 * total energy  :  -123.4307132 Eh     change       -0.4779666E-05 Eh
   gradient norm :     0.0004459 Eh/α   predicted    -0.2027207E-05 ( -57.59%)
   displ. norm   :     0.0566000 α      lambda       -0.3358716E-05
   maximum displ.:     0.0389503 α      in ANC's #9, #6, #8, ...

........................................................................
.............................. CYCLE   47 ..............................
........................................................................

 iter      E             dE          RMSdq      gap      omega  full diag
   1   -125.7336722 -0.125734E+03  0.146E-02    1.65       0.0  T
   2   -125.7336722 -0.252575E-07  0.858E-03    1.65       1.3  T
   3   -125.7336722  0.247354E-07  0.589E-04    1.65      19.1  T
   4   -125.7336722 -0.346642E-07  0.155E-04    1.65      72.8  T
     SCC iter.                  ...        0 min,  0.037 sec
     gradient                   ...        0 min,  0.011 sec
 * total energy  :  -123.4307177 Eh     change       -0.4456632E-05 Eh
   gradient norm :     0.0003287 Eh/α   predicted    -0.1682028E-05 ( -62.26%)
   displ. norm   :     0.0718648 α      lambda       -0.4598422E-05
   maximum displ.:     0.0495789 α      in ANC's #9, #6, #8, ...

........................................................................
.............................. CYCLE   48 ..............................
........................................................................

 iter      E             dE          RMSdq      gap      omega  full diag
   1   -125.7335375 -0.125734E+03  0.184E-02    1.64       0.0  T
   2   -125.7335376 -0.462758E-07  0.108E-02    1.65       1.0  T
   3   -125.7335375  0.488170E-07  0.861E-04    1.65      13.1  T
   4   -125.7335376 -0.667587E-07  0.198E-04    1.65      56.8  T
     SCC iter.                  ...        0 min,  0.036 sec
     gradient                   ...        0 min,  0.010 sec
 * total energy  :  -123.4307239 Eh     change       -0.6172558E-05 Eh
   gradient norm :     0.0002893 Eh/α   predicted    -0.2304843E-05 ( -62.66%)
   displ. norm   :     0.0983782 α      lambda       -0.6036251E-05
   maximum displ.:     0.0674884 α      in ANC's #9, #6, #1, ...

........................................................................
.............................. CYCLE   49 ..............................
........................................................................

 iter      E             dE          RMSdq      gap      omega  full diag
   1   -125.7335703 -0.125734E+03  0.253E-02    1.64       0.0  T
   2   -125.7335704 -0.901355E-07  0.149E-02    1.65       1.0  T
   3   -125.7335703  0.177572E-06  0.151E-03    1.64       7.5  T
   4   -125.7335705 -0.217987E-06  0.281E-04    1.65      40.1  T
   5   -125.7335705 -0.262482E-08  0.159E-04    1.65      70.6  T
     SCC iter.                  ...        0 min,  0.046 sec
     gradient                   ...        0 min,  0.010 sec
 * total energy  :  -123.4307317 Eh     change       -0.7814090E-05 Eh
   gradient norm :     0.0004187 Eh/α   predicted    -0.3032228E-05 ( -61.20%)
   displ. norm   :     0.1101489 α      lambda       -0.5887932E-05
   maximum displ.:     0.0760837 α      in ANC's #9, #6, #1, ...

........................................................................
.............................. CYCLE   50 ..............................
........................................................................

 iter      E             dE          RMSdq      gap      omega  full diag
   1   -125.7336547 -0.125734E+03  0.287E-02    1.64       0.0  T
   2   -125.7336548 -0.119522E-06  0.168E-02    1.64       1.0  T
   3   -125.7336546  0.204265E-06  0.168E-03    1.64       6.7  T
   4   -125.7336549 -0.255736E-06  0.311E-04    1.64      36.2  T
   5   -125.7336549 -0.259553E-08  0.178E-04    1.64      63.3  T
     SCC iter.                  ...        0 min,  0.047 sec
     gradient                   ...        0 min,  0.011 sec
 * total energy  :  -123.4307392 Eh     change       -0.7515756E-05 Eh
   gradient norm :     0.0005194 Eh/α   predicted    -0.2962662E-05 ( -60.58%)
   displ. norm   :     0.0987424 α      lambda       -0.4819711E-05
   maximum displ.:     0.0691273 α      in ANC's #9, #6, #1, ...

........................................................................
.............................. CYCLE   51 ..............................
........................................................................

 iter      E             dE          RMSdq      gap      omega  full diag
   1   -125.7338053 -0.125734E+03  0.263E-02    1.64       0.0  T
   2   -125.7338054 -0.965944E-07  0.154E-02    1.64       1.0  T
   3   -125.7338053  0.115059E-06  0.136E-03    1.64       8.3  T
   4   -125.7338054 -0.153336E-06  0.260E-04    1.64      43.3  T
   5   -125.7338054 -0.131878E-08  0.140E-04    1.64      80.5  T
     SCC iter.                  ...        0 min,  0.046 sec
     gradient                   ...        0 min,  0.011 sec
 * total energy  :  -123.4307456 Eh     change       -0.6350472E-05 Eh
   gradient norm :     0.0005039 Eh/α   predicted    -0.2425182E-05 ( -61.81%)
   displ. norm   :     0.0889815 α      lambda       -0.4472098E-05
   maximum displ.:     0.0636028 α      in ANC's #9, #1, #6, ...

........................................................................
.............................. CYCLE   52 ..............................
........................................................................

 iter      E             dE          RMSdq      gap      omega  full diag
   1   -125.7339717 -0.125734E+03  0.241E-02    1.64       0.0  T
   2   -125.7339717 -0.765844E-07  0.142E-02    1.64       1.0  T
   3   -125.7339717  0.750521E-07  0.115E-03    1.64       9.8  T
   4   -125.7339718 -0.105198E-06  0.229E-04    1.64      49.2  T
   5   -125.7339718 -0.871111E-09  0.114E-04    1.64      98.4  T
     SCC iter.                  ...        0 min,  0.046 sec
     gradient                   ...        0 min,  0.010 sec
 * total energy  :  -123.4307515 Eh     change       -0.5919265E-05 Eh
   gradient norm :     0.0003503 Eh/α   predicted    -0.2244221E-05 ( -62.09%)
   displ. norm   :     0.0844076 α      lambda       -0.4283698E-05
   maximum displ.:     0.0617698 α      in ANC's #9, #1, #4, ...

........................................................................
.............................. CYCLE   53 ..............................
........................................................................

 iter      E             dE          RMSdq      gap      omega  full diag
   1   -125.7340221 -0.125734E+03  0.233E-02    1.64       0.0  T
   2   -125.7340221 -0.720956E-07  0.136E-02    1.64       1.0  T
   3   -125.7340221  0.523916E-07  0.101E-03    1.64      11.2  T
   4   -125.7340222 -0.777083E-07  0.217E-04    1.64      51.9  T
   5   -125.7340222 -0.975817E-09  0.102E-04    1.64     110.8  T
     SCC iter.                  ...        0 min,  0.047 sec
     gradient                   ...        0 min,  0.011 sec
 * total energy  :  -123.4307572 Eh     change       -0.5677614E-05 Eh
   gradient norm :     0.0002426 Eh/α   predicted    -0.2152342E-05 ( -62.09%)
   displ. norm   :     0.0743164 α      lambda       -0.3755745E-05
   maximum displ.:     0.0558605 α      in ANC's #9, #1, #4, ...

........................................................................
.............................. CYCLE   54 ..............................
........................................................................

 iter      E             dE          RMSdq      gap      omega  full diag
   1   -125.7340374 -0.125734E+03  0.206E-02    1.65       0.0  T
   2   -125.7340374 -0.532623E-07  0.121E-02    1.64       1.0  T
   3   -125.7340374  0.475484E-07  0.905E-04    1.64      12.4  T
   4   -125.7340374 -0.669483E-07  0.207E-04    1.64      54.2  T
     SCC iter.                  ...        0 min,  0.037 sec
     gradient                   ...        0 min,  0.010 sec
 * total energy  :  -123.4307621 Eh     change       -0.4981133E-05 Eh
   gradient norm :     0.0001770 Eh/α   predicted    -0.1883805E-05 ( -62.18%)
   displ. norm   :     0.0638575 α      lambda       -0.3215728E-05
   maximum displ.:     0.0487783 α      in ANC's #9, #1, #4, ...

........................................................................
.............................. CYCLE   55 ..............................
........................................................................

 iter      E             dE          RMSdq      gap      omega  full diag
   1   -125.7339871 -0.125734E+03  0.176E-02    1.65       0.0  T
   2   -125.7339871 -0.400172E-07  0.103E-02    1.64       1.1  T
   3   -125.7339870  0.464858E-07  0.809E-04    1.65      13.9  T
   4   -125.7339871 -0.601172E-07  0.189E-04    1.64      59.5  T
     SCC iter.                  ...        0 min,  0.037 sec
     gradient                   ...        0 min,  0.011 sec
 * total energy  :  -123.4307665 Eh     change       -0.4381569E-05 Eh
   gradient norm :     0.0001805 Eh/α   predicted    -0.1612170E-05 ( -63.21%)
   displ. norm   :     0.0603242 α      lambda       -0.3183940E-05
   maximum displ.:     0.0456998 α      in ANC's #9, #1, #4, ...

........................................................................
.............................. CYCLE   56 ..............................
........................................................................

 iter      E             dE          RMSdq      gap      omega  full diag
   1   -125.7339229 -0.125734E+03  0.162E-02    1.65       0.0  T
   2   -125.7339229 -0.320741E-07  0.952E-03    1.65       1.2  T
   3   -125.7339229  0.367590E-07  0.723E-04    1.65      15.6  T
   4   -125.7339229 -0.486571E-07  0.178E-04    1.65      63.3  T
     SCC iter.                  ...        0 min,  0.036 sec
     gradient                   ...        0 min,  0.011 sec
 * total energy  :  -123.4307709 Eh     change       -0.4424321E-05 Eh
   gradient norm :     0.0002008 Eh/α   predicted    -0.1595735E-05 ( -63.93%)
   displ. norm   :     0.0671487 α      lambda       -0.3687353E-05
   maximum displ.:     0.0492155 α      in ANC's #9, #1, #4, ...

........................................................................
.............................. CYCLE   57 ..............................
........................................................................

 iter      E             dE          RMSdq      gap      omega  full diag
   1   -125.7338517 -0.125734E+03  0.178E-02    1.65       0.0  T
   2   -125.7338517 -0.403731E-07  0.104E-02    1.65       1.1  T
   3   -125.7338517  0.347070E-07  0.731E-04    1.65      15.4  T
   4   -125.7338517 -0.482975E-07  0.187E-04    1.65      60.2  T
     SCC iter.                  ...        0 min,  0.036 sec
     gradient                   ...        0 min,  0.011 sec
 * total energy  :  -123.4307761 Eh     change       -0.5132628E-05 Eh
   gradient norm :     0.0001898 Eh/α   predicted    -0.1848438E-05 ( -63.99%)
   displ. norm   :     0.0867468 α      lambda       -0.4647306E-05
   maximum displ.:     0.0616035 α      in ANC's #9, #1, #6, ...

........................................................................
.............................. CYCLE   58 ..............................
........................................................................

 iter      E             dE          RMSdq      gap      omega  full diag
   1   -125.7337531 -0.125734E+03  0.227E-02    1.65       0.0  T
   2   -125.7337532 -0.644375E-07  0.133E-02    1.65       1.0  T
   3   -125.7337531  0.377850E-07  0.861E-04    1.65      13.1  T
   4   -125.7337532 -0.606443E-07  0.224E-04    1.65      50.2  T
     SCC iter.                  ...        0 min,  0.037 sec
     gradient                   ...        0 min,  0.011 sec
 * total energy  :  -123.4307824 Eh     change       -0.6312381E-05 Eh
   gradient norm :     0.0001820 Eh/α   predicted    -0.2332185E-05 ( -63.05%)
   displ. norm   :     0.1069299 α      lambda       -0.5061014E-05
   maximum displ.:     0.0748516 α      in ANC's #9, #1, #6, ...

........................................................................
.............................. CYCLE   59 ..............................
........................................................................

 iter      E             dE          RMSdq      gap      omega  full diag
   1   -125.7336725 -0.125734E+03  0.281E-02    1.65       0.0  T
   2   -125.7336726 -0.102101E-06  0.165E-02    1.65       1.0  T
   3   -125.7336725  0.699378E-07  0.113E-03    1.65      10.0  T
   4   -125.7336726 -0.105885E-06  0.271E-04    1.65      41.5  T
   5   -125.7336726 -0.216458E-08  0.127E-04    1.65      88.6  T
     SCC iter.                  ...        0 min,  0.046 sec
     gradient                   ...        0 min,  0.011 sec
 * total energy  :  -123.4307889 Eh     change       -0.6528119E-05 Eh
   gradient norm :     0.0002034 Eh/α   predicted    -0.2545244E-05 ( -61.01%)
   displ. norm   :     0.1070839 α      lambda       -0.4033050E-05
   maximum displ.:     0.0752762 α      in ANC's #9, #1, #6, ...

........................................................................
.............................. CYCLE   60 ..............................
........................................................................

 iter      E             dE          RMSdq      gap      omega  full diag
   1   -125.7336396 -0.125734E+03  0.284E-02    1.65       0.0  T
   2   -125.7336397 -0.106451E-06  0.167E-02    1.65       1.0  T
   3   -125.7336396  0.826071E-07  0.123E-03    1.65       9.2  T
   4   -125.7336397 -0.120606E-06  0.275E-04    1.65      40.9  T
   5   -125.7336397 -0.200220E-08  0.135E-04    1.65      83.1  T
     SCC iter.                  ...        0 min,  0.045 sec
     gradient                   ...        0 min,  0.011 sec
 * total energy  :  -123.4307938 Eh     change       -0.4881294E-05 Eh
   gradient norm :     0.0002444 Eh/α   predicted    -0.2028294E-05 ( -58.45%)
   displ. norm   :     0.0865673 α      lambda       -0.2468762E-05
   maximum displ.:     0.0621206 α      in ANC's #9, #1, #6, ...

........................................................................
.............................. CYCLE   61 ..............................
........................................................................

 iter      E             dE          RMSdq      gap      omega  full diag
   1   -125.7336947 -0.125734E+03  0.234E-02    1.65       0.0  T
   2   -125.7336948 -0.740115E-07  0.137E-02    1.65       1.0  T
   3   -125.7336947  0.620032E-07  0.104E-03    1.65      10.8  T
   4   -125.7336948 -0.882042E-07  0.223E-04    1.65      50.4  T
   5   -125.7336948 -0.131313E-08  0.108E-04    1.65     104.1  T
     SCC iter.                  ...        0 min,  0.045 sec
     gradient                   ...        0 min,  0.011 sec
 * total energy  :  -123.4307967 Eh     change       -0.2935616E-05 Eh
   gradient norm :     0.0002578 Eh/α   predicted    -0.1242708E-05 ( -57.67%)
   displ. norm   :     0.0648491 α      lambda       -0.1617030E-05
   maximum displ.:     0.0482578 α      in ANC's #9, #1, #6, ...

........................................................................
.............................. CYCLE   62 ..............................
........................................................................

 iter      E             dE          RMSdq      gap      omega  full diag
   1   -125.7337921 -0.125734E+03  0.180E-02    1.65       0.0  T
   2   -125.7337921 -0.432754E-07  0.105E-02    1.65       1.1  T
   3   -125.7337921  0.405689E-07  0.851E-04    1.65      13.2  T
   4   -125.7337922 -0.559845E-07  0.169E-04    1.65      66.6  T
     SCC iter.                  ...        0 min,  0.037 sec
     gradient                   ...        0 min,  0.011 sec
 * total energy  :  -123.4307987 Eh     change       -0.1979823E-05 Eh
   gradient norm :     0.0002039 Eh/α   predicted    -0.8112298E-06 ( -59.03%)
   displ. norm   :     0.0560948 α      lambda       -0.1451391E-05
   maximum displ.:     0.0428978 α      in ANC's #9, #1, #2, ...

........................................................................
.............................. CYCLE   63 ..............................
........................................................................

 iter      E             dE          RMSdq      gap      omega  full diag
   1   -125.7338748 -0.125734E+03  0.159E-02    1.65       0.0  T
   2   -125.7338749 -0.362814E-07  0.932E-03    1.65       1.2  T
[...]
    48   6 C       49   6 C                                       1.3830561
     1   6 C       50   1 H                                       1.0796675
     2   6 C       51   1 H                                       1.0799716
     3   6 C       52   1 H                                       1.0801422
     7   6 C       53   1 H                                       1.0787676
     8   6 C       54   1 H                                       1.0790852
     9   6 C       55   1 H                                       1.0792119
    10   6 C       56   1 H                                       1.0788064
    14   6 C       57   1 H                                       1.0799532
    15   6 C       58   1 H                                       1.0787144
    21   6 C       59   1 H                                       1.0789023
    22   6 C       60   1 H                                       1.0800316
    23   6 C       61   1 H                                       1.0805707
    24   6 C       62   1 H                                       1.0784919
    27   6 C       63   1 H                                       1.0779930 (min)
    28   6 C       64   1 H                                       1.0800959
    29   6 C       65   1 H                                       1.0800296
    30   6 C       66   1 H                                       1.0785314
    35   6 C       67   1 H                                       1.0799854
    36   6 C       68   1 H                                       1.0795084
    37   6 C       69   1 H                                       1.0793685
    38   6 C       70   1 H                                       1.0796760
    39   6 C       71   1 H                                       1.0804352
    40   6 C       72   1 H                                       1.0793128
    41   6 C       73   1 H                                       1.0800170
    43   6 C       74   1 H                                       1.0786058
    44   6 C       75   1 H                                       1.0789692
    45   6 C       76   1 H                                       1.0790654
    46   6 C       77   1 H                                       1.0788157
    48   6 C       78   1 H                                       1.0801020
    49   6 C       79   1 H                                       1.0799517

 * 3 distinct bonds (by element types)

   Z      Z             #   av. dist./Å        max./Å        min./Å
   1 H    6 C          30     1.0794260     1.0805707     1.0779930
   6 C    6 C          46     1.3924621     1.4537511     1.3722922
   6 C    7 N          11     1.3855347     1.4169495     1.3083581

           -------------------------------------------------
          |               Frequency Printout                |
           -------------------------------------------------
 projected vibrational frequencies (cm⁻¹)
eigval :       -0.00    -0.00    -0.00     0.00     0.00     0.00
eigval :        7.46     9.00    12.29    21.85    28.78    36.23
eigval :       41.14    42.72    50.06    59.09    63.46    72.29
eigval :       76.07    84.36    93.79   105.17   114.11   125.70
eigval :      163.51   166.69   182.72   210.19   219.43   223.24
eigval :      237.28   246.45   247.38   251.70   262.80   268.44
eigval :      300.18   309.20   345.61   374.64   375.24   377.27
eigval :      380.10   383.49   396.03   397.99   400.58   413.41
eigval :      417.04   427.87   432.61   437.41   446.82   449.43
eigval :      474.12   479.83   493.79   508.01   513.04   517.77
eigval :      523.96   529.55   535.32   584.12   586.57   587.76
eigval :      590.35   594.51   595.52   606.49   632.87   639.04
eigval :      645.74   653.08   656.94   658.88   668.46   672.36
eigval :      675.95   681.31   683.81   700.44   705.23   722.41
eigval :      735.49   744.71   761.72   763.78   767.29   770.21
eigval :      771.88   782.76   794.72   820.26   854.32   856.57
eigval :      862.92   873.88   874.93   877.18   878.26   886.97
eigval :      888.12   889.73   902.07   903.97   905.84   908.10
eigval :      908.78   910.49   911.32   914.49   922.19   924.07
eigval :      927.44   929.31   930.51   930.71   932.32   932.85
eigval :      939.30   944.93   956.93   993.34   998.28  1016.98
eigval :     1030.43  1068.97  1079.04  1079.51  1085.88  1108.34
eigval :     1112.39  1113.84  1115.11  1115.79  1123.53  1128.14
eigval :     1131.60  1135.22  1152.67  1173.96  1180.42  1180.69
eigval :     1182.01  1183.04  1184.06  1184.63  1185.98  1186.42
eigval :     1189.73  1196.37  1209.82  1221.31  1238.85  1253.42
eigval :     1257.82  1261.20  1264.46  1270.22  1275.60  1277.96
eigval :     1284.26  1294.81  1306.45  1311.61  1313.77  1314.96
eigval :     1317.96  1323.05  1333.61  1339.10  1348.14  1365.81
eigval :     1367.95  1374.42  1405.66  1408.06  1419.54  1424.58
eigval :     1431.27  1433.93  1434.91  1437.94  1438.83  1466.19
eigval :     1471.66  1481.34  1499.93  1513.86  1514.64  1517.83
eigval :     1545.37  1556.38  1557.38  1564.49  1570.54  1578.64
eigval :     1581.76  1582.93  1585.69  1592.87  1594.30  1594.94
eigval :     1595.23  1598.79  1605.07  3072.01  3075.44  3078.08
eigval :     3080.02  3082.06  3083.12  3083.59  3084.03  3085.31
eigval :     3085.62  3085.92  3088.14  3088.33  3090.06  3091.93
eigval :     3092.16  3094.14  3095.03  3096.85  3098.08  3098.47
eigval :     3102.22  3102.46  3103.84  3105.23  3106.45  3106.88
eigval :     3108.30  3110.54  3112.01
 reduced masses (amu)
   1: 11.50   2: 11.44   3: 11.54   4: 11.61   5: 11.09   6: 11.53   7: 10.99   8: 11.07
   9: 10.95  10: 10.91  11: 10.84  12: 10.14  13: 10.71  14: 10.97  15: 10.61  16: 10.51
  17: 11.03  18: 10.61  19: 10.21  20: 10.16  21: 10.30  22: 11.00  23: 10.35  24: 10.86
  25: 10.88  26: 11.13  27: 11.02  28: 10.90  29: 11.14  30: 10.80  31: 10.64  32: 10.37
  33: 10.28  34: 10.78  35: 10.39  36: 10.71  37: 11.12  38: 10.97  39: 11.19  40: 10.70
  41:  9.05  42:  9.01  43: 10.93  44:  9.90  45: 11.07  46: 10.10  47: 11.03  48: 11.03
  49: 11.14  50: 10.96  51: 10.06  52: 10.32  53: 11.40  54: 10.95  55: 11.25  56: 10.56
  57: 10.56  58: 10.26  59: 10.52  60: 10.73  61: 11.05  62: 10.30  63:  9.87  64: 11.28
  65: 11.17  66: 11.27  67: 11.02  68: 11.32  69: 11.34  70: 11.44  71: 11.37  72: 11.32
  73: 11.32  74: 11.44  75: 11.77  76: 11.72  77: 10.32  78:  9.77  79: 10.93  80: 10.86
  81: 11.10  82: 11.11  83: 11.13  84: 11.24  85: 11.43  86: 10.99  87:  4.89  88:  5.51
  89:  4.47  90:  3.28  91:  3.18  92:  4.94  93: 10.67  94:  5.25  95:  3.29  96:  3.27
  97:  3.72  98:  3.29  99:  3.57 100:  3.32 101:  3.30 102:  6.42 103:  7.83 104:  4.38
 105:  3.68 106:  4.52 107: 11.76 108:  4.01 109:  3.07 110:  3.45 111: 11.20 112:  3.95
 113:  2.77 114:  3.31 115:  3.23 116:  3.94 117:  4.10 118:  3.88 119:  2.97 120:  3.11
 121: 11.75 122: 11.44 123: 11.84 124: 10.94 125: 10.98 126: 10.66 127:  9.34 128: 10.84
 129:  6.59 130:  6.24 131:  5.97 132:  6.84 133:  6.60 134:  4.98 135:  4.97 136:  4.12
 137:  7.14 138:  7.94 139:  4.07 140:  7.40 141:  5.99 142:  7.76 143:  1.45 144:  1.37
 145:  3.40 146:  1.90 147:  1.39 148:  1.51 149:  2.56 150:  2.39 151:  2.09 152:  4.31
 153:  7.01 154:  8.54 155:  6.62 156:  5.69 157:  5.95 158:  4.19 159:  4.53 160:  4.70
 161:  3.84 162:  4.80 163:  6.81 164:  9.94 165: 11.00 166: 11.71 167: 11.71 168: 11.56
 169: 11.67 170: 10.84 171: 11.24 172: 11.08 173: 11.31 174:  9.79 175: 10.84 176: 11.01
 177: 10.01 178:  9.18 179:  9.74 180:  9.32 181:  9.58 182:  9.26 183:  9.01 184:  9.68
 185:  9.33 186:  9.90 187:  9.29 188: 10.02 189: 11.13 190: 10.89 191: 10.87 192: 11.30
 193: 11.72 194: 11.42 195: 11.62 196: 11.75 197: 11.79 198: 11.46 199: 11.52 200: 11.53
 201: 11.51 202: 11.51 203: 11.48 204: 11.51 205: 11.43 206: 11.70 207: 11.54 208:  1.77
 209:  1.77 210:  1.75 211:  1.79 212:  1.77 213:  1.76 214:  1.83 215:  1.77 216:  1.79
 217:  1.76 218:  1.85 219:  1.83 220:  1.81 221:  1.84 222:  1.87 223:  1.83 224:  1.82
 225:  1.88 226:  1.87 227:  1.92 228:  1.87 229:  1.90 230:  1.86 231:  1.84 232:  1.86
 233:  1.89 234:  1.86 235:  1.89 236:  1.82 237:  1.84
 IR intensities (km·mol⁻¹)
   1:  0.03   2:  0.00   3:  0.04   4:  0.01   5:  0.11   6:  0.01   7:  0.18   8:  0.07
   9:  0.14  10:  0.04  11:  0.57  12:  1.20  13:  0.20  14:  0.05  15:  0.19  16:  0.13
  17:  0.15  18:  0.40  19:  1.17  20:  0.14  21:  0.46  22:  0.21  23:  1.37  24:  1.56
  25:  0.73  26:  0.39  27:  0.40  28:  0.05  29:  1.02  30:  0.11  31:  0.02  32:  0.88
  33:  0.07  34:  0.06  35:  0.25  36:  1.17  37:  0.16  38:  0.24  39:  1.07  40:  3.16
  41:  1.27  42:  0.30  43:  1.13  44:  6.33  45:  1.33  46:  0.59  47:  0.11  48:  1.12
  49:  1.03  50:  0.66  51:  0.57  52:  0.56  53:  2.17  54:  5.55  55:  0.47  56:  0.86
  57:  1.91  58:  6.66  59:  3.44  60:  0.05  61:  0.61  62:  0.80  63:  0.09  64:  1.45
  65:  0.95  66:  0.57  67:  1.23  68:  2.14  69:  2.16  70:  0.16  71:  7.82  72:  3.12
  73:  3.66  74:  4.72  75:  0.27  76: 16.81  77:  6.19  78:  2.80  79:  1.08  80:  2.03
  81:  6.97  82:  2.41  83: 10.26  84:  6.24  85:  1.89  86:  0.80  87: 18.12  88: 46.18
  89: 15.78  90: 32.40  91: 14.16  92:  1.06  93:  5.76  94:  8.73  95:  0.48  96:  0.17
  97:  0.75  98: 10.29  99:  0.18 100:  0.17 101:  1.33 102:  0.77 103:  0.19 104:  0.68
 105:  0.94 106:  0.30 107:  0.69 108:  0.06 109:  0.44 110:  1.24 111:  1.12 112:  0.23
 113:  0.23 114:  0.20 115:  0.06 116:  0.02 117:  0.22 118:  2.34 119:  0.05 120:  0.22
 121:  0.08 122: 13.33 123:  5.15 124:  6.88 125:  0.71 126:  1.17 127:  0.77 128:  1.95
 129:  0.04 130:  0.27 131:  0.58 132:  0.82 133:  0.82 134:  1.85 135:  2.52 136:  1.42
 137:  0.02 138:  7.77 139:  4.09 140:  3.00 141:  0.48 142: 11.09 143:  0.12 144:  0.00
 145:  0.55 146:  0.57 147:  1.12 148:  1.15 149:  1.40 150:  2.03 151:  1.33 152: 27.49
 153:  2.80 154:  0.75 155:  0.04 156:  0.48 157:  6.92 158: 13.06 159:113.83 160:  1.37
 161:  1.25 162:  1.16 163:  2.54 164: 36.14 165: 16.50 166: 23.46 167: 12.58 168: 24.76
 169:139.65 170:279.99 171:240.48 172:  1.23 173: 43.37 174:176.58 175:  1.76 176:113.09
 177:  1.62 178:  0.04 179: 10.26 180:  0.15 181: 21.48 182:  1.56 183:  1.16 184:  7.74
 185: 23.47 186:129.00 187:149.72 188: 42.85 189:647.91 190:  8.42 191: 20.20 192: 50.53
 193:  9.34 194:  1.54 195:  1.45 196: 26.57 197: 16.24 198:  3.07 199:  3.04 200:  2.69
 201:306.21 202:  1.79 203: 24.06 204:  3.12 205: 11.26 206:  0.00 207:  2.89 208: 13.90
 209: 12.23 210:  6.88 211:  3.38 212:  5.37 213:  1.26 214: 90.79 215:  2.09 216: 16.38
 217:  1.56 218: 62.28 219: 65.39 220: 14.64 221: 19.50 222: 79.72 223: 33.93 224: 34.29
 225: 70.85 226: 16.24 227: 50.30 228: 24.38 229: 24.79 230: 55.42 231:100.24 232: 17.49
 233: 50.50 234:  9.16 235: 23.66 236: 81.79 237: 21.65
 Raman intensities (Ä⁴*amu⁻¹)
   1:  0.00   2:  0.00   3:  0.00   4:  0.00   5:  0.00   6:  0.00   7:  0.00   8:  0.00
   9:  0.00  10:  0.00  11:  0.00  12:  0.00  13:  0.00  14:  0.00  15:  0.00  16:  0.00
  17:  0.00  18:  0.00  19:  0.00  20:  0.00  21:  0.00  22:  0.00  23:  0.00  24:  0.00
  25:  0.00  26:  0.00  27:  0.00  28:  0.00  29:  0.00  30:  0.00  31:  0.00  32:  0.00
  33:  0.00  34:  0.00  35:  0.00  36:  0.00  37:  0.00  38:  0.00  39:  0.00  40:  0.00
  41:  0.00  42:  0.00  43:  0.00  44:  0.00  45:  0.00  46:  0.00  47:  0.00  48:  0.00
  49:  0.00  50:  0.00  51:  0.00  52:  0.00  53:  0.00  54:  0.00  55:  0.00  56:  0.00
  57:  0.00  58:  0.00  59:  0.00  60:  0.00  61:  0.00  62:  0.00  63:  0.00  64:  0.00
  65:  0.00  66:  0.00  67:  0.00  68:  0.00  69:  0.00  70:  0.00  71:  0.00  72:  0.00
  73:  0.00  74:  0.00  75:  0.00  76:  0.00  77:  0.00  78:  0.00  79:  0.00  80:  0.00
  81:  0.00  82:  0.00  83:  0.00  84:  0.00  85:  0.00  86:  0.00  87:  0.00  88:  0.00
  89:  0.00  90:  0.00  91:  0.00  92:  0.00  93:  0.00  94:  0.00  95:  0.00  96:  0.00
  97:  0.00  98:  0.00  99:  0.00 100:  0.00 101:  0.00 102:  0.00 103:  0.00 104:  0.00
 105:  0.00 106:  0.00 107:  0.00 108:  0.00 109:  0.00 110:  0.00 111:  0.00 112:  0.00
 113:  0.00 114:  0.00 115:  0.00 116:  0.00 117:  0.00 118:  0.00 119:  0.00 120:  0.00
 121:  0.00 122:  0.00 123:  0.00 124:  0.00 125:  0.00 126:  0.00 127:  0.00 128:  0.00
 129:  0.00 130:  0.00 131:  0.00 132:  0.00 133:  0.00 134:  0.00 135:  0.00 136:  0.00
 137:  0.00 138:  0.00 139:  0.00 140:  0.00 141:  0.00 142:  0.00 143:  0.00 144:  0.00
 145:  0.00 146:  0.00 147:  0.00 148:  0.00 149:  0.00 150:  0.00 151:  0.00 152:  0.00
 153:  0.00 154:  0.00 155:  0.00 156:  0.00 157:  0.00 158:  0.00 159:  0.00 160:  0.00
 161:  0.00 162:  0.00 163:  0.00 164:  0.00 165:  0.00 166:  0.00 167:  0.00 168:  0.00
 169:  0.00 170:  0.00 171:  0.00 172:  0.00 173:  0.00 174:  0.00 175:  0.00 176:  0.00
 177:  0.00 178:  0.00 179:  0.00 180:  0.00 181:  0.00 182:  0.00 183:  0.00 184:  0.00
 185:  0.00 186:  0.00 187:  0.00 188:  0.00 189:  0.00 190:  0.00 191:  0.00 192:  0.00
 193:  0.00 194:  0.00 195:  0.00 196:  0.00 197:  0.00 198:  0.00 199:  0.00 200:  0.00
 201:  0.00 202:  0.00 203:  0.00 204:  0.00 205:  0.00 206:  0.00 207:  0.00 208:  0.00
 209:  0.00 210:  0.00 211:  0.00 212:  0.00 213:  0.00 214:  0.00 215:  0.00 216:  0.00
 217:  0.00 218:  0.00 219:  0.00 220:  0.00 221:  0.00 222:  0.00 223:  0.00 224:  0.00
 225:  0.00 226:  0.00 227:  0.00 228:  0.00 229:  0.00 230:  0.00 231:  0.00 232:  0.00
 233:  0.00 234:  0.00 235:  0.00 236:  0.00 237:  0.00
 output can be read by thermo (or use thermo option).
 writing <g98.out> molden fake output.
 recommended (thermochemical) frequency scaling factor: 1.0
           -------------------------------------------------
          |             Thermodynamic Functions             |
           -------------------------------------------------

Molecule has no symmetry elements
It seems to be the C1 point group
c1  symmetry found (for desy threshold:  0.10E+00) used in thermo

          ...................................................
          :                      SETUP                      :
          :.................................................:
          :  # frequencies                         231      :
          :  # imaginary freq.                       0      :
          :  linear?                             false      :
          :  only rotor calc.                    false      :
          :  symmetry                               c1      :
          :  rotational number                       1      :
          :  scaling factor                  1.0000000      :
          :  rotor cutoff                   50.0000000 cm⁻¹ :
          :  imag. cutoff                  -20.0000000 cm⁻¹ :
          :.................................................:

    mode    ω/cm⁻¹     T·S(HO)/kcal·mol⁻¹    T·S(FR)/kcal·mol⁻¹   T·S(vib)
   ------------------------------------------------------------------------
       1      7.46    -2.56231 (  0.05%)    -1.62021 ( 99.95%)    -1.62068
       2      9.00    -2.45109 (  0.10%)    -1.56460 ( 99.90%)    -1.56553
       3     12.29    -2.26648 (  0.36%)    -1.47229 ( 99.64%)    -1.47517
       4     21.85    -1.92548 (  3.52%)    -1.30171 ( 96.48%)    -1.32367
       5     28.78    -1.76251 (  9.90%)    -1.22012 ( 90.10%)    -1.27380
       6     36.23    -1.62641 ( 21.62%)    -1.15194 ( 78.38%)    -1.25451
       7     41.14    -1.55140 ( 31.43%)    -1.11432 ( 68.57%)    -1.25169
       8     42.72    -1.52916 ( 34.76%)    -1.10316 ( 65.24%)    -1.25125
       9     50.06    -1.43561 ( 50.12%)    -1.05620 ( 49.88%)    -1.24635
      10     59.09    -1.33792 ( 66.11%)    -1.00707 ( 33.89%)    -1.22578
      11     63.46    -1.29590 ( 72.19%)    -0.98591 ( 27.81%)    -1.20969
      12     72.29    -1.21946 ( 81.37%)    -0.94734 ( 18.63%)    -1.16877
      13     76.07    -1.18960 ( 84.27%)    -0.93225 ( 15.73%)    -1.14911
      14     84.36    -1.12901 ( 89.02%)    -0.90158 ( 10.98%)    -1.10403
      15     93.79    -1.06720 ( 92.53%)    -0.87020 (  7.47%)    -1.05248
      16    105.17    -1.00063 ( 95.14%)    -0.83627 (  4.86%)    -0.99264
      17    114.11    -0.95340 ( 96.45%)    -0.81210 (  3.55%)    -0.94837
      18    125.70    -0.89768 ( 97.56%)    -0.78345 (  2.44%)    -0.89489
      19    163.51    -0.74800 ( 99.13%)    -0.70555 (  0.87%)    -0.74763
      20    166.69    -0.73717 ( 99.20%)    -0.69984 (  0.80%)    -0.73687
      21    182.72    -0.68588 ( 99.44%)    -0.67264 (  0.56%)    -0.68581
      22    210.19    -0.60883 ( 99.68%)    -0.63115 (  0.32%)    -0.60890
      23    219.43    -0.58551 ( 99.73%)    -0.61841 (  0.27%)    -0.58560
      24    223.24    -0.57623 ( 99.75%)    -0.61331 (  0.25%)    -0.57632
      25    237.28    -0.54359 ( 99.80%)    -0.59524 (  0.20%)    -0.54369
      26    246.45    -0.52351 ( 99.83%)    -0.58401 (  0.17%)    -0.52361
      27    247.38    -0.52151 ( 99.83%)    -0.58288 (  0.17%)    -0.52161
      28    251.70    -0.51242 ( 99.84%)    -0.57776 (  0.16%)    -0.51252
      29    262.80    -0.48988 ( 99.87%)    -0.56497 (  0.13%)    -0.48998
      30    268.44    -0.47890 ( 99.88%)    -0.55869 (  0.12%)    -0.47900
   ------------------------------------------------------------------------

   temp. (K)  partition function   enthalpy   heat capacity  entropy
                                   cal/mol     cal/K/mol   cal/K/mol   J/K/mol
 298.15  VIB  0.661E+18            22098.953    140.777    138.249
         ROT  0.900E+08              888.752      2.981     39.378
         INT  0.595E+26            22987.706    143.758    177.627
         TR   0.152E+29             1481.254      4.968     45.168
         TOT                       24468.9595   148.7260   222.7952   932.1753

       T/K    H(0)-H(T)+PV         H(T)/Eh          T*S/Eh         G(T)/Eh
   ------------------------------------------------------------------------
    298.15    0.389938E-01    0.645967E+00    0.105857E+00    0.540110E+00
   ------------------------------------------------------------------------

         :::::::::::::::::::::::::::::::::::::::::::::::::::::
         ::                  THERMODYNAMIC                  ::
         :::::::::::::::::::::::::::::::::::::::::::::::::::::
         :: total free energy        -122.890703917775 Eh   ::
         ::.................................................::
         :: total energy             -123.430814128407 Eh   ::
         :: zero point energy           0.606973649364 Eh   ::
         :: G(RRHO) w/o ZPVE           -0.066863438732 Eh   ::
         :: G(RRHO) contrib.            0.540110210632 Eh   ::
         :::::::::::::::::::::::::::::::::::::::::::::::::::::

optimized geometry written to: xtbopt.xyz


           -------------------------------------------------
          | TOTAL ENERGY             -123.430814128407 Eh   |
          | TOTAL ENTHALPY           -122.784846710093 Eh   |
          | TOTAL FREE ENERGY        -122.890703917775 Eh   |
          | GRADIENT NORM               0.000032459521 Eh/α |
          | HOMO-LUMO GAP               1.649667909706 eV   |
           -------------------------------------------------

------------------------------------------------------------------------
 * finished run on 2025/09/04 at 09:56:57.732     
------------------------------------------------------------------------
 total:
 * wall-time:     0 d,  0 h,  0 min,  9.264 sec
 *  cpu-time:     0 d,  0 h,  5 min, 55.176 sec
 * ratio c/w:    38.338 speedup
 SCF:
 * wall-time:     0 d,  0 h,  0 min,  0.166 sec
 *  cpu-time:     0 d,  0 h,  0 min,  6.120 sec
 * ratio c/w:    36.803 speedup
 ANC optimizer:
 * wall-time:     0 d,  0 h,  0 min,  5.334 sec
 *  cpu-time:     0 d,  0 h,  3 min, 33.315 sec
 * ratio c/w:    39.995 speedup
 analytical hessian:
 * wall-time:     0 d,  0 h,  0 min,  3.569 sec
 *  cpu-time:     0 d,  0 h,  2 min,  8.482 sec
 * ratio c/w:    36.003 speedup

