34
 energy: -52.404335249404 gnorm: 0.000034136664 xtb: 6.7.1 (edcfbbe)
C           -5.15653713588260       -1.53124947649988       -0.00210170194459
C           -5.57096910504110       -0.19873938301543       -0.00322222655392
C           -4.64493911459460        0.82088201224791       -0.00339751135310
C           -3.28025263235519        0.52231173253523       -0.00247074827371
N           -2.34162764968260        1.51104634938457       -0.00242412811388
C           -0.98978681110997        1.30127653327571       -0.00165898330337
C           -0.11146987787640        2.36390996562885       -0.00135595736479
C            1.27437401624791        2.15270486335094       -0.00105841011369
C            1.77270629802788        0.87820458607573       -0.00116760874570
C            3.11799852166452        0.36841424994488       -0.00146093999321
C            4.35614806106648        0.99072208585401       -0.00197747029234
C            5.49671086159378        0.20650430082489       -0.00263390352127
C            5.41131930286089       -1.18462889416472       -0.00275718571215
C            4.18650894156435       -1.82363651923674       -0.00223017553868
C            3.02736780081303       -1.05271377420545       -0.00160087101891
C            1.64909322179870       -1.41974145411773       -0.00124947843466
C            0.88985118600695       -0.26822216995488       -0.00115487010099
C           -0.52818476461803       -0.06890573934042       -0.00126330484092
C           -1.45324742212173       -1.08406459686919       -0.00106057589622
C           -2.84743584804393       -0.82448159565141       -0.00155877134987
C           -3.81672681006304       -1.83962889097978       -0.00131441731011
H           -5.89377788773276       -2.31975959107537       -0.00190119112234
H           -6.62500299449601        0.03469112823913       -0.00395829171965
H           -4.96244379101749        1.85372378738236       -0.00424543256972
H           -2.66404758990988        2.47167515376560       -0.00298188842072
H           -0.49786883967679        3.37312329872345       -0.00148280832084
H            1.93745013016753        3.00616589360963       -0.00089007827169
H            4.43412019839812        2.06928230738292       -0.00197304433598
H            6.47059399583823        0.67650937925470       -0.00314820251901
H            6.32148937887075       -1.76893521334753       -0.00330879796556
H            4.12818900707150       -2.90375828829620       -0.00228115083656
H            1.29035694286854       -2.43352347190880       -0.00124115199322
H           -1.12157395753707       -2.11101101588735       -0.00056944867876
H           -3.48902823497050       -2.86859067123562       -0.00052527775828
