$hessian                                                                        
        0.6762905297   0.0176637842   0.0002127564  -0.1108773036   0.0186175896
       -0.0000522579   0.0487609539   0.0017242269   0.0000203022  -0.0298151739
        0.0224693204  -0.0000271331   0.0030777418   0.0024762015  -0.0000016623
       -0.0007424783   0.0031405661   0.0000000059  -0.0026965485  -0.0017770285
        0.0000022134   0.0026647152  -0.0013693374   0.0000002430  -0.0027669441
        0.0012169594   0.0000005906   0.0032935995  -0.0015124063  -0.0000011213
       -0.0019569048   0.0003165738  -0.0000035786   0.0009498882  -0.0018858801
       -0.0000000825   0.0013860473   0.0017217528  -0.0000003011  -0.0022332563
       -0.0000570302  -0.0000008172   0.0040548269   0.0012274638  -0.0000025835
       -0.0034144844   0.0018063853  -0.0000008281   0.0036788294  -0.0018025444
        0.0000003284  -0.0076498978  -0.0058813275   0.0000008723   0.0124297675
       -0.0004524605   0.0000016123  -0.0655823459  -0.0485800108   0.0000112894
       -0.3408180308   0.0929625118  -0.0001498355  -0.1640764608  -0.1293377855
        0.0000255514  -0.0113684183   0.0277519170  -0.0000255935  -0.0020342830
       -0.0039238360  -0.0000022205   0.0000722069  -0.0004792947   0.0000000378
       -0.0000111021  -0.0000962554   0.0000021830  -0.0000403768  -0.0000940674
        0.0000024900  -0.0000427887  -0.0001331792   0.0000006003  -0.0000781426
       -0.0000222971   0.0000000596  -0.0000840777   0.0000359321  -0.0000011349
       -0.0000351035   0.0001232511  -0.0000014427  -0.0000943464   0.0000962718
       -0.0000023406   0.0002783603  -0.0001812624   0.0000020865  -0.0105189981
        0.0042352957  -0.0000102893
        0.0176637842   0.6400126136  -0.0003808155   0.0991205993  -0.2858309675
        0.0002259271  -0.0530920407  -0.0624337856   0.0000182074   0.0350016950
       -0.0146823309   0.0000261003  -0.0072354676  -0.0054825607   0.0000017197
        0.0024633804  -0.0030637589   0.0000012700   0.0017575060   0.0013781300
       -0.0000018319  -0.0018217141   0.0009767513   0.0000001478   0.0024154255
       -0.0004124116  -0.0000008799  -0.0025852675   0.0011800319   0.0000005746
        0.0015502653  -0.0003583103   0.0000018168  -0.0007391530   0.0015031137
       -0.0000003515  -0.0011672103  -0.0012200081  -0.0000001116   0.0016544703
        0.0002023950  -0.0000002072  -0.0030891155  -0.0009023266   0.0000013848
        0.0020621411  -0.0008530796   0.0000004019  -0.0027542330  -0.0002973714
       -0.0000008218   0.0037663546   0.0056201293  -0.0000011096  -0.0139664053
       -0.0050124587   0.0000012352   0.0011859184   0.0352541303  -0.0000258569
        0.0173154555  -0.1062176261   0.0000616231  -0.1291348797  -0.1817866294
        0.0000450382   0.0041933280  -0.0075118839   0.0000065178  -0.0032964960
       -0.0023594478   0.0000054773   0.0000155919   0.0009884706   0.0000000752
        0.0000110224   0.0001839537  -0.0000015615   0.0000533044   0.0000899372
       -0.0000018399   0.0000553363   0.0001497921  -0.0000007599   0.0001035781
        0.0000436449  -0.0000006369   0.0001220702  -0.0000552609   0.0000000711
        0.0000100792  -0.0001299028   0.0000004386   0.0000382312  -0.0001045775
        0.0000011307  -0.0000161637  -0.0001488309  -0.0000017902   0.0283386093
       -0.0087195641   0.0000194168
        0.0002127564  -0.0003808155   0.1123966312  -0.0000964016   0.0001875820
       -0.0483325617   0.0000516761   0.0000401650   0.0014076564  -0.0000245004
        0.0000221445  -0.0053630048   0.0000179791  -0.0000048578  -0.0001642314
       -0.0000245778  -0.0000074766   0.0002010521   0.0000148117   0.0000061871
        0.0000999106  -0.0000145929   0.0000098375   0.0000209974   0.0000015004
       -0.0000126881  -0.0000585935  -0.0000035382   0.0000022055  -0.0000639298
        0.0000049465   0.0000005348   0.0000743702  -0.0000002201   0.0000023551
       -0.0000053920  -0.0000011021  -0.0000017425   0.0000076424   0.0000040756
       -0.0000030578   0.0000066189   0.0000024545   0.0000003059   0.0001094341
       -0.0000032979  -0.0000100822   0.0000141397   0.0000067305   0.0000076660
       -0.0007738353  -0.0000140989  -0.0000030960   0.0001891939   0.0000047363
        0.0000125590   0.0062037650  -0.0000168276  -0.0000423459   0.0016048619
       -0.0001114290   0.0000982023  -0.0443150234   0.0000270485   0.0000420921
       -0.0334568598  -0.0000104654   0.0000219745   0.0013698959  -0.0000038562
        0.0000061246   0.0083104386   0.0000000650  -0.0000000824  -0.0001655231
        0.0000004947  -0.0000000719   0.0000067072   0.0000004472  -0.0000004014
       -0.0000371120  -0.0000003861  -0.0000013719   0.0000028516  -0.0000007934
       -0.0000006153  -0.0000142537  -0.0000010144  -0.0000001230  -0.0000022450
       -0.0000005747   0.0000009545  -0.0000086112   0.0000007054   0.0000020415
       -0.0000634899   0.0000005001  -0.0000016426  -0.0001503737  -0.0000232512
        0.0000075391   0.0009488731
       -0.1108773036   0.0991205993  -0.0000964016   0.6776017236   0.0099812091
        0.0002972929  -0.2091003558  -0.1651710459   0.0000170520  -0.0569745772
       -0.0139821871  -0.0000213565  -0.0006855269   0.0053246364  -0.0000075947
       -0.0032062742  -0.0008687729  -0.0000017537   0.0002940679   0.0000350718
        0.0000020296  -0.0003772716   0.0001481092  -0.0000004229  -0.0007772652
       -0.0007070802   0.0000001295   0.0005297223  -0.0000758177  -0.0000001999
       -0.0004238276   0.0000722333  -0.0000026654   0.0001338776  -0.0003232525
        0.0000006166   0.0002309921   0.0001080658   0.0000006434  -0.0001604781
       -0.0001449914  -0.0000005614   0.0002442966  -0.0000562282  -0.0000008536
        0.0006758911  -0.0006984572  -0.0000005834  -0.0005804351   0.0019165476
        0.0000003816   0.0013108915   0.0004870305  -0.0000001162  -0.0032086570
       -0.0006129763  -0.0000008505   0.0037290025  -0.0097870281   0.0000134354
       -0.0123291768   0.0331168195  -0.0000301518   0.0047583372  -0.0192664894
        0.0000152442  -0.2908032557   0.0547617618  -0.0001788488   0.0055861877
        0.0053192860  -0.0000000725  -0.0001621033  -0.0002204978  -0.0000005607
       -0.0000207837   0.0000027373   0.0000010069  -0.0000383068  -0.0000159899
        0.0000014693  -0.0000270612  -0.0000463248   0.0000003929  -0.0000046696
        0.0000109751   0.0000002324  -0.0000177245  -0.0000002453  -0.0000001738
       -0.0000072427   0.0000427565  -0.0000002403  -0.0000219668  -0.0000095430
       -0.0000009803   0.0002416933  -0.0002134074   0.0000021861  -0.0055324200
        0.0017524959  -0.0000077246
        0.0186175896  -0.2858309675   0.0001875820   0.0099812091   0.6370382069
       -0.0003589143  -0.0891881081  -0.2339094375   0.0000725387  -0.0680553546
        0.0296325603  -0.0000564817   0.0118860015   0.0089650632   0.0000007604
       -0.0012787416   0.0038547695   0.0000010815  -0.0026367832  -0.0023523013
        0.0000032195   0.0028434971  -0.0016434119  -0.0000004437  -0.0037429311
        0.0008840621   0.0000012206   0.0039579959  -0.0016197183  -0.0000011495
       -0.0024249886   0.0004621693  -0.0000034790   0.0011343672  -0.0022286717
        0.0000001979   0.0016319634   0.0017640294   0.0000002521  -0.0023048722
       -0.0002897780  -0.0000006179   0.0041491406   0.0012199424  -0.0000022593
       -0.0025464641   0.0008220226  -0.0000005990   0.0027527902   0.0005705956
        0.0000006498  -0.0047852875  -0.0043181018   0.0000010303   0.0084769652
        0.0012297814   0.0000025569  -0.0209590831  -0.0439210892   0.0000248797
        0.0911931582  -0.0040800987   0.0000463523   0.0044867706  -0.0240809616
        0.0000162343   0.0541982482  -0.0559085424   0.0000486091  -0.0185476592
       -0.0253022114   0.0000060796   0.0004858230  -0.0015638695   0.0000004437
       -0.0000390460  -0.0001553816   0.0000026592  -0.0000438170  -0.0000964259
        0.0000028123  -0.0000644146  -0.0001810591   0.0000007611  -0.0001329879
       -0.0000323460   0.0000002562  -0.0001388887   0.0000739854  -0.0000007343
       -0.0000236705   0.0001976391  -0.0000008979  -0.0000737404   0.0001537574
       -0.0000017460  -0.0000848967   0.0000448583   0.0000031656   0.0012762153
        0.0006009304   0.0000039798
       -0.0000522579   0.0002259271  -0.0483325617   0.0002972929  -0.0003589143
        0.1143118101  -0.0000248224   0.0000401111  -0.0415721903   0.0000056899
       -0.0000313921  -0.0011574301  -0.0000170438   0.0000066672   0.0046265506
        0.0000130616   0.0000046156   0.0013545792  -0.0000089910  -0.0000035512
       -0.0001940296   0.0000089787  -0.0000061390  -0.0003193776  -0.0000008916
        0.0000076999  -0.0000369316   0.0000021243  -0.0000015142   0.0000520731
       -0.0000030732  -0.0000006033  -0.0000167412  -0.0000000385  -0.0000016488
       -0.0000199169   0.0000003961   0.0000012179   0.0000127432  -0.0000023558
        0.0000013146   0.0000128000  -0.0000012524  -0.0000001927  -0.0000224259
        0.0000018222   0.0000056585   0.0000072493  -0.0000042090  -0.0000042541
       -0.0000190115   0.0000092566   0.0000012444   0.0001707892  -0.0000017821
       -0.0000050950  -0.0001584409   0.0000096569   0.0000195778  -0.0050761216
       -0.0000635173   0.0000202817   0.0013769326  -0.0000005850   0.0000070978
        0.0005095622  -0.0001767616   0.0000459621  -0.0343159428   0.0000157571
        0.0000188819   0.0000260489  -0.0000004660   0.0000008131   0.0002875917
       -0.0000002527   0.0000000222   0.0000196810  -0.0000001349   0.0000001281
        0.0000219946   0.0000002752   0.0000006150  -0.0000300853   0.0000005279
        0.0000001675  -0.0000132015   0.0000004986  -0.0000001786   0.0000084614
        0.0000001492  -0.0000006366   0.0000233055  -0.0000003717  -0.0000009830
        0.0000371373  -0.0000000533   0.0000007750  -0.0000430202  -0.0000066268
        0.0000063242   0.0084681189
        0.0487609539  -0.0530920407   0.0000516761  -0.2091003558  -0.0891881081
       -0.0000248224   0.6376253608   0.0184164724   0.0002846426  -0.2735069644
        0.0392141762  -0.0001482633  -0.0565911266  -0.0198226430  -0.0000194286
        0.0021474319  -0.0071311326   0.0000001306  -0.0000419998   0.0023402247
       -0.0000041992  -0.0016784567   0.0008088129   0.0000002670   0.0031773217
        0.0003218719  -0.0000008768  -0.0027185891   0.0008841820   0.0000010934
        0.0017976928  -0.0003904084   0.0000030511  -0.0007434005   0.0015557735
       -0.0000004217  -0.0011749156  -0.0009327275  -0.0000002286   0.0013070307
        0.0004088705   0.0000005408  -0.0023915507  -0.0004578854   0.0000018223
        0.0000218340   0.0007997649   0.0000011599  -0.0000518988  -0.0033971244
        0.0000002656   0.0000794353   0.0014111937   0.0000003132   0.0006128151
        0.0019378341  -0.0000037566  -0.0089874959   0.0608133953  -0.0000543162
       -0.0492818489  -0.0120266692  -0.0000130436   0.0005861480   0.0021253041
       -0.0000032793  -0.0235044267  -0.0210934867   0.0000019638  -0.0672413958
        0.0729370308  -0.0000715579   0.0011088605   0.0032810037   0.0000004958
        0.0001001127   0.0004186230  -0.0000016352  -0.0001035431   0.0000823543
       -0.0000020637   0.0000899073   0.0001776961  -0.0000006092   0.0000938739
        0.0000287282  -0.0000003350   0.0001237147  -0.0000552755   0.0000004015
        0.0000061608  -0.0001546366   0.0000006375   0.0000567905  -0.0000699467
        0.0000016754  -0.0002052349   0.0000526113  -0.0000029232  -0.0003722413
       -0.0002038390   0.0000016240
        0.0017242269  -0.0624337856   0.0000401650  -0.1651710459  -0.2339094375
        0.0000401111   0.0184164724   0.6801558290  -0.0003635849   0.0916888634
       -0.1016428129   0.0000850976  -0.0332782742   0.0025912516  -0.0000168948
       -0.0001407675  -0.0029489156   0.0000017439  -0.0024331036  -0.0000364286
       -0.0000016876   0.0003685589  -0.0005895835   0.0000005228   0.0007515678
        0.0007529222  -0.0000002965  -0.0006294729   0.0001436635   0.0000002610
        0.0005004163   0.0000496899   0.0000020813  -0.0001976884   0.0004302657
       -0.0000003370  -0.0002724594  -0.0003168117  -0.0000004215   0.0003879783
       -0.0000285177   0.0000001264  -0.0005942291   0.0000060880   0.0000006841
        0.0000128372   0.0000495953   0.0000001376  -0.0005059098  -0.0008869318
       -0.0000011833  -0.0000160858  -0.0006290971  -0.0000002891   0.0026491998
       -0.0057333171   0.0000070217   0.0287725854   0.0002969773   0.0000112039
       -0.0192013931  -0.0012267253  -0.0000080299   0.0018057583  -0.0052622567
        0.0000086344   0.0027297746   0.0037348302  -0.0000014537   0.0741929209
       -0.2750609464   0.0002015181  -0.0023267858   0.0020163354  -0.0000028120
       -0.0000023541   0.0000777674  -0.0000009519  -0.0001614512  -0.0000187746
       -0.0000011470   0.0000231869  -0.0000072332  -0.0000001850  -0.0000409122
       -0.0000176161  -0.0000000360  -0.0000261237   0.0000169011   0.0000002124
        0.0000007615   0.0000109436   0.0000001505  -0.0000085798   0.0000655442
        0.0000005112   0.0014019595  -0.0004322119  -0.0000013651  -0.0004204317
        0.0007827989   0.0000004922
        0.0000203022   0.0000182074   0.0014076564   0.0000170520   0.0000725387
       -0.0415721903   0.0002846426  -0.0003635849   0.1064266499  -0.0001897389
        0.0000584804  -0.0481145224  -0.0000215498  -0.0000090102   0.0021186943
        0.0000085224   0.0000022682   0.0031538479  -0.0000058624  -0.0000015462
        0.0006885823   0.0000060659  -0.0000037631   0.0002214816  -0.0000004468
        0.0000052923   0.0000060823   0.0000019149  -0.0000012972  -0.0000335919
       -0.0000022332  -0.0000003653   0.0000889133   0.0000000467  -0.0000013882
        0.0000195174   0.0000004444   0.0000011076  -0.0000217744  -0.0000021974
        0.0000012654  -0.0000043829  -0.0000002567  -0.0000000202   0.0001462426
        0.0000003570   0.0000053182  -0.0000425376  -0.0000014127  -0.0000052240
       -0.0011741585   0.0000043690   0.0000013360  -0.0001302166  -0.0000004818
        0.0000041911   0.0057521948  -0.0000264530   0.0000284365   0.0014873677
       -0.0000086170  -0.0000072098  -0.0034754897  -0.0000035009   0.0000095941
        0.0064011021  -0.0000144435  -0.0000134413   0.0007353032  -0.0000687593
        0.0001994167  -0.0317483566   0.0000028166  -0.0000006920  -0.0016205341
       -0.0000000059   0.0000002235  -0.0000589183  -0.0000000907   0.0000000926
       -0.0001398743   0.0000002397   0.0000005549   0.0000194748   0.0000004432
        0.0000001603  -0.0000020545   0.0000004528  -0.0000001270  -0.0000068874
        0.0000001582  -0.0000006031  -0.0000156642  -0.0000004458  -0.0000010430
       -0.0000388344  -0.0000014432   0.0000010007  -0.0003665870   0.0000001115
       -0.0000001693  -0.0001065355
       -0.0298151739   0.0350016950  -0.0000245004  -0.0569745772  -0.0680553546
        0.0000056899  -0.2735069644   0.0916888634  -0.0001897389   0.6745268337
       -0.0043263216   0.0003022281  -0.1796394467  -0.1035470499  -0.0000449150
       -0.0424048128  -0.0140088831  -0.0000084852  -0.0037023627  -0.0003422918
        0.0000042706  -0.0015631093  -0.0014056669  -0.0000050391  -0.0023081228
       -0.0027661617   0.0000010900   0.0013592949  -0.0001789120  -0.0000005195
       -0.0010618607   0.0002808468  -0.0000068592   0.0002857659  -0.0010103025
        0.0000016884   0.0009119799   0.0001635285   0.0000012351  -0.0005633697
       -0.0005305494  -0.0000018957   0.0013572074  -0.0004173658  -0.0000025239
        0.0022176541  -0.0021414910  -0.0000023264  -0.0013405955   0.0067179023
        0.0000009045   0.0038873954  -0.0044518394   0.0000012884  -0.0180026641
        0.0298297225  -0.0000219677  -0.1050465426   0.0437621803  -0.0000293257
        0.0434692038  -0.0053671665   0.0000219497  -0.0000334415   0.0008422220
       -0.0000042389  -0.0015788841  -0.0030083165  -0.0000048637  -0.0108796178
        0.0053671675  -0.0000070450   0.0090269567   0.0006195120   0.0000060827
        0.0000182654  -0.0001478036   0.0000044355  -0.0002840578   0.0001128916
        0.0000047628  -0.0001105152  -0.0001712792   0.0000013909  -0.0000469945
        0.0000115591   0.0000007899  -0.0000985256   0.0000318865  -0.0000007769
        0.0000183080   0.0001594517  -0.0000013319   0.0000320907  -0.0001095419
       -0.0000031834  -0.0057620721   0.0011615149   0.0000028829  -0.0023872450
       -0.0037646467  -0.0000011529
        0.0224693204  -0.0146823309   0.0000221445  -0.0139821871   0.0296325603
       -0.0000313921   0.0392141762  -0.1016428129   0.0000584804  -0.0043263216
        0.6331335594  -0.0002623716  -0.0988366376  -0.2027488370   0.0000089614
       -0.0216699193   0.0178768353  -0.0000141080   0.0019147291  -0.0019217373
        0.0000081719   0.0006116118  -0.0008662909  -0.0000009700  -0.0028462260
       -0.0018385560   0.0000017871   0.0018897683  -0.0009955369  -0.0000010883
       -0.0011937180   0.0001775668  -0.0000042060   0.0003721455  -0.0014479459
        0.0000009650   0.0012013137   0.0008873453   0.0000006481  -0.0015441313
       -0.0001320080  -0.0000008502   0.0033667342   0.0005184201  -0.0000020883
       -0.0014141563   0.0008722840  -0.0000015025   0.0051709988   0.0019378023
        0.0000008960  -0.0101589983  -0.0176095096   0.0000036851   0.0477828904
       -0.0069429750   0.0000250577   0.0594522914  -0.2438327777   0.0001399869
       -0.0343068582  -0.0449708065   0.0000068026   0.0007337877   0.0002299827
       -0.0000004535  -0.0036590470  -0.0027590468   0.0000034842   0.0279243043
       -0.0107512802   0.0000202278  -0.0163756369  -0.0299379237   0.0000046944
       -0.0000284096  -0.0003134822   0.0000030749   0.0002689224   0.0000995750
        0.0000026044  -0.0000911496  -0.0001112410   0.0000009895  -0.0000424839
        0.0000058228   0.0000003862  -0.0000758222   0.0000364767  -0.0000007406
        0.0000005379   0.0001259574  -0.0000010068  -0.0000445094   0.0000489742
       -0.0000018904   0.0007620881   0.0000768393   0.0000045458  -0.0025394079
       -0.0021549032   0.0000050743
       -0.0000271331   0.0000261003  -0.0053630048  -0.0000213565  -0.0000564817
       -0.0011574301  -0.0001482633   0.0000850976  -0.0481145224   0.0003022281
       -0.0002623716   0.1263521779  -0.0000297342   0.0000222705  -0.0325527211
       -0.0000130517  -0.0000172848  -0.0041930675  -0.0000037417   0.0000021316
        0.0026638713  -0.0000024481  -0.0000007523   0.0020591096   0.0000001957
       -0.0000016181   0.0001705391  -0.0000003935   0.0000007164  -0.0003293357
       -0.0000002737  -0.0000000068   0.0000403721  -0.0000000385   0.0000001016
        0.0000232439  -0.0000000052  -0.0000003247   0.0000005049   0.0000002635
       -0.0000001786   0.0000198584  -0.0000008940  -0.0000006191   0.0000909638
        0.0000020166  -0.0000012106  -0.0001378585  -0.0000024822   0.0000032491
        0.0001982445   0.0000084287   0.0000029419  -0.0029821184  -0.0000266402
        0.0000162320   0.0013904699  -0.0000614548   0.0001193237  -0.0559364865
        0.0000465950   0.0000272398  -0.0009246989  -0.0000006630   0.0000006268
        0.0003368019  -0.0000033401   0.0000058924   0.0086446760  -0.0000247165
        0.0000101836   0.0009107305   0.0000122596   0.0000120631  -0.0024968932
       -0.0000000886   0.0000000999  -0.0000930618  -0.0000004334   0.0000000876
       -0.0006013377   0.0000000145   0.0000000571  -0.0000165685   0.0000000665
        0.0000000164  -0.0000161718   0.0000000476  -0.0000000195   0.0000013527
        0.0000000511  -0.0000000776   0.0000202931  -0.0000000181  -0.0000002803
       -0.0000886622  -0.0000029955   0.0000025897   0.0052865960  -0.0000020009
        0.0000042046   0.0067941338
        0.0030777418  -0.0072354676   0.0000179791  -0.0006855269   0.0118860015
       -0.0000170438  -0.0565911266  -0.0332782742  -0.0000215498  -0.1796394467
       -0.0988366376  -0.0000297342   0.6761729153   0.0000419115   0.0003165114
       -0.2823331680   0.0283930567  -0.0001283026  -0.0641606322  -0.0161489568
       -0.0000283224   0.0144572215  -0.0114171261  -0.0000001504  -0.0048866343
        0.0142805439   0.0000007959   0.0090639974  -0.0039284487  -0.0000020758
       -0.0043620618   0.0007106113  -0.0000058587   0.0027447227  -0.0035194766
        0.0000000919   0.0020578816   0.0041050206   0.0000013696  -0.0041239960
       -0.0001419831  -0.0000010562   0.0069503947   0.0040281462  -0.0000019792
       -0.0102343243   0.0048106324   0.0000020101   0.0005470216  -0.0111797803
       -0.0000034057  -0.0239632998   0.0377522905  -0.0000265878  -0.0137766499
       -0.0051258631  -0.0000029835   0.0163147900  -0.0141155746   0.0000199132
       -0.0046056802   0.0021229007  -0.0000108496  -0.0000022280  -0.0000604313
       -0.0000009148  -0.0016631662  -0.0011559300  -0.0000010221   0.0017662043
       -0.0012888618  -0.0000004694  -0.0819561891   0.0968994211  -0.0000876220
        0.0020881552   0.0020290721   0.0000050261  -0.0013721937  -0.0001221593
        0.0000033373   0.0000168507  -0.0002627415   0.0000006938  -0.0002810401
       -0.0000687490   0.0000005583  -0.0001803892   0.0001174995  -0.0000006640
       -0.0001369100   0.0003706292  -0.0000009568  -0.0000420202   0.0004937325
       -0.0000027044  -0.0003601490  -0.0005541550   0.0000064208   0.0000989354
        0.0003991467  -0.0000004541
        0.0024762015  -0.0054825607  -0.0000048578   0.0053246364   0.0089650632
        0.0000066672  -0.0198226430   0.0025912516  -0.0000090102  -0.1035470499
       -0.2027488370   0.0000222705   0.0000419115   0.7023940682  -0.0002484661
        0.0387052804  -0.1010019302   0.0000379514  -0.0282291136   0.0077642275
       -0.0000210754  -0.0049470216  -0.0024337196   0.0000002495   0.0029320942
       -0.0001284333  -0.0000014887  -0.0028879091   0.0009875788   0.0000010542
        0.0016607671  -0.0003356289   0.0000070518  -0.0007397756   0.0016015731
       -0.0000012830  -0.0011614418  -0.0010026752  -0.0000013839   0.0014782052
        0.0004615482   0.0000015063  -0.0025246751  -0.0008779519   0.0000018906
        0.0019155540   0.0004516795   0.0000010540   0.0005206906  -0.0090714967
        0.0000016894   0.0366218523  -0.0068492713   0.0000184131  -0.0122899910
        0.0021185976  -0.0000072706  -0.0110328290  -0.0549292510   0.0000087926
        0.0000808372  -0.0066828340   0.0000088831   0.0001343768   0.0000625575
        0.0000013787   0.0004369429   0.0002392391   0.0000011571   0.0020837439
        0.0015055952   0.0000017129   0.0973327220  -0.3384436989   0.0001846324
       -0.0020164870   0.0013134183  -0.0000055073  -0.0014348018  -0.0000003656
       -0.0000038551   0.0001700036   0.0001931736  -0.0000012512   0.0000837361
       -0.0000033916  -0.0000005676   0.0001200110  -0.0000452664   0.0000008765
        0.0000103816  -0.0002011951   0.0000012704   0.0000490965  -0.0000862775
        0.0000027574  -0.0004089260   0.0009271510  -0.0000054472  -0.0011363804
       -0.0012519376   0.0000002049
       -0.0000016623   0.0000017197  -0.0001642314  -0.0000075947   0.0000007604
        0.0046265506  -0.0000194286  -0.0000168948   0.0021186943  -0.0000449150
        0.0000089614  -0.0325527211   0.0003165114  -0.0002484661   0.0592006432
       -0.0001340870   0.0000501573  -0.0321185990  -0.0000409370  -0.0000149774
        0.0036163178   0.0000189950  -0.0000138141   0.0043403572  -0.0000066072
        0.0000156962   0.0000494416   0.0000094048  -0.0000040606  -0.0007838117
       -0.0000066302   0.0000003345  -0.0000145909   0.0000024598  -0.0000050948
        0.0000631336   0.0000029263   0.0000044669  -0.0000203287  -0.0000061537
        0.0000007143  -0.0001621284   0.0000063519   0.0000032368  -0.0001377262
       -0.0000076411   0.0000080900   0.0005331029  -0.0000006918  -0.0000065792
        0.0041851734  -0.0000171451   0.0000112584   0.0008495920   0.0000063441
       -0.0000062608  -0.0029853068   0.0000047724   0.0000224417   0.0026999749
       -0.0000025087   0.0000072129   0.0051462028   0.0000007169  -0.0000007252
       -0.0011662916  -0.0000007938  -0.0000005422   0.0002449911   0.0000015789
       -0.0000028486  -0.0015373182  -0.0000755463   0.0001825646  -0.0141559283
        0.0000018301   0.0000015636  -0.0015917529  -0.0000004421   0.0000004005
        0.0001083445   0.0000001231   0.0000001851  -0.0000310604   0.0000001331
        0.0000000418  -0.0000057283   0.0000002036  -0.0000000104   0.0000212372
        0.0000000302  -0.0000000666  -0.0000349994  -0.0000002321  -0.0000003669
       -0.0000022945   0.0000001148  -0.0000001909  -0.0003289741   0.0000005204
        0.0000010924  -0.0000099651
       -0.0007424783   0.0024633804  -0.0000245778  -0.0032062742  -0.0012787416
        0.0000130616   0.0021474319  -0.0001407675   0.0000085224  -0.0424048128
       -0.0216699193  -0.0000130517  -0.2823331680   0.0387052804  -0.0001340870
        0.6533085885   0.0601447779   0.0002294170  -0.1561178378  -0.1425276373
       -0.0000518560  -0.0699005920  -0.0011248240  -0.0000132177   0.0144142532
       -0.0258896114  -0.0000035317  -0.0165104770   0.0069031318   0.0000028603
        0.0082148361  -0.0010121986   0.0000118999  -0.0041832696   0.0066389695
       -0.0000010152  -0.0039597402  -0.0062434791  -0.0000021182   0.0062560199
        0.0002943663   0.0000025949  -0.0130150268  -0.0054038741   0.0000062080
        0.0086618135  -0.0064795821  -0.0000018256  -0.0186540658   0.0413544351
       -0.0000073095  -0.0823331027   0.0459624911  -0.0000092106   0.0133433132
       -0.0134458293   0.0000080877  -0.0011280906   0.0056348649  -0.0000232237
        0.0010008114  -0.0004021436   0.0000077798   0.0002497847   0.0001759102
        0.0000043083   0.0004469145  -0.0001827287   0.0000029694  -0.0000745205
       -0.0001302084   0.0000056930  -0.0122528986   0.0123867078   0.0000023502
        0.0045989791   0.0073315240  -0.0000028301  -0.0051330738   0.0011359233
       -0.0000103423   0.0002734440   0.0005550911  -0.0000024315   0.0004098129
        0.0000872725  -0.0000015316   0.0002858272  -0.0001775563   0.0000015853
        0.0001919488  -0.0006330522   0.0000024541   0.0000472395  -0.0007318361
        0.0000058807  -0.0022248683  -0.0030035961  -0.0000124498   0.0003232786
        0.0007034594  -0.0000010626
        0.0031405661  -0.0030637589  -0.0000074766  -0.0008687729   0.0038547695
        0.0000046156  -0.0071311326  -0.0029489156   0.0000022682  -0.0140088831
        0.0178768353  -0.0000172848   0.0283930567  -0.1010019302   0.0000501573
        0.0601447779   0.6398584787  -0.0000580025  -0.0999880993  -0.2560870767
       -0.0000459560  -0.0496915955   0.0282094861  -0.0000116425   0.0042887465
       -0.0321784923   0.0000006986  -0.0082699744   0.0030545061   0.0000008852
        0.0026236682  -0.0005166234   0.0000067471  -0.0015728520   0.0018450548
       -0.0000006890  -0.0007230591  -0.0023516584  -0.0000015613   0.0017851314
        0.0002620138   0.0000016018  -0.0042350244  -0.0041456438   0.0000029566
        0.0078243388  -0.0048586223  -0.0000012492   0.0271205074   0.0102432168
        0.0000118347   0.0572892879  -0.1983351282   0.0000404140  -0.0315395402
       -0.0545026871   0.0000046938   0.0173056755  -0.0027728569  -0.0000069861
       -0.0054200973  -0.0045812513   0.0000042980   0.0002667206   0.0000982688
        0.0000023098  -0.0000315132  -0.0001973637   0.0000016144   0.0001574094
       -0.0003624026   0.0000026578   0.0294497521  -0.0070396549   0.0000193224
       -0.0159328514  -0.0284254231  -0.0000028903   0.0017158077   0.0010527778
       -0.0000029798   0.0000412091   0.0003030166  -0.0000012923   0.0002352410
        0.0000403657  -0.0000010268   0.0001550454  -0.0000669797   0.0000004934
        0.0001610472  -0.0003370929   0.0000010342   0.0001533157  -0.0006695116
        0.0000024478  -0.0028133202  -0.0026657640  -0.0000013652  -0.0000245890
        0.0004100475  -0.0000006481
        0.0000000059   0.0000012700   0.0002010521  -0.0000017537   0.0000010815
        0.0013545792   0.0000001306   0.0000017439   0.0031538479  -0.0000084852
       -0.0000141080  -0.0041930675  -0.0001283026   0.0000379514  -0.0321185990
        0.0002294170  -0.0000580025   0.1229289258  -0.0000367903  -0.0000456708
       -0.0424774332  -0.0000266862   0.0000058198  -0.0027330987   0.0000095441
       -0.0000145423  -0.0026605043  -0.0000086919   0.0000032108   0.0003942010
        0.0000059641   0.0000002176   0.0000237836  -0.0000024357   0.0000042111
        0.0000409710  -0.0000019388  -0.0000041308   0.0000951012   0.0000037490
        0.0000002428  -0.0001112610  -0.0000057130  -0.0000035893  -0.0003945460
        0.0000049344  -0.0000027660   0.0030723954   0.0000006178   0.0000098562
        0.0015190002  -0.0000283140   0.0000428065  -0.0571022632   0.0000139471
        0.0000163422   0.0004651218  -0.0000010036   0.0000029330  -0.0049507096
        0.0000010438   0.0000004329   0.0001594448   0.0000000449  -0.0000001232
       -0.0001421544   0.0000003390  -0.0000004572  -0.0004813073  -0.0000002065
       -0.0000000069  -0.0001588584  -0.0000175884   0.0000083693  -0.0010026038
        0.0000019660   0.0000030359  -0.0007035196  -0.0000026101  -0.0000005061
        0.0063330088   0.0000000380  -0.0000000111   0.0000051521  -0.0000000486
       -0.0000000260  -0.0000121647  -0.0000000323   0.0000000389   0.0000171506
        0.0000000818  -0.0000001332   0.0000526250  -0.0000000675   0.0000000579
       -0.0001685213  -0.0000013515   0.0000043918   0.0096808615   0.0000001967
        0.0000000599  -0.0000866099
       -0.0026965485   0.0017575060   0.0000148117   0.0002940679  -0.0026367832