34
 energy: -52.359450584031 gnorm: 0.000023865690 xtb: 6.7.1 (edcfbbe)
C           -5.16087579251353       -1.53190718567900       -0.00222290041149
C           -5.57646429222919       -0.20471570856573       -0.00285947596222
C           -4.63741297861094        0.81684236291734       -0.00284190931189
C           -3.28245069408433        0.51743371692048       -0.00222447164070
N           -2.34059947990143        1.51411689209994       -0.00211898931123
C           -0.98178309354196        1.28834682834749       -0.00172648387743
C           -0.09943433167126        2.37411049094032       -0.00167597911777
C            1.27391032686142        2.18339573651797       -0.00152079267646
C            1.76309427447837        0.88306287858925       -0.00148237593124
C            3.11996326243268        0.36824685245444       -0.00169066069346
C            4.34889826947022        0.98696748563164       -0.00200034842859
C            5.49951413833116        0.19627728092917       -0.00238118138549
C            5.41525692283788       -1.18990105183815       -0.00242912056684
C            4.18632940225136       -1.83104539240717       -0.00207963681341
C            3.02556333431680       -1.05825033105532       -0.00171457784357
C            1.65820802207395       -1.41805820040617       -0.00146654364961
C            0.88522155776340       -0.23369508225919       -0.00138030867506
C           -0.52093756054179       -0.04908279798654       -0.00143323808213
C           -1.45944529738098       -1.09936134498154       -0.00129864558099
C           -2.83762865476076       -0.83488267358383       -0.00168858953424
C           -3.81946583381213       -1.84583208082474       -0.00165222123522
H           -5.89733341902296       -2.32249287623466       -0.00219159027318
H           -6.62902184972121        0.03482875053821       -0.00336096501484
H           -4.95499579315492        1.85020507387512       -0.00330930170876
H           -2.66323162825914        2.47250972492036       -0.00246615177790
H           -0.50563044815668        3.37606404956294       -0.00180483814515
H            1.94284570743123        3.02984141619162       -0.00149879896218
H            4.43204368895807        2.06440442829755       -0.00198611735106
H            6.47010787845426        0.67089671557873       -0.00266821653724
H            6.32334239722343       -1.77591609676087       -0.00276385689404
H            4.12702637419486       -2.91017154956689       -0.00213230412740
H            1.28132290238017       -2.42415228312800       -0.00142359154393
H           -1.11888412914359       -2.12165369146985       -0.00094882726492
H           -3.49770178277828       -2.87687436624074       -0.00118026822815
