$hessian                                                                        
        0.5205704486   0.0033711456  -0.0211992992  -0.0668548171   0.0050226480
       -0.0227614096  -0.0169959148   0.0062994167  -0.0279841333   0.0032145995
       -0.0006609735   0.0046083212  -0.0000681394  -0.0000105979   0.0003702223
       -0.0002442172   0.0002663051  -0.0001770948   0.0001922570   0.0001908090
        0.0000748684   0.0000695113  -0.0003055521  -0.0002441197  -0.0008420578
        0.0008439561   0.0008200971  -0.0001628811   0.0000990249   0.0000940490
       -0.0000239826  -0.0002125328   0.0002130841   0.0000556352  -0.0001038078
       -0.0000953133  -0.0000106776  -0.0000042975  -0.0000079181   0.0000628601
        0.0000003624  -0.0000140569  -0.0000956695  -0.0000591706   0.0000299329
        0.0000667096   0.0001005642  -0.0000532023   0.0000038592  -0.0000039644
       -0.0000024207  -0.0000289940   0.0000143169  -0.0000048554   0.0000828239
       -0.0000272375   0.0000388119  -0.0000008425   0.0000551401  -0.0000189052
       -0.0000797498  -0.0000396753  -0.0000335982   0.0000544874   0.0000745333
        0.0000325491   0.0000508008   0.0000173638  -0.0000048333   0.0000119353
        0.0000126596  -0.0000343686  -0.0000281107   0.0000508844   0.0000117552
        0.0001894783   0.0004508407  -0.0002704096   0.0002377899  -0.0003357795
        0.0000198222  -0.0004933801  -0.0002607514  -0.0006015285  -0.0003658664
       -0.0001947051   0.0005279543   0.0032973976  -0.0038589565   0.0101996844
       -0.0006806917  -0.0013107035   0.0008180684  -0.0604644074   0.0489825413
        0.0362910606  -0.2797350428   0.0318925307  -0.0147987762  -0.0959189412
       -0.0918358721   0.0376094284   0.0006821700  -0.0004325464  -0.0010033913
       -0.0064433918   0.0011283839  -0.0018348635   0.0007026222   0.0006263832
       -0.0010084555  -0.0000235206   0.0000196149   0.0000924904  -0.0000118467
        0.0000233186  -0.0000175052   0.0000213621  -0.0000242046   0.0000076648
        0.0000206143  -0.0000015464   0.0000067370  -0.0000323470   0.0001705328
        0.0000341890   0.0000017843   0.0000147066  -0.0000039544  -0.0000139397
        0.0000022633   0.0000041013  -0.0000060002  -0.0000024460   0.0000096723
        0.0000111622   0.0000037494  -0.0000127770   0.0000145741   0.0000042301
       -0.0000122080   0.0000146817   0.0000054996  -0.0000081994  -0.0000163672
       -0.0000032077  -0.0000035389  -0.0000002096   0.0000068177  -0.0000171117
        0.0000249655  -0.0000182464   0.0000117696  -0.0000176759  -0.0000134562
        0.0000051000   0.0000470050   0.0000231852   0.0000818878  -0.0000269451
       -0.0000323311  -0.0000090956  -0.0000149072  -0.0000211656   0.0002240216
        0.0033711456   0.5180337060   0.0158542085   0.0064381067  -0.0574722350
        0.0170393526   0.0032768808  -0.0002128347   0.0048673249  -0.0032116616
        0.0001929707  -0.0216762395   0.0009303099  -0.0009319608  -0.0009546867
        0.0004535937  -0.0009087249   0.0009076202  -0.0003729136  -0.0002738648
       -0.0001176511   0.0001402688   0.0002120452   0.0009679418  -0.0006489227
       -0.0013764561  -0.0012781945  -0.0001328529   0.0012784847   0.0002426847
        0.0001433682  -0.0000829690   0.0000144342  -0.0000715873  -0.0001410676
       -0.0000124150  -0.0000187803   0.0000349622  -0.0000096931   0.0000066183
       -0.0000193889  -0.0000046793   0.0000956856   0.0000751021  -0.0000340427
       -0.0000969146  -0.0000420124   0.0000259788   0.0000693507  -0.0000207812
        0.0000010016  -0.0000515987   0.0000184700  -0.0000023871   0.0000197650
       -0.0000071216   0.0000132166  -0.0000267162   0.0000002568   0.0000045493
        0.0000567090   0.0000046884  -0.0000222081  -0.0000537002  -0.0000466433
        0.0001090895   0.0000517862  -0.0000243741  -0.0001076057  -0.0000395240
        0.0000452606  -0.0000113352  -0.0000426759   0.0000288623   0.0000151533
        0.0000483694   0.0004862129  -0.0008290128   0.0004370757  -0.0003670083
        0.0000138077  -0.0008809566  -0.0007052492  -0.0012789132  -0.0012662536
       -0.0002787770   0.0007594726   0.0003375231  -0.0110270735   0.0248616310
        0.0012432974  -0.0018967110   0.0007467781   0.0488127490  -0.1911614849
       -0.1067073824   0.0319181871  -0.0486106517   0.0016530254  -0.0915564377
       -0.2060030025   0.0644111863   0.0002012544   0.0002306355   0.0007142194
        0.0010082180   0.0002287966   0.0002665568  -0.0005901368   0.0003668824
       -0.0005144003  -0.0000659967   0.0002285527  -0.0004188200   0.0000042296
       -0.0000937200  -0.0000953129  -0.0000426024   0.0001337516  -0.0001813575
       -0.0000008305  -0.0000374549  -0.0000446049   0.0000051114   0.0000785258
       -0.0000209082  -0.0000005988   0.0000160213   0.0000059139  -0.0000078389
       -0.0000058783  -0.0000012531  -0.0000046842   0.0000010713   0.0000009077
        0.0000114476   0.0000052624  -0.0000013756   0.0000118040  -0.0000130063
       -0.0000051273   0.0000169243   0.0000162303  -0.0000275430  -0.0000240057
       -0.0000072396   0.0000159255  -0.0000013609  -0.0000015606  -0.0000006315
        0.0000061116   0.0000241395   0.0000290220  -0.0000059011  -0.0000196571
       -0.0000083309   0.0000554232   0.0000530182   0.0002505417  -0.0000448884
       -0.0000990238   0.0000398970   0.0000890258   0.0000940238   0.0005346710
       -0.0211992992   0.0158542085   0.4322327067  -0.0325674549   0.0182564487
       -0.1514874558  -0.0070394381   0.0022325658  -0.0082429941  -0.0011933884
       -0.0098444403  -0.0275894029   0.0013444113   0.0016145493  -0.0003324215
        0.0010421555  -0.0016323668   0.0000692812  -0.0008166346  -0.0001902897
        0.0000042656   0.0000200775  -0.0000521569   0.0006120268  -0.0017065262
       -0.0003068154  -0.0000313215   0.0006586860   0.0002215098  -0.0008732893
       -0.0005617746  -0.0001773763   0.0001660782  -0.0003246816   0.0002324161
       -0.0001101728   0.0001837443  -0.0000208044  -0.0000092753  -0.0001086036
        0.0000124465   0.0000206103  -0.0001793674  -0.0002357206   0.0001616661
        0.0002578085   0.0002537199  -0.0001223429  -0.0000670720   0.0000258647
       -0.0000383807   0.0000747689  -0.0000447591   0.0000190482   0.0001463188
       -0.0000229734   0.0000149208  -0.0000009758   0.0001307593  -0.0000648656
       -0.0001571769  -0.0000784491   0.0000288477   0.0001590628   0.0001186428
       -0.0000568082  -0.0000566056  -0.0001132672   0.0000608558  -0.0000193629
       -0.0000424852   0.0000160564  -0.0000336823  -0.0000380471  -0.0000254569
        0.0000449322  -0.0000510478   0.0003233394  -0.0006692653   0.0003014735
        0.0000482867   0.0011996945   0.0010249677   0.0003055576   0.0005498768
       -0.0019515080  -0.0005880990   0.0029136252   0.0147301833  -0.0168347186
       -0.0014953372   0.0002124440   0.0001709898   0.0359478433  -0.1058965180
       -0.1178819048  -0.0147334986   0.0016282962  -0.0430377775   0.0371437266
        0.0637446899  -0.0674379032   0.0010210293  -0.0002017526   0.0006056201
       -0.0009838486   0.0001652462   0.0001057217   0.0009449899  -0.0001086808
        0.0004107266   0.0000389598   0.0001693564  -0.0003146359   0.0000625099
       -0.0000901585   0.0000273910  -0.0000409480   0.0000773525  -0.0000893630
        0.0000114657   0.0000059806   0.0000034781  -0.0000033151   0.0000419473
       -0.0000658125   0.0000060390  -0.0000078561  -0.0000064555   0.0000181447
        0.0000389698  -0.0000140255   0.0000042441  -0.0000078719  -0.0000127254
       -0.0000235002  -0.0000157705   0.0000051818   0.0000003494   0.0000217358
        0.0000374697   0.0000089895  -0.0000164554   0.0000037643   0.0000351335
        0.0000233174   0.0000132111  -0.0000068828   0.0000064291   0.0000195790
        0.0000072800  -0.0000104685  -0.0000149234   0.0000345208   0.0000108307
       -0.0000188520  -0.0000375486   0.0000203933  -0.0000666072   0.0000779427
        0.0000209018   0.0000597143   0.0000678580  -0.0000396076  -0.0001784040
       -0.0668548171   0.0064381067  -0.0325674549   0.5075233317  -0.0033469564
       -0.0210971450  -0.1852741452   0.0154208976  -0.0034245730  -0.0768038129
        0.0314283462   0.0241668510   0.0073397346  -0.0099581976  -0.0084379309
       -0.0018015444  -0.0031326652  -0.0003748008  -0.0004504200  -0.0001195229
       -0.0001508905  -0.0048430581  -0.0004247165   0.0019571719  -0.0141182906
        0.0199541094   0.0169282542   0.0034177448  -0.0007786268  -0.0007748722
       -0.0002681650  -0.0000104603  -0.0001913252   0.0001129989  -0.0001426345
       -0.0000071837   0.0001112153   0.0000557404  -0.0000180671  -0.0000991353
       -0.0000093812   0.0000401516   0.0000299976  -0.0001357109   0.0000213669
        0.0001915009   0.0000177665  -0.0000436431  -0.0002922179   0.0000894268
        0.0000133172   0.0002289863  -0.0000260853  -0.0000004138  -0.0000309727
        0.0000021558  -0.0000447289   0.0000490042   0.0000331120  -0.0000350476
       -0.0000133591   0.0000303085   0.0001141875   0.0002654818  -0.0000745472
       -0.0000602018  -0.0006823918  -0.0009187656   0.0002162850  -0.0001281192
       -0.0000227162   0.0000311462  -0.0001420970  -0.0000190878   0.0000429771
       -0.0042927015   0.0012658942   0.0023430339  -0.0004957779   0.0001320216
       -0.0000594851   0.0000427852   0.0028854031   0.0014004909   0.0074843022
        0.0034733077  -0.0027640518  -0.0947754258  -0.0506567531   0.0224723541
       -0.0228780169  -0.0196810143   0.0104705297   0.0015953602  -0.0008768220
        0.0061854467  -0.0107694843   0.0051886992  -0.0264890963   0.0026923309
       -0.0026352659   0.0116564132  -0.0120192245   0.0048601869   0.0023431870
       -0.0133824915   0.0022172464  -0.0038953999  -0.0192053990  -0.0019076833
        0.0014456902  -0.0004062813  -0.0000177784  -0.0003973597   0.0001554297
       -0.0009446347  -0.0004616397  -0.0000588044   0.0000604309  -0.0002285694
       -0.0006993939   0.0009679561   0.0007826777  -0.0000169374   0.0000867124
        0.0000133826   0.0000398601  -0.0000053314   0.0000131231  -0.0000135533
       -0.0000018252   0.0000027501   0.0000079690   0.0000033536   0.0000137933
        0.0000331583   0.0000182593   0.0000074810  -0.0000096037  -0.0000263704
       -0.0000655281  -0.0000230325   0.0000275462  -0.0000015494   0.0000279386
       -0.0000142557   0.0000260204   0.0000076433   0.0000119058  -0.0000285913
        0.0000050577   0.0000036516   0.0000038209  -0.0000357864  -0.0000242837
        0.0000145590  -0.0000781080   0.0000121913  -0.0003941487   0.0002389022
        0.0007669698  -0.0001015856  -0.0006381649   0.0004603864  -0.0006111786
        0.0050226480  -0.0574722350   0.0182564487  -0.0033469564   0.4609834026
        0.0124174093   0.0156714809  -0.0679566403  -0.0003303017   0.0263022930
       -0.1321104078  -0.0579233984   0.0023548648  -0.0219195930  -0.0146490255
       -0.0040815193   0.0009423511  -0.0033205693   0.0006374566  -0.0002611738
       -0.0001714290  -0.0006884245   0.0018000692  -0.0020631586   0.0125880956
       -0.0036701399  -0.0043166117  -0.0002409122  -0.0032117614  -0.0001797058
       -0.0000664299  -0.0000259730   0.0000249895  -0.0000927639   0.0002107037
        0.0001400564   0.0000872386   0.0000022852   0.0000324067  -0.0000291395
       -0.0000011492   0.0000106317  -0.0000801986  -0.0000921702   0.0000378564
        0.0000805229   0.0001172722  -0.0000753795  -0.0000390803   0.0000192440
        0.0000021394   0.0000280876  -0.0000083789  -0.0000000133   0.0000855849
       -0.0000644289   0.0000105954  -0.0000564273   0.0000093265  -0.0000108838
       -0.0000096091   0.0000005777   0.0000447581   0.0000714800  -0.0000179780
       -0.0001720321   0.0000954700   0.0001792157   0.0001340549   0.0000050283
       -0.0000721243  -0.0000061872   0.0001168956   0.0000015244  -0.0000231772
        0.0017380361   0.0006147329   0.0006109147  -0.0006995414  -0.0004078500
        0.0001381891   0.0040710805  -0.0023133170   0.0015858507  -0.0110809056
       -0.0286578359   0.0084906562  -0.0440215415  -0.1390886602   0.0316381354
       -0.0115835316   0.0019903658   0.0017279877  -0.0047615510   0.0027061242
       -0.0206680660   0.0018507945  -0.0012921612   0.0040094772   0.0047446392
       -0.0058677153   0.0235530371   0.0245370322  -0.0049479623  -0.0011510856
        0.0057554518  -0.0010032323   0.0008471708  -0.0250586246   0.0017159499
        0.0003503093   0.0012143999   0.0000928138   0.0013637551   0.0003532508
       -0.0006372856  -0.0004592098   0.0001160002  -0.0003316203   0.0006932656
       -0.0001162522  -0.0000760070   0.0000763062   0.0000488095  -0.0000211016
        0.0000145763   0.0000035920  -0.0000140227  -0.0000341138  -0.0000037622
        0.0000044354   0.0000056303  -0.0000009953   0.0000010054   0.0000053507
        0.0000063896   0.0000019719  -0.0000087087  -0.0000112649  -0.0000106230
       -0.0000295104  -0.0000039230   0.0000255773  -0.0000066429   0.0000205475
       -0.0000088309  -0.0000116977   0.0000300339   0.0000231002  -0.0000034607
       -0.0000063150  -0.0000041462   0.0000278825  -0.0000044662   0.0000378067
        0.0000193854  -0.0000009675   0.0000197113  -0.0003768653  -0.0006942101
       -0.0009207931   0.0002379234  -0.0008578910   0.0009877512  -0.0005159167
       -0.0227614096   0.0170393526  -0.1514874558  -0.0210971450   0.0124174093
        0.4135723496  -0.0051531809  -0.0000705778  -0.0602307768   0.0206745456
       -0.0580188724  -0.0909642789  -0.0003599510  -0.0116993310  -0.0056085650
       -0.0005256567  -0.0029867513   0.0053242189   0.0003645022  -0.0003673725
       -0.0004750117   0.0011975308  -0.0015173385   0.0040328389   0.0105823250
       -0.0065077510  -0.0057052935  -0.0021181801   0.0000883253  -0.0018201939
        0.0003759783   0.0010085367  -0.0005276674   0.0006676120  -0.0005653941
       -0.0000523775  -0.0006992784   0.0002132362  -0.0002103745  -0.0002790209
        0.0000320187   0.0000704038   0.0004377807   0.0002197763  -0.0000956466
       -0.0000957727  -0.0007130101   0.0004335742  -0.0002038281   0.0000474706
       -0.0000151478   0.0002379587  -0.0000998092   0.0000236095  -0.0007404070
        0.0005031196  -0.0003270315   0.0004840123  -0.0001257704   0.0000126771
       -0.0000603255   0.0001046101   0.0001571202  -0.0005908719  -0.0006396352
        0.0000991103   0.0001875217   0.0001229507  -0.0000666166  -0.0000954281
       -0.0000123933   0.0001552251   0.0000704342  -0.0000991738  -0.0000716358
        0.0013174814   0.0001219519   0.0044505440   0.0002052085  -0.0000681369
       -0.0002530325   0.0009286234   0.0003260046   0.0068017366  -0.0004329934
        0.0045128656   0.0004505272   0.0226873717   0.0334640649  -0.0626798524
        0.0057210731   0.0050642443  -0.0022690708  -0.0041895629   0.0002864073
       -0.0227067429  -0.0037316541   0.0011158316  -0.0047491550  -0.0019702172
        0.0056244302  -0.0152473271   0.0170260086  -0.0034262017  -0.0008447806
       -0.0278270164   0.0038439138  -0.0025710418   0.0100807273  -0.0003066818
       -0.0003531651   0.0002490314   0.0015788821  -0.0016720074   0.0001711614
       -0.0000668985  -0.0001724219  -0.0002466201   0.0007166575  -0.0008861338
       -0.0000107892  -0.0001484763   0.0000703083  -0.0000087484   0.0000216446
        0.0000000731  -0.0000446963   0.0000215423   0.0000728194   0.0000356191
        0.0000369919  -0.0000603708   0.0000159844  -0.0000009080  -0.0000357304
       -0.0000338423   0.0000106870   0.0000538638   0.0000273652  -0.0000272722
        0.0000140843  -0.0000113111   0.0000426364  -0.0000258198  -0.0000036876
        0.0000309125   0.0000599618   0.0000274700   0.0000275989   0.0000217216
        0.0000255832  -0.0000724011  -0.0000265171  -0.0000309544   0.0000700443
       -0.0000390113  -0.0002368949  -0.0002615011  -0.0012070168   0.0000154123
       -0.0001916213   0.0000042783  -0.0002548785  -0.0007208385  -0.0024237756
       -0.0169959148   0.0032768808  -0.0070394381  -0.1852741452   0.0156714809
       -0.0051531809   0.4509722775   0.0094801590  -0.0008105402  -0.0134258691
        0.0068868019   0.0038407063  -0.0001809492  -0.0007411935   0.0001418829
       -0.0001859119  -0.0001479632   0.0000607435  -0.0001130661  -0.0001092036
       -0.0000245321  -0.0006006562   0.0001239553   0.0003360608   0.0002241846
        0.0017071001   0.0001998607   0.0002936664   0.0000170492  -0.0001481565
        0.0001154450   0.0000422812   0.0000477369   0.0001215262  -0.0000481123
        0.0000194375  -0.0000201306   0.0000262341   0.0000086408   0.0000009750
       -0.0000104636   0.0000004642   0.0001023113   0.0000875530  -0.0000649132
       -0.0001191435  -0.0000946458   0.0000376631   0.0000124337  -0.0000091059
        0.0000186832  -0.0000233557   0.0000248554  -0.0000074281  -0.0000438217
       -0.0000085724   0.0000057930  -0.0000331951  -0.0000547809   0.0000277805
        0.0000833755   0.0000236882  -0.0000185005  -0.0000270570  -0.0000605425
        0.0000237474  -0.0000257510  -0.0001217327  -0.0000485425  -0.0000133364
        0.0000249061   0.0000145331  -0.0000515591   0.0000069177   0.0000181937
       -0.0008887662   0.0000088759   0.0003888818  -0.0001133660   0.0000692280
        0.0000139995  -0.0002701155   0.0003408403   0.0001844440  -0.0000430613
        0.0004625108   0.0003293785  -0.0204266435  -0.0038964907   0.0023003235
       -0.0007043810  -0.0026386490  -0.0000202448   0.0004051421  -0.0000468055
        0.0009752735  -0.0007431520   0.0004908366  -0.0024035118   0.0005343455
       -0.0003087345   0.0009656906  -0.0566636302   0.0470964916   0.0353280360
       -0.0643011008   0.0124196254  -0.0676065951  -0.0908858357  -0.0897160615
        0.0384397132  -0.0000156443  -0.0000367672  -0.0003206562  -0.0000102211
       -0.0000072336  -0.0000277618   0.0000123561   0.0000114032  -0.0000246695
       -0.0000412115   0.0001111202   0.0000560530  -0.0000163016  -0.0000472794
        0.0000485420   0.0000044391  -0.0000116290   0.0000056438  -0.0000137553
       -0.0000218610   0.0000106373  -0.0000057032   0.0000061851   0.0000081066
        0.0000190898   0.0000179056  -0.0000090899  -0.0000099205  -0.0000314230
       -0.0000520800  -0.0000141862   0.0000214251  -0.0000095874  -0.0000178650
       -0.0000159827   0.0000020522  -0.0000013410   0.0000003770  -0.0000151643
       -0.0000046707   0.0000313450   0.0000340045  -0.0000189594  -0.0000173020
        0.0000118316  -0.0000113538  -0.0000312873  -0.0000379291  -0.0000157505
        0.0000229948  -0.0000129524  -0.0005307687  -0.0002772045  -0.0000490646
        0.0062994167  -0.0002128347   0.0022325658   0.0154208976  -0.0679566403
       -0.0000705778   0.0094801590   0.5239611239  -0.0010661045   0.0228753843
       -0.0046829013  -0.0013313858  -0.0002408205  -0.0009736516   0.0000043080
        0.0005415818   0.0006999446   0.0000062789   0.0001282163  -0.0000828947
       -0.0000813283   0.0011294992   0.0000288572  -0.0006000553   0.0004866181
       -0.0036547394  -0.0023210208   0.0000813424   0.0002907144   0.0000951680
        0.0000315838  -0.0001737517   0.0000312483  -0.0000009813  -0.0000096013
        0.0000622596  -0.0000128969   0.0000113565   0.0000028176   0.0000881431
       -0.0000110575  -0.0000008921  -0.0000797537   0.0000432581  -0.0000121509
       -0.0000277606   0.0000491649  -0.0000250103   0.0000216849  -0.0000045087
       -0.0000046116  -0.0000401886   0.0000054446   0.0000012496   0.0000413637
       -0.0000437039   0.0000208609  -0.0000220292  -0.0000328313   0.0000207594
        0.0000143116   0.0000432576   0.0000021674   0.0001641858  -0.0000190681
       -0.0000256998  -0.0000528896  -0.0001879367   0.0000631435  -0.0001019607
        0.0000131494   0.0000039473  -0.0000910587   0.0000151140  -0.0000025440
       -0.0010528268   0.0001779649   0.0004364794  -0.0002017763  -0.0001277726
        0.0000647960  -0.0003855479   0.0008018344   0.0002219338  -0.0001820163
       -0.0012049151  -0.0001745136  -0.0225940650   0.0014265168   0.0003425498
       -0.0020044162  -0.0037931769   0.0011429201  -0.0005452045   0.0002875170
       -0.0003937051   0.0005985539   0.0001801382   0.0011353758   0.0007766214
        0.0002456243   0.0000316850   0.0473407930  -0.1855325306  -0.1098011626
        0.0124420485  -0.0515311743   0.0393907270  -0.0899682395  -0.2045366291
        0.0713792771   0.0015915257  -0.0016990199  -0.0014774571   0.0000043760
        0.0000177482   0.0000163785   0.0000905924  -0.0000349593   0.0000341487
        0.0001404058  -0.0002306682  -0.0001817240  -0.0000161362   0.0000429110
       -0.0000477157  -0.0000066073  -0.0000004974  -0.0000076890   0.0000022087
       -0.0000054312   0.0000042254   0.0000044417   0.0000078881  -0.0000050876
        0.0000073309   0.0000153271  -0.0000137369   0.0000147904  -0.0000158268
       -0.0000123342   0.0000117798   0.0000154536  -0.0000250777  -0.0000191805
        0.0000005027   0.0000372372   0.0000109850   0.0000090693   0.0000031116
        0.0000218108   0.0000075304   0.0000201853  -0.0000292759  -0.0000041787
       -0.0000134907  -0.0001016788  -0.0000088513  -0.0000420736   0.0000059605
        0.0000046333  -0.0000039639  -0.0020913018  -0.0016302919   0.0009333078
       -0.0279841333   0.0048673249  -0.0082429941  -0.0034245730  -0.0003303017
       -0.0602307768  -0.0008105402  -0.0010661045   0.5333747611   0.0160501309
       -0.0047341232  -0.0011383733   0.0003591957  -0.0007284240  -0.0006885031
        0.0005171169   0.0003144598   0.0000457509   0.0000956029  -0.0000331979
       -0.0000330842   0.0007690615  -0.0000279579  -0.0003168887   0.0005289294
       -0.0028846440  -0.0010589530  -0.0000283826   0.0000978933   0.0000794894
       -0.0001527624   0.0000221842   0.0000031811  -0.0000843000   0.0000814803
        0.0000142241   0.0000883719   0.0000095387   0.0000183500  -0.0000922617
       -0.0000095501   0.0000051862   0.0000471253  -0.0000589160   0.0000321200
        0.0000458002   0.0000233784  -0.0000156231  -0.0000552246   0.0000162352
       -0.0000037219   0.0000559238  -0.0000058557   0.0000040318   0.0000256335
       -0.0000030029   0.0000057503  -0.0000072865   0.0000436963  -0.0000200661
       -0.0000269150  -0.0000344389  -0.0000052283  -0.0000307726   0.0000207606
        0.0000053583   0.0000290014   0.0000718152  -0.0000553061   0.0000343663
       -0.0000032378  -0.0000065081   0.0000292503  -0.0000062206   0.0000055547
        0.0004689830   0.0000152875  -0.0001082238   0.0000848770  -0.0000016452
       -0.0000180357   0.0003006080  -0.0001794063  -0.0000075039   0.0004976080
        0.0004306031  -0.0005764726   0.0097498425   0.0010529524  -0.0001518959
        0.0008785302   0.0015925596   0.0001575931  -0.0009700460   0.0005452582
        0.0007459378  -0.0031353801   0.0012218842  -0.0052755684  -0.0009077078
       -0.0004471729   0.0006557133   0.0352934954  -0.1094051945  -0.1277957744
       -0.0677965739   0.0394014237  -0.2551202703   0.0382437218   0.0709866586
       -0.0743957230   0.0007636120  -0.0006471934  -0.0000658666  -0.0000042826
        0.0000008365   0.0000168780   0.0000686648  -0.0000244673  -0.0000162183
        0.0001246364  -0.0001424563  -0.0001835131  -0.0000147132  -0.0000321650
       -0.0000321921   0.0000084561  -0.0000041851  -0.0000088814  -0.0000045192
        0.0000040555  -0.0000043258  -0.0000004602  -0.0000008831   0.0000038317
       -0.0000003191  -0.0000065015   0.0000033667  -0.0000006044  -0.0000095767
        0.0000129385  -0.0000003348   0.0000048369   0.0000116129   0.0000106801
       -0.0000031369  -0.0000113279  -0.0000039982  -0.0000030921   0.0000023302
       -0.0000098696   0.0000068584  -0.0000076802   0.0000195370  -0.0000009269
        0.0000039769   0.0000419853   0.0000109275  -0.0000137273  -0.0000047001
        0.0000003408   0.0000087554   0.0003199136  -0.0000092712   0.0003925350
        0.0032145995  -0.0032116616  -0.0011933884  -0.0768038129   0.0263022930
        0.0206745456  -0.0134258691   0.0228753843   0.0160501309   0.6064788561
        0.0783819401  -0.0416215383  -0.1796666595  -0.0753948610  -0.0205246411
        0.0477577061  -0.0361920057  -0.0309126494  -0.0445657786  -0.0199239296
       -0.0039313971  -0.0148459813   0.0554890234   0.0391734557  -0.2599141350
        0.0027991057   0.0368947820  -0.0403564558  -0.0271567193  -0.0064015824
       -0.0023786881   0.0026585421  -0.0015835023   0.0071764316  -0.0045763372
        0.0021022104  -0.0053105264   0.0004794697  -0.0002383543   0.0011889917
        0.0000329920  -0.0003926051   0.0020378755   0.0025118373  -0.0012450983
       -0.0024276230  -0.0038395487   0.0022551141   0.0011350211  -0.0004328280
        0.0001536156  -0.0007072075   0.0001656928  -0.0000553110  -0.0032349210
        0.0020040356  -0.0011008300   0.0019949305  -0.0007588970   0.0003200009
        0.0000854921   0.0005621385  -0.0000538890  -0.0026099399  -0.0017217660
        0.0007406465   0.0003583314   0.0002816895  -0.0006747420  -0.0002448009
        0.0002123145   0.0000397215  -0.0001520235   0.0000339917  -0.0000038803
       -0.0000461747  -0.0020151097   0.0004298119  -0.0012108081   0.0007453065
       -0.0001889330   0.0010522069  -0.0005130773   0.0004764855  -0.0011018694
       -0.0016951939   0.0010190576   0.0063000151  -0.0060836244  -0.0056840612
       -0.0030961137   0.0052180323   0.0016074802   0.0000099864   0.0002295604
       -0.0016814414   0.0001074830  -0.0007898618  -0.0006296034   0.0000435445
        0.0000827688   0.0003667695  -0.0062095836   0.0013538457   0.0004775983
        0.0005939920   0.0001000775   0.0002468041   0.0009588282  -0.0002452659
       -0.0002331927  -0.0220883049  -0.0207122636  -0.0081273348   0.0004247681
        0.0015582577   0.0022467665  -0.0004592344  -0.0002661979  -0.0002703263
        0.0004639760   0.0010628597   0.0015164257  -0.0001524520   0.0004756067
       -0.0000317894  -0.0000541836   0.0001474206   0.0002199362   0.0000190051
       -0.0000730425  -0.0001287036  -0.0000278257  -0.0000329493  -0.0000549045
        0.0000121861   0.0000210982   0.0000870763   0.0000143705  -0.0000545968
        0.0000137826   0.0000421225   0.0000865655  -0.0001607022  -0.0001008848
        0.0000161898   0.0001195788   0.0000423827   0.0000174497   0.0000260506
        0.0000423862   0.0000469236   0.0000988845  -0.0001473201   0.0000112525
       -0.0000471270   0.0000014785  -0.0000642403  -0.0000729674  -0.0000947157
       -0.0001973623   0.0000029138  -0.0001230744  -0.0000123255  -0.0001151496
       -0.0006609735   0.0001929707  -0.0098444403   0.0314283462  -0.1321104078
       -0.0580188724   0.0068868019  -0.0046829013  -0.0047341232   0.0783819401
        0.4989981454   0.2056215000  -0.1372524062  -0.1976494767  -0.0665127334
        0.0140990042  -0.0521497197  -0.0342502071  -0.0248855681  -0.0077291400
        0.0028404990   0.0244589391   0.0126659156   0.0030799765   0.0418136445
       -0.0769224128  -0.0228228473  -0.0274415722  -0.0023366859   0.0019034901
       -0.0025619983  -0.0033467055  -0.0003727122   0.0012984450  -0.0005277523
        0.0005266838  -0.0008351624  -0.0000966269   0.0001236323   0.0006863783
        0.0000836996  -0.0000721196  -0.0002818089   0.0001711837  -0.0001046711
       -0.0002267497  -0.0000963488   0.0000129724   0.0003926037  -0.0001168532
        0.0000555064  -0.0003465888   0.0000920305  -0.0000320996  -0.0001015890
        0.0000174394  -0.0000309982   0.0000947417   0.0000307544   0.0000368262
       -0.0002762308  -0.0000626907   0.0001977497  -0.0004499468   0.0003712244
       -0.0008492215   0.0000294876   0.0002238256   0.0000768040   0.0001201879
       -0.0000634774  -0.0000897006   0.0001373365   0.0000560841   0.0000279206
        0.0003442192  -0.0003618920   0.0001674979  -0.0002476754   0.0005295904
       -0.0001567583   0.0006522743  -0.0007978237   0.0010758419  -0.0021405757
       -0.0021779755   0.0003102134  -0.0023938658  -0.0330575182  -0.0098587752
       -0.0005084761   0.0019188297  -0.0003910072   0.0002297511  -0.0000221885
        0.0006149435  -0.0001627655   0.0001336339   0.0005318240  -0.0000097134
        0.0007425119   0.0007640689   0.0006795464  -0.0003234794  -0.0000910546
       -0.0003989144   0.0003047639  -0.0001006760  -0.0005101995   0.0001175516
        0.0002857302  -0.0022036598   0.0007536993   0.0007240388   0.0012183907
       -0.0015482332  -0.0054289812  -0.0005353536   0.0002660755   0.0004711709
        0.0012974369  -0.0015681203  -0.0054491878   0.0001752004   0.0000550272
       -0.0000095544   0.0000014766   0.0000370817   0.0000232840  -0.0000144888
       -0.0000276401   0.0000201164  -0.0000276016  -0.0000087411   0.0000322667
        0.0000088362  -0.0000125588  -0.0000095635   0.0000081235   0.0000230834
       -0.0000342279  -0.0000175121  -0.0000359443   0.0000559572  -0.0000029322
        0.0000009446  -0.0000720123  -0.0000027493  -0.0000133364   0.0000080886
        0.0000106323  -0.0000029640  -0.0000217890   0.0000141341   0.0000304083
        0.0000483297   0.0000461907   0.0000636949  -0.0000838963  -0.0000588810
       -0.0000581683  -0.0000098375   0.0000418895   0.0000276129  -0.0001848655
        0.0046083212  -0.0216762395  -0.0275894029   0.0241668510  -0.0579233984
       -0.0909642789   0.0038407063  -0.0013313858  -0.0011383733  -0.0416215383
        0.2056215000   0.2801114621  -0.0573709082  -0.0777880447  -0.0814593670
       -0.0018157429  -0.0249235445  -0.0147750991  -0.0060314499   0.0024376671
       -0.0018800209   0.0177550479  -0.0057308845  -0.0066994135   0.0654614509
       -0.0096564035  -0.0675798283  -0.0110126673  -0.0013679612   0.0011688987