$hessian                                                                        
        0.6427262285   0.1262057532  -0.0962219510  -0.1640140803   0.0593469805
        0.1354129568  -0.0411621536   0.0019439094   0.0234334656   0.0057836592
        0.0054900798  -0.0009551964  -0.0017592521  -0.0004785588   0.0001156471
        0.0006214306  -0.0002432641  -0.0004844653  -0.0001998641  -0.0002565350
        0.0000109723   0.0002021876   0.0001096419   0.0000351715  -0.0001516850
       -0.0000264935  -0.0000103904   0.0000181259  -0.0000237127  -0.0000110126
       -0.0000022106   0.0000094732  -0.0000085558  -0.0000072025  -0.0000002649
        0.0000004995  -0.0000125705  -0.0000091868   0.0000016740  -0.0000100717
        0.0000079845  -0.0000079518   0.0000018254  -0.0000121073   0.0000046372
        0.0000012173   0.0000116227  -0.0000069547  -0.0000036057  -0.0000246085
        0.0000049248  -0.0000161591  -0.0000035290  -0.0000011083  -0.0000039745
        0.0000004648  -0.0000009274   0.0000083771  -0.0000218001   0.0000049350
       -0.0000044301   0.0000260556   0.0000186309  -0.0000728031   0.0001030867
       -0.0000022195   0.0004435400   0.0007346544   0.0003537115   0.0001014276
       -0.0002267309   0.0000994060  -0.0000033209   0.0002614275   0.0002413243
       -0.0000427858  -0.0000111197  -0.0000425509  -0.0000238524   0.0000165609
        0.0000044622   0.0000431076  -0.0000146655   0.0000026157   0.0000230107
       -0.0000372866  -0.0000187528  -0.0000291445  -0.0000007535  -0.0000270686
        0.0000482049  -0.0000509980  -0.0000552562   0.0000435808  -0.0000100996
       -0.0000317789   0.0001217003  -0.0000411223   0.0000208485   0.0000498352
        0.0000098219   0.0000118972   0.0000112580   0.0000642401   0.0000414232
       -0.0004876188   0.0000922818  -0.0003180039  -0.0440095533  -0.0353877752
       -0.0152890396  -0.1247878424  -0.0880062449  -0.0806432979  -0.2810064974
       -0.0692608607   0.0300990857   0.0067522381  -0.0043846228  -0.0077556074
       -0.0046682249  -0.0037336779   0.0021771297   0.0000466562  -0.0001144389
        0.0000249264  -0.0000020640  -0.0000047523   0.0000051571   0.0000117285
       -0.0000108136   0.0000120279  -0.0000012622   0.0000006677  -0.0000020269
        0.0000010225  -0.0000038994   0.0000016232  -0.0000014908   0.0000019258
       -0.0000023686  -0.0000007957   0.0000008017  -0.0000000814  -0.0000000980
       -0.0000000948  -0.0000038005  -0.0000025184   0.0000009721  -0.0000000315
        0.0000039524   0.0000118859  -0.0000069200  -0.0000062697  -0.0000045842
       -0.0000066188   0.0000467916  -0.0000060586   0.0000227691  -0.0000019941
       -0.0000161711   0.0000026454   0.0000031689  -0.0000130609  -0.0000045821
        0.0000192087  -0.0000249729  -0.0000120769   0.0000106278  -0.0000122935
        0.0000162078  -0.0000028870   0.0000128089   0.0000072249   0.0000475943
       -0.0000010744   0.0000624061  -0.0000919735   0.0000230655  -0.0000456767
        0.0053985504   0.0079920664   0.0097258663
        0.1262057532   0.3306530090   0.2282594703   0.0142643766  -0.1002106818
       -0.0751118316   0.0335500992   0.0241673515   0.0166422122   0.0103062496
       -0.0280532940  -0.0295331067   0.0000369570   0.0001178694   0.0002391002
        0.0005752390  -0.0000287931  -0.0000058683  -0.0001616056  -0.0000318555
       -0.0001506295  -0.0002841655   0.0001155458   0.0000309768   0.0003149984
        0.0001251374   0.0000136057  -0.0001336053   0.0000958189  -0.0000522713
        0.0000211607  -0.0000155931   0.0000277593  -0.0000310012   0.0000045425
       -0.0000131287   0.0000127570   0.0000155158  -0.0000067327  -0.0000027700
       -0.0000127925   0.0000050124   0.0000253255   0.0000450819  -0.0000290990
        0.0000466397  -0.0000215660   0.0000275923  -0.0000098964   0.0000110882
       -0.0000050105   0.0000177203  -0.0000042709   0.0000067827  -0.0000245013
       -0.0000242628   0.0000177362   0.0000004611   0.0000341870  -0.0000188066
       -0.0000449140  -0.0001584031   0.0000404351   0.0002866384  -0.0000615103
        0.0001223295   0.0002978932  -0.0002958686  -0.0001182841  -0.0004381590
        0.0000555437   0.0002037450   0.0000645924  -0.0000005818  -0.0002417327
       -0.0000000506   0.0000092878   0.0000699810   0.0000269033  -0.0000323574
        0.0000002334  -0.0000196669   0.0000072157   0.0000087311   0.0000106879
       -0.0000141819   0.0000075829  -0.0000968647   0.0000424367  -0.0000590100
       -0.0000008248   0.0000164865   0.0000119594   0.0000284428  -0.0000134231
        0.0000198002   0.0000134885  -0.0000321656   0.0000175625   0.0000266324
        0.0000157983   0.0000733184   0.0001184360  -0.0000414220  -0.0001615466
        0.0000028876  -0.0000712941   0.0000310260  -0.0756579107  -0.0037959044
        0.0082631769  -0.0411718857  -0.1583502044  -0.1205182647  -0.0689302253
       -0.0561955005   0.0037004293   0.0092263348  -0.0069899684  -0.0177416917
       -0.0042768585   0.0055757321  -0.0030719997  -0.0001119793   0.0001203116
        0.0000584816   0.0000162273   0.0000127998   0.0000067887  -0.0000070695
       -0.0000057315  -0.0000039216   0.0000026986  -0.0000093723   0.0000080809
        0.0000102920  -0.0000034557   0.0000065009   0.0000103309   0.0000033201
       -0.0000028551   0.0000096599   0.0000024006  -0.0000003107   0.0000061680
        0.0000066048  -0.0000085327  -0.0000031145   0.0000064273  -0.0000090249
       -0.0000023459  -0.0000090743  -0.0000033546   0.0000091547   0.0000226007
        0.0000049292   0.0000332875   0.0000028805   0.0000015273   0.0000015363
        0.0000028697  -0.0000001271   0.0000039415   0.0000048522   0.0000020114
        0.0000003025   0.0000161970  -0.0000023509  -0.0000109791   0.0000374857
       -0.0000010116  -0.0000216805   0.0000385681  -0.0000142149   0.0000047997
        0.0000250107  -0.0000043984  -0.0000312846   0.0001358105   0.0000439057
       -0.0041157146  -0.0070622585  -0.0110836675
       -0.0962219510   0.2282594703   0.4591289976   0.0750053482  -0.0979653477
       -0.2137582007   0.0645902461   0.0330153529   0.0091128569   0.0062474791
       -0.0271437307  -0.0485263285   0.0007586597   0.0000998220   0.0002943102
        0.0006221842   0.0000046679   0.0002644452  -0.0001793462   0.0001742748
       -0.0002377654  -0.0004940025   0.0000639844   0.0000005461   0.0005165703
        0.0001966016   0.0000474321  -0.0002193198   0.0001615850  -0.0000770379
        0.0000290155  -0.0000344063   0.0000445809  -0.0000460781   0.0000069241
       -0.0000232583   0.0000257897   0.0000266935  -0.0000117117  -0.0000042702
       -0.0000223826   0.0000085616   0.0000372894   0.0000730687  -0.0000460870
        0.0000739818  -0.0000337709   0.0000424584  -0.0000186014   0.0000232989
       -0.0000068573   0.0000389931  -0.0000053721   0.0000140770  -0.0000341081
       -0.0000309391   0.0000240236   0.0000018448   0.0000596517  -0.0000280454
       -0.0000671779  -0.0002598940   0.0000668444   0.0004141209  -0.0001143540
        0.0001044667   0.0005277068  -0.0009313889  -0.0004189967  -0.0007131718
       -0.0002213225   0.0005085249   0.0000706298   0.0000606268  -0.0001574515
        0.0000782614  -0.0000070722   0.0001439690   0.0000261293  -0.0000480733
       -0.0000228513  -0.0000514825  -0.0000077880  -0.0000316743   0.0000195440
        0.0000253200   0.0000895730  -0.0001050840   0.0000432242  -0.0000728490
       -0.0001155084   0.0000652471   0.0000663046  -0.0000436072  -0.0000651406
       -0.0000374486   0.0000007401  -0.0000378299   0.0000343065  -0.0000490241
        0.0000217217   0.0001348840   0.0001475729  -0.0001698989  -0.0003797727
       -0.0000531619   0.0000160172  -0.0000560508  -0.0683371862  -0.0115436960
        0.0376783476  -0.0184690796  -0.0965050489  -0.1718677426   0.0307689349
        0.0039389630  -0.0433642455   0.0103512858  -0.0109769969  -0.0165388833
        0.0015005320  -0.0031454116   0.0041992664  -0.0001240867   0.0003070052
        0.0000799958   0.0000160985   0.0000259042   0.0000069139  -0.0000157209
        0.0000020000  -0.0000137751   0.0000048395  -0.0000139495   0.0000110031
        0.0000144624  -0.0000036243   0.0000077238   0.0000160588   0.0000028521
       -0.0000021246   0.0000153096   0.0000043612   0.0000003233   0.0000076283
        0.0000110745  -0.0000090624  -0.0000029653   0.0000104237  -0.0000117519
       -0.0000055570  -0.0000167252  -0.0000019789   0.0000018235   0.0000281367
        0.0000061618  -0.0000104041   0.0000058749  -0.0000301194   0.0000039466
        0.0000005569  -0.0000190187  -0.0000021965   0.0000104887  -0.0000022453
       -0.0000071318   0.0000192857  -0.0000187871   0.0000067068   0.0000430571
        0.0000126350  -0.0000070671   0.0000232158   0.0000054761   0.0000084575
        0.0000004174   0.0000167110   0.0000008202   0.0001321488   0.0001151189
       -0.0065517211  -0.0176591548  -0.0164987176
       -0.1640140803   0.0142643766   0.0750053482   0.6076244902   0.1253998677
       -0.0785266048  -0.3109191685  -0.0567313769   0.0570225702  -0.0205372619
       -0.0584332814  -0.0658951429   0.0045255737  -0.0015598238  -0.0000549005
       -0.0000069760   0.0006293219   0.0008867212   0.0003367623   0.0005374054
       -0.0003421025  -0.0010148791  -0.0002013008  -0.0000067253   0.0010138877
        0.0003331931   0.0000579930  -0.0003791924   0.0002936001  -0.0001110261
        0.0000653271  -0.0000562788   0.0000714154  -0.0000828340   0.0000130451
       -0.0000462074   0.0000369490   0.0000538398  -0.0000293420  -0.0000189904
       -0.0000487211   0.0000161549   0.0000683095   0.0001424035  -0.0000899089
        0.0001383711  -0.0000740004   0.0000848776  -0.0000458104   0.0000443465
       -0.0000174621   0.0000616558  -0.0000208415   0.0000289564  -0.0000537138
       -0.0000641112   0.0000488754   0.0000178825   0.0001034695  -0.0000561628
       -0.0001243915  -0.0004638805   0.0001106833   0.0007436834  -0.0004127492
       -0.0000017797  -0.0007655381  -0.0021868490  -0.0009995204  -0.0010228076
        0.0002033257   0.0005776474   0.0000468497  -0.0001460017  -0.0004231405
        0.0000521183   0.0000105044   0.0001525963   0.0000519576  -0.0000742971
       -0.0000485196  -0.0000705263   0.0000021669  -0.0000506592   0.0000538939
       -0.0000185097   0.0000497744  -0.0001637972   0.0000610310  -0.0000904699
       -0.0001625825   0.0001433181   0.0001856465   0.0000400643  -0.0000702029
        0.0000426269  -0.0000358683  -0.0000455595   0.0000516602   0.0000499397
        0.0000204711   0.0001253084   0.0002406440  -0.0000758285  -0.0005003388
        0.0002001665  -0.0002266875   0.0001733792  -0.0550618014   0.0049679374
        0.0312646430   0.0595362525   0.0377359740   0.0203497355  -0.0185062210
        0.0095892376   0.0221421958  -0.0828063495  -0.0661993355  -0.0643306181
       -0.0191707178  -0.0042534855   0.0039079910  -0.0002017589   0.0001883907
        0.0001698875   0.0000599051   0.0000122268  -0.0000489771  -0.0000225862
        0.0000005502  -0.0000114662   0.0000073787  -0.0000240434   0.0000199353
        0.0000281536  -0.0000059083   0.0000159899   0.0000310848   0.0000100186
       -0.0000054944   0.0000300863   0.0000086003   0.0000027769   0.0000156809
        0.0000251497  -0.0000180591  -0.0000098504   0.0000211985  -0.0000219327
       -0.0000154003  -0.0000171509  -0.0000037196  -0.0000347409   0.0000207695
        0.0000440398   0.0000083431   0.0000086491  -0.0000124802   0.0000119734
        0.0000097729  -0.0000058758  -0.0000051571   0.0000183154   0.0000197412
       -0.0000204085   0.0000405584  -0.0000113499  -0.0000304241   0.0000699808
        0.0000085660  -0.0000561349   0.0000602271  -0.0000398420   0.0000106246
        0.0000123543   0.0000105188  -0.0001787186   0.0001629189   0.0001741940
        0.0004306789  -0.0038082912  -0.0010226211
        0.0593469805  -0.1002106818  -0.0979653477   0.1253998677   0.3537672567
        0.2462714293  -0.1016124302  -0.0883002392  -0.0038708494  -0.0230604600
       -0.0123498086  -0.0059869541  -0.0028503430   0.0016106253  -0.0056758531
       -0.0005696534  -0.0002030834   0.0001556089   0.0001055102   0.0001553254
        0.0003640240  -0.0001134391  -0.0001021086  -0.0000116823   0.0001804659
        0.0000980096  -0.0000888186  -0.0000669424   0.0000363090  -0.0000274233
        0.0000130704  -0.0000142152   0.0000191740  -0.0000211748   0.0000077013
       -0.0000107524   0.0000010490   0.0000089894  -0.0000078872  -0.0000051783
       -0.0000123541   0.0000055411   0.0000127318   0.0000266371  -0.0000162921
        0.0000292126  -0.0000090124   0.0000171999  -0.0000073195   0.0000016039
       -0.0000022649   0.0000012499  -0.0000062102   0.0000042699  -0.0000117280
       -0.0000179372   0.0000181142  -0.0000056036   0.0000148120  -0.0000144172
       -0.0000135208  -0.0000807331   0.0000193680  -0.0000632568  -0.0000697221
        0.0005567043  -0.0000571762   0.0000537901  -0.0000283884  -0.0000175741
        0.0000724492  -0.0000470666   0.0000657895  -0.0000723675  -0.0001328777
       -0.0000238452  -0.0000024888  -0.0000001082   0.0000357836  -0.0000219357
        0.0000007559  -0.0000022206   0.0000192362   0.0000338551  -0.0000078405
       -0.0000176560  -0.0000234152  -0.0000591241   0.0000217961  -0.0000295869
        0.0000550619  -0.0000311229  -0.0000222245  -0.0000065812   0.0000140731
       -0.0000357068  -0.0000115549   0.0000568304   0.0000159798   0.0001357912
       -0.0000339009   0.0000822822   0.0000427669  -0.0000249868  -0.0000472132
       -0.0000917376   0.0000000523  -0.0000615771   0.0061550262  -0.0006971311
        0.0052533398   0.0019581080  -0.0169733879  -0.0257745751  -0.0042194004
        0.0031068374   0.0053745102  -0.0661667604  -0.1451598832  -0.1106800707
        0.0090440495   0.0032442672  -0.0014407459  -0.0001338053   0.0000200432
       -0.0001729828  -0.0000139549  -0.0000085657  -0.0000126075   0.0000044909
       -0.0000031850  -0.0000029692  -0.0000002515  -0.0000040347   0.0000023690
        0.0000071740  -0.0000032747   0.0000039790   0.0000048917   0.0000034023
       -0.0000019509   0.0000063255   0.0000024724   0.0000014804   0.0000060558
        0.0000057017  -0.0000055082  -0.0000032204   0.0000057896  -0.0000040639
        0.0000045843  -0.0000038247  -0.0000026564   0.0000306142   0.0000198433
       -0.0000036461   0.0000217862  -0.0000018522   0.0000118073  -0.0000009746
        0.0000009489   0.0000123275  -0.0000041635  -0.0000003269   0.0000076587
       -0.0000076777   0.0000025585   0.0000013803  -0.0000231720   0.0000032411
        0.0000011880  -0.0000165712   0.0000184246   0.0000103296   0.0000042722
        0.0000339510   0.0000027856  -0.0000937864  -0.0000372533   0.0000516994
       -0.0033102669   0.0020403056  -0.0060906780
        0.1354129568  -0.0751118316  -0.2137582007  -0.0785266048   0.2462714293
        0.4839102764  -0.0016294404  -0.0271611686  -0.0819941769  -0.0200922592
        0.0130715520   0.0283789334  -0.0014952983  -0.0062459181  -0.0002222507
        0.0007109870  -0.0000938947  -0.0002182226  -0.0000489524  -0.0002097842
        0.0000105776   0.0002214536   0.0000005344  -0.0000023371  -0.0000924249
        0.0000076577   0.0000032773   0.0000402421  -0.0000201409   0.0000077519
       -0.0000112187  -0.0000130048   0.0000059467   0.0000075796   0.0000070813
       -0.0000030027  -0.0000193129  -0.0000068659  -0.0000019272  -0.0000039522
       -0.0000012505  -0.0000014182   0.0000051404  -0.0000176695   0.0000085697
       -0.0000049696   0.0000152535  -0.0000101381  -0.0000021363  -0.0000134722
        0.0000009709  -0.0000192552  -0.0000074502   0.0000010200   0.0000055718
        0.0000002078   0.0000038838  -0.0000060148  -0.0000097530  -0.0000027532
        0.0000190160   0.0000384793  -0.0000113787  -0.0003035273  -0.0002592148
       -0.0001771633  -0.0012440799   0.0000795287   0.0003637031   0.0002406428
        0.0003548070  -0.0000348316  -0.0000194074  -0.0000706707   0.0000491347
       -0.0000483037   0.0000059327  -0.0000450769   0.0000095783   0.0000093302
        0.0000048462   0.0000321114   0.0000130870   0.0000539785  -0.0000241204
        0.0000004786  -0.0000285703  -0.0000083276   0.0000134802   0.0000157307
        0.0001167322  -0.0000925385  -0.0000977188  -0.0000260746   0.0000295084
       -0.0000649426   0.0000305648   0.0000188094  -0.0000253509   0.0001165270
       -0.0000089832   0.0000876225  -0.0000810405   0.0001371389   0.0001523985
       -0.0001242843   0.0000697765  -0.0001200271   0.0327785071   0.0057572905
       -0.0166640840  -0.0270719079  -0.0442204451  -0.0423563732   0.0038340311
       -0.0013506916  -0.0031868331  -0.0644291528  -0.1105673789  -0.1509428182
        0.0223777332   0.0056282677  -0.0032269335   0.0000515488   0.0000306412
       -0.0001197814   0.0000366005   0.0000081037   0.0000160569   0.0000137974
        0.0000042639  -0.0000002202  -0.0000024819   0.0000016114  -0.0000023157
        0.0000009786  -0.0000025608   0.0000009820  -0.0000038749   0.0000009112
       -0.0000002866  -0.0000022998   0.0000005658   0.0000010865   0.0000012997
       -0.0000007446  -0.0000002297  -0.0000017278  -0.0000005877   0.0000023182
        0.0000122063   0.0000030128  -0.0000024430  -0.0000875684  -0.0000444563
       -0.0000255511   0.0000198870  -0.0000101801   0.0000167461  -0.0000058012
       -0.0000056535   0.0000191018  -0.0000057279  -0.0000081228   0.0000001417
       -0.0000033016  -0.0000128546   0.0000045561  -0.0000125294  -0.0000249242
       -0.0000011156   0.0000034425  -0.0000073944   0.0000329865  -0.0000045308
        0.0000143036  -0.0000181467   0.0000150532  -0.0001180981  -0.0000558413
       -0.0006522795  -0.0058753404   0.0002698632
       -0.0411621536   0.0335500992   0.0645902461  -0.3109191685  -0.1016124302
       -0.0016294404   0.6163624245   0.1111235325  -0.1148608512  -0.1125449831
       -0.0365962867  -0.0175395579  -0.0205041309  -0.0232274678  -0.0168884891
        0.0000474953  -0.0021260546  -0.0017381592  -0.0001048144  -0.0007894355
        0.0009123340   0.0014823358   0.0001818345   0.0000531833  -0.0013752439
       -0.0003830659  -0.0001666503   0.0005451275  -0.0004524197   0.0001613483
       -0.0000865220   0.0001194673  -0.0001019855   0.0001148001  -0.0000239386
        0.0000750740  -0.0000513274  -0.0000697463   0.0000405107   0.0000081364
        0.0000692881  -0.0000204040  -0.0001132324  -0.0001773307   0.0001130140
       -0.0001851750   0.0000924538  -0.0001073041   0.0000476972  -0.0000540156
        0.0000322595  -0.0000869411   0.0000241534  -0.0000362352   0.0000828160
        0.0001047039  -0.0000713709  -0.0000273974  -0.0001419497   0.0001271223
        0.0002235737   0.0006618695  -0.0002168001  -0.0012460975  -0.0011422306
        0.0005638367  -0.0044998714   0.0023576765   0.0012480856   0.0014916868
       -0.0002269532  -0.0006737784  -0.0000267263   0.0004837761   0.0007691344
       -0.0000851302  -0.0000249309  -0.0002371801  -0.0001217998   0.0001355443
        0.0001091322   0.0001538941  -0.0000559972   0.0000362743  -0.0000314474
       -0.0000035982  -0.0000507833   0.0002143185  -0.0000584929   0.0001648477
        0.0002770239  -0.0002842901  -0.0002479958  -0.0001392722   0.0000815984
       -0.0000873828   0.0000425315   0.0000207240   0.0000197983  -0.0000845035
        0.0000752799  -0.0000074341   0.0001957451  -0.0000168114   0.0001820110
       -0.0009880421   0.0005222653  -0.0006049066   0.0532958757   0.0057982651
       -0.0111023550  -0.0412303031  -0.0258826207  -0.0176101705  -0.0001399291
       -0.0003283386   0.0041380948  -0.0134774520  -0.0068809773  -0.0007207201
       -0.1243096323   0.0464008218   0.1125911410  -0.0005912985  -0.0000991130
       -0.0007910062  -0.0000835188  -0.0000360655   0.0000516462   0.0000287899
       -0.0000387671   0.0000212985  -0.0000122635   0.0000284455  -0.0000282885
       -0.0000395932   0.0000087841  -0.0000246193  -0.0000389557  -0.0000113915
        0.0000044903  -0.0000366668  -0.0000160914  -0.0000036648  -0.0000244704
       -0.0000331715   0.0000227689   0.0000084697  -0.0000348246   0.0000281079
       -0.0000026516   0.0000366551  -0.0000419953  -0.0003886125  -0.0001419088
       -0.0000706028   0.0000280315   0.0000042780   0.0000686510  -0.0000013966
       -0.0000144152  -0.0000122264   0.0000162527  -0.0000214825  -0.0000233446
        0.0000346201  -0.0000587134  -0.0000062141   0.0000427770  -0.0000494849
        0.0000100409   0.0000118304  -0.0000319833   0.0000438157   0.0000405849
       -0.0000302186   0.0000088490  -0.0000545060  -0.0003506247   0.0000685382
        0.0000183921  -0.0003538777  -0.0005337382
        0.0019439094   0.0241673515   0.0330153529  -0.0567313769  -0.0883002392
       -0.0271611686   0.1111235325   0.3287798994   0.2308490590  -0.0728256513
       -0.1532546403  -0.0916752585  -0.0196083303  -0.0105719604  -0.0076756255
        0.0028126404  -0.0017249111  -0.0020613515  -0.0007206318  -0.0007182719
        0.0004859508   0.0011135464   0.0002549583   0.0000217603  -0.0006255650
       -0.0001910884  -0.0001156355   0.0002316449  -0.0001825468   0.0000458966
       -0.0000412689   0.0000444585  -0.0000448280   0.0000447237  -0.0000151756
        0.0000332647  -0.0000134762  -0.0000348941   0.0000209453  -0.0000047259
        0.0000457717  -0.0000219836  -0.0000260008  -0.0000773738   0.0000474664
       -0.0000483045   0.0000604747  -0.0000486788   0.0000222350  -0.0000469271
        0.0000261818  -0.0000414168   0.0000226498  -0.0000271651   0.0000341364
        0.0000382316  -0.0000356304   0.0000117679  -0.0000636738   0.0000389519
        0.0000729809   0.0002505360  -0.0000190991  -0.0013368031  -0.0002609576
        0.0002751265  -0.0005424971   0.0027708430   0.0006428731   0.0005616469
        0.0002933145  -0.0004250232   0.0000318379  -0.0000416555   0.0000259719
       -0.0000087814   0.0000139003  -0.0000423440  -0.0000384390   0.0000518143
        0.0000639376   0.0000503475   0.0000007026   0.0000446993  -0.0000151274
       -0.0000311628  -0.0000570911  -0.0000050937   0.0000307785   0.0000751073
        0.0001714824  -0.0001058669  -0.0001929600  -0.0000154714   0.0000114844
       -0.0000727742   0.0000632899   0.0000581296   0.0000278807   0.0000481228
       -0.0000680657  -0.0000763672  -0.0002292448  -0.0003529788   0.0005758599
       -0.0000249545   0.0001905524  -0.0001761446   0.0391611530  -0.0091505033
       -0.0566259441  -0.0299111932  -0.0243216738  -0.0050778504   0.0001011746
        0.0048132506  -0.0054264642  -0.0202338132  -0.0056984667  -0.0011616777
        0.0458660250  -0.0662890543  -0.0689300665   0.0002916945   0.0001490914
        0.0000240406  -0.0000213579  -0.0000721642   0.0000912612   0.0000067306
       -0.0000212035   0.0000137156  -0.0000090280   0.0000173150  -0.0000141026
       -0.0000182512   0.0000060213  -0.0000100669  -0.0000154675  -0.0000021597
        0.0000022376  -0.0000171145  -0.0000059134  -0.0000017859  -0.0000133565
       -0.0000137286   0.0000094917   0.0000033728  -0.0000092880   0.0000105022
       -0.0000166776   0.0000263678  -0.0000071004  -0.0000957117  -0.0000361873
        0.0000188668   0.0000196316  -0.0000055091   0.0000275258   0.0000003389
       -0.0000053841   0.0000003609   0.0000084550  -0.0000079116  -0.0000047761
        0.0000078706  -0.0000206866   0.0000023778  -0.0000096973  -0.0000243006
        0.0000013711   0.0000195524  -0.0000310600   0.0000065739  -0.0000349365
        0.0000224113  -0.0000165609  -0.0001009728  -0.0005654333   0.0003223747
       -0.0004231055   0.0002027094   0.0003585389
        0.0234334656   0.0166422122   0.0091128569   0.0570225702  -0.0038708494
       -0.0819941769  -0.1148608512   0.2308490590   0.4767515818  -0.0702544770
       -0.1127502521  -0.1622963402  -0.0079489943  -0.0043936168   0.0017896196
        0.0012426687   0.0002495446  -0.0012232308   0.0000381240  -0.0002929152
       -0.0001202616   0.0002183934  -0.0001728256   0.0000200678  -0.0000474987
       -0.0000943587  -0.0000002472   0.0000076348   0.0000109802   0.0000070626
        0.0000072633   0.0000031144  -0.0000198545   0.0000075265  -0.0000118051
        0.0000027945   0.0000048153  -0.0000082079   0.0000037312  -0.0000097167
        0.0000119490  -0.0000139339   0.0000181571  -0.0000013006   0.0000007819
       -0.0000017779   0.0000021599   0.0000016375   0.0000063384  -0.0000087579
        0.0000046892   0.0000022158   0.0000084687  -0.0000066482   0.0000020238
       -0.0000041643  -0.0000065109   0.0000178746  -0.0000118302  -0.0000075654
        0.0000004969   0.0000252862   0.0000178911  -0.0006071343   0.0000088353
       -0.0001350124   0.0013807900   0.0017815994   0.0011290107   0.0003992051
       -0.0001500621  -0.0002273076   0.0000644934  -0.0000144854   0.0001078794
        0.0000167187   0.0000008122   0.0000053171  -0.0000066023   0.0000250724
        0.0000478668   0.0000147331   0.0000079732   0.0000334458   0.0000015615
       -0.0000149747  -0.0000133467  -0.0000667881   0.0000627208   0.0000449757
        0.0000662409  -0.0001148341  -0.0001462646  -0.0000594287  -0.0000077492
       -0.0000931905   0.0000189791   0.0000145348   0.0000492188   0.0001205561
        0.0000284227   0.0000525333   0.0000641683   0.0001754581  -0.0002940529
       -0.0001319388   0.0002279816  -0.0002186953   0.0358928397  -0.0387674263
       -0.0521559991  -0.0233317891  -0.0075684957  -0.0068696191   0.0046142066
       -0.0053747892  -0.0002761670  -0.0187180631  -0.0079934359   0.0017482119
        0.1115452863  -0.0688972719  -0.1861335436   0.0004037754  -0.0003936321
        0.0003290492   0.0000746200  -0.0000354654   0.0000046579  -0.0000075583
       -0.0000032294   0.0000151414  -0.0000027826   0.0000043958  -0.0000010880
       -0.0000068237   0.0000011906   0.0000002443  -0.0000030608  -0.0000007409
        0.0000009082  -0.0000025220   0.0000003096   0.0000019273  -0.0000028249
       -0.0000018487   0.0000029416   0.0000003652   0.0000003385   0.0000035854
       -0.0000172369   0.0000149222   0.0000068057   0.0000410787   0.0000561582
       -0.0000605985  -0.0000033171  -0.0000111062  -0.0000091687  -0.0000018510
       -0.0000053793  -0.0000034268  -0.0000016323  -0.0000046666   0.0000022747
       -0.0000023211  -0.0000065041  -0.0000076440  -0.0000198787   0.0000195015
        0.0000180106  -0.0000063514   0.0000063800   0.0000095372  -0.0000273729
        0.0000102307   0.0000383832  -0.0001177821   0.0004919295   0.0001176396
       -0.0004808104   0.0002454401   0.0008516142
        0.0057836592   0.0103062496   0.0062474791  -0.0205372619  -0.0230604600
       -0.0200922592  -0.1125449831  -0.0728256513  -0.0702544770   0.5749786260
        0.1032565204  -0.0862999183  -0.1903850794  -0.0490392882   0.0062824171
       -0.0370267042   0.0024152088   0.0089940855   0.0014725485   0.0051289287
        0.0019511052  -0.0041021164  -0.0016298186   0.0000021474   0.0027595949
        0.0009818952  -0.0003144003  -0.0009920104   0.0007599018  -0.0002302529
        0.0001886135  -0.0001541002   0.0001445231  -0.0001944908   0.0000335735
       -0.0001232734   0.0001094854   0.0001359012  -0.0000701974   0.0000039934
       -0.0001465105   0.0000621923   0.0001126103   0.0003656924  -0.0002151636
        0.0003296020  -0.0001865236   0.0002063314  -0.0000731507   0.0001349572
       -0.0000589211   0.0001593429  -0.0000473544   0.0000659042  -0.0001257411
       -0.0001529656   0.0001368979   0.0000394318   0.0002586695  -0.0001580543
       -0.0002475547  -0.0011966005   0.0002308674   0.0037583830  -0.0009073183
        0.0008079312  -0.0109418385  -0.0212892817  -0.0070864152  -0.0024834603
        0.0018070995   0.0011193148  -0.0000547225  -0.0007046620  -0.0012544754
        0.0002209728   0.0001054300   0.0005861156   0.0001842289  -0.0002280055
       -0.0002005649  -0.0002902551   0.0000567168  -0.0001253649  -0.0000348848
        0.0001191119   0.0002541909  -0.0003931842   0.0002090674  -0.0000494812
       -0.0002208346   0.0004798705   0.0004526253  -0.0002639882  -0.0001134447
       -0.0000724050  -0.0002908966   0.0001681476   0.0001739666   0.0000234648
       -0.0002021457   0.0000653297  -0.0002853925  -0.0003025355  -0.0006758507
        0.0021487463   0.0010334156   0.0003820320  -0.1433500209   0.0423443747
        0.1080656128  -0.0636525300   0.0001001023   0.0353278304   0.0012296033
        0.0007871325   0.0002151380  -0.0048675134  -0.0041926080   0.0019445135
        0.0051570682   0.0100039415   0.0119671083   0.0006596061  -0.0008632167
       -0.0008639742  -0.0005291239  -0.0001806268  -0.0002557738  -0.0000701757
        0.0000380077  -0.0000172722   0.0000133043  -0.0000426318   0.0000469764
        0.0000489323  -0.0000178570   0.0000450023   0.0000533628   0.0000099829
       -0.0000168682   0.0000479607   0.0000246643   0.0000095581   0.0000290845
        0.0000355628  -0.0000521440  -0.0000103279   0.0000503981  -0.0000447472
       -0.0000239127  -0.0000881756   0.0000236158   0.0000874264   0.0001053626
        0.0001703904  -0.0000683631  -0.0000190177  -0.0001422836   0.0000005203
        0.0000128013  -0.0000097841  -0.0000225303   0.0000228947  -0.0000124032
       -0.0000248811   0.0000738904  -0.0000087610  -0.0000058891   0.0000181784
       -0.0000192080   0.0000175117   0.0000507213  -0.0000239515  -0.0000500611
        0.0000257565  -0.0000898363   0.0005164981   0.0000703477   0.0004328101
       -0.0059703031  -0.0039396774   0.0024244693
        0.0054900798  -0.0280532940  -0.0271437307  -0.0584332814  -0.0123498086
        0.0130715520  -0.0365962867  -0.1532546403  -0.1127502521   0.1032565204
        0.3717902311   0.2110461525  -0.0510466799  -0.0818578125  -0.0026218704