$hessian                                                                        
        0.4569745036   0.0055183784   0.0400917310  -0.1407007640   0.0082238676
        0.0524913070  -0.0007518704   0.0007909349   0.0035039301  -0.0197665048
       -0.0112710570   0.0078587607  -0.0008248579   0.0018077091  -0.0000644010
       -0.0004900885  -0.0006715422  -0.0007191213   0.0003070827  -0.0000556256
        0.0000218820  -0.0002269728  -0.0003773924  -0.0007328017   0.0003112103
       -0.0016358549   0.0016240950  -0.0004581445  -0.0002668159  -0.0000188992
        0.0002723485  -0.0000337701  -0.0001420214  -0.0000390954   0.0000796034
        0.0001358094   0.0001449526  -0.0001290959  -0.0001089669  -0.0000797640
        0.0001026249   0.0001652754  -0.0001292212   0.0000181711   0.0000064114
        0.0000441593  -0.0000288333  -0.0000564290   0.0000390327  -0.0000310321
       -0.0000266343   0.0000292384   0.0000317701  -0.0000234245   0.0000284743
       -0.0000231336  -0.0000509514  -0.0000152736   0.0000196972   0.0000272171
       -0.0000153955   0.0000097820   0.0000270503  -0.0000409494   0.0000163670
        0.0000373275  -0.0000152653   0.0000067801   0.0000162336  -0.0000166117
        0.0000071706   0.0000094439   0.0000230649  -0.0000190623   0.0000158250
       -0.0000180530   0.0000146134   0.0000259977  -0.0000191833   0.0000048803
        0.0000258384  -0.0000252056  -0.0000176358   0.0000106159   0.0000225796
       -0.0000001117  -0.0000407820   0.0000059602  -0.0000339864  -0.0000201301
        0.0000345271   0.0000171327  -0.0000070980  -0.0000945034   0.0000526160
       -0.0000237601   0.0002183920   0.0028305774   0.0005564787  -0.0001978987
       -0.0001411041  -0.0009608614   0.0002650701   0.0000672890   0.0000075004
       -0.0004148698  -0.0000570188  -0.0009815293  -0.0007345890  -0.0014241586
        0.0008548277  -0.0251156387   0.0115735589   0.0026646004  -0.1246925973
        0.0969395088  -0.0625541258  -0.0941226696  -0.1000926410  -0.0014407153
       -0.0501670793  -0.0115945876  -0.0408329451   0.0004475084  -0.0001460127
       -0.0005091922   0.0005681974  -0.0001395881  -0.0006973745   0.0004995711
       -0.0001706441  -0.0006331360  -0.0002435128   0.0003807234   0.0000152984
       -0.0000119905   0.0000222342   0.0000442655  -0.0000600764   0.0000070006
        0.0000955278  -0.0001129089  -0.0001066732   0.0000517212  -0.0000328203
       -0.0000019278  -0.0000117959  -0.0000196660   0.0000120132  -0.0000079968
       -0.0000015284   0.0000087820   0.0000147636  -0.0000088062  -0.0000175312
        0.0000102066  -0.0000017271  -0.0000238255  -0.0000058996   0.0000060502
       -0.0000101246  -0.0000088010  -0.0000026273  -0.0000137132  -0.0000115170
        0.0000029160  -0.0000024755   0.0000059722   0.0000060258   0.0000088525
       -0.0000047073  -0.0000110667  -0.0000149592  -0.0000171233  -0.0000026746
        0.0000049938   0.0000098273   0.0000006538   0.0000131667  -0.0000061085
        0.0000130429  -0.0000011565  -0.0000113336   0.0000236678   0.0000131688
        0.0000012791  -0.0000020190   0.0000126247   0.0000098275   0.0000086848
        0.0000004398   0.0000055110   0.0000013343  -0.0000429094  -0.0000458105
       -0.0001264709   0.0001124392  -0.0000606329  -0.0000930310   0.0000486625
        0.0001072533  -0.0000124191  -0.0000063517   0.0000500709  -0.0003818372
       -0.0001757825   0.0002373441
        0.0055183784   0.5270927410  -0.0053833922   0.0061456092  -0.0618376662
       -0.0023046505   0.0065249622   0.0001715377  -0.0061851535  -0.0236354398
       -0.0026097902   0.0101901843  -0.0007385549  -0.0013583098   0.0007161519
        0.0003027698   0.0006623520  -0.0007695485  -0.0002266319  -0.0001991515
       -0.0000372703  -0.0001485169  -0.0001311738  -0.0010974366  -0.0003681014
       -0.0039448605   0.0013108967   0.0000009073   0.0016413044  -0.0004660953
       -0.0000622618   0.0000199093   0.0000455921   0.0000088862   0.0000631743
       -0.0000214617   0.0000086120   0.0000093553   0.0000278026   0.0000393684
        0.0000383164   0.0000767430  -0.0000436400  -0.0000118860  -0.0000332421
        0.0000049448   0.0000075265   0.0000028429   0.0000024283  -0.0000355806
       -0.0000129771  -0.0000004486   0.0000048703   0.0000146982   0.0000019964
       -0.0000085285   0.0000023224  -0.0000009864   0.0000060756   0.0000048926
        0.0000051620  -0.0000073446  -0.0000074318  -0.0000059415   0.0000107642
        0.0000068767   0.0000033517   0.0000006088  -0.0000017518   0.0000025280
        0.0000016722  -0.0000023838  -0.0000015774   0.0000030182  -0.0000040378
        0.0000062686  -0.0000034005  -0.0000079708   0.0000004330  -0.0000031404
       -0.0000041242   0.0000068333   0.0000044716  -0.0000021281  -0.0000018991
        0.0000055413   0.0000069243   0.0000000457   0.0000114067   0.0000009282
        0.0000007724  -0.0000001569  -0.0000028746  -0.0000594932  -0.0000007570
       -0.0000460090   0.0003646935  -0.0032662821   0.0001173816   0.0000046568
        0.0003509047   0.0008621232   0.0002425686  -0.0000556911   0.0001059191
       -0.0003475455   0.0008846259   0.0001613979   0.0006799487  -0.0014439780
        0.0003400400   0.0199397252  -0.0029898375  -0.0058489137   0.0971227258
       -0.1562539171   0.0716690077  -0.1005274947  -0.2326953484  -0.0012032447
       -0.0114776908  -0.0623905192  -0.0613479575   0.0000951856   0.0000001015
       -0.0019117525  -0.0002467042   0.0001657784   0.0004992521   0.0007270804
        0.0002512443  -0.0001539994  -0.0010563507  -0.0007444589   0.0008521642
        0.0000054387   0.0000003721   0.0000064959  -0.0001035703   0.0000396563
        0.0001376522  -0.0001095035  -0.0002187638   0.0000370860  -0.0000029916
       -0.0000265609   0.0000158124   0.0000066139  -0.0000004497   0.0000000836
       -0.0000054850  -0.0000085507  -0.0000085850  -0.0000002046   0.0000112785
       -0.0000035505   0.0000012390   0.0000027906  -0.0000004931   0.0000005052
        0.0000021252   0.0000006758   0.0000000136   0.0000012433   0.0000020020
       -0.0000009022   0.0000005096  -0.0000001705   0.0000005010  -0.0000002352
       -0.0000000520  -0.0000006214   0.0000012976   0.0000038321   0.0000014174
       -0.0000060355   0.0000005354   0.0000027049   0.0000000033  -0.0000006581
       -0.0000015874   0.0000001676   0.0000013087  -0.0000021602  -0.0000002863
        0.0000005137  -0.0000001737  -0.0000015173  -0.0000005632  -0.0000002924
       -0.0000039803   0.0000021840  -0.0000152698  -0.0000223904   0.0000087807
        0.0000906619  -0.0001382294   0.0001001188   0.0001020718  -0.0000233587
       -0.0001069308  -0.0000076863  -0.0000115127  -0.0000061965   0.0012277175
       -0.0010130951  -0.0003482159
        0.0400917310  -0.0053833922   0.4974759119   0.0443533811  -0.0027635469
       -0.0842241233   0.0245335906  -0.0045945894  -0.0222307026   0.0037512347
        0.0026479894   0.0001885717  -0.0002429989   0.0001148731   0.0002344139
        0.0001266825  -0.0001595051   0.0001254803   0.0000861489   0.0000063810
        0.0000749158  -0.0000710017   0.0001329878   0.0000138503  -0.0003773796
       -0.0002896249  -0.0007312427   0.0001601795  -0.0005158469   0.0000512465
       -0.0000405813   0.0000896100   0.0001470042   0.0000410166   0.0000034785
       -0.0000826047  -0.0001753204   0.0002029358   0.0001511845   0.0001854549
       -0.0000804603   0.0000711720   0.0001014292   0.0000094380  -0.0000836208
       -0.0000713240   0.0000370226   0.0000434756  -0.0000095266  -0.0000249748
        0.0000020294  -0.0000408220  -0.0000386810   0.0000264724  -0.0000421830
        0.0000159670   0.0000552108   0.0000225873  -0.0000409006  -0.0000285505
        0.0000245556  -0.0000004736  -0.0000367324   0.0000345263  -0.0000088580
       -0.0000430556   0.0000224042  -0.0000114209  -0.0000067730   0.0000154671
       -0.0000072780  -0.0000059147  -0.0000183949   0.0000105903  -0.0000081802
        0.0000112748  -0.0000126034  -0.0000286350   0.0000186668  -0.0000138858
       -0.0000244521   0.0000257926   0.0000095424  -0.0000051200  -0.0000055153
        0.0000155960   0.0000506770  -0.0000031969   0.0000161145   0.0000023588
        0.0000243475   0.0000300196  -0.0000213951  -0.0003032033  -0.0000465102
       -0.0000538592  -0.0006475066   0.0017800959  -0.0010535458  -0.0000721586
       -0.0003217197  -0.0004383702  -0.0000763141   0.0000649447  -0.0000147518
        0.0003224714  -0.0002811094  -0.0001036764  -0.0006854360   0.0007882974
        0.0001787447  -0.0079105534   0.0002654679   0.0053220540  -0.0632561551
        0.0720529467  -0.0893204069  -0.0018818926  -0.0016645142  -0.0434800819
       -0.0403470733  -0.0613235460  -0.2576632835   0.0003877572  -0.0018373038
       -0.0063477552   0.0009251913  -0.0000491624   0.0009760718   0.0006122533
        0.0006236539   0.0009671633   0.0005187305   0.0004349918  -0.0002831491
        0.0000090631   0.0000068318  -0.0000285968   0.0000212883   0.0000103911
       -0.0000046842   0.0000094552   0.0000113839   0.0000223758   0.0000239068
       -0.0000670160  -0.0000153452   0.0000199645  -0.0000159513  -0.0000074598
        0.0000114038  -0.0000018386  -0.0000017088   0.0000111381   0.0000094183
       -0.0000063003  -0.0000012452   0.0000172653   0.0000031123  -0.0000068163
        0.0000086915   0.0000108323   0.0000017331   0.0000098124   0.0000065728
        0.0000010874  -0.0000007411  -0.0000011628  -0.0000059564  -0.0000077435
        0.0000032522   0.0000057608   0.0000112858   0.0000113692   0.0000012675
        0.0000007213  -0.0000126743  -0.0000022384  -0.0000101805   0.0000056780
       -0.0000094560  -0.0000019923   0.0000073693  -0.0000133893  -0.0000032151
       -0.0000005375  -0.0000034421  -0.0000100631  -0.0000064038  -0.0000149894
        0.0000056357   0.0000080431   0.0000062155  -0.0000194906  -0.0000039852
       -0.0000706818   0.0000697975  -0.0000408487  -0.0000400145   0.0000098866
        0.0000703332   0.0000172759  -0.0000186079  -0.0000199257  -0.0000896676
        0.0001026817   0.0001626684
       -0.1407007640   0.0061456092   0.0443533811   0.4484977062   0.0008156300
        0.0147355235  -0.0583892373  -0.0028007334  -0.0114088968  -0.0856507645
       -0.0474607856  -0.0048028794   0.0077046264   0.0057342587   0.0024380085
        0.0009960276   0.0025402732  -0.0036294306  -0.0010070173  -0.0001731530
       -0.0002094955  -0.0028811426  -0.0006234222  -0.0041340477  -0.0153880808
       -0.0226951796  -0.0032366276   0.0027346009   0.0010353104   0.0027666433
        0.0001066678  -0.0000759588  -0.0003419026   0.0004756234   0.0002108745
        0.0002464944   0.0000453302   0.0005442988   0.0003412643  -0.0002825366
        0.0001444752   0.0007776520   0.0008773792  -0.0004183038  -0.0008624636
       -0.0002439912   0.0001384929   0.0002151502   0.0000189563   0.0001807502
       -0.0000277857  -0.0001454396  -0.0001732914   0.0000987896  -0.0000906371
        0.0001024235   0.0001780038   0.0000467805  -0.0000171122  -0.0000410409
        0.0000050698   0.0001068067  -0.0000490718   0.0001323674  -0.0000427960
       -0.0002025479   0.0000679071  -0.0000741938   0.0001124815   0.0000149826
        0.0000078868  -0.0000018703  -0.0000057055   0.0000065835   0.0000345383
        0.0001967677  -0.0000170486  -0.0002432629  -0.0000923398  -0.0001547731
       -0.0000545470   0.0000491493  -0.0000341097   0.0000112721  -0.0000794541
       -0.0000328325   0.0002557183   0.0000492785   0.0000842858  -0.0000750874
       -0.0002569226  -0.0001073860  -0.0001229407  -0.0008025918   0.0000593981
        0.0000657892  -0.0181225523   0.0148900160  -0.0146356537  -0.0023804448
       -0.0023076665  -0.0036947103  -0.0009126019  -0.0000889655  -0.0002995136
        0.0018859604  -0.0035715279  -0.0014916568   0.0063142872   0.0018575531
        0.0032777239  -0.1005077971   0.0450556873  -0.0346226500  -0.0201586164
        0.0042631488   0.0076340874  -0.0165058068  -0.0025403556   0.0077801710
        0.0013349583   0.0005026585   0.0015764626   0.0024832384   0.0066603888
        0.0237884816  -0.0038656512  -0.0028340689  -0.0168340693  -0.0029363616
       -0.0054146627  -0.0126058537  -0.0006341711   0.0008075569   0.0009672561
        0.0002788541   0.0008746532  -0.0001446814  -0.0002774863   0.0002489260
        0.0005719571  -0.0005899401  -0.0010114998   0.0000660397   0.0000076453
       -0.0001405790   0.0000770913   0.0000128670  -0.0000340501   0.0000289443
        0.0000076622  -0.0000023139   0.0000058312  -0.0000088067   0.0000152469
        0.0000056054   0.0000027446  -0.0000476614  -0.0000212524   0.0000151245
       -0.0000029799  -0.0000181899  -0.0000096971  -0.0000089497  -0.0000079049
        0.0000171944  -0.0000175370   0.0000119626   0.0000032152   0.0000093216
       -0.0000151147  -0.0000097867  -0.0000084386   0.0000102703  -0.0000385626
        0.0000081149  -0.0000243775   0.0000078689   0.0000068758  -0.0000069919
        0.0000236240  -0.0000128657  -0.0000300414   0.0000409872   0.0000737205
       -0.0000167817  -0.0000104328   0.0000312669   0.0000238969  -0.0000568030
        0.0001165373   0.0000768807  -0.0000637683  -0.0000191872  -0.0000425186
       -0.0006523852   0.0007166114  -0.0005689393  -0.0003048384   0.0000679509
        0.0005843621   0.0003270962  -0.0006973506   0.0002280790  -0.0007194137
       -0.0004018526   0.0011789857
        0.0082238676  -0.0618376662  -0.0027635469   0.0008156300   0.4958043515
       -0.0195833956  -0.0050146784  -0.0694470342  -0.0272152162  -0.0515246737
       -0.1641664256   0.0008534151  -0.0058147272  -0.0313108325   0.0045059893
        0.0027732044  -0.0009664821   0.0030380192  -0.0005814394  -0.0001664146
       -0.0002885664  -0.0003672200   0.0008996734   0.0009046198  -0.0116237090
       -0.0041394969  -0.0037882540   0.0011493059  -0.0025966127   0.0005646066
        0.0001489327  -0.0002461670  -0.0003045779  -0.0000111733  -0.0000246796
        0.0001523166   0.0000586095   0.0000292394  -0.0000008926  -0.0001686528
        0.0000557966   0.0000262750   0.0002597955  -0.0001686765  -0.0002233508
        0.0000025835   0.0000108961   0.0000294122  -0.0000040811   0.0001164473
        0.0000154386  -0.0000454291  -0.0000310898   0.0000096217  -0.0000099626
        0.0000190137   0.0000170358  -0.0000091657   0.0000133718   0.0000055117
       -0.0000083678   0.0000293063  -0.0000052800   0.0000410347  -0.0000081969
       -0.0000462891   0.0000177799  -0.0000212050   0.0000371902  -0.0000013218
        0.0000022798   0.0000014015   0.0000028590  -0.0000037802   0.0000134320
        0.0000489053  -0.0000081065  -0.0000570368  -0.0000322104  -0.0000350574
       -0.0000171153   0.0000018797  -0.0000090747   0.0000035014  -0.0000234590
       -0.0000115558   0.0000570750   0.0000044889   0.0000197845  -0.0000102440
       -0.0000890382  -0.0000638349  -0.0000044790   0.0001125668  -0.0000319786
        0.0001756840   0.0036144396   0.0062539812   0.0012295979  -0.0021893831
        0.0002689444   0.0000213008   0.0002396165  -0.0000198400   0.0000856857
       -0.0034592124  -0.0034673817   0.0005104316   0.0131365456  -0.0282757371
        0.0134775190   0.0491370820  -0.1252615220   0.0419373471   0.0186434861
       -0.0028563778  -0.0090305534  -0.0228370421  -0.0004445338   0.0124688902
        0.0068514113  -0.0007343971  -0.0046475077   0.0003674738  -0.0008492530
       -0.0033040745   0.0031361530   0.0041655869   0.0181983417  -0.0054849963
       -0.0102429998  -0.0254959203  -0.0007307563   0.0005385405  -0.0011331223
       -0.0004271016  -0.0008290307   0.0001144044   0.0001366547   0.0000592621
       -0.0002790105   0.0001314720  -0.0000406726   0.0000171713  -0.0000120412
        0.0000134213  -0.0000244792  -0.0000295817  -0.0000212758  -0.0000015350
        0.0000051554   0.0000034516   0.0000119371  -0.0000030581  -0.0000037145
        0.0000063838   0.0000057585  -0.0000160961  -0.0000041816   0.0000061728
       -0.0000013582  -0.0000074372  -0.0000014079  -0.0000036017  -0.0000040805
        0.0000021574  -0.0000030017   0.0000017856   0.0000014939   0.0000022299
       -0.0000040123  -0.0000010210  -0.0000039854  -0.0000044806  -0.0000105289
        0.0000085992  -0.0000034941  -0.0000011354   0.0000014623  -0.0000019485
        0.0000061836  -0.0000020994  -0.0000070254   0.0000077941   0.0000138145
       -0.0000028275  -0.0000016042   0.0000054850   0.0000050195  -0.0000041386
        0.0000332614   0.0000146873   0.0000267680   0.0000573651  -0.0000131663
       -0.0003549172   0.0002052244  -0.0003163940   0.0001035592   0.0000224763
       -0.0002825815   0.0005794215  -0.0009410616   0.0006253237   0.0010769932
        0.0006590410  -0.0002602955
        0.0524913070  -0.0023046505  -0.0842241233   0.0147355235  -0.0195833956
        0.4320320130  -0.0194441942  -0.0280219818  -0.1588221775  -0.0046590656
        0.0027394785  -0.0563109546   0.0055322253   0.0100157555  -0.0002519325
       -0.0035475951   0.0034069551   0.0041602370   0.0000055573  -0.0001448628
       -0.0003109437  -0.0041173909   0.0013113200   0.0036340502  -0.0051891455
       -0.0093861633   0.0025467168   0.0028153011   0.0008345166  -0.0022702718
        0.0002190521  -0.0005556091  -0.0006538584  -0.0002124511   0.0000382358
        0.0003278963   0.0000340053  -0.0003401973  -0.0001345672  -0.0002510970
        0.0005936516   0.0001032156   0.0003188057  -0.0006074549  -0.0004729435
        0.0001943883  -0.0000234600  -0.0000630972   0.0000016933   0.0002204339
        0.0000886570  -0.0001189466  -0.0000689332   0.0000546055  -0.0000765824
        0.0000340511   0.0000687517   0.0000060458  -0.0000516957  -0.0000192182
        0.0000142944   0.0001241384  -0.0000354432   0.0001250411  -0.0000692399
       -0.0001315139   0.0000198684  -0.0000235379   0.0000596148  -0.0000008730
        0.0000072022  -0.0000014024   0.0000075535  -0.0000007293   0.0000065256
        0.0000849834  -0.0000120878  -0.0000625737  -0.0000543677  -0.0000533714
       -0.0000324925   0.0000139623  -0.0000048107   0.0000136631  -0.0000154448
        0.0000144530   0.0000447696   0.0000180654   0.0000405507   0.0000168062
       -0.0000397983  -0.0000964922   0.0000203479   0.0001055055   0.0001776091
        0.0005209501  -0.0128431483   0.0065485172  -0.0055231396  -0.0037745327
        0.0004844416   0.0039367179  -0.0005349815  -0.0002436894  -0.0006092819
       -0.0016054927   0.0008607647   0.0058579009   0.0002376306   0.0075583296
       -0.0020933875  -0.0346592123   0.0399019177  -0.0803511189  -0.0087704456
        0.0008518451   0.0052008893   0.0024687268   0.0009120228  -0.0008739048
        0.0246393551  -0.0028704108  -0.0173815516   0.0006818240  -0.0049501831
       -0.0184206179  -0.0052604297  -0.0018928617  -0.0181125875  -0.0024741014
       -0.0038237939  -0.0046284443   0.0012513701  -0.0004650688  -0.0021392386
        0.0001592550   0.0006905265   0.0000765609   0.0005186713  -0.0002999602
       -0.0011629730  -0.0003439788  -0.0004722509  -0.0001198693  -0.0000290881
        0.0000856989  -0.0000946373  -0.0001115985  -0.0000757204  -0.0000026655
        0.0000196724   0.0000033860   0.0000153698  -0.0000015488   0.0000046170
        0.0000071291   0.0000092616  -0.0000251967  -0.0000012946   0.0000089930
       -0.0000042055  -0.0000082091  -0.0000019252  -0.0000114365  -0.0000089957
        0.0000021089  -0.0000035667   0.0000058370   0.0000044238   0.0000056477
       -0.0000042043  -0.0000040753  -0.0000164699  -0.0000136065  -0.0000107282
        0.0000112037   0.0000099129   0.0000043278   0.0000052863  -0.0000028410
        0.0000140651  -0.0000035626  -0.0000142740   0.0000287695   0.0000205234
        0.0000025414  -0.0000055650   0.0000101792   0.0000104185   0.0000495134
        0.0000433812   0.0000071054   0.0000306709   0.0001603506  -0.0000526903
       -0.0001859734   0.0002932402  -0.0002814954   0.0006555124  -0.0003500028
       -0.0010957738  -0.0000727439  -0.0000694931   0.0001411043   0.0008891912
       -0.0010836849  -0.0021759921
       -0.0007518704   0.0065249622   0.0245335906  -0.0583892373  -0.0050146784
       -0.0194441942   0.5206015556  -0.0030481371  -0.0092025743  -0.0041530316
       -0.0099224665  -0.0121575795  -0.0001240808   0.0005777627  -0.0011408205
       -0.0004904602  -0.0001441529   0.0003224948   0.0000951871   0.0000154977
        0.0000831972  -0.0006251916  -0.0000083176   0.0002836041   0.0000785051
       -0.0018423316   0.0002673904  -0.0001470718  -0.0000407031  -0.0000306149
        0.0000904687  -0.0000336088   0.0000208224  -0.0000595084  -0.0000300331
        0.0000370672   0.0000276523  -0.0000333667  -0.0000129910  -0.0000934735
        0.0000354762  -0.0000954078   0.0000529755  -0.0000829429  -0.0000297983
        0.0000604857  -0.0000271740   0.0000050984  -0.0000061264   0.0000628876
       -0.0000084988  -0.0000213393   0.0000188450   0.0000007722   0.0000095209
       -0.0000171405  -0.0000230748  -0.0000119215   0.0000289939   0.0000284556
        0.0000001039  -0.0000001686  -0.0000044886   0.0000139487   0.0000233318
       -0.0000029462   0.0000106200  -0.0000156432   0.0000236096  -0.0000008225
       -0.0000035428   0.0000010667  -0.0000022148  -0.0000051019   0.0000167053
        0.0000196721  -0.0000196366  -0.0000378628  -0.0000160754  -0.0000157723
       -0.0000155226  -0.0000017004  -0.0000015669   0.0000060804  -0.0000098745
       -0.0000032308   0.0000255726  -0.0000091973   0.0000173639   0.0000039413
       -0.0000600838  -0.0000367917  -0.0000012166   0.0002451704  -0.0000521360
        0.0000314646  -0.0004352455   0.0021900566  -0.0010951504  -0.0007569795
        0.0000584905   0.0003063784   0.0000527139   0.0000743970   0.0000653251
       -0.0005509022   0.0001500254   0.0002843760  -0.0000644901  -0.0009022923
       -0.0008153499  -0.0059790194   0.0011507338  -0.0184712248   0.0009266461
       -0.0000493926   0.0005902833   0.0008749427   0.0004234783   0.0003760016
       -0.0041244595   0.0007161980   0.0039206150  -0.2299872240   0.0134838021
        0.0988497346  -0.1223056775   0.0939293889  -0.0635323842  -0.0939983044
       -0.0982449944  -0.0034336574   0.0000558492   0.0003933933  -0.0000854356
        0.0000036967   0.0000190863  -0.0000068449   0.0000374144  -0.0000289419
       -0.0000867724  -0.0000775900  -0.0001020443  -0.0000525697  -0.0000101261
        0.0000416287   0.0000075020  -0.0000275099  -0.0000229960  -0.0000020917
        0.0000031939   0.0000020352   0.0000089128  -0.0000010673  -0.0000027717
       -0.0000001285  -0.0000011474  -0.0000030817  -0.0000002820  -0.0000063229
        0.0000027836  -0.0000009052  -0.0000028581   0.0000045806   0.0000001930
        0.0000064410  -0.0000043854   0.0000024933  -0.0000040730  -0.0000013284
       -0.0000017927  -0.0000052393   0.0000101043   0.0000122762  -0.0000085965
       -0.0000059733  -0.0000197038   0.0000003932  -0.0000026107   0.0000007035
       -0.0000009678  -0.0000014577  -0.0000031234   0.0000031205   0.0000060242
       -0.0000007505  -0.0000020027   0.0000027887   0.0000024255   0.0000079568
        0.0000198685   0.0000051243  -0.0000230201   0.0000661402  -0.0000023849
       -0.0000754265   0.0000847011  -0.0001284041   0.0000473735  -0.0000224532
       -0.0000988632   0.0000108311  -0.0000196625  -0.0000009150   0.0000850922
       -0.0003217963  -0.0000769534
        0.0007909349   0.0001715377  -0.0045945894  -0.0028007334  -0.0694470342
       -0.0280219818  -0.0030481371   0.5211413543  -0.0248207675  -0.0095421435
       -0.0139038667  -0.0240135401  -0.0002773693  -0.0012788093  -0.0005323255
       -0.0004374100   0.0008695856   0.0003661247  -0.0002036276  -0.0001345019
       -0.0000623002  -0.0009942101   0.0001802014   0.0006813741   0.0009041703
       -0.0040215880   0.0003206865  -0.0002765598   0.0015392409  -0.0006014987
        0.0000281300   0.0000652122   0.0001736937   0.0000139934  -0.0000210723
       -0.0000134356   0.0000763087  -0.0000389092  -0.0000270930  -0.0001122385
        0.0000207446  -0.0000684292   0.0000292325  -0.0000172607   0.0000589772
        0.0000185969  -0.0000069677  -0.0000168220   0.0000026107   0.0000123392
       -0.0000101293   0.0000087181   0.0000208641   0.0000030894   0.0000187515
       -0.0000103568  -0.0000195460  -0.0000101959   0.0000330378   0.0000213355
       -0.0000084352   0.0000006502   0.0000087903  -0.0000104277   0.0000153293
        0.0000128436   0.0000012689  -0.0000037590   0.0000175937  -0.0000057218
        0.0000049165   0.0000021791   0.0000083406  -0.0000055729   0.0000064286
        0.0000120344  -0.0000000605  -0.0000133955  -0.0000187120  -0.0000066865
        0.0000039703  -0.0000097187  -0.0000060494   0.0000034342  -0.0000031864
       -0.0000069705  -0.0000003103  -0.0000003196   0.0000053285  -0.0000066056
       -0.0000468224  -0.0000300674   0.0000047120   0.0000856030   0.0000138391
       -0.0000153758   0.0005941835  -0.0029120520   0.0012657633   0.0006471545
        0.0001301311  -0.0004646848   0.0002512602  -0.0000801788   0.0001967778
       -0.0001035052   0.0007105231  -0.0007247024   0.0002960419  -0.0016986837
        0.0009575736   0.0046404308   0.0049159306   0.0165051635  -0.0002657823
        0.0000597606  -0.0003981616  -0.0001315252   0.0002865300   0.0007361675
        0.0004886401   0.0004273372  -0.0004414374   0.0133393130  -0.0455157841
       -0.0063685915   0.0939626752  -0.1545566194   0.0771612082  -0.0979823768
       -0.2346729222  -0.0076147748  -0.0001865991  -0.0012263925  -0.0011038510
        0.0000221086  -0.0000044558  -0.0000096581   0.0000359238  -0.0000550336
       -0.0001824997  -0.0001283940  -0.0002139259  -0.0000107788  -0.0000059483
        0.0000124905   0.0000224177  -0.0000113044  -0.0000044887   0.0000044915
       -0.0000107989  -0.0000059766  -0.0000035982  -0.0000058790   0.0000048018
        0.0000018508   0.0000029754  -0.0000102359  -0.0000029504   0.0000048958
       -0.0000025652  -0.0000056394  -0.0000017695  -0.0000042269  -0.0000028812
        0.0000010996  -0.0000004923   0.0000021984   0.0000034950   0.0000032284
       -0.0000026670  -0.0000043286  -0.0000050108  -0.0000023514  -0.0000030144
       -0.0000029113   0.0000027637   0.0000033367   0.0000048633  -0.0000031659
        0.0000053773  -0.0000001251  -0.0000045907   0.0000082369   0.0000071879
       -0.0000002948   0.0000008827   0.0000063355   0.0000045911   0.0000029752
        0.0000060410   0.0000052709  -0.0000049759   0.0000010423   0.0000044636
        0.0000852872  -0.0001370384   0.0000816547  -0.0000316892   0.0000415058
        0.0001154921  -0.0000019186  -0.0000093329  -0.0000031398   0.0002907909
       -0.0006539053   0.0014354827
        0.0035039301  -0.0061851535  -0.0222307026  -0.0114088968  -0.0272152162
       -0.1588221775  -0.0092025743  -0.0248207675   0.4396253715  -0.0054695333
       -0.0108560672  -0.0045990381  -0.0001482953   0.0017753449  -0.0005988878
       -0.0007178666  -0.0005395291   0.0000309606   0.0002163808   0.0000532000
        0.0001996397  -0.0002302997  -0.0001631797   0.0001455454   0.0014347027
       -0.0001026689  -0.0001746258  -0.0002632287  -0.0004975478  -0.0001777090
        0.0000503274   0.0000232699   0.0001165858   0.0000216763   0.0000501858
        0.0001288168   0.0001074526  -0.0001630291  -0.0001267649  -0.0000261251
        0.0000957548   0.0001491595  -0.0002516955   0.0000603076   0.0000581321
        0.0000532393  -0.0000377759  -0.0000748356   0.0000371411  -0.0000441690
       -0.0000169531   0.0000532590   0.0000371129  -0.0000397439   0.0000338234
       -0.0000219066  -0.0000566552  -0.0000123707   0.0000128717   0.0000191315
       -0.0000203166   0.0000080454   0.0000398082  -0.0000520068   0.0000090275
        0.0000514764  -0.0000275543   0.0000199729   0.0000030769  -0.0000162587
        0.0000066154   0.0000105236   0.0000253270  -0.0000202485   0.0000089422
       -0.0000350408   0.0000222526   0.0000536583  -0.0000154463   0.0000186911
        0.0000409673  -0.0000322382  -0.0000189436   0.0000109112   0.0000310135
       -0.0000002649  -0.0000705758   0.0000118756  -0.0000528101  -0.0000227082
        0.0000604886   0.0000305513   0.0000026177  -0.0000382867   0.0000531244
       -0.0000636070   0.0011472475   0.0019374039  -0.0011951298  -0.0007411124
        0.0001988942   0.0003221587   0.0000530048   0.0001137480   0.0001169409
       -0.0008636193   0.0000497070   0.0001242909  -0.0000864050  -0.0011233745
       -0.0001738739  -0.0104988990   0.0042395693  -0.0210267041  -0.0009479611
        0.0003207429   0.0007276718  -0.0009480705  -0.0001965267   0.0005466880
        0.0030364390  -0.0005086923  -0.0021935548   0.0983229014  -0.0064418134
       -0.0945548035  -0.0629017665   0.0766828183  -0.0934877431  -0.0029189465
       -0.0070244955  -0.0415663660  -0.0001151614   0.0003114205  -0.0000955504
        0.0000260581  -0.0000101995  -0.0000468311   0.0000046957  -0.0000290305
       -0.0000321675  -0.0000127136  -0.0000303932  -0.0000212011  -0.0000398238
        0.0000250773   0.0000005098  -0.0000132441   0.0000306016  -0.0000002386
        0.0000014038   0.0000101103   0.0000096344  -0.0000081276  -0.0000212604
        0.0000085285  -0.0000021496  -0.0000220137  -0.0000046982   0.0000071082
       -0.0000117300  -0.0000080340  -0.0000028402  -0.0000141350  -0.0000109731
        0.0000030743  -0.0000007978   0.0000060388   0.0000073564   0.0000104888
       -0.0000029434  -0.0000103846  -0.0000154551  -0.0000189021   0.0000025088
        0.0000044394   0.0000142531   0.0000012654   0.0000131503  -0.0000041259
        0.0000149416   0.0000003510  -0.0000106331   0.0000268811   0.0000110507