$hessian                                                                        
        0.6668928164  -0.0014028653  -0.1030255766  -0.1688139195  -0.1423436276
        0.0020173119  -0.0699940474  -0.0170722232   0.0139756675   0.0042486169
       -0.0123535576  -0.0041615951  -0.0187107626   0.0317920352   0.0078937316
       -0.0057387306   0.0004841218   0.0028891241  -0.0001208607   0.0008993507
        0.0002087180  -0.0007755502   0.0004552720  -0.0002052682   0.0001733489
        0.0000864736   0.0000120088  -0.0000547740  -0.0001085640  -0.0000478521
        0.0000603822  -0.0000631512  -0.0000026474  -0.0001751573   0.0000067922
        0.0000050947   0.0001420598   0.0000083369   0.0000041155  -0.0000200135
        0.0000452256   0.0000151647   0.0000024246   0.0000054939  -0.0000011736
        0.0000202924   0.0000003948   0.0000006763  -0.0000187998  -0.0000078305
        0.0000042426  -0.0000091636   0.0000226957  -0.0000155532  -0.0000142508
       -0.0000429325   0.0000235954   0.0000410152  -0.0000000204   0.0000022660
       -0.0000154404   0.0000426067  -0.0000241697  -0.0000092628  -0.0000162404
        0.0000179070  -0.0000202881   0.0000163784  -0.0000072852   0.0000176576
        0.0000071764   0.0000030554   0.0000021697   0.0000000455   0.0000029526
       -0.0000243495  -0.0000484542  -0.0000123637   0.0000726338   0.0000782097
        0.0000114979  -0.0000888296   0.0001031500   0.0000393959   0.0002099337
       -0.0001467812   0.0000002591  -0.0001762924   0.0004804682  -0.0000554970
       -0.0000233345  -0.0001046569  -0.0000151256   0.0000636577   0.0000601174
       -0.0000252311  -0.0000512846  -0.0000585615  -0.0000282248   0.0000578451
        0.0000256790   0.0000336013  -0.0000627880  -0.0001153383  -0.0000046860
       -0.0000309666   0.0001627889  -0.0000164316   0.0003389073  -0.0011621036
       -0.0004880201  -0.1297893998   0.1194923824   0.0312423254  -0.2904997100
        0.0298701074   0.0515798667   0.0052168192   0.0059088863   0.0006897772
        0.0010996232   0.0000684207  -0.0002510274  -0.0000016667   0.0000066955
        0.0000109986   0.0000136967   0.0000056644   0.0000052754  -0.0000000578
        0.0000014356  -0.0000023716  -0.0000023267   0.0000012138  -0.0000035078
        0.0000004410   0.0000007147  -0.0000010121   0.0000019619   0.0000024807
       -0.0000005411   0.0000005102   0.0000028847   0.0000008329  -0.0000003785
        0.0000062101   0.0000007506  -0.0000013540   0.0000048118   0.0000001148
        0.0000014554  -0.0000048195   0.0000030850   0.0000016576  -0.0000010991
       -0.0000021894  -0.0000157527  -0.0000071389   0.0000092323   0.0000264176
       -0.0000289335   0.0000490144   0.0000534508   0.0000377003   0.0000874435
        0.0000041811  -0.0000100696   0.0000000550   0.0000115356  -0.0000094458
       -0.0000076471   0.0064840015  -0.0150840062  -0.0024341608
       -0.0014028653   0.6236708672   0.0689909122  -0.0632938429  -0.2296763368
       -0.0131410094  -0.0823154140   0.0448577347   0.0193260502  -0.0018631195
       -0.0659435473  -0.0073697133   0.0820174490   0.0124721690  -0.0128188507
       -0.0025550880   0.0063619839  -0.0001148744   0.0029705882  -0.0013212535
       -0.0003473264  -0.0007195266   0.0012577297   0.0002908827   0.0003664470
       -0.0000572626  -0.0000018967  -0.0000816547  -0.0000880448   0.0000150977
        0.0000980528  -0.0001215186  -0.0000211772  -0.0002658303  -0.0000323667
       -0.0000319902   0.0002625035   0.0000166247  -0.0000008071  -0.0000330320
        0.0000825385   0.0000143614  -0.0000060672   0.0000010063   0.0000029631
        0.0000267899   0.0000033007  -0.0000008852  -0.0000248209  -0.0000246370
        0.0000132987  -0.0000065401   0.0000341581  -0.0000251687  -0.0000303388
       -0.0000761049   0.0000394653   0.0000772462   0.0000127536  -0.0000063370
       -0.0000119162   0.0000529646  -0.0000351355  -0.0000064215  -0.0000354501
        0.0000288285  -0.0000247963   0.0000246272  -0.0000162291   0.0000370979
       -0.0000031038   0.0000084093  -0.0000123176   0.0000014888  -0.0000032359
       -0.0000532959  -0.0001082922  -0.0000073566   0.0001488736   0.0001218641
        0.0000077283  -0.0001201647   0.0001574286   0.0000576424  -0.0000975904
       -0.0004989431  -0.0000919645  -0.0002659784   0.0006925876   0.0001970261
       -0.0000207917  -0.0000270111  -0.0000003931   0.0000649019   0.0000687130
       -0.0000086599  -0.0000704421  -0.0000759452  -0.0000587189   0.0000367407
        0.0000595529   0.0000267412  -0.0000680269  -0.0001595283  -0.0000011495
       -0.0000067140   0.0001736135  -0.0000088343  -0.0005383395  -0.0013505568
       -0.0001079034   0.0448674619  -0.2943358337  -0.0412145689   0.0305908737
       -0.0462341616  -0.0071593475  -0.0146776441  -0.0251529394  -0.0011091321
        0.0000413343  -0.0001612990  -0.0001959602  -0.0000965000  -0.0000521672
       -0.0000776170   0.0000279223   0.0000053922   0.0000065860  -0.0000037639
        0.0000071479  -0.0000080598  -0.0000043438  -0.0000059114  -0.0000009267
        0.0000049835  -0.0000069410   0.0000039092   0.0000097363  -0.0000026090
        0.0000007620   0.0000093741  -0.0000014636  -0.0000021973   0.0000097926
        0.0000068844  -0.0000063185  -0.0000024110   0.0000047867  -0.0000057022
       -0.0000083671  -0.0000163990   0.0000068098   0.0000232712  -0.0000171825
       -0.0000073578  -0.0000122637  -0.0000137074   0.0000168120   0.0000044263
       -0.0000690639   0.0000078617  -0.0000012998   0.0000065592   0.0000763530
       -0.0000021433  -0.0000126798   0.0000014232   0.0000156190  -0.0000070633
       -0.0000066145   0.0069921862  -0.0244651526  -0.0051265048
       -0.1030255766   0.0689909122   0.1385302557   0.0129183851   0.0022295265
       -0.0544829556   0.0051075163   0.0058277230   0.0184140494  -0.0025633907
       -0.0045407598  -0.0094191934   0.0140724596  -0.0054037645  -0.0034907621
        0.0021042405   0.0003872140   0.0089903211   0.0010751259  -0.0009940240
        0.0001663566   0.0000818225   0.0005301930  -0.0008855486   0.0000674217
       -0.0000553644  -0.0000259167  -0.0000124706  -0.0000030861   0.0000093814
        0.0000183189  -0.0000182454  -0.0000145177  -0.0000385130  -0.0000128823
       -0.0000098810   0.0000465224   0.0000011874  -0.0000014118  -0.0000069350
        0.0000186614   0.0000032648  -0.0000007914   0.0000002734  -0.0000006071
        0.0000060990   0.0000045540   0.0000041972  -0.0000027300  -0.0000040314
        0.0000026611   0.0000003233   0.0000085419  -0.0000031611  -0.0000049757
       -0.0000106722   0.0000007864   0.0000064269   0.0000057732  -0.0000021755
        0.0000011628   0.0000014604  -0.0000098541   0.0000008085  -0.0000089012
        0.0000031324  -0.0000085254   0.0000005738  -0.0000044985   0.0000091240
       -0.0000038386  -0.0000040060  -0.0000008514  -0.0000025937  -0.0000038852
       -0.0000114919  -0.0000221299   0.0000043430   0.0000296648   0.0000230908
       -0.0000005574  -0.0000020157   0.0000151231   0.0000280527  -0.0001331445
       -0.0001198922  -0.0000039651   0.0001275673   0.0002267232  -0.0005430122
       -0.0000139987   0.0000085894   0.0000547621   0.0000109685   0.0000052141
        0.0000038134  -0.0000029229  -0.0000147175  -0.0000098675  -0.0000016328
        0.0000128172  -0.0000079912   0.0000033661  -0.0000196966   0.0000037713
       -0.0000001983   0.0000177344   0.0000188441  -0.0006724443   0.0004680747
       -0.0005338679   0.0212550878  -0.0544536597  -0.0586240093   0.0517106520
       -0.0069812778  -0.0448111627  -0.0023316323  -0.0051578353   0.0034159816
       -0.0002460244  -0.0000357080  -0.0003255176  -0.0000178857  -0.0000182859
       -0.0000150866   0.0000040387   0.0000006213  -0.0000031255  -0.0000027385
        0.0000034016  -0.0000016492  -0.0000009170  -0.0000001991   0.0000034585
        0.0000018678   0.0000008943   0.0000003423   0.0000029155  -0.0000010933
       -0.0000012379   0.0000011623  -0.0000004988  -0.0000026964   0.0000018456
       -0.0000020594  -0.0000037374  -0.0000018345  -0.0000013008  -0.0000070899
       -0.0000021607  -0.0000036663   0.0000022688   0.0000060092  -0.0000040216
       -0.0000022952  -0.0000003489  -0.0000042545   0.0000020442   0.0000055902
       -0.0000497622   0.0001927419  -0.0000135269   0.0000157995   0.0000045981
       -0.0000021337  -0.0000018950   0.0000071777   0.0000022137   0.0000028680
        0.0000030743   0.0004431044  -0.0008574283   0.0033855633
       -0.1688139195  -0.0632938429   0.0129183851   0.6193864763   0.0017991507
       -0.0914444671  -0.3325945410  -0.0229573324   0.0490002380  -0.0398577046
        0.1053713230   0.0226888120  -0.0539257430  -0.0317225322   0.0031521370
       -0.0004308725  -0.0001671892   0.0000425063  -0.0005543230   0.0010060915
       -0.0000683958   0.0005380873  -0.0007286128  -0.0000587350  -0.0002624876
        0.0000486530   0.0000028012   0.0000885719  -0.0000139973  -0.0000595575
       -0.0000542640   0.0000979251   0.0000278075   0.0002132102   0.0000162836
        0.0000194821  -0.0002338976   0.0000218246  -0.0000280331   0.0000385260
       -0.0000958794   0.0000108315   0.0000022945  -0.0000073931  -0.0000095494
       -0.0000248211  -0.0000072117   0.0000025276   0.0000190805   0.0000168996
       -0.0000178327   0.0000068831  -0.0000393284   0.0000226738   0.0000076705
        0.0000511143  -0.0000295593  -0.0000791967   0.0000125791  -0.0000085150
        0.0000346705  -0.0000627994   0.0000347658   0.0000024660   0.0000208103
       -0.0000214546   0.0000307451  -0.0000276071   0.0000138522  -0.0000222536
        0.0000096851  -0.0000134054   0.0000311261  -0.0000139481  -0.0000034753
        0.0000253936   0.0000719871   0.0000232321  -0.0001318952  -0.0000861374
        0.0000016384   0.0000996105  -0.0001157992  -0.0000520656   0.0003692187
        0.0002792150   0.0000638638  -0.0003609272   0.0000470518   0.0001036582
       -0.0000090718   0.0000132921  -0.0000130079  -0.0000988991  -0.0000209327
       -0.0000212329   0.0000995769   0.0000369957   0.0000588196  -0.0000474328
       -0.0000369463  -0.0000294368   0.0000628369   0.0000927115  -0.0000036264
        0.0000478898  -0.0001361194   0.0000130301  -0.0002800097  -0.0006836952
       -0.0001006344   0.0593202718  -0.0467648729  -0.0167996551  -0.0186261748
       -0.0198848075   0.0008188597  -0.0638217624   0.0707018163   0.0147131682
       -0.0009635004   0.0035333188   0.0028519232   0.0001137032   0.0000860285
        0.0001169701  -0.0000298339   0.0000146943   0.0000070098   0.0000015413
       -0.0000076630   0.0000058793   0.0000016489   0.0000074651  -0.0000069486
       -0.0000078642   0.0000070094  -0.0000075334  -0.0000112480   0.0000019329
       -0.0000037949  -0.0000137238   0.0000012641   0.0000009092  -0.0000179484
       -0.0000038444   0.0000051012  -0.0000100581   0.0000001675   0.0000040118
       -0.0000080578   0.0000235740  -0.0000085756  -0.0000221512   0.0000134881
        0.0000055728  -0.0000013723   0.0000232624  -0.0000052088   0.0000408508
        0.0000997319  -0.0000328412   0.0000121875  -0.0000071135  -0.0000233163
        0.0000037469  -0.0000057399  -0.0000006343  -0.0000135415  -0.0000037087
        0.0000043003   0.0007312121   0.0033677076   0.0021367245
       -0.1423436276  -0.2296763368   0.0022295265   0.0017991507   0.6599633758
        0.0730162062   0.0270846978  -0.1022294292  -0.0115357014   0.0444268535
        0.0090474183  -0.0075808933  -0.0226803100  -0.0045792666   0.0045855298
        0.0015741596  -0.0029903924  -0.0006988199  -0.0015116042   0.0010099636
        0.0002332710   0.0004588008  -0.0008928213  -0.0001834229  -0.0003526165
        0.0000621091   0.0000204344   0.0001184522   0.0000781402   0.0000104882
       -0.0000809842   0.0001160215   0.0000236550   0.0002779314  -0.0000049421
       -0.0000014356  -0.0002508332   0.0000259611  -0.0000126778   0.0000513596
       -0.0001022584  -0.0000004588   0.0000028581  -0.0000004610  -0.0000077604
       -0.0000289436  -0.0000003755   0.0000006527   0.0000269074   0.0000163023
       -0.0000160414   0.0000128365  -0.0000365376   0.0000264960   0.0000103331
        0.0000585746  -0.0000363626  -0.0000727562   0.0000182181  -0.0000084661
        0.0000328636  -0.0000691550   0.0000420973   0.0000066197   0.0000303163
       -0.0000224607   0.0000298814  -0.0000195509   0.0000150638  -0.0000257493
        0.0000022773  -0.0000000047   0.0000170246  -0.0000028695   0.0000041578
        0.0000318149   0.0000758516   0.0000230463  -0.0001223650  -0.0001009293
       -0.0000003220   0.0000943246  -0.0001464271  -0.0000561296   0.0000310812
        0.0002054999   0.0000335996   0.0002979534  -0.0003997257  -0.0000173918
        0.0000100167   0.0001409430   0.0000212032  -0.0001410267   0.0000032596
       -0.0000513717   0.0000867701   0.0000573405   0.0000354380  -0.0000505933
       -0.0000756381  -0.0000162528   0.0000601197   0.0001271597  -0.0000136165
        0.0000476972  -0.0001625172   0.0000144826   0.0002557858   0.0012652721
        0.0002423248   0.0135608749  -0.0653746683  -0.0114726286   0.0020145467
        0.0033339137   0.0001614755   0.0701818953  -0.2595017122  -0.0444392846
        0.0027065636  -0.0052049778  -0.0023224697   0.0000447998   0.0000107299
        0.0000273888  -0.0000097826  -0.0000081432  -0.0000003647   0.0000026143
       -0.0000105034   0.0000041860   0.0000069155   0.0000020578  -0.0000054323
       -0.0000010712   0.0000051823  -0.0000043978  -0.0000046926   0.0000013844
       -0.0000018421  -0.0000092538   0.0000034730   0.0000027047  -0.0000092081
       -0.0000019221   0.0000060988   0.0000041400   0.0000013702   0.0000026030
       -0.0000034536   0.0000086905  -0.0000073181  -0.0000119963   0.0000144482
        0.0000079884   0.0000157592   0.0000282073  -0.0000030221   0.0000122974
        0.0000712819  -0.0000044103   0.0000202031  -0.0000063330  -0.0000098440
       -0.0000002149  -0.0000061420  -0.0000022793  -0.0000135030  -0.0000032249
        0.0000045553   0.0023076823  -0.0041774831  -0.0022617903
        0.0020173119  -0.0131410094  -0.0544829556  -0.0914444671   0.0730162062
        0.1564876513   0.0559100000  -0.0016917308  -0.0662732410   0.0140590324
       -0.0194336228  -0.0014829910   0.0051887623   0.0070901612  -0.0103279478
        0.0003536141  -0.0003876832  -0.0007571744  -0.0001639208  -0.0000784389
       -0.0001014673  -0.0000177643   0.0000092881   0.0000898903  -0.0000152574
        0.0000007779  -0.0000205823  -0.0000086466   0.0000439100   0.0000264401
        0.0000039759  -0.0000056348  -0.0000140521   0.0000089571  -0.0000050388
       -0.0000006379   0.0000157837   0.0000008846  -0.0000115694  -0.0000002852
        0.0000091585  -0.0000035332  -0.0000012424  -0.0000022865  -0.0000060756
        0.0000017940   0.0000046980  -0.0000032632   0.0000024756  -0.0000012030
       -0.0000062284   0.0000021397   0.0000044557  -0.0000052893  -0.0000013327
       -0.0000006570  -0.0000065709  -0.0000031123   0.0000074769  -0.0000065440
        0.0000035792  -0.0000065473  -0.0000024430   0.0000012932  -0.0000008376
       -0.0000014682  -0.0000071587   0.0000017775  -0.0000021083   0.0000022715
       -0.0000044656   0.0000000799  -0.0000035116   0.0000022274  -0.0000044341
       -0.0000088187  -0.0000121870   0.0000119634   0.0000048506  -0.0000041737
       -0.0000036564   0.0000006633  -0.0000067125  -0.0000003761  -0.0001116689
       -0.0000365175   0.0000195393   0.0001573277  -0.0001772067   0.0000782988
        0.0000038787   0.0000413466  -0.0000403361   0.0000067689  -0.0000213581
        0.0000062566  -0.0000137061   0.0000117250  -0.0000092518   0.0000076351
       -0.0000021345   0.0000000960  -0.0000029200   0.0000174528   0.0000043324
       -0.0000097082  -0.0000165169   0.0000099490   0.0000598978   0.0004085351
        0.0000776842  -0.0091476919  -0.0002761556   0.0037267228   0.0037326990
        0.0041509837  -0.0001481624   0.0149231238  -0.0443215540  -0.0450181379
        0.0025742361  -0.0027220214   0.0094335493  -0.0000352983  -0.0000042327
       -0.0000042196  -0.0000005518  -0.0000056114  -0.0000016632  -0.0000011672
        0.0000005343  -0.0000031460   0.0000007501  -0.0000011747  -0.0000023088
        0.0000036026  -0.0000001319  -0.0000076553   0.0000038045  -0.0000015164
       -0.0000064610   0.0000006717   0.0000027602  -0.0000015599   0.0000020483
        0.0000017891   0.0000008626   0.0000007967   0.0000026059  -0.0000025980
        0.0000003375  -0.0000027218   0.0000077993   0.0000040362  -0.0000022657
       -0.0000028267   0.0000035509  -0.0000048918  -0.0000052312  -0.0000124262
       -0.0000056814  -0.0000200659  -0.0000069454  -0.0000034747   0.0000076076
       -0.0000011904   0.0000008201  -0.0000027371  -0.0000002899   0.0000071585
       -0.0000003004   0.0019574115  -0.0024493376   0.0088125480
       -0.0699940474  -0.0823154140   0.0051075163  -0.3325945410   0.0270846978
        0.0559100000   0.5524642171  -0.0917366959  -0.1013347747  -0.1283726269
        0.0518873074   0.0203160511   0.0582815860   0.0284652034  -0.0025822833
        0.0001843437  -0.0062684010   0.0007414334  -0.0009579200   0.0003186256
        0.0000993302   0.0000737834  -0.0002232782  -0.0002011315   0.0000156321
       -0.0000366760  -0.0000244544   0.0000258957  -0.0000028300  -0.0000836527
       -0.0000106844   0.0000351060   0.0000045273  -0.0000065379   0.0000009996
        0.0000092717  -0.0000040444   0.0000338888   0.0000185659   0.0000168733
       -0.0000156600   0.0000045299   0.0000052422   0.0000123300   0.0000000194
       -0.0000047078   0.0000063641   0.0000065614  -0.0000001825   0.0000048552
        0.0000031566  -0.0000031090   0.0000047450   0.0000065363  -0.0000080684
       -0.0000166510   0.0000066601   0.0000080282   0.0000135392  -0.0000034800
        0.0000008510  -0.0000028580  -0.0000022554  -0.0000013278   0.0000037775
        0.0000035793  -0.0000117752   0.0000079869  -0.0000045299  -0.0000006382
        0.0000006373   0.0000075203   0.0000031413   0.0000067495   0.0000152585
       -0.0000060263  -0.0000171490  -0.0000038184   0.0000024388   0.0000110596
       -0.0000011322   0.0000041242  -0.0000044675   0.0000061287  -0.0003602948
        0.0001851156   0.0000634253   0.0003485906  -0.0006422934  -0.0005249307
        0.0000779957  -0.0000506178   0.0000132112  -0.0000380421   0.0000521349
       -0.0000153634   0.0000295491   0.0000089179  -0.0000169615   0.0000014953
        0.0000217032   0.0000154844   0.0000123307  -0.0000193720   0.0000025484
       -0.0000259066   0.0000318683   0.0000035370   0.0012218201   0.0012390731
        0.0001521279  -0.0413105619   0.0373328309   0.0112778899  -0.0043450711
       -0.0062767515   0.0013200995  -0.0178881379   0.0100953617   0.0042979966
       -0.0168153885   0.0304226090   0.0061509259   0.0000512114  -0.0000973522
        0.0000687539   0.0000277373  -0.0000076167   0.0000004364   0.0000012746
       -0.0000100796   0.0000042333   0.0000017233   0.0000021684   0.0000032522
       -0.0000007098   0.0000036009   0.0000053218   0.0000008844  -0.0000003821
        0.0000049296   0.0000010720  -0.0000012142   0.0000001513   0.0000061452
       -0.0000013920  -0.0000025913   0.0000142584   0.0000022580  -0.0000121311
        0.0000153247  -0.0000175173  -0.0000117830   0.0000005820   0.0000012363
        0.0000042239   0.0000010884   0.0000066432   0.0000059384  -0.0000080254
       -0.0000439474   0.0000776573  -0.0000352284   0.0000090887   0.0000040657
        0.0000009811   0.0000055591   0.0000000966   0.0000030279  -0.0000094822
        0.0000067869  -0.0000996458   0.0005000569  -0.0009244665
       -0.0170722232   0.0448577347   0.0058277230  -0.0229573324  -0.1022294292
       -0.0016917308  -0.0917366959   0.5047430906   0.0745107692   0.1014456224
       -0.3208069232  -0.0550105641  -0.0348984246  -0.0909070003  -0.0075856982
       -0.0087664798  -0.0001426492   0.0012698665   0.0015270386   0.0000838096
       -0.0000142258  -0.0013055647   0.0004153572   0.0000505833   0.0005096551
       -0.0000110563  -0.0000229979  -0.0001336561  -0.0002564812  -0.0000838645
        0.0001557434  -0.0001711136  -0.0000133966  -0.0004318491  -0.0000010551
        0.0000000586   0.0003885267   0.0000290221   0.0000154371  -0.0000438490
        0.0001129124   0.0000305306   0.0000092386   0.0000181371   0.0000048917
        0.0000522458  -0.0000022344   0.0000065791  -0.0000310081  -0.0000264664
        0.0000226867  -0.0000116668   0.0000576926  -0.0000357376  -0.0000350538
       -0.0001063886   0.0000580419   0.0000945309   0.0000247353  -0.0000105931
       -0.0000186190   0.0000821528  -0.0000535679  -0.0000101821  -0.0000441849
        0.0000418805  -0.0000478189   0.0000391169  -0.0000244117   0.0000580753
        0.0000011146   0.0000123962   0.0000010062   0.0000050225   0.0000053710
       -0.0000762008  -0.0001505527  -0.0000321755   0.0002068310   0.0001881267
        0.0000113002  -0.0001536988   0.0002802757   0.0000904017   0.0007495524
        0.0000604909   0.0000799440  -0.0010231284   0.0009031030   0.0000336306
        0.0000715431  -0.0003985935  -0.0000953051   0.0001993237   0.0000099638
        0.0000242528  -0.0001951988  -0.0001183417  -0.0000825864   0.0001265600
        0.0000759846   0.0000657520  -0.0001644358  -0.0002935183   0.0000209011
       -0.0001378411   0.0003018044  -0.0000399816   0.0002989168  -0.0056815177
       -0.0015931856   0.0361924970  -0.0187731637  -0.0081878638  -0.0043932990
       -0.0036119164  -0.0008918831   0.0309449099  -0.0043221784  -0.0054123185
        0.0099015161  -0.0040258552  -0.0023426918  -0.0000536244  -0.0000091631
       -0.0000625169   0.0000479467   0.0000076484   0.0000118169  -0.0000063745
        0.0000052968  -0.0000086472  -0.0000059822  -0.0000044218   0.0000024989
        0.0000025957  -0.0000029028   0.0000073495   0.0000079033  -0.0000003701
        0.0000040401   0.0000055301  -0.0000020668  -0.0000027764   0.0000087853
        0.0000040159  -0.0000076654   0.0000018932   0.0000060467  -0.0000111089
       -0.0000040789  -0.0000360797   0.0000089373   0.0000244954  -0.0000225984
       -0.0000048355  -0.0000460894  -0.0000322992   0.0000284788   0.0000587879
       -0.0001431278  -0.0000059470   0.0001100431   0.0000076567   0.0000932685
        0.0000052560  -0.0000104194   0.0000003168   0.0000358766   0.0000011820
       -0.0000183980   0.0005179294   0.0000225751   0.0010069703
        0.0139756675   0.0193260502   0.0184140494   0.0490002380  -0.0115357014
       -0.0662732410  -0.1013347747   0.0745107692   0.1082098856   0.0276972108
       -0.0456151642  -0.0661569752  -0.0127347777  -0.0200826233   0.0189802392
        0.0002881565   0.0000865922   0.0079467913   0.0006134271  -0.0005056950
       -0.0002976315  -0.0001500665   0.0003597713  -0.0003132397   0.0000709617
       -0.0000086790   0.0000637451   0.0000055525  -0.0000829295  -0.0000140614
        0.0000032158  -0.0000232664   0.0000006571  -0.0000587418  -0.0000041886
       -0.0000130987   0.0000526897  -0.0000099999   0.0000254999  -0.0000149450
        0.0000240370  -0.0000027220   0.0000005450  -0.0000000392   0.0000042318
        0.0000111922   0.0000010092   0.0000035979  -0.0000070755  -0.0000063639
        0.0000043800  -0.0000005109   0.0000108093  -0.0000020871   0.0000014564
       -0.0000069394  -0.0000002475   0.0000125179  -0.0000094023   0.0000145409
       -0.0000094947   0.0000143622  -0.0000116896   0.0000019295  -0.0000060868
        0.0000150162  -0.0000044698   0.0000024035   0.0000071463   0.0000055141
        0.0000107597   0.0000027371  -0.0000010588  -0.0000011251   0.0000111347
        0.0000059453  -0.0000048275  -0.0000125376   0.0000391679   0.0000386726
        0.0000049584  -0.0000293432   0.0000508700   0.0000357576   0.0000995871
       -0.0000960339  -0.0000400695  -0.0000893898   0.0005025746  -0.0007652333
       -0.0000103831  -0.0000419485   0.0000091693   0.0000296210  -0.0000046853
       -0.0000074877  -0.0000223329  -0.0000188768  -0.0000171536   0.0000220045
        0.0000119637  -0.0000159723  -0.0000196532  -0.0000495844  -0.0000014548
       -0.0000125435   0.0000503683  -0.0000014931  -0.0003537958  -0.0005552869
       -0.0000343182   0.0116185350  -0.0087406777  -0.0108233689   0.0016342168
       -0.0004156329   0.0075624757   0.0068287845  -0.0018643771  -0.0058524585
        0.0036327458  -0.0058662735  -0.0060424446   0.0000115709  -0.0000229565
       -0.0000527086   0.0000226415   0.0000022987  -0.0000019537  -0.0000048368
        0.0000009557  -0.0000083541  -0.0000026682  -0.0000033175  -0.0000012465
        0.0000009868  -0.0000011148  -0.0000035004   0.0000016597  -0.0000010457
       -0.0000010184   0.0000025677   0.0000014828   0.0000057565  -0.0000000184
        0.0000021349   0.0000074391  -0.0000072952  -0.0000026735   0.0000037558
       -0.0000051916   0.0000071456  -0.0000017874   0.0000055804   0.0000030683
       -0.0000024714  -0.0000051303   0.0000020962   0.0000030589   0.0000140482
       -0.0000309959   0.0001056812   0.0000171904   0.0000145906   0.0000114713
        0.0000015230  -0.0000028245  -0.0000080932   0.0000053001   0.0000026663
       -0.0000112615  -0.0008554540   0.0005838848  -0.0046617955
        0.0042486169  -0.0018631195  -0.0025633907  -0.0398577046   0.0444268535
        0.0140590324  -0.1283726269   0.1014456224   0.0276972108   0.6520807918
       -0.0084333713  -0.1018623196  -0.1625512684  -0.1272099622   0.0033248955
        0.0123136034   0.0005544870  -0.0025343852  -0.0040483310   0.0022887453
        0.0010416605   0.0012197576  -0.0003954941  -0.0001036965  -0.0004428573
        0.0000252468   0.0000622495   0.0000290094   0.0003109994   0.0003508873
       -0.0001298330   0.0000214352  -0.0000319144   0.0003044288   0.0000166622
       -0.0000101556  -0.0002150946  -0.0000582468  -0.0000453600   0.0000116322
       -0.0000432459  -0.0000347558  -0.0000232850  -0.0000393854   0.0000088716
       -0.0000299648   0.0000071541  -0.0000057501   0.0000317525   0.0000140009
       -0.0000163167   0.0000179767  -0.0000433698   0.0000277698   0.0000242548
        0.0000684980  -0.0000386797  -0.0000441077  -0.0000188349   0.0000093260
        0.0000134484  -0.0000521126   0.0000367388   0.0000199123   0.0000242977
       -0.0000274186   0.0000530181  -0.0000362195   0.0000221057  -0.0000252771
       -0.0000167192  -0.0000026276  -0.0000335781  -0.0000027747  -0.0000350984
        0.0000461192   0.0001045184   0.0000377565  -0.0001279152  -0.0001864988
       -0.0000270314   0.0001197417  -0.0002749388  -0.0001059641  -0.0004690268
        0.0001515369  -0.0000801336   0.0008418269  -0.0005906854   0.0001696635
       -0.0000926557   0.0003500357   0.0001205202  -0.0002322963   0.0000203666
       -0.0000726216   0.0001532813   0.0000969732   0.0000523941  -0.0000786099
       -0.0000837738  -0.0000213285   0.0001140011   0.0002470046  -0.0000242599
        0.0001153677  -0.0002964080   0.0000460299  -0.0002743019   0.0057470302
        0.0012464974  -0.0392821097  -0.0209948672   0.0050668826   0.0012539697
        0.0001999778  -0.0002627712  -0.0068459190   0.0010283764   0.0030790129
       -0.2838270210   0.0028736484   0.0490099050  -0.0001708408   0.0001296601
       -0.0002035871  -0.0000562611  -0.0000044141  -0.0000179912   0.0000063820
        0.0000146426  -0.0000019315   0.0000023945   0.0000019921  -0.0000018180
        0.0000032584  -0.0000015057  -0.0000010119  -0.0000002219  -0.0000007795
       -0.0000028650   0.0000015403  -0.0000004551   0.0000015963  -0.0000000380
        0.0000000673   0.0000013828  -0.0000210776  -0.0000169938   0.0000138097
       -0.0000208752   0.0000389264   0.0000134714  -0.0000109318   0.0000064184
       -0.0000035265   0.0000512484   0.0000066543  -0.0000407781  -0.0000318287
        0.0000847825  -0.0000194501  -0.0000485224   0.0000008251  -0.0000286524
       -0.0000124964   0.0000037043   0.0000035377  -0.0000275854   0.0000155940
        0.0000189514  -0.0056728707   0.0003374383   0.0027054319
       -0.0123535576  -0.0659435473  -0.0045407598   0.1053713230   0.0090474183
       -0.0194336228   0.0518873074  -0.3208069232  -0.0456151642  -0.0084333713
        0.6313539219   0.0679313812  -0.0663401049  -0.2089075248  -0.0068235701
       -0.0025277223  -0.0403105372  -0.0054625606  -0.0061724694  -0.0007893346
        0.0007077615   0.0006922975  -0.0009088313  -0.0003710352  -0.0007780922
        0.0001362663   0.0000507054   0.0000994951   0.0003966284   0.0001699527
       -0.0001909613   0.0001926648   0.0000169057   0.0005509516  -0.0000050775
       -0.0000053591  -0.0004312400  -0.0000258150  -0.0000272946   0.0000603741
       -0.0001294324  -0.0000379013  -0.0000413260  -0.0000266533  -0.0000037847
       -0.0000640867   0.0000032916  -0.0000038950   0.0000392600   0.0000242718
       -0.0000251829   0.0000186138  -0.0000648709   0.0000429143   0.0000273449
        0.0001147525  -0.0000630667  -0.0000994755  -0.0000088691   0.0000019932
        0.0000276861  -0.0000988668   0.0000617732   0.0000163993   0.0000491286
       -0.0000452671   0.0000590357  -0.0000411521   0.0000261253  -0.0000661840
       -0.0000048996  -0.0000074457  -0.0000263514   0.0000075547  -0.0000136152
        0.0000760444   0.0001527831   0.0000535069  -0.0002105240  -0.0002417685
       -0.0000273524   0.0001385834  -0.0003743719  -0.0001318749  -0.0015411782
        0.0001813299  -0.0000661567   0.0016431468  -0.0043081532  -0.0013004366
        0.0003000110   0.0001749812   0.0000343209  -0.0003257614  -0.0000215906
       -0.0000647763   0.0002014437   0.0001602876   0.0001079893  -0.0001232642
       -0.0001309185  -0.0000571700   0.0001739141   0.0002734109  -0.0000084968