58
 energy: -98.180732099978 gnorm: 0.000069787751 xtb: 6.7.1 (edcfbbe)
C            6.09091377041531       -3.90105920974593        0.77040080766836
C            5.19110046304161       -4.92249035308511        1.04149088739888
N            3.87806776560749       -4.74929471663978        1.05340875786758
C            3.40528060139768       -3.54551307751376        0.79514709711928
C            4.21168555527853       -2.44420127092934        0.50820526941607
C            3.62216345635686       -1.12949880186120        0.22979253375326
N            2.30432841571440       -1.04037029880509        0.21822015462717
C            1.72690077701532        0.17064447532623       -0.03866045314186
C            0.27743428885827        0.20338596698860       -0.04501529749678
C           -0.42834751019826       -0.98017154589438        0.23195885564780
C           -1.80289893337089       -1.00888353447459        0.24050711683252
C           -2.52282737666200        0.15365295251499       -0.03006104181722
N           -3.94344599728788        0.13375042045005       -0.02320071505585
C           -4.63836650643968       -0.49276253671391       -1.04428534397016
C           -3.99105671291883       -1.10034039982301       -2.12003488983930
C           -4.72034990612205       -1.71453954234197       -3.12051452162738
C           -6.10674916617040       -1.73165304369966       -3.07335007501363
C           -6.76848049054336       -1.12022953997519       -2.02267746076960
C           -6.04612161535460       -0.50060937229122       -1.01465374168064
O           -6.75185073138867        0.10058913310621       -0.01307332130945
C           -6.05337272350038        0.71391810315926        0.98605802575265
C           -6.78264028462209        1.31422041341995        2.00080447012128
C           -6.12777925322175        1.93658496264834        3.04936097059343
C           -4.74107219233296        1.94947456456552        3.08786983470182
C           -4.00502440866608        1.35527062052976        2.08029669843561
C           -4.64568210588130        0.73810482009984        1.00604656559224
C           -1.84327601700284        1.33749944491025       -0.30893205536969
C           -0.46633638109199        1.36147764793361       -0.31728891908581
C            2.53131722077121        1.27347913368508       -0.27448378236334
C            3.92495710269999        1.11522294190508       -0.24294106730664
C            4.84271129252546        2.18128137503508       -0.46349851975313
C            6.24122108887843        1.94871337163740       -0.42407684742370
N            7.12735924585476        2.88744251597939       -0.61605348393424
C            6.69238540822202        4.12146501415573       -0.86029777121262
N            5.41175934725967        4.46491971578275       -0.92478490022598
C            4.51049180155000        3.53113727585586       -0.73371783137749
N            4.44439946765211       -0.12450813682522        0.01407442844692
C            5.59098499893244       -2.64022496625116        0.49784719039239
H            7.15314738518339       -4.09011847854029        0.77186310488530
H            5.52961530260471       -5.92697962622267        1.25974033238603
H            2.32979108247328       -3.43600646724019        0.81419627216789
H            0.14091062942143       -1.87136617392801        0.44250323100985
H           -2.33014846337418       -1.92542263775469        0.46052193866526
H           -2.91402038295768       -1.08303778834255       -2.16549665644827
H           -4.20042824984065       -2.18077536058096       -3.94261162919435
H           -6.67290902981222       -2.21292888875316       -3.85461101813548
H           -7.84493901424826       -1.10754667592827       -1.96352703379024
H           -7.85891616550419        1.27779947002082        1.94868139520772
H           -6.69926712340752        2.40278548992183        3.83587341813863
H           -4.22634269782881        2.42301281924821        3.90910741378382
H           -2.92760269846259        1.35980335545402        2.11916206281049
H           -2.40404427278548        2.23541896282123       -0.52382333921513
H            0.03143100994318        2.29108306286126       -0.54279303109443
H            2.10876168577328        2.24260546127276       -0.47821673864276
H            6.60250194006181        0.94804148444170       -0.22492791031290
H            7.43003196732816        4.89335591141917       -1.01705753455882
H            3.48300755007521        3.86582845379011       -0.79588387261094
H            6.24124118605728       -1.80662730933138        0.27814909757275
