$hessian                                                                        
        0.6523386842  -0.0193168822   0.0160785436  -0.3250544587  -0.0481965696
       -0.0186263596  -0.0446771345   0.0802538613   0.0084283836  -0.0377214955
       -0.0302166669  -0.0045196078   0.0544475346  -0.0243259119  -0.0018049182
       -0.1444137918  -0.0595059403  -0.0076244559  -0.0040853490   0.0064478041
        0.0004689659   0.0024381221  -0.0014913637  -0.0001161722  -0.0007297402
        0.0021116506   0.0002427324   0.0024468171  -0.0014552745  -0.0003224860
       -0.0029430277  -0.0016561251  -0.0000647884   0.0005093921   0.0032817102
        0.0003886613  -0.0018121113  -0.0034134583  -0.0006446354   0.0007674024
        0.0043483920   0.0007023623   0.0015589339   0.0001108558  -0.0007368144
       -0.0000489427   0.0001560057   0.0001528242   0.0004250503   0.0005279529
       -0.0006326673  -0.0012433340  -0.0002512240   0.0002788959   0.0017076541
       -0.0003898491   0.0006571899  -0.0018783000   0.0006407799  -0.0007821476
        0.0016970481   0.0004048532  -0.0005591359  -0.0007885988   0.0003424476
       -0.0004697921   0.0004822410   0.0005190256  -0.0006593023  -0.0001237212
       -0.0003882175   0.0005152683  -0.0001204231  -0.0001272070   0.0002026448
        0.0003980409  -0.0007450734   0.0008914183  -0.0006165100  -0.0002532783
        0.0002985836   0.0005635393  -0.0002666529   0.0002053443  -0.0005279415
       -0.0005001276   0.0005499615  -0.1198752469   0.1187456445   0.0116598610
       -0.0162628965  -0.0029791584  -0.0002501488  -0.0008178878   0.0027863206
       -0.0000533983  -0.0157509649  -0.0254288459  -0.0037531473  -0.0000643445
       -0.0000609019  -0.0000481325  -0.0000354180  -0.0000015011  -0.0000007948
        0.0000065449  -0.0000157777   0.0000461831  -0.0000155658   0.0000941760
        0.0000862071  -0.0000794366  -0.0000776890   0.0001186868  -0.0000187993
       -0.0000497795  -0.0000776518  -0.0000038840  -0.0000119364   0.0000151712
        0.0000569827   0.0000003516   0.0000040660   0.0000025253   0.0000208795
        0.0000015328   0.0000500643   0.0000347365  -0.0000426388  -0.0000071405
        0.0000453692   0.0000571234  -0.0001801125   0.0002525955  -0.0002614158
       -0.0193168822   0.6618182866   0.0635895549   0.0308810966  -0.0919233534
       -0.0053803636   0.0215778299   0.0242642726   0.0040757369  -0.0294161426
       -0.0061356562  -0.0008655536   0.0322334098  -0.0690443109  -0.0068288096
       -0.1356537287  -0.2758167064  -0.0289714106   0.0013460465   0.0032212538
       -0.0006459008   0.0012078541  -0.0065628647  -0.0005974832  -0.0000831522
        0.0026678532   0.0004477164   0.0015408399  -0.0019581052  -0.0002749941
       -0.0015562569  -0.0005460976   0.0000182225   0.0006552618   0.0006810664
        0.0001382261  -0.0003474645   0.0009703091  -0.0004976581   0.0027059909
       -0.0054015295  -0.0004965919   0.0010346649   0.0002821891   0.0000866353
        0.0000266338   0.0002698400   0.0001360597   0.0000200912   0.0000459852
       -0.0000085180   0.0002348227  -0.0001224122   0.0001027825  -0.0002839489
        0.0000823339  -0.0000503438   0.0000258783  -0.0000795954   0.0001563788
        0.0001254315   0.0001186673  -0.0001821552  -0.0001076986   0.0000791299
       -0.0001136563   0.0001438542   0.0002101707  -0.0002680464   0.0000528196
       -0.0002111048   0.0002721375  -0.0002444992   0.0000153534   0.0000839969
        0.0003746227  -0.0002724051   0.0002763252  -0.0002032533   0.0000603200
       -0.0000970219   0.0000237820   0.0000953392  -0.0001942636  -0.0001073470
       -0.0004962823   0.0001453089   0.1188927048  -0.2282703677  -0.0199721627
       -0.0262666307  -0.0026028886  -0.0014459955   0.0033915131  -0.0036570762
       -0.0014149255  -0.0028711244  -0.0018678625  -0.0010431732   0.0000162861
       -0.0000596906  -0.0000524264  -0.0000014746   0.0000097094  -0.0000122693
       -0.0000124703   0.0000058771  -0.0000009892  -0.0000670056   0.0000843301
        0.0000414993  -0.0000413854  -0.0000142987   0.0000240362   0.0000109774
       -0.0000331467  -0.0000706814   0.0000003396   0.0000134360  -0.0000178639
        0.0000173792   0.0000110800  -0.0000174868  -0.0000398686  -0.0000003752
        0.0000123860   0.0000407938  -0.0000023072  -0.0000066240   0.0000339579
        0.0000253535   0.0000580088   0.0000054515   0.0000462809  -0.0001376430
        0.0160785436   0.0635895549   0.1201626696  -0.0072974518  -0.0082512927
       -0.0484307644   0.0007200173   0.0059154813   0.0027580894  -0.0038757561
       -0.0016425346  -0.0047312795   0.0047268929  -0.0083124076  -0.0028414878
       -0.0175572483  -0.0282208442  -0.0463211361   0.0001086295  -0.0000111475
        0.0058576851   0.0003429711  -0.0008502220   0.0013693051  -0.0000732750
        0.0003248487  -0.0000414192   0.0002836310  -0.0002437850  -0.0002649986
       -0.0003255020  -0.0001375296   0.0000032975   0.0000837861   0.0002798043
       -0.0000448880  -0.0001707919  -0.0001056937  -0.0000384385   0.0002188610
       -0.0000089366  -0.0000837564   0.0000633108   0.0000900845   0.0000403606
       -0.0000197895   0.0000318478  -0.0000059301  -0.0000380045   0.0000080467
        0.0000143660  -0.0001149767   0.0000803416  -0.0001110096   0.0001737217
       -0.0000358799   0.0000388874  -0.0002568189   0.0000428021  -0.0000596816
        0.0002529481   0.0000744819  -0.0000962243  -0.0001305836   0.0000455645
       -0.0000545306   0.0000966571   0.0000857701  -0.0001101031   0.0000091826
       -0.0000718286   0.0000946344  -0.0000183125  -0.0000034886   0.0000156885
        0.0000434224  -0.0001247780   0.0001501617  -0.0000904316  -0.0000260540
        0.0000281089   0.0000384537  -0.0000356302   0.0000572236   0.0000331676
        0.0000436753   0.0000426176   0.0116645789  -0.0199205186  -0.0351997690
       -0.0043808531  -0.0005141509   0.0003512286   0.0000412761  -0.0016178094
        0.0073261866  -0.0005652229  -0.0005128494   0.0000638414   0.0000030221
       -0.0000158044   0.0000216737  -0.0000009903   0.0000013825   0.0000213309
       -0.0000005290  -0.0000063430   0.0000443920  -0.0000082258   0.0000094332
        0.0000049920  -0.0000062448  -0.0000195153   0.0000119221   0.0000031709
       -0.0000023411  -0.0000062046   0.0000017479   0.0000020587  -0.0000038071
        0.0000032811   0.0000026181  -0.0000048683  -0.0000101354   0.0000004937
        0.0000029968   0.0000079690  -0.0000012026  -0.0000007158   0.0000073965
        0.0000175090   0.0000230324  -0.0000654953   0.0000467886  -0.0000536795
       -0.3250544587   0.0308810966  -0.0072974518   0.6520983952   0.0106538846
        0.0253869524  -0.1620231101   0.0698670965   0.0037310508   0.0497958165
        0.0369605746   0.0058057069  -0.0433576333   0.0255853981   0.0021858692
       -0.0331743099  -0.0823856225  -0.0113002578   0.0029914109  -0.0020312608
       -0.0001661664  -0.0029015828   0.0027384563   0.0002410260   0.0004738132
       -0.0021032222  -0.0001386366  -0.0029759853   0.0014858109   0.0003661694
        0.0035485467   0.0019933078   0.0000784516  -0.0006173994  -0.0042425830
       -0.0003885151   0.0033239138   0.0040521091   0.0002496032  -0.0028780913
       -0.0114276930  -0.0022698890  -0.0008816384   0.0007239164   0.0014341022
        0.0000917792  -0.0000146395   0.0000849563  -0.0004697008  -0.0007233862
        0.0009210319   0.0021469554   0.0001403460  -0.0002465682  -0.0030007640
        0.0007444202  -0.0010612283   0.0032355006  -0.0011164843   0.0014211866
       -0.0028506752  -0.0005945236   0.0007869716   0.0012594924  -0.0005205619
        0.0006918805  -0.0007182992  -0.0007257284   0.0009261947   0.0002911998
        0.0004849968  -0.0006479975  -0.0001143732   0.0002329211  -0.0002965118
       -0.0003386613   0.0010581707  -0.0013104848   0.0009055480   0.0005004718
       -0.0006217868  -0.0003109799   0.0005606798  -0.0004334350  -0.0000752549
        0.0004016901  -0.0003647169  -0.0180469949   0.0017859197  -0.0005085879
       -0.1014524829  -0.1069876185  -0.0192476222  -0.0188143729   0.0247104248
        0.0021845733  -0.0002012374  -0.0027641645  -0.0002079969   0.0000725298
        0.0000802195   0.0000560712   0.0000494990   0.0000477962  -0.0000062790
       -0.0000138728  -0.0000019740  -0.0000927176   0.0000087961  -0.0001305423
       -0.0001034090   0.0000299866   0.0000899760  -0.0001219781   0.0000353124
        0.0000102631   0.0000800060   0.0000172805   0.0000096010  -0.0000132099
       -0.0000640706  -0.0000024956  -0.0000037358   0.0000023921  -0.0000265815
        0.0000009736  -0.0000514109  -0.0000460185   0.0000564220   0.0000161219
        0.0000292187  -0.0000746353  -0.0000069299   0.0000163338   0.0002346182
       -0.0481965696  -0.0919233534  -0.0082512927   0.0106538846   0.6602111828
        0.0745504247   0.1477245944  -0.2622779909  -0.0232749413  -0.0174500441
       -0.0671393248  -0.0088514804   0.0248184057  -0.0066445313   0.0000331796
       -0.0279019524   0.0186898888   0.0014279323  -0.0024396215  -0.0031829607
       -0.0003620086   0.0012077184   0.0006535790   0.0000239706  -0.0003327344
        0.0006278397   0.0000027501   0.0015945056  -0.0004775782  -0.0001483369
       -0.0018957452  -0.0014961939  -0.0000838770   0.0000373512   0.0025222798
        0.0003471317  -0.0015219456  -0.0052829660  -0.0006110487  -0.0026438664
        0.0033579827  -0.0001944674  -0.0000375955   0.0000651365  -0.0007715263
        0.0001176453  -0.0001897888   0.0002245601   0.0001580477   0.0004092734
       -0.0004997937  -0.0010931409  -0.0001598584   0.0001729091   0.0016967860
       -0.0004213704   0.0006044107  -0.0018211605   0.0006500446  -0.0008169695
        0.0015124607   0.0002762677  -0.0003647865  -0.0006840682   0.0002398987
       -0.0003329823   0.0003763549   0.0003162461  -0.0004032659  -0.0001462031
       -0.0001937322   0.0002519076   0.0001390933  -0.0000959447   0.0001207253
        0.0001241323  -0.0005281309   0.0006698731  -0.0004575106  -0.0002720955
        0.0003224940   0.0002953399  -0.0002164514   0.0001603890  -0.0001492519
        0.0000612514   0.0003146663   0.0251232440  -0.0006709022   0.0006151196
       -0.1074336188  -0.2422718835  -0.0331090639   0.0018808690  -0.0003667878
       -0.0001246462  -0.0031452030  -0.0043553831  -0.0014715497   0.0000260907
        0.0000019428  -0.0000166745  -0.0000103684  -0.0000210842   0.0000088325
       -0.0000148133  -0.0000042401   0.0000408132  -0.0000289949   0.0000605726
        0.0000729094  -0.0000080466   0.0000049918  -0.0000345030  -0.0000547274
        0.0000100519  -0.0000705821  -0.0000077751   0.0000173419  -0.0000170237
       -0.0000038792   0.0000209725  -0.0000222136  -0.0000512354   0.0000018907
        0.0000087466   0.0000281319   0.0000048270  -0.0000060150  -0.0000585720
       -0.0000176648   0.0000538019   0.0000739884   0.0000067546  -0.0001884988
       -0.0186263596  -0.0053803636  -0.0484307644   0.0253869524   0.0745504247
        0.1244917020   0.0143299598  -0.0258109330  -0.0464600200  -0.0006368325
       -0.0084351239  -0.0022197885   0.0018881404   0.0006056986  -0.0045613438
       -0.0046400098  -0.0002704003   0.0016975680  -0.0001410853  -0.0004124893
       -0.0002864269   0.0000661552   0.0001321716   0.0000734932  -0.0000082139
        0.0000345918  -0.0000389704   0.0001160157  -0.0000074758  -0.0000036022
       -0.0001421129  -0.0001233783  -0.0001767877  -0.0000335844   0.0002308724
       -0.0001769662   0.0000295068  -0.0007964291   0.0009251391  -0.0012810390
       -0.0004257807   0.0051917769   0.0000368145   0.0000301755   0.0006506588
        0.0000387074  -0.0000271648  -0.0000346271  -0.0000003876  -0.0000440301
        0.0000757487  -0.0001451874   0.0002136334  -0.0002080732   0.0003780633
       -0.0001251550   0.0000927301  -0.0004147448   0.0001381042  -0.0001829513
        0.0003416598   0.0000582822  -0.0000723471  -0.0001527440   0.0000647008
       -0.0000617380   0.0000749147   0.0000543188  -0.0000687208  -0.0000494557
       -0.0000251405   0.0000348834   0.0000642296  -0.0000175861   0.0000257156
       -0.0000248577  -0.0001138732   0.0001208256  -0.0000886394  -0.0000677869
        0.0000970677  -0.0000431367  -0.0001073124   0.0001576036   0.0003427829
        0.0002200567  -0.0003676848   0.0025639130  -0.0000934073   0.0007299801
       -0.0181866331  -0.0336603792  -0.0392361323  -0.0005972070   0.0010872374
        0.0009242006  -0.0004328898  -0.0014073534   0.0072262900   0.0000053716
        0.0000037952  -0.0000040599   0.0000019445  -0.0000054188   0.0000231736
       -0.0000013450  -0.0000045664   0.0000373528  -0.0000041996  -0.0000074623
        0.0000279136  -0.0000008921  -0.0000221875  -0.0000054239  -0.0000018530
        0.0000148679   0.0000137089   0.0000004190  -0.0000020887  -0.0000012350
       -0.0000019610   0.0000013072  -0.0000049724  -0.0000073697  -0.0000006836
        0.0000015901   0.0000021352  -0.0000014916   0.0000007151  -0.0000283359
       -0.0000101908   0.0000219309   0.0000233912  -0.0000345860  -0.0000391326
       -0.0446771345   0.0215778299   0.0007200173  -0.1620231101   0.1477245944
        0.0143299598   0.6704172697  -0.0236907729   0.0276377189  -0.1446543728
       -0.1195993160  -0.0218027170  -0.0222675967  -0.0273090508  -0.0033467136
        0.0037354765   0.0072602434   0.0010512230  -0.0087058604  -0.0000245321
       -0.0002103823   0.0008022351  -0.0012047981  -0.0000511728  -0.0000669111
        0.0008637737   0.0000863381   0.0005704597  -0.0006531813  -0.0000947647
       -0.0006875516  -0.0000917570   0.0000375026   0.0006876926   0.0013158070
        0.0001182592  -0.0025856852   0.0025233397   0.0003746419   0.0133684303
        0.0109647009   0.0014399752   0.0003946759   0.0024190095  -0.0004777697
        0.0007343944   0.0001846368   0.0005939977  -0.0003823759  -0.0002457702
        0.0001418390   0.0013123929  -0.0003313395   0.0003184787  -0.0022687397
        0.0005817184  -0.0006153647   0.0022866242  -0.0007914753   0.0010581317
       -0.0018266752  -0.0003875317   0.0004509452   0.0007768686  -0.0003139939
        0.0003738414  -0.0003709688  -0.0003181159   0.0004254268   0.0003203887
        0.0001577100  -0.0002126022  -0.0002364376   0.0001236481  -0.0001547312
        0.0000862286   0.0005274556  -0.0006785778   0.0003822317   0.0003916176
       -0.0005229744   0.0004465192   0.0004060917  -0.0007325203  -0.0017647479
        0.0010742413   0.0010072896  -0.0059756823   0.0001129499  -0.0005529987
        0.0063949440  -0.0103522050  -0.0005381531  -0.3052150358  -0.0130666200
       -0.0204768085   0.0007411118   0.0000751954  -0.0001326552   0.0000680468
        0.0000502168  -0.0000243487   0.0000134042  -0.0000026293   0.0000071911
        0.0000393342   0.0000691649   0.0000196983   0.0000444220  -0.0000111815
       -0.0000052733   0.0000687006   0.0000055994   0.0000283520   0.0000432117
       -0.0000708525  -0.0000073828   0.0000030529   0.0000253714  -0.0000266563
       -0.0000302126   0.0000154939  -0.0000134354  -0.0000340702  -0.0000042863
        0.0000015443  -0.0000160008  -0.0000248370   0.0000297254   0.0000236537
        0.0000634660   0.0000554165   0.0000273991  -0.0000196296   0.0003704888
        0.0802538613   0.0242642726   0.0059154813   0.0698670965  -0.2622779909
       -0.0258109330  -0.0236907729   0.6327546363   0.0738992718  -0.0634468902
       -0.2306231881  -0.0306625557  -0.0698968365   0.0091461139  -0.0000858547
        0.0007232973  -0.0510477158  -0.0057717755   0.0053959013   0.0072679053
       -0.0003378523  -0.0016526112  -0.0017513754   0.0000052134   0.0005750438
       -0.0007576713   0.0000888269  -0.0032406366   0.0005878186   0.0003188829
        0.0041598321   0.0025879725   0.0001595647  -0.0011712053  -0.0073097057
       -0.0007267259   0.0085673244   0.0068569418  -0.0005095256  -0.0060486682
       -0.0603967047  -0.0090363037  -0.0000665318  -0.0013949642   0.0013971224
       -0.0010501110   0.0011949102  -0.0003388731  -0.0003705086  -0.0009340026
        0.0011357623   0.0033179404   0.0000528635  -0.0001361637  -0.0050397435
        0.0012649293  -0.0017055209   0.0051222965  -0.0017843277   0.0023650559
       -0.0042153036  -0.0008028904   0.0010010773   0.0017971055  -0.0006844585
        0.0009153023  -0.0009114865  -0.0008110200   0.0010494434   0.0005498129
        0.0004395242  -0.0005746839  -0.0005210418   0.0002902411  -0.0003857336
       -0.0000637226   0.0013168223  -0.0017028665   0.0011807286   0.0008590650
       -0.0010542685  -0.0011239388   0.0006261433  -0.0011058585   0.0010964202
       -0.0015633850  -0.0009849182  -0.0001593289   0.0012054279  -0.0007993068
        0.0127577991  -0.0256541784  -0.0038505839  -0.0132409215  -0.0420843803
       -0.0021821233   0.0000436968  -0.0004963966   0.0002548346  -0.0000261418
       -0.0000214436   0.0000060072   0.0000036035   0.0000446674  -0.0000144914
       -0.0000751719  -0.0001390816  -0.0001186701  -0.0002227176   0.0000307578
       -0.0001099852   0.0000345089   0.0001060629  -0.0002376459   0.0000879586
       -0.0000806588   0.0000227320   0.0000129801   0.0000037320  -0.0000142650
       -0.0000453170  -0.0000120271   0.0000111755   0.0000325031  -0.0000028417
       -0.0000156494  -0.0000627991  -0.0000339279   0.0000456116   0.0001178720
        0.0000930881  -0.0000492251   0.0006448241  -0.0003295595  -0.0002690061
        0.0084283836   0.0040757369   0.0027580894   0.0037310508  -0.0232749413
       -0.0464600200   0.0276377189   0.0738992718   0.1214151418  -0.0161558063
       -0.0333460657  -0.0518077190  -0.0088400403   0.0003284366  -0.0018185721
        0.0003930078  -0.0057233332  -0.0039182237   0.0004980113   0.0002953611
        0.0062351413  -0.0000463054  -0.0001788724  -0.0000557226   0.0000866302
       -0.0001787219  -0.0004224949  -0.0003970901   0.0001390549  -0.0000384009
        0.0003853384   0.0003499504  -0.0001857795  -0.0001215431  -0.0007476981
       -0.0001798146   0.0008307336   0.0006618383   0.0022124019   0.0011341932
       -0.0074041210   0.0009332651  -0.0003264448   0.0000063330  -0.0008403463
       -0.0000942889  -0.0001803326   0.0000577358  -0.0000139048  -0.0000295572
        0.0000733293   0.0004894312   0.0000112232   0.0001945165  -0.0006265280
        0.0000870509  -0.0001920771   0.0006533525  -0.0002573382   0.0003085122
       -0.0004927665  -0.0001017633   0.0001450113   0.0002297662  -0.0000667195
        0.0001234141  -0.0001254995  -0.0001102747   0.0001388964   0.0000582062
        0.0000748510  -0.0000959814  -0.0000070341   0.0000291553  -0.0000359747
       -0.0000716891   0.0001650533  -0.0002403509   0.0001336073   0.0000960590
       -0.0001120955  -0.0004147756   0.0000126227  -0.0002917492   0.0009355294
       -0.0009402577  -0.0012361969  -0.0006599076  -0.0006726539   0.0068936153
        0.0020983513  -0.0041355788  -0.0003200510  -0.0201334716  -0.0019688247
       -0.0335072866   0.0000349853  -0.0000339057  -0.0001602791  -0.0000000442
        0.0000065764  -0.0000272147   0.0000000894  -0.0000104492   0.0001045349
        0.0000025719  -0.0000167125   0.0000684385  -0.0000530298  -0.0000106955
        0.0000277125  -0.0000011160  -0.0000828004   0.0000767832   0.0000024673
        0.0000054443   0.0000588797   0.0000044230  -0.0000039373  -0.0000002665
       -0.0000048069  -0.0000047729  -0.0000001417   0.0000030601  -0.0000008560
       -0.0000003128  -0.0000111875  -0.0000070903   0.0000076037   0.0000051470
       -0.0000043186   0.0000442596   0.0008212241  -0.0007514264   0.0000697894
       -0.0377214955  -0.0294161426  -0.0038757561   0.0497958165  -0.0174500441
       -0.0006368325  -0.1446543728  -0.0634468902  -0.0161558063   0.6239155717
        0.0327404692   0.0115751365  -0.2652169783  -0.0405002301  -0.0026355777
       -0.0326832547   0.0705358533   0.0084298075  -0.0339833399  -0.0153149304
       -0.0028551227  -0.0014494288  -0.0014176183  -0.0000299691   0.0009319909
        0.0012018767  -0.0001351097  -0.0018684106   0.0002716618   0.0001965684
        0.0033848177   0.0016824613  -0.0000623373  -0.0024046524  -0.0087828757
       -0.0007606984   0.0168574257   0.0029364970   0.0020997961  -0.1209842169
        0.0632640284   0.0066973106  -0.0324070002   0.0243635329   0.0022265634
       -0.0014768352  -0.0010323843   0.0018839156  -0.0019300815  -0.0005468940
       -0.0006094553   0.0019383937  -0.0002020494  -0.0000391626  -0.0019361734
        0.0005826377  -0.0007514749   0.0019786520  -0.0006369567   0.0011470791
       -0.0017654713  -0.0003518372   0.0003460256   0.0007635304  -0.0004242583
        0.0005252665  -0.0004294684  -0.0004160393   0.0005419335   0.0000976336
        0.0003321950  -0.0004560946   0.0001515776   0.0001782559  -0.0002218961
       -0.0006021173   0.0007356154  -0.0007923039   0.0007074075   0.0003265828
       -0.0003814757  -0.0010384678   0.0002192844  -0.0007604234   0.0012536563
        0.0027126736  -0.0005757877  -0.0001693502  -0.0005734295  -0.0000171522
       -0.0009947878   0.0033487161   0.0002233069  -0.0174379840  -0.0264129787
       -0.0041979995  -0.0004786141   0.0018283210  -0.0001461923   0.0001280919
        0.0000594970   0.0000304842  -0.0000026510   0.0000161484   0.0000193915
       -0.0001313993  -0.0003541179  -0.0001444745  -0.0002812984  -0.0000469462
       -0.0000842651   0.0000401190   0.0003013080  -0.0000382824  -0.0000904930
       -0.0000969966   0.0000763479   0.0000110102  -0.0000246810   0.0000174815
       -0.0000292593  -0.0000287118   0.0000365723   0.0000839720  -0.0000450956
       -0.0000168689  -0.0000629488  -0.0000228915   0.0000163068   0.0002360473
       -0.0001427285  -0.0003571876  -0.0000451630   0.0000501120   0.0006484126
       -0.0302166669  -0.0061356562  -0.0016425346   0.0369605746  -0.0671393248
       -0.0084351239  -0.1195993160  -0.2306231881  -0.0333460657   0.0327404692
        0.6181377637   0.0687060240   0.0211353234  -0.0602544534  -0.0014849231
        0.0231916397   0.0119518768   0.0018270616  -0.0440788511  -0.0333456866
       -0.0033556352   0.0016644923   0.0125767805   0.0011618404  -0.0007645835
       -0.0029188807  -0.0003037584   0.0033351055   0.0010536524  -0.0001514941
       -0.0038949558  -0.0053282690  -0.0007122879  -0.0026915930   0.0066639218
        0.0006970233  -0.0017206384  -0.0567413291  -0.0063430622   0.0728858866
       -0.1788030911  -0.0130702696   0.0161178579   0.0003963016  -0.0015189246
       -0.0034872983  -0.0001291692  -0.0012305925   0.0013259424   0.0013521659
       -0.0015924443  -0.0053295297   0.0004534239  -0.0001111672   0.0075567903
       -0.0020129787   0.0025226787  -0.0080555180   0.0026581047  -0.0037343383
        0.0068240672   0.0011936338  -0.0013752844  -0.0028357970   0.0011132165
       -0.0014040777   0.0014773609   0.0011304029  -0.0014612681  -0.0007814419
       -0.0005470221   0.0007611408   0.0009286966  -0.0004794959   0.0005995634
        0.0000202769  -0.0020821545   0.0024145186  -0.0017379202  -0.0013704710
        0.0017456705   0.0006084552  -0.0017501600   0.0017891508  -0.0015299762
       -0.0010564661  -0.0011391632  -0.0008775032   0.0002359425   0.0000073034
        0.0028505191  -0.0034109714  -0.0012275786  -0.0046824880  -0.0019426490
        0.0011153183   0.0030884779  -0.0037233334  -0.0012211802   0.0003988027
        0.0003337356   0.0000552577   0.0000042991  -0.0000217719   0.0000261020
       -0.0001053471  -0.0001262008   0.0001241953   0.0001536136   0.0002311374
        0.0003000271   0.0001450203  -0.0003773768   0.0006684422  -0.0003219947
        0.0001698131  -0.0000714477  -0.0000041059   0.0000443875  -0.0000460336
        0.0000062176   0.0000529206  -0.0000655992  -0.0001529130   0.0000513289
        0.0000433020   0.0001003446   0.0000339070  -0.0000172232  -0.0003712460
        0.0000015720   0.0003154725  -0.0002805496   0.0004841104   0.0001813851
       -0.0045196078  -0.0008655536  -0.0047312795   0.0058057069  -0.0088514804
       -0.0022197885  -0.0218027170  -0.0306625557  -0.0518077190   0.0115751365
        0.0687060240   0.1275110805   0.0044221639  -0.0031446200  -0.0510076987
        0.0022538487   0.0038344395  -0.0004501142  -0.0050217734  -0.0030977528
        0.0045610634   0.0003366337   0.0004273866  -0.0011830779  -0.0000404225
        0.0007785293   0.0002071255   0.0007029184  -0.0004985049  -0.0000505528
       -0.0003058627  -0.0006547114   0.0009384457  -0.0002564051  -0.0003266111
        0.0022339937  -0.0024016156  -0.0064160471  -0.0045417649   0.0145344074
       -0.0165279009  -0.0332256346  -0.0039481979   0.0006293796  -0.0013628008
       -0.0012395785   0.0003036491   0.0013654540  -0.0010743557  -0.0001518434
        0.0002225018   0.0007775850   0.0000879606   0.0000083185   0.0004316216
        0.0000113117   0.0002356026  -0.0007512431   0.0001255911  -0.0004568201
        0.0005240185   0.0002801665  -0.0002047962  -0.0002676105   0.0000970387
       -0.0002203695   0.0001224137   0.0001716533  -0.0002613345  -0.0003044223
       -0.0000766829   0.0000991309   0.0002612612  -0.0001477291   0.0001063688
       -0.0001897037  -0.0001350885   0.0004245270  -0.0000913864  -0.0003157109
        0.0002117146  -0.0010732097   0.0002905562  -0.0003924077   0.0026625832
        0.0003638676  -0.0009296725  -0.0001374854  -0.0000034166   0.0002571059
       -0.0000078231  -0.0014048279   0.0076873055  -0.0014700624  -0.0020074859
        0.0006461904   0.0003269487  -0.0012983301   0.0074008027   0.0000447712
        0.0000343938   0.0000285944   0.0000075695   0.0000098408  -0.0000741093
       -0.0000137713   0.0000329701  -0.0002728981   0.0000966153   0.0001559744
       -0.0000656584   0.0000616907   0.0001312848  -0.0001361615  -0.0001863096
       -0.0001823744  -0.0002960747  -0.0000134710   0.0000175151   0.0000138667
        0.0000130523   0.0000106352   0.0000042959  -0.0000094529   0.0000223259
        0.0000067755   0.0000258944   0.0000237653  -0.0000224774  -0.0000685907
        0.0000361760   0.0000498829   0.0002082372   0.0001867924  -0.0003069357
        0.0544475346   0.0322334098   0.0047268929  -0.0433576333   0.0248184057
        0.0018881404  -0.0222675967  -0.0698968365  -0.0088400403  -0.2652169783
        0.0211353234   0.0044221639   0.6301934375  -0.0437247216  -0.0051163122
       -0.1693304806   0.0732412157   0.0055267540  -0.1418375738  -0.0910937327
       -0.0065399411   0.0217893639   0.0014247451  -0.0001208238  -0.0027268879
        0.0042672946   0.0004570111   0.0024214121  -0.0010430545  -0.0003481335
       -0.0028480027  -0.0012811212  -0.0000175932   0.0007413429   0.0017288659
        0.0000391986  -0.0014340848  -0.0019139414  -0.0003205335  -0.0377897028
        0.0264333212   0.0039211431   0.0014430800   0.0015911206  -0.0021042132
       -0.0014873025   0.0000361786  -0.0001430845   0.0007015073   0.0007936604
       -0.0011159811  -0.0027271393   0.0002656327   0.0000998824   0.0040752673
       -0.0011198538   0.0015434770  -0.0043335541   0.0014495728  -0.0021094584
        0.0037693557   0.0008300623  -0.0009816684  -0.0016333464   0.0007375645
       -0.0009361447   0.0008997375   0.0008633778  -0.0011196602  -0.0004586150
       -0.0005354295   0.0007286990   0.0002374823  -0.0002822784   0.0004374889
        0.0003690000  -0.0014265661   0.0016258278  -0.0011535221  -0.0007329921
        0.0009075786   0.0003786061  -0.0008960186   0.0008142252   0.0003286046
       -0.0002749522  -0.0003826614  -0.0005530773  -0.0030037242  -0.0003446030
       -0.0004082066   0.0005019603  -0.0001624480  -0.0000741449  -0.0012461170
       -0.0003398107  -0.0214747344   0.0260419902   0.0031651082  -0.0002795636
       -0.0003746037  -0.0000854291  -0.0001085491   0.0002727680   0.0000416316
       -0.0000745159   0.0000213146   0.0001142190  -0.0000009570   0.0002462235
        0.0001023078  -0.0000313400  -0.0001544535   0.0004049587  -0.0001039346
        0.0000068729  -0.0000498731  -0.0000053346   0.0000155651  -0.0000081110
        0.0000719056   0.0000205219  -0.0000197759  -0.0000790974   0.0000467874
        0.0000290235   0.0000938777   0.0000335999  -0.0000328956  -0.0000130486
       -0.0000325300   0.0000961434  -0.0001525910  -0.0000244279   0.0001473209
       -0.0243259119  -0.0690443109  -0.0083124076   0.0255853981  -0.0066445313
        0.0006056986  -0.0273090508   0.0091461139   0.0003284366  -0.0405002301
       -0.0602544534  -0.0031446200  -0.0437247216   0.6184276415   0.0518494140
        0.1441451338  -0.2334019202  -0.0186400210  -0.0762611744  -0.1704099569
       -0.0118656674  -0.0000085715  -0.0621753499  -0.0051359540   0.0018015262
        0.0032758964   0.0004157589   0.0016790531  -0.0065611945  -0.0008878707
       -0.0028642204   0.0005542517   0.0001814465   0.0012493513  -0.0016427543
       -0.0001879678   0.0011380429   0.0125352077   0.0004132330   0.0403762998
       -0.0232947168  -0.0025113619   0.0013927674  -0.0045552629   0.0004355310
        0.0009907134  -0.0002055929  -0.0007165154   0.0007119479   0.0005222346
       -0.0003287224  -0.0023139859   0.0000429022  -0.0000844401   0.0029432288
       -0.0007266424   0.0009529204  -0.0032646758   0.0009408033  -0.0013245503
        0.0029560917   0.0008294122  -0.0009859887  -0.0013277246   0.0005611197
       -0.0007637972   0.0008680788   0.0008572082  -0.0011107854  -0.0002208093
       -0.0006093146   0.0008173049   0.0000361614  -0.0001710818   0.0003587395
        0.0003669828  -0.0013105548   0.0014949850  -0.0009380540  -0.0005771585
        0.0006078721   0.0005512279  -0.0004652348   0.0008874228  -0.0003816921
        0.0000076389   0.0002867868  -0.0025256909  -0.0036064021  -0.0013888002