90
 energy: -140.382296206185 gnorm: 0.000035311618 xtb: 6.7.1 (edcfbbe)
C           -6.32669719114413       -4.67388194615479        0.15176071534215
C           -5.70099916996645       -3.72364415277581       -0.63828036386069
C           -6.18516654213536       -2.43006383559483       -0.68948471894299
C           -7.30255050195416       -2.07177078321661        0.06300630177325
C           -7.84783228037708       -0.72183728341257        0.04018421336758
N           -9.12517612276273       -0.46086094719424        0.07877967303707
C           -9.24097664106622        0.89853767987990       -0.01308366003541
C          -10.37135007678853        1.70824221164453       -0.01401396994720
C          -10.18212890288324        3.07091032884869       -0.10396425056366
C           -8.90515228300259        3.63063106765872       -0.18197910738008
C           -7.76898919819851        2.84626342214773       -0.18387565954872
C           -7.95220654756779        1.47489599648600       -0.11310684691172
N           -7.07224000781207        0.41682416706770       -0.07317326595836
C           -5.67451974669676        0.49866819981183       -0.03985729709238
C           -4.96130372760230       -0.15887225033468        0.96105896435665
C           -3.58508458657705       -0.11988143743110        0.96528260264962
C           -2.87996812936421        0.59363566147742       -0.01084482397409
C           -1.42116658802301        0.60236364599757       -0.02005456695040
C           -0.71205369946271        1.84437261931773       -0.00160398939771
C           -1.37490317964474        3.06841015971816        0.10896687945485
C           -0.68468263686715        4.27790888290894        0.04735305754497
C            0.68059007730213        4.27873797896400       -0.13187023779393
C            1.37303778148758        3.07015889765377       -0.18615011493521
C            0.71228028499220        1.84564037924042       -0.06894536723582
C            1.42460370513388        0.60561108440364       -0.04197787074178
C            2.88344156679616        0.60149588135323       -0.03716418846071
C            3.60216475695092       -0.11414356271746       -1.00168272802139
C            4.97822718620232       -0.15363060396463       -0.97742844797037
C            5.67714316290335        0.50573942076433        0.03230968190408
N            7.07373896414153        0.41840629016236        0.08962851515835
C            7.84555473055157       -0.72470256018813       -0.00321398537066
C            7.29440874288554       -2.07221138852296       -0.03012837152246
C            7.94637644385618       -3.04654309646661       -0.78409950001417
C            7.45309525222991       -4.33605564033642       -0.83221128145706
C            6.30908685971257       -4.67058864737544       -0.12557803566722
C            5.67215747750460       -3.71381100409064        0.64740411406588
C            6.16097300494161       -2.42210560139288        0.70205951768391
N            9.12470846675973       -0.47026408694959       -0.01827527274382
C            9.24563511793404        0.88891938550488        0.06974974459940
C           10.37994026116263        1.69285548080667        0.08948058415146
C           10.19601684375447        3.05681918406505        0.17023690475323
C            8.92064839763534        3.62331381634155        0.22102729848917
C            7.78061868113842        2.84475474010931        0.20384272388310
C            7.95811380300549        1.47218813251847        0.14218681004007
C            4.97825233984557        1.24119274455196        0.98590979938600
C            3.60093899032056        1.29335753656856        0.94377021214703
C            0.71608953424085       -0.63759659368938       -0.00788424220961
C            1.38047484255952       -1.86173359329123        0.09719918442686
C            0.68943694799887       -3.07131099325036        0.05062854441467
C           -0.67845336447729       -3.07281244130606       -0.10655333725026
C           -1.37170480726795       -1.86458027716391       -0.15524425523325
C           -0.70946036403840       -0.63908095640867       -0.05300494937412
C           -3.61113384934587        1.28037671319149       -0.98519475016843
C           -4.98899814420945        1.22864635800337       -1.00723038202651
C           -7.94369589137719       -3.03952349130350        0.83450514187327
C           -7.45501315956415       -4.33090968209185        0.87927194475440
H           -5.94164863936480       -5.68213620230022        0.19161635978277
H           -4.83368702525191       -3.99245075727148       -1.22378759653103
H           -5.70555670956365       -1.70531666467436       -1.33109232002686
H          -11.35460901831241        1.27244051395090        0.05856751422110
H          -11.03929662022568        3.72794099445834       -0.10798408208644
H           -8.80491150333799        4.70435589795294       -0.24063446518434
H           -6.78280559301733        3.28375001320889       -0.23251765508098
H           -5.49595661878367       -0.70159637803333        1.72642125226399
H           -3.03729486478187       -0.62120977282621        1.74935672228271
H           -2.44447022727191        3.08283172874990        0.25171555372117
H           -1.22941432572153        5.20654969675190        0.12783997653616
H            1.22353858417554        5.20794711450383       -0.21760435800566
H            2.44273813722167        3.08545362876152       -0.32802264752526
H            3.06555242887867       -0.61751811977400       -1.79215158294955
H            5.52367329716801       -0.69922327702132       -1.73308295491731
H            8.83765182544658       -2.76987869754516       -1.32527642989883
H            7.96079608872990       -5.08395250076234       -1.42320499090982
H            5.92043570415137       -5.67734618388811       -0.16824384398823
H            4.79229638478178       -3.97598119754602        1.21699766153423
H            5.67213911071703       -1.69241504671983        1.33096555089384
H           11.36216162349576        1.25172899296647        0.03808216393166
H           11.05632214048262        3.70949447159188        0.18850278928311
H            8.82483915734967        4.69776243580980        0.27349756983649
H            6.79594183433991        3.28743331093025        0.23155160975841
H            5.52029688918160        1.74342432318542        1.77361683216710
H            3.06236201327408        1.83645845563650        1.70645460010151
H            2.45251664289664       -1.87867819873217        0.22082386114407
H            1.23619658821578       -3.99933205815442        0.12470109925128
H           -1.22342774406521       -4.00202575627980       -0.17869667437189
H           -2.44383163085830       -1.88346594461500       -0.27801938554663
H           -3.08344728740757        1.81972368099262       -1.75809344789726
H           -5.54214214757920        1.72792278677905       -1.78909286457419
H           -8.82289188495204       -2.75635180084304        1.39183890746046
H           -7.95405632162666       -5.07370742154757        1.48391544296755
