$hessian                                                                        
        0.0942875133  -0.0079908366   0.0599402685  -0.0589618132   0.0033568286
       -0.0236815087  -0.0014956611  -0.0014579813  -0.0087992683   0.0005868294
        0.0008543172   0.0011979458   0.0003107095   0.0001159245  -0.0001205329
        0.0001831846  -0.0000934008   0.0001687642   0.0000224862   0.0000104182
        0.0001883198   0.0000577540  -0.0001303581  -0.0000756723   0.0000333020
        0.0000357386   0.0000311065   0.0000483282   0.0000004586   0.0000404374
        0.0000206559   0.0000039555   0.0000011821   0.0000118706  -0.0000285083
        0.0000257327  -0.0000019038  -0.0000361968   0.0000069565   0.0000023093
       -0.0000270865   0.0001247830  -0.0000033765   0.0000885058  -0.0001164898
       -0.0000310703  -0.0000292679   0.0000583218   0.0000022093  -0.0000687728
       -0.0000855999   0.0001338485  -0.0001785298  -0.0000719816  -0.0001390660
       -0.0000145845  -0.0000416356  -0.0000336113   0.0000570054   0.0001065020
        0.0001679148   0.0004173710   0.0003442163   0.0002495799   0.0000189406
        0.0000447364  -0.0000911370  -0.0001967531  -0.0000871297   0.0004656541
        0.0001636903   0.0006312639   0.0000056075  -0.0001313925  -0.0001675887
        0.0000523191   0.0002180168  -0.0000012115  -0.0005929464   0.0002479549
       -0.0000517496   0.0003213858  -0.0002303099  -0.0001458615  -0.0000178547
       -0.0001060691   0.0001638487  -0.0224508699   0.0010523391  -0.0163166301
       -0.0158601227   0.0032882316  -0.0125629812   0.0009989569   0.0000893523
       -0.0013585150   0.0013146723   0.0005682601   0.0002275985   0.0012558980
       -0.0002834990   0.0009443852   0.0001812521   0.0001965093   0.0000346629
       -0.0002790717   0.0002408113   0.0000401748  -0.0004788143  -0.0005909895
        0.0002708084   0.0000551726  -0.0000216926   0.0000947986  -0.0000486163
        0.0001641472  -0.0000517366  -0.0001013889   0.0000110406  -0.0000913140
        0.0000351203   0.0000870066  -0.0000625741  -0.0000629871  -0.0000131524
       -0.0000378891   0.0000023152   0.0000043101  -0.0000338758  -0.0000324827
       -0.0000013232  -0.0000337548   0.0000064696  -0.0000141943   0.0000093222
       -0.0000071592   0.0000138755  -0.0000421441  -0.0000200519   0.0000006789
       -0.0000265111  -0.0000220403   0.0000322320  -0.0000273468  -0.0000128924
        0.0000125031  -0.0000316640   0.0000076693   0.0000176773   0.0000219991
        0.0000046488   0.0000194497  -0.0000275350   0.0000063616   0.0000363704
       -0.0000226604  -0.0000007682   0.0000263618   0.0000009464  -0.0000367932
       -0.0000422081  -0.0000310340  -0.0001214328  -0.0000331023  -0.0000354225
       -0.0000908992   0.0000804358  -0.0002939568   0.0001822747   0.0000933102
       -0.0003020193   0.0000471009   0.0000821138   0.0001492124  -0.0000665431
        0.0000140666  -0.0000324993
       -0.0079908366   0.0205183412  -0.0038402670   0.0039664864  -0.0231097771
        0.0033848447  -0.0021411661   0.0009865646  -0.0016518067  -0.0007797871
        0.0000073070  -0.0015456732   0.0000892546   0.0000839593  -0.0001260806
        0.0000025804   0.0000274574   0.0000965282   0.0000260241   0.0000169235
        0.0000406757   0.0000200712  -0.0000176232  -0.0000341893   0.0000108321
        0.0000149526   0.0000204469  -0.0000033941  -0.0000200451  -0.0000026754
       -0.0000068803  -0.0000053512  -0.0000020956  -0.0000083532  -0.0000002254
        0.0000060571  -0.0000093259  -0.0000042837  -0.0000067180   0.0000045903
       -0.0000032964   0.0000025073  -0.0000108087  -0.0000017146  -0.0000103811
        0.0000117490   0.0000977685   0.0000594894   0.0001549877   0.0000008342
        0.0000636954  -0.0000996204   0.0000708971  -0.0000047154  -0.0000834489
        0.0000588968   0.0000054982  -0.0000360641  -0.0001074051  -0.0001135799
       -0.0000027308  -0.0003402100   0.0002746399   0.0000334457  -0.0001465013
        0.0000591084   0.0001726907  -0.0000314922  -0.0000160787   0.0000419113
       -0.0000070579   0.0003218522  -0.0000734708   0.0000268243  -0.0000812637
        0.0001194346   0.0001041184   0.0000259992  -0.0001267414   0.0000447548
       -0.0000140976   0.0000668381  -0.0000903188  -0.0000556633  -0.0000280364
        0.0000176796  -0.0000127890  -0.0095486578   0.0023233811  -0.0075544140
        0.0163278119   0.0002018615   0.0126855453   0.0000815388   0.0002925263
       -0.0006348731   0.0002284482   0.0000064642   0.0002559263  -0.0001875565
       -0.0006174994  -0.0013334736  -0.0000487817  -0.0000371701  -0.0001173401
       -0.0000856482  -0.0000110189   0.0000748575   0.0000394190  -0.0001188457
        0.0001075358   0.0000096549   0.0000214143   0.0000500130  -0.0000054969
        0.0000219927  -0.0000388165  -0.0000471961   0.0000114829  -0.0000217603
        0.0000149671  -0.0000181647  -0.0000219495  -0.0000290084  -0.0000001093
       -0.0000166373   0.0000083995  -0.0000130188  -0.0000125075   0.0000014836
        0.0000143017  -0.0000089244   0.0000040596   0.0000123504   0.0000007601
       -0.0000033908   0.0000001585   0.0000061488   0.0000022245  -0.0000049774
       -0.0000085189  -0.0000111015  -0.0000104377  -0.0000007318   0.0000014955
        0.0000027655  -0.0000119847   0.0000131336   0.0000059369  -0.0000024386
        0.0000011155   0.0000015929   0.0000034681  -0.0000049914  -0.0000053207
       -0.0000066005  -0.0000035423   0.0000103891   0.0000004575  -0.0000081987
       -0.0000403874  -0.0000423683   0.0000060903   0.0000100711   0.0000074255
       -0.0000751005  -0.0000976354  -0.0000804258   0.0000064677  -0.0001659856
       -0.0000789406   0.0000095883   0.0000150665  -0.0000158087  -0.0000174587
       -0.0000031617  -0.0000268915
        0.0599402685  -0.0038402670   0.0706362863  -0.0265946473   0.0030459855
       -0.0358835105  -0.0201799365  -0.0008967681  -0.0220242311  -0.0007425607
        0.0008892902  -0.0000492072   0.0004228557   0.0001270700  -0.0002484313
        0.0001585138  -0.0000845496   0.0001999979   0.0000300024   0.0000281549
        0.0001720029   0.0000425657  -0.0000913198  -0.0000066653   0.0000227096
        0.0000230768   0.0000363304   0.0000576610  -0.0000033753   0.0000472915
        0.0000233967  -0.0000027915   0.0000013054   0.0000157486  -0.0000313834
        0.0000204781   0.0000015144  -0.0000406525   0.0000222300  -0.0000044418
       -0.0000462261   0.0001333021   0.0000076282   0.0001030575  -0.0001684404
        0.0000051524  -0.0000504985   0.0000150006   0.0000099261  -0.0000563197
       -0.0000581979   0.0001981913  -0.0001781537  -0.0000398057  -0.0002673968
        0.0001081502   0.0000080811   0.0000010429   0.0000346911   0.0001094597
        0.0001283846   0.0003376977   0.0002820878   0.0002431139  -0.0000779566
        0.0000364583   0.0000150249  -0.0001901460  -0.0000643950   0.0003120853
        0.0002716072   0.0001437462   0.0002139504   0.0000053298   0.0000229010
       -0.0000474963   0.0000542892   0.0000143421  -0.0006352034   0.0002864250
       -0.0000313823   0.0002471094  -0.0001919350  -0.0001196014   0.0000397401
       -0.0001460530   0.0001210033  -0.0057410382  -0.0008300106  -0.0012115270
       -0.0091493348   0.0026140556  -0.0050750916   0.0010384105  -0.0010907629
       -0.0064136803   0.0003042154   0.0004247080   0.0006087041   0.0008404888
       -0.0012236067  -0.0008764391   0.0000418228   0.0003594757  -0.0000479062
       -0.0003355711   0.0001846821  -0.0000362651  -0.0004082556  -0.0004899878
        0.0004018845   0.0000608069   0.0000432374   0.0000670713  -0.0000323071
        0.0001697397  -0.0000265903  -0.0001043821   0.0000040048  -0.0000968550
        0.0000271899   0.0000860307  -0.0000455650  -0.0000518185  -0.0000184390
       -0.0000402653  -0.0000028410   0.0000229253  -0.0000263912  -0.0000267558
       -0.0000086895  -0.0000317523  -0.0000112579  -0.0000102757   0.0000121079
       -0.0000068513   0.0000054804  -0.0000402107  -0.0000168956   0.0000136933
       -0.0000223786  -0.0000109731   0.0000315620  -0.0000329105  -0.0000131221
        0.0000047377  -0.0000298470   0.0000036102   0.0000106276   0.0000088019
       -0.0000004233   0.0000081136  -0.0000236597   0.0000031459   0.0000373996
       -0.0000088615  -0.0000106152   0.0000109730   0.0000073353  -0.0000395924
       -0.0000176596  -0.0000266882  -0.0001294275  -0.0000042951  -0.0000425662
        0.0000216767   0.0000481296  -0.0002796640   0.0002284319   0.0002021628
       -0.0000862949  -0.0001036189   0.0000179974   0.0001138162  -0.0000396204
        0.0000075611  -0.0000267484
       -0.0589618132   0.0039664864  -0.0265946473   0.3607662360   0.0192243106
       -0.0968634036  -0.0732973591   0.0065017387   0.0452399139  -0.0036086025
        0.0042936788   0.0101986139  -0.0002430169   0.0000573990   0.0000713165
       -0.0002373038   0.0001617952   0.0000275430  -0.0000069305  -0.0000211468
       -0.0001188157  -0.0000197945   0.0000539945   0.0000211177  -0.0000001179
        0.0000041243  -0.0000114283  -0.0000417776   0.0000122795  -0.0000417085
       -0.0000165130   0.0000148448   0.0000012891  -0.0000148470   0.0000311497
       -0.0000082048  -0.0000018083   0.0000368714  -0.0000003830  -0.0000047215
        0.0000169582  -0.0000999197  -0.0000061808  -0.0000529388   0.0000844490
       -0.0000071647  -0.0000248992  -0.0000717623  -0.0000687859   0.0000560293
        0.0000297179  -0.0001228845   0.0001044867   0.0000232226   0.0002125655
       -0.0000879680   0.0000160795  -0.0000227661   0.0000460241  -0.0000261343
       -0.0000537541  -0.0001841491  -0.0001790566  -0.0001943142   0.0000847188
        0.0000089591   0.0001220311  -0.0000433239  -0.0000330221  -0.0001638947
       -0.0000593331  -0.0000401222  -0.0002752433  -0.0000027057   0.0001044405
       -0.0000394868   0.0000851951  -0.0000200321   0.0002043915  -0.0001015033
        0.0000246118  -0.0001305757   0.0000338885  -0.0000269718  -0.0000410125
       -0.0000276637  -0.0000740381  -0.1539388912  -0.1081700533   0.0577062574
       -0.0647051666   0.0733854079   0.0072266420   0.0032400038  -0.0032291101
       -0.0206472825  -0.0081627949   0.0019125075   0.0232273532  -0.0005662549
        0.0002190197   0.0001213322  -0.0005931935   0.0024883612   0.0006420961
        0.0000775521  -0.0001681344  -0.0000986311   0.0006439449  -0.0003477055
       -0.0001854429   0.0000137641   0.0000179111  -0.0000238149   0.0000116997
       -0.0000915380   0.0000131448   0.0000209173  -0.0000228860   0.0000373752
       -0.0000188943  -0.0000612110   0.0000273469   0.0000260024   0.0000060107
        0.0000193278   0.0000050138  -0.0000129089   0.0000172334   0.0000346051
        0.0000019049   0.0000304041  -0.0000040026  -0.0000009573   0.0000064322
        0.0000083397  -0.0000058699   0.0000332358   0.0000213565  -0.0000078851
        0.0000229527   0.0000147898  -0.0000191829   0.0000191585   0.0000215918
       -0.0000099926   0.0000182169  -0.0000057700  -0.0000201389  -0.0000121429
        0.0000024102  -0.0000089795   0.0000192365   0.0000000695  -0.0000248622
        0.0000150825  -0.0000002879  -0.0000230386  -0.0000042559   0.0000348899
        0.0000255636   0.0000271213   0.0000688611   0.0000240199   0.0000189987
        0.0000174459   0.0000144932   0.0001276888  -0.0000944878  -0.0000151388
        0.0000181182   0.0000621637   0.0000022486  -0.0000815075   0.0000397674
       -0.0000381973   0.0000166983
        0.0033568286  -0.0231097771   0.0030459855   0.0192243106   0.5065820416
       -0.0079743584   0.0056535780  -0.0708330617  -0.0252387755   0.0086493771
       -0.0084732388  -0.0260544130   0.0001168254   0.0002126376   0.0002716665
       -0.0000134331   0.0000081157  -0.0002902072  -0.0000263360   0.0000511686
        0.0000719305  -0.0000264939   0.0000106586   0.0000344946   0.0000114360
        0.0000071379   0.0000016577   0.0000007382   0.0000160677  -0.0000003963
        0.0000107739   0.0000172851   0.0000045376   0.0000064570   0.0000032077
        0.0000041784   0.0000084012   0.0000039195   0.0000086971  -0.0000006272
       -0.0000071341   0.0000123677   0.0000105653   0.0000244978  -0.0000163317
       -0.0000318693  -0.0000654210  -0.0000775338  -0.0000664059  -0.0000102330
       -0.0000340082   0.0000655118  -0.0000622531  -0.0000250991   0.0000346936
       -0.0000358395  -0.0000053861   0.0000139588   0.0000778272   0.0000682296
        0.0000691150   0.0000518147   0.0000475403  -0.0000086230   0.0000208529
        0.0000339898  -0.0000278998  -0.0000474242  -0.0000971656   0.0000736277
        0.0000492017   0.0000030303  -0.0000606605  -0.0000519257   0.0000220234
        0.0000479369  -0.0000088938   0.0000374363  -0.0002107119   0.0000854934
        0.0000012164   0.0000676585   0.0000038990  -0.0000628284  -0.0000055293
       -0.0000418267  -0.0000186788  -0.1102333789  -0.1436646966   0.0525508321
        0.0767891401  -0.2583645192  -0.0122991777  -0.0004719278   0.0007854911
        0.0001574663  -0.0060242595   0.0030929510   0.0186208575  -0.0002026626
        0.0008051234  -0.0001878959   0.0027805340  -0.0052170710  -0.0017165779
       -0.0000185926  -0.0000783390  -0.0000537594   0.0002846871  -0.0017145413
       -0.0009622175   0.0000237438  -0.0000102707  -0.0000657978   0.0001050819
       -0.0000781444   0.0000165796   0.0000130070  -0.0000126613  -0.0000125246
       -0.0000088207   0.0000258772  -0.0000020156   0.0000007187  -0.0000056042
       -0.0000036379  -0.0000065670  -0.0000059855  -0.0000061120   0.0000080782
       -0.0000201402   0.0000079853  -0.0000117723  -0.0000130168   0.0000088100
        0.0000023619  -0.0000065977   0.0000000445   0.0000006932  -0.0000026324
        0.0000000807   0.0000041364   0.0000022840  -0.0000044927  -0.0000032228
       -0.0000048353  -0.0000051794  -0.0000056995  -0.0000050090  -0.0000009493
       -0.0000010982  -0.0000039808   0.0000029778  -0.0000015205   0.0000068741
        0.0000068810  -0.0000053013  -0.0000081248   0.0000055952  -0.0000041433
        0.0000084157   0.0000014416  -0.0000112129  -0.0000010169  -0.0000056681
        0.0000257778  -0.0000028896   0.0000088022   0.0000390538   0.0000271517
        0.0000658411  -0.0000106441   0.0000227506   0.0000734321   0.0000006065
       -0.0000356401   0.0000245791
       -0.0236815087   0.0033848447  -0.0358835105  -0.0968634036  -0.0079743584
        0.3574267260   0.0383249190  -0.0204972815  -0.1726500294   0.0033327678
       -0.0092943068  -0.0079726106  -0.0002502556   0.0001061370   0.0004193274
        0.0001286557   0.0002080055  -0.0001527930  -0.0000278475   0.0000991822
       -0.0001060373  -0.0000376700   0.0000480386  -0.0000414909  -0.0000100949
        0.0000013626  -0.0000351363  -0.0000290193  -0.0000133836  -0.0000581619
       -0.0000216460  -0.0000116379  -0.0000096222  -0.0000102422   0.0000133478
       -0.0000213694  -0.0000158463   0.0000091706  -0.0000419648   0.0000071151
        0.0000375741  -0.0001470550  -0.0000061804  -0.0000925877   0.0001801695
        0.0000215348   0.0000060763  -0.0000154877   0.0000016297   0.0000307238
        0.0000244800  -0.0000702830   0.0000950209   0.0000244921   0.0000585228
        0.0000081726   0.0000153990   0.0000211105  -0.0001073049  -0.0001178006
       -0.0000571228  -0.0001382059  -0.0001062089  -0.0001108311   0.0000231043
       -0.0000240348  -0.0000514217   0.0000629381   0.0000115600  -0.0000899228
       -0.0001232932   0.0000138635  -0.0001713382   0.0000006261  -0.0000997564
        0.0000193891  -0.0000005282  -0.0000621800   0.0003206218  -0.0001437302
        0.0000080970  -0.0000950056   0.0000592791   0.0000038291  -0.0000194277
        0.0000467791  -0.0000528653   0.0628063521   0.0530963384  -0.0645633996
        0.0100059641  -0.0149609302  -0.0376509757   0.0008285517  -0.0034537785
       -0.0241424749   0.0059962728  -0.0002778893  -0.0158276962  -0.0008239978
        0.0010459469   0.0006322374   0.0002521001  -0.0012151345   0.0006305358
        0.0001693180  -0.0001901840   0.0000071600   0.0000020178   0.0000370547
       -0.0000539000  -0.0000351476  -0.0000668318  -0.0000168046  -0.0000065665
       -0.0000600607   0.0000492546   0.0000463773  -0.0000162777   0.0000641133
        0.0000011344   0.0000163427   0.0000408457   0.0000165789   0.0000122064
        0.0000294037   0.0000081075  -0.0000056240   0.0000274415   0.0000177805
        0.0000156024   0.0000256351   0.0000141571   0.0000202159   0.0000105270
        0.0000087062  -0.0000028132   0.0000219148   0.0000148514   0.0000014718
        0.0000120113   0.0000101724  -0.0000156332   0.0000165299   0.0000138500
       -0.0000007097   0.0000146312   0.0000075705   0.0000004021   0.0000041317
       -0.0000010329   0.0000010587   0.0000218529  -0.0000040588  -0.0000093186
        0.0000106151   0.0000036157  -0.0000105846  -0.0000069128   0.0000174335
        0.0000132032   0.0000127168   0.0000599524   0.0000341272   0.0000352579
       -0.0000290765   0.0000664710   0.0000935545  -0.0001105758   0.0000581231
       -0.0000284112   0.0000860100   0.0000241615  -0.0000052617   0.0000063827
       -0.0000007211   0.0000056376
       -0.0014956611  -0.0021411661  -0.0201799365  -0.0732973591   0.0056535780
        0.0383249190   0.5257299807   0.0244785647   0.0094478168  -0.0860107427
        0.0433275603   0.0032848567   0.0064170466  -0.0152611712  -0.0023345561
       -0.0021380271  -0.0026357675   0.0011006861   0.0003291778  -0.0009838360
       -0.0000934095  -0.0000086701   0.0000147554   0.0000004854  -0.0000078856
       -0.0000003422   0.0000483364  -0.0000109655  -0.0000036421   0.0000165512
       -0.0000140528  -0.0000062750   0.0000005126  -0.0000143284   0.0000123440
        0.0000072365  -0.0000086803   0.0000139011   0.0000150228  -0.0000111630
       -0.0000027997  -0.0000002407  -0.0000103802  -0.0000027608  -0.0000147941
        0.0000002557   0.0000354472   0.0000292696   0.0001043223   0.0000263758
        0.0000914817  -0.0000970781   0.0001037650   0.0000385850   0.0000391276
       -0.0000129924   0.0000028017  -0.0000078725  -0.0000856123  -0.0000837153
       -0.0000818059  -0.0000178448  -0.0000931469   0.0000171173  -0.0000627717
       -0.0000366078   0.0000482793   0.0000427447   0.0000595362  -0.0001098702
        0.0000476512  -0.0000520039   0.0000517167   0.0000770248   0.0000888800
       -0.0001215911   0.0000256274  -0.0000156639   0.0002181074  -0.0000713470
        0.0000095231  -0.0000728950   0.0000364112   0.0000058902  -0.0000177843
       -0.0000238776  -0.0000808508  -0.0067659280   0.0029289377   0.0200604732
       -0.0028140078   0.0030412461   0.0102410656  -0.1918014305   0.0150178393
       -0.1066277863  -0.1524546526  -0.1057116758   0.0435150658  -0.0132315819
        0.0247476086   0.0008368455  -0.0038775340   0.0086946367   0.0023527649
        0.0009424512  -0.0010901209   0.0000943875   0.0003813208   0.0002360324
        0.0000541690   0.0001541105  -0.0000798486   0.0000702010  -0.0000015156
        0.0000161021  -0.0000954925   0.0000765873   0.0000721528  -0.0000313315
       -0.0001159861  -0.0002937279   0.0000037430   0.0000127675   0.0000059732
       -0.0000094686   0.0000037895  -0.0000016991  -0.0000135209   0.0000096134
        0.0000021548  -0.0000004165  -0.0000010901   0.0000027348  -0.0000091929
        0.0000024380   0.0000036016   0.0000012250   0.0000080827  -0.0000031361
        0.0000045411   0.0000087375  -0.0000015702   0.0000012218   0.0000122808
       -0.0000039925   0.0000032268   0.0000004732  -0.0000054517  -0.0000053203
        0.0000045911  -0.0000060309  -0.0000015992   0.0000061994  -0.0000081466
        0.0000026456   0.0000069570  -0.0000044156  -0.0000019800  -0.0000027130
       -0.0000017762  -0.0000131613   0.0000185624  -0.0000043846  -0.0000030161
        0.0000067785  -0.0000115494   0.0000317164  -0.0000464735  -0.0000580776
        0.0000265634   0.0000116098  -0.0000465183  -0.0000605693   0.0000272437
       -0.0000204426  -0.0000144656
       -0.0014579813   0.0009865646  -0.0008967681   0.0065017387  -0.0708330617
       -0.0204972815   0.0244785647   0.4738604257  -0.0141391883   0.0463006953
       -0.1685688457  -0.0114491386   0.0034520352  -0.0275675895  -0.0010270036
       -0.0028347363  -0.0026776866   0.0013363405   0.0004818450  -0.0010319468
       -0.0004035110  -0.0000220587   0.0000249659  -0.0000728346  -0.0000058624
        0.0000151906   0.0000404447  -0.0000126766  -0.0000107123  -0.0000155435
        0.0000064465   0.0000088204   0.0000034257   0.0000068710  -0.0000009754
       -0.0000077327   0.0000060618  -0.0000017844  -0.0000116006   0.0000064816
        0.0000057568  -0.0000089383  -0.0000048301  -0.0000001501   0.0000036215
       -0.0000196596  -0.0000177287  -0.0000557998  -0.0000380115  -0.0000294206
       -0.0000241415   0.0000192672  -0.0000241671  -0.0000107046   0.0000257052
       -0.0000224603   0.0000017753   0.0000260163   0.0000237657   0.0000324750
        0.0000116033   0.0000099097  -0.0000081428   0.0000366734   0.0000002544
       -0.0000100426  -0.0000566312   0.0000600197   0.0000001240   0.0000072322
       -0.0000456206  -0.0000413262  -0.0000067665  -0.0000290771  -0.0000325886
        0.0001024626  -0.0000355532  -0.0000179181  -0.0000241711   0.0000382284
        0.0000080452  -0.0000329496   0.0001021601   0.0000333055   0.0000527310
       -0.0000601966  -0.0000327762  -0.0064035499   0.0040750075   0.0168664042
        0.0094437776  -0.0080075279  -0.0260514832   0.0142389547  -0.0431777588
        0.0132725710  -0.1052277900  -0.1432405224   0.0446332465   0.0057789288
       -0.0070820172   0.0012819053   0.0043656447  -0.0079073639  -0.0028821062
        0.0008653511   0.0008295201  -0.0000633607   0.0004714109   0.0005286333
       -0.0001678407  -0.0002351082   0.0000170147  -0.0000742776  -0.0000971175
        0.0000593941   0.0002298910   0.0000565424  -0.0000211259   0.0000189454
       -0.0002348315  -0.0002850677   0.0001091415   0.0000134036   0.0000002202
       -0.0000007224  -0.0000077544   0.0000199907   0.0000002334   0.0000022264
       -0.0000086845   0.0000035014  -0.0000040391   0.0000007288   0.0000072426
       -0.0000054184  -0.0000104750   0.0000079355  -0.0000019377   0.0000017486
       -0.0000062114  -0.0000061532  -0.0000029967  -0.0000014664   0.0000029475
        0.0000064265   0.0000006431  -0.0000012287   0.0000002150  -0.0000021061
       -0.0000033504   0.0000005251   0.0000088799  -0.0000053232   0.0000051029
        0.0000052151  -0.0000027644   0.0000016100   0.0000048499  -0.0000157815
        0.0000245071   0.0000137978  -0.0000014032  -0.0000057699   0.0000051025
        0.0000064387  -0.0000002276   0.0000200969   0.0000028454   0.0000091548
        0.0000434826  -0.0000058619  -0.0000032833   0.0000246875   0.0000048449
       -0.0000060642  -0.0000047744
       -0.0087992683  -0.0016518067  -0.0220242311   0.0452399139  -0.0252387755
       -0.1726500294   0.0094478168  -0.0141391883   0.4634226891   0.0042798963
       -0.0089114336  -0.0664718010  -0.0029358784   0.0057669362   0.0009335538
        0.0007233958   0.0010294956  -0.0001715985   0.0000211502   0.0003865518
        0.0001227595  -0.0000307425  -0.0000032813   0.0000318358   0.0000014007
       -0.0000000944   0.0000115446  -0.0000085380  -0.0000288431  -0.0000274603
       -0.0000077721  -0.0000121439   0.0000050518   0.0000057597  -0.0000052129
       -0.0000152943  -0.0000043457  -0.0000134387  -0.0000146375  -0.0000013797
        0.0000129511  -0.0000738050  -0.0000028126  -0.0000503431   0.0000589662
       -0.0000161671   0.0000630802   0.0000658071   0.0000858044   0.0000119074
        0.0000634926  -0.0000566375   0.0001035488   0.0000545823   0.0000020367
        0.0000352620   0.0000388053   0.0000328877  -0.0001205506  -0.0001039021
       -0.0000970108  -0.0000475644  -0.0001307270   0.0000070727  -0.0000332943
       -0.0000153820   0.0000466796   0.0000530412  -0.0000055202  -0.0001046454
       -0.0000541499  -0.0001586557  -0.0000022709  -0.0000667897  -0.0000039621
       -0.0000006244  -0.0000737945  -0.0000391961   0.0001139565  -0.0000366363
        0.0000311049  -0.0001067703   0.0000855052   0.0000888637   0.0000612112
        0.0000486583  -0.0000965847   0.0059664532   0.0002255918  -0.0133696759
        0.0021752889  -0.0032199344  -0.0058389947  -0.1056423615   0.0126508776
       -0.1166789595   0.0448424940   0.0453392626  -0.0625905368  -0.0079842792
        0.0149499735   0.0015238536   0.0128505951  -0.0267642387  -0.0067301990
        0.0000427994  -0.0004970527   0.0003442906  -0.0001302661   0.0001582300
       -0.0000063450   0.0000560996  -0.0000968142  -0.0000356294   0.0000087169
        0.0000587913   0.0000912342  -0.0000050264  -0.0000098708   0.0000432905
        0.0000407889   0.0000411859   0.0000197711   0.0000050000   0.0000077048
        0.0000126869   0.0000050928  -0.0000000296   0.0000165487   0.0000062872
        0.0000045969   0.0000173725  -0.0000057283   0.0000214089   0.0000103851
       -0.0000023344  -0.0000025420   0.0000176898   0.0000045559   0.0000097067
        0.0000085551   0.0000021371  -0.0000047969   0.0000109277   0.0000047113
        0.0000037388   0.0000118183  -0.0000008055   0.0000132177  -0.0000025350
       -0.0000050174   0.0000022724   0.0000175958  -0.0000039114  -0.0000080951
        0.0000127987  -0.0000031692   0.0000009925   0.0000035645   0.0000016415
        0.0000254213   0.0000164501  -0.0000035006   0.0000077051   0.0000067390
       -0.0000026426  -0.0000535968   0.0000497970  -0.0000712202  -0.0000533018
        0.0000867788  -0.0000495432   0.0000488042  -0.0000022882   0.0000030259
        0.0000311943   0.0000067459
        0.0005868294  -0.0007797871  -0.0007425607  -0.0036086025   0.0086493771
        0.0033327678  -0.0860107427   0.0463006953   0.0042798963   0.4967310370
       -0.0051720389   0.0146290926  -0.1245586519  -0.0608167073   0.0207673109
        0.0052535687   0.0036059889  -0.0022070731  -0.0004390268   0.0021024763
        0.0003911877   0.0001126615  -0.0000717638   0.0000200518  -0.0000153125
       -0.0000579937  -0.0001432153   0.0000080634   0.0000470120  -0.0000061973
       -0.0000025248   0.0000133913  -0.0000132770  -0.0000009915   0.0000170578
       -0.0000256336   0.0000221120   0.0000285029  -0.0000098984   0.0000098727
        0.0000046413  -0.0000007660  -0.0000062966   0.0000014430  -0.0000122268
       -0.0000783271   0.0000484491   0.0000599686   0.0000643935   0.0000132158
       -0.0000102712  -0.0000985978  -0.0000034751  -0.0000151453   0.0000300847
       -0.0000113441  -0.0000258882  -0.0000269885   0.0000270187   0.0000069141
       -0.0000478771  -0.0000523721  -0.0000210980   0.0000511821   0.0000129421
        0.0000465901  -0.0000726861  -0.0000301341  -0.0001548842   0.0000530613
       -0.0000343429  -0.0000198292  -0.0001162982   0.0000244185  -0.0000539135
       -0.0000359621   0.0000246895   0.0000559888   0.0001182299  -0.0000377007
       -0.0000064304   0.0000214293  -0.0001041638  -0.0000872815  -0.0000655056
        0.0001628880   0.0002221222   0.0000297635   0.0000811578  -0.0002991010
        0.0002046835   0.0002351384   0.0014245441  -0.0129174245   0.0243107082
        0.0002089393   0.0062765765  -0.0174147885  -0.0008870425  -0.1953778513
        0.0170762325  -0.1051736399  -0.0592553433   0.0060179351   0.0544970206
       -0.0224980896  -0.0197714848   0.0046264979  -0.0064129789  -0.0071042320
        0.0051597634   0.0009138719   0.0011926559   0.0001283477   0.0003646133
        0.0007953813  -0.0002832802   0.0002537488   0.0000305197   0.0001032944
        0.0003840854   0.0006514767   0.0000369578   0.0000391961   0.0000161297
        0.0000408568  -0.0000080499  -0.0000176684   0.0000492668  -0.0000054706
       -0.0000030253   0.0000093353   0.0000189293  -0.0000250762  -0.0000193498
        0.0000034780  -0.0000018308  -0.0000005217  -0.0000024788  -0.0000056035
        0.0000096855   0.0000022848  -0.0000046791   0.0000038809  -0.0000001660
        0.0000026622   0.0000107486  -0.0000023194  -0.0000087131  -0.0000040460
       -0.0000048322  -0.0000045462   0.0000081189  -0.0000055368  -0.0000031592
        0.0000014274  -0.0000017717   0.0000014038  -0.0000010513   0.0000420539
       -0.0000009888   0.0000236609  -0.0000122644   0.0000001137  -0.0000142736
        0.0000118748  -0.0000102192  -0.0000156709   0.0000185426   0.0000125212
        0.0000229464   0.0000172437   0.0000262794   0.0000271860   0.0000454976
        0.0000133155   0.0000491968
        0.0008543172   0.0000073070   0.0008892902   0.0042936788  -0.0084732388
       -0.0092943068   0.0433275603  -0.1685688457  -0.0089114336  -0.0051720389
        0.4523510355  -0.0001000207  -0.0610232081  -0.1232900328   0.0238051828
       -0.0147579832  -0.0276677566   0.0056766349   0.0018473838  -0.0042502974
       -0.0012874377   0.0000370393  -0.0001205309  -0.0001167466   0.0000028793
        0.0000070486   0.0001272883  -0.0000307078  -0.0000034470  -0.0000161232
        0.0000141724   0.0000310712   0.0000175037   0.0000034218   0.0000079510
       -0.0000139485   0.0000178814   0.0000108302  -0.0000096656   0.0000170055
        0.0000044620  -0.0000300913  -0.0000114347  -0.0000021012   0.0000241606
       -0.0001737346  -0.0000497680  -0.0001542306   0.0000451745  -0.0000415158
        0.0000112439  -0.0000548453  -0.0000478876  -0.0000721870   0.0000576627
       -0.0000325134   0.0000162507   0.0000012798   0.0000708084   0.0000538999
        0.0000239766   0.0000023208   0.0000041850   0.0000096784   0.0000635191
        0.0000143466  -0.0000566056  -0.0000472460  -0.0001316716   0.0000229807