 Entering Gaussian System
 *********************************************
 Gaussian 98:
 frequency output generated by the xtb code
 *********************************************
                         Standard orientation:
 --------------------------------------------------------------------
  Center     Atomic     Atomic              Coordinates (Angstroms)
  Number     Number      Type              X           Y           Z
 --------------------------------------------------------------------
    1          6             0       -6.603892    5.580889   -1.496018
    2          6             0       -7.314155    5.104919   -0.226078
    3          6             0       -8.688133    5.786940   -0.160877
    4          6             0       -6.465352    5.523416    0.982931
    5          6             0       -7.509493    3.597981   -0.194133
    6          6             0       -7.084041    2.758475   -1.216735
    7          6             0       -7.278076    1.389827   -1.153131
    8          6             0       -7.908393    0.827911   -0.053161
    9          7             0       -8.071837   -0.569811    0.029264
   10          6             0       -7.044504   -1.483725    0.110131
   11          6             0       -5.630835   -1.153641    0.145639
   12          6             0       -5.127672   -0.002998    0.751470
   13          6             0       -3.770894    0.246731    0.755972
   14          6             0       -2.882739   -0.643213    0.156461
   15          6             0       -1.439057   -0.363489    0.149634
   16          6             0       -0.761901    0.057421    1.294498
   17          9             0       -1.429290    0.185570    2.452196
   18          6             0        0.599131    0.322917    1.285201
   19          9             0        1.183660    0.688522    2.437215
   20          6             0        1.370701    0.190097    0.129451
   21          6             0        2.809896    0.489383    0.119014
   22          6             0        3.708614   -0.358698   -0.524114
   23          6             0        5.060260   -0.080883   -0.531758
   24          6             0        5.552024    1.053715    0.113105
   25          6             0        6.954036    1.426106    0.149848
   26          7             0        7.341098    2.675667    0.262066
   27          6             0        8.695871    2.652898    0.259593
   28          6             0        9.588597    3.759327    0.324385
   29          6             0        9.110886    5.071907    0.392527
   30          6             0        9.987567    6.127344    0.427706
   31          6             0       11.358095    5.879215    0.390972
   32          6             0       11.838449    4.591892    0.328639
   33          6             0       10.974949    3.486155    0.299373
   34          6             0       11.451102    2.113475    0.264163
   35          6             0       12.819210    1.810256    0.306112
   36          6             0       13.280286    0.515085    0.312089
   37          6             0       12.381086   -0.545875    0.291115
   38          6             0       11.032407   -0.292814    0.242673
   39          6             0       10.542428    1.020565    0.210565
   40          6             0        9.155842    1.339472    0.159184
   41          7             0        8.024773    0.562142    0.077618
   42          6             0        7.943309   -0.840381   -0.045996
   43          6             0        7.439607   -1.605198    0.998198
   44          6             0        7.331568   -2.974017    0.854508
   45          6             0        7.717967   -3.619744   -0.318503
   46          6             0        7.568544   -5.128537   -0.424802
   47          6             0        8.050342   -5.676540   -1.770785
   48          6             0        6.085736   -5.491866   -0.261931
   49          6             0        8.394377   -5.793140    0.685730
   50          6             0        8.223544   -2.836727   -1.350803
   51          6             0        8.334600   -1.464020   -1.223842
   52          6             0        4.644853    1.916000    0.735494
   53          6             0        3.296644    1.638888    0.742458
   54          6             0        0.692802   -0.233026   -1.014947
   55          9             0        1.356254   -0.356419   -2.175684
   56          6             0       -0.667455   -0.502881   -1.004318
   57          9             0       -1.253732   -0.875273   -2.153398
   58          6             0       -3.381726   -1.806441   -0.428785
   59          6             0       -4.735550   -2.059940   -0.426330
   60          7             0       -7.486558   -2.717511    0.157930
   61          6             0       -8.839762   -2.632843    0.115815
   62          6             0       -9.783921   -3.695486    0.181771
   63          6             0       -9.370007   -5.024551    0.316725
   64          6             0      -10.296580   -6.032805    0.409294
   65          6             0      -11.653816   -5.719864    0.371950
   66          6             0      -12.071559   -4.416711    0.234177
   67          6             0      -11.155578   -3.359029    0.127177
   68          6             0      -11.564487   -1.976092   -0.051903
   69          6             0      -12.914244   -1.620960   -0.184747
   70          6             0      -13.309972   -0.321308   -0.395356
   71          6             0      -12.360020    0.689445   -0.499198
   72          6             0      -11.027475    0.385666   -0.367673
   73          6             0      -10.604673   -0.929223   -0.126103
   74          6             0       -9.237503   -1.299120    0.018770
   75          6             0       -8.338911    1.650303    0.982901
   76          6             0       -8.141243    3.013449    0.903086
   77          1             0       -6.490898    6.662439   -1.462511
   78          1             0       -5.611725    5.143197   -1.578281
   79          1             0       -7.179671    5.332285   -2.384512
   80          1             0       -9.213926    5.537014    0.756398
   81          1             0       -9.303018    5.475409   -1.002819
   82          1             0       -8.570551    6.867498   -0.201408
   83          1             0       -6.953890    5.270929    1.919851
   84          1             0       -6.297537    6.597955    0.966586
   85          1             0       -5.499401    5.023335    0.955542
   86          1             0       -6.591493    3.158138   -2.087249
   87          1             0       -6.937894    0.752160   -1.955732
   88          1             0       -5.789349    0.694004    1.241071
   89          1             0       -3.399241    1.147326    1.220345
   90          1             0        3.350875   -1.250405   -1.015485
   91          1             0        5.724022   -0.745466   -1.061018
   92          1             0        8.042274    5.219381    0.410148
   93          1             0        9.623609    7.142869    0.479157
   94          1             0       12.052517    6.706812    0.411732
   95          1             0       12.907144    4.450136    0.299586
   96          1             0       13.544093    2.607202    0.343360
   97          1             0       14.342374    0.321507    0.345043
   98          1             0       12.740424   -1.564034    0.316853
   99          1             0       10.338948   -1.118513    0.243332
  100          1             0        7.131085   -1.121585    1.913191
  101          1             0        6.935882   -3.543660    1.680931
  102          1             0        7.922233   -6.756776   -1.787113
  103          1             0        9.105165   -5.462432   -1.926856
  104          1             0        7.474442   -5.259692   -2.593780
  105          1             0        5.492885   -5.009997   -1.036724
  106          1             0        5.702868   -5.177528    0.704989
  107          1             0        5.953950   -6.568203   -0.346771
  108          1             0        8.048787   -5.496056    1.671838
  109          1             0        8.316918   -6.875476    0.610858
  110          1             0        9.442381   -5.515542    0.593091
  111          1             0        8.537007   -3.285063   -2.278787
  112          1             0        8.727397   -0.869359   -2.035909
  113          1             0        5.027780    2.806245    1.208190
  114          1             0        2.612914    2.322902    1.220934
  115          1             0       -2.703427   -2.518208   -0.873684
  116          1             0       -5.128707   -2.962403   -0.866689
  117          1             0       -8.309782   -5.221369    0.351313
  118          1             0       -9.981971   -7.060538    0.515140
  119          1             0      -12.387424   -6.509159    0.452082
  120          1             0      -13.132356   -4.223394    0.213476
  121          1             0      -13.676438   -2.381354   -0.131241
  122          1             0      -14.359807   -0.086911   -0.492905
  123          1             0      -12.667318    1.707706   -0.686689
  124          1             0      -10.293832    1.169685   -0.466943
  125          1             0       -8.828249    1.214185    1.841849
  126          1             0       -8.486144    3.627629    1.720531
 --------------------------------------------------------------------
     1 basis functions        1 primitive gaussians
     1 alpha electrons        1 beta electrons
 
 Harmonic frequencies (cm**-1), IR intensities (km*mol⁻¹),
 Raman scattering activities (A**4/amu), Raman depolarization ratios,
 reduced masses (AMU), force constants (mDyne/A) and normal coordinates:
                      1                      2                      3
                        a                      a                      a 
 Frequencies --     3.5808                 4.6249                 8.9195
 Red. masses --    10.8399                11.6751                12.0997
 Frc consts  --     0.0000                 0.0000                 0.0000
 IR Inten    --     0.4605                 0.1078                 0.0252
 Raman Activ --     0.0000                 0.0000                 0.0000
 Depolar     --     0.0000                 0.0000                 0.0000
 Atom AN      X      Y      Z        X      Y      Z        X      Y      Z
   1   6    -0.09   0.07   0.18     0.15  -0.01   0.09     0.01   0.00  -0.01
   2   6    -0.07   0.02   0.18     0.12  -0.01   0.08     0.06   0.00   0.01
   3   6    -0.07  -0.00   0.23     0.14   0.02   0.06     0.07   0.02   0.07
   4   6    -0.05  -0.02   0.18     0.11  -0.04   0.09     0.11  -0.02  -0.02
   5   6    -0.05   0.01   0.13     0.09  -0.00   0.05     0.04   0.00   0.00
   6   6    -0.05   0.05   0.09     0.08   0.00   0.05    -0.01   0.01  -0.02
   7   6    -0.04   0.05   0.05     0.05   0.01   0.03    -0.03   0.01  -0.02
   8   6    -0.01   0.00   0.04     0.03   0.01   0.01     0.01   0.01  -0.00
   9   7     0.01  -0.00  -0.01    -0.00   0.01  -0.00    -0.01   0.01  -0.01
  10   6     0.02   0.01  -0.04    -0.02  -0.01   0.00    -0.01  -0.00  -0.05
  11   6     0.01   0.01  -0.04    -0.02  -0.04   0.03    -0.01  -0.02  -0.08
  12   6     0.01   0.01  -0.03    -0.00  -0.05   0.04     0.02  -0.03  -0.08
  13   6     0.01   0.01  -0.03    -0.00  -0.07   0.05     0.02  -0.04  -0.10
  14   6     0.01   0.02  -0.04    -0.01  -0.08   0.05    -0.00  -0.05  -0.12
  15   6     0.01   0.03  -0.04    -0.01  -0.09   0.06     0.00  -0.07  -0.12
  16   6     0.01   0.02  -0.04    -0.01  -0.10   0.06     0.00  -0.08  -0.12
  17   9     0.02   0.02  -0.05    -0.01  -0.13   0.07     0.01  -0.11  -0.15
  18   6     0.01   0.03  -0.04    -0.01  -0.10   0.06     0.00  -0.08  -0.12
  19   9     0.02   0.03  -0.05    -0.01  -0.12   0.07     0.00  -0.10  -0.15
  20   6     0.01   0.03  -0.04    -0.01  -0.09   0.06     0.00  -0.07  -0.12
  21   6     0.01   0.03  -0.04    -0.01  -0.08   0.05    -0.00  -0.05  -0.12
  22   6     0.01   0.02  -0.04    -0.00  -0.07   0.05     0.02  -0.04  -0.11
  23   6     0.01   0.02  -0.04    -0.01  -0.05   0.04     0.01  -0.02  -0.09
  24   6     0.01   0.02  -0.04    -0.02  -0.04   0.02    -0.01  -0.01  -0.08
  25   6     0.01   0.01  -0.04    -0.03  -0.01   0.00    -0.01   0.00  -0.05
  26   7     0.03   0.01  -0.08    -0.05  -0.00  -0.02    -0.03   0.01  -0.05
  27   6     0.02  -0.00  -0.07    -0.05   0.02  -0.04    -0.03   0.02   0.00
  28   6     0.03  -0.01  -0.10    -0.07   0.04  -0.07    -0.04   0.03   0.03
  29   6     0.04   0.00  -0.15    -0.10   0.03  -0.08    -0.05   0.02  -0.00
  30   6     0.05  -0.01  -0.18    -0.12   0.05  -0.10    -0.07   0.03   0.02
  31   6     0.05  -0.02  -0.16    -0.11   0.08  -0.13    -0.06   0.04   0.08
  32   6     0.04  -0.03  -0.12    -0.09   0.09  -0.12    -0.05   0.05   0.11
  33   6     0.03  -0.02  -0.08    -0.07   0.07  -0.09    -0.04   0.04   0.08
  34   6     0.02  -0.02  -0.03    -0.04   0.08  -0.08    -0.02   0.04   0.12
  35   6     0.02  -0.04  -0.01    -0.03   0.11  -0.10    -0.02   0.05   0.18
  36   6     0.00  -0.04   0.04    -0.00   0.12  -0.10    -0.01   0.06   0.21
  37   6    -0.01  -0.03   0.07     0.02   0.10  -0.07    -0.00   0.05   0.18
  38   6    -0.00  -0.02   0.05     0.01   0.07  -0.05    -0.00   0.04   0.12
  39   6     0.01  -0.02   0.00    -0.02   0.06  -0.05    -0.01   0.03   0.09
  40   6     0.01  -0.01  -0.02    -0.02   0.03  -0.03    -0.01   0.02   0.03
  41   7     0.01   0.00  -0.01    -0.01   0.01  -0.01    -0.00   0.01  -0.00
  42   6    -0.01  -0.00   0.04     0.02   0.01   0.01     0.01   0.01   0.00
  43   6    -0.05   0.04   0.05     0.05   0.01   0.03    -0.02   0.01  -0.01
  44   6    -0.07   0.04   0.10     0.07   0.00   0.04    -0.01   0.01  -0.01
  45   6    -0.05  -0.01   0.13     0.07  -0.00   0.05     0.05   0.00   0.01
  46   6    -0.07  -0.01   0.18     0.10  -0.01   0.07     0.07   0.00   0.02
  47   6    -0.05  -0.07   0.21     0.10  -0.01   0.07     0.13  -0.00   0.04
  48   6    -0.09   0.02   0.15     0.11  -0.04   0.09     0.06  -0.01  -0.04
  49   6    -0.12   0.01   0.23     0.13   0.03   0.06     0.03   0.02   0.06
  50   6    -0.01  -0.05   0.12     0.04  -0.00   0.03     0.08   0.00   0.03
  51   6     0.01  -0.05   0.07     0.01   0.00   0.01     0.06   0.00   0.02
  52   6     0.01   0.03  -0.05    -0.03  -0.05   0.03    -0.03  -0.02  -0.10
  53   6     0.01   0.03  -0.05    -0.02  -0.07   0.04    -0.03  -0.04  -0.11
  54   6     0.01   0.03  -0.04    -0.01  -0.10   0.06     0.00  -0.07  -0.12
  55   9     0.01   0.04  -0.06    -0.01  -0.12   0.07     0.01  -0.08  -0.15
  56   6     0.01   0.03  -0.04    -0.01  -0.10   0.06     0.00  -0.07  -0.12
  57   9     0.01   0.05  -0.06    -0.01  -0.12   0.07     0.00  -0.08  -0.16
  58   6     0.01   0.03  -0.06    -0.02  -0.07   0.04    -0.02  -0.04  -0.12
  59   6     0.01   0.02  -0.05    -0.03  -0.05   0.03    -0.03  -0.02  -0.11
  60   7     0.03  -0.00  -0.08    -0.05  -0.01  -0.02    -0.02   0.00  -0.05
  61   6     0.03  -0.01  -0.07    -0.05   0.02  -0.04    -0.02   0.02   0.01
  62   6     0.04  -0.02  -0.10    -0.07   0.04  -0.07    -0.03   0.03   0.03
  63   6     0.05  -0.02  -0.15    -0.10   0.03  -0.07    -0.04   0.02   0.01
  64   6     0.06  -0.04  -0.18    -0.12   0.05  -0.10    -0.05   0.03   0.04
  65   6     0.06  -0.05  -0.16    -0.11   0.08  -0.12    -0.05   0.05   0.09
  66   6     0.04  -0.05  -0.11    -0.08   0.09  -0.12    -0.04   0.05   0.12
  67   6     0.03  -0.03  -0.08    -0.06   0.07  -0.09    -0.03   0.04   0.09
  68   6     0.02  -0.03  -0.03    -0.03   0.08  -0.08    -0.02   0.05   0.12
  69   6     0.01  -0.04  -0.01    -0.02   0.11  -0.10    -0.03   0.06   0.19
  70   6     0.00  -0.04   0.04     0.01   0.12  -0.09    -0.02   0.07   0.22
  71   6    -0.01  -0.02   0.07     0.03   0.10  -0.06    -0.01   0.06   0.18
  72   6    -0.01  -0.02   0.05     0.02   0.07  -0.04    -0.01   0.04   0.12
  73   6     0.01  -0.02   0.00    -0.01   0.06  -0.05    -0.02   0.04   0.09
  74   6     0.01  -0.01  -0.02    -0.02   0.03  -0.03    -0.01   0.02   0.03
  75   6    -0.00  -0.04   0.08     0.03   0.00   0.02     0.05   0.01   0.02
  76   6    -0.02  -0.03   0.12     0.06  -0.00   0.04     0.07   0.00   0.02
  77   1    -0.03   0.02   0.06     0.05  -0.00   0.03     0.01   0.00  -0.00
  78   1    -0.03   0.02   0.04     0.04  -0.01   0.03     0.00  -0.00  -0.02
  79   1    -0.03   0.03   0.05     0.05   0.01   0.02    -0.01   0.01   0.00
  80   1    -0.02  -0.01   0.07     0.03   0.01   0.02     0.03   0.01   0.03
  81   1    -0.02   0.01   0.07     0.04   0.01   0.01     0.01   0.01   0.03
  82   1    -0.03   0.00   0.08     0.05   0.01   0.02     0.02   0.01   0.02
  83   1    -0.01  -0.02   0.05     0.03  -0.01   0.02     0.04  -0.01  -0.00
  84   1    -0.02  -0.00   0.06     0.04  -0.01   0.03     0.04  -0.01  -0.00
  85   1    -0.01  -0.00   0.04     0.03  -0.02   0.03     0.03  -0.01  -0.02
  86   1    -0.02   0.03   0.03     0.03   0.00   0.02    -0.01   0.00  -0.01
  87   1    -0.01   0.02   0.01     0.02   0.00   0.01    -0.02   0.00  -0.01
  88   1     0.00  -0.00  -0.00     0.00  -0.01   0.01     0.01  -0.01  -0.02
  89   1     0.00   0.00  -0.01     0.00  -0.02   0.02     0.01  -0.01  -0.03
  90   1     0.00   0.01  -0.01     0.00  -0.02   0.02     0.01  -0.01  -0.03
  91   1     0.00   0.00  -0.01    -0.00  -0.01   0.01     0.01  -0.00  -0.02
  92   1     0.01   0.00  -0.05    -0.03   0.00  -0.02    -0.02   0.00  -0.01
  93   1     0.02  -0.00  -0.06    -0.04   0.01  -0.03    -0.02   0.01   0.00
  94   1     0.02  -0.01  -0.06    -0.04   0.03  -0.04    -0.02   0.01   0.03
  95   1     0.01  -0.01  -0.03    -0.02   0.03  -0.04    -0.01   0.02   0.04
  96   1     0.01  -0.01  -0.01    -0.01   0.04  -0.04    -0.01   0.02   0.06
  97   1     0.00  -0.01   0.02     0.00   0.04  -0.03    -0.00   0.02   0.07
  98   1    -0.00  -0.01   0.03     0.01   0.03  -0.02     0.00   0.02   0.06
  99   1    -0.00  -0.00   0.02     0.01   0.02  -0.01     0.00   0.01   0.03
 100   1    -0.02   0.02   0.01     0.01   0.00   0.01    -0.02   0.00  -0.01
 101   1    -0.03   0.02   0.03     0.03   0.00   0.02    -0.01   0.00  -0.01
 102   1    -0.02  -0.02   0.07     0.03  -0.00   0.02     0.04  -0.00   0.01
 103   1    -0.01  -0.03   0.07     0.03   0.00   0.01     0.04   0.00   0.03
 104   1    -0.01  -0.02   0.05     0.02  -0.01   0.02     0.05  -0.00   0.00
 105   1    -0.02   0.00   0.03     0.03  -0.02   0.03     0.03  -0.01  -0.02
 106   1    -0.03   0.02   0.04     0.03  -0.01   0.03     0.01  -0.00  -0.02
 107   1    -0.03   0.01   0.05     0.04  -0.01   0.03     0.02  -0.00  -0.01
 108   1    -0.04   0.02   0.06     0.04   0.01   0.02    -0.01   0.01   0.01
 109   1    -0.04   0.00   0.08     0.05   0.01   0.02     0.01   0.01   0.02
 110   1    -0.03  -0.00   0.07     0.04   0.01   0.01     0.01   0.01   0.03
 111   1     0.00  -0.03   0.04     0.01  -0.00   0.01     0.03  -0.00   0.01
 112   1     0.01  -0.02   0.02    -0.00  -0.00  -0.00     0.03   0.00   0.01
 113   1     0.00   0.01  -0.01    -0.01  -0.01   0.01    -0.01  -0.00  -0.03
 114   1     0.00   0.01  -0.01    -0.01  -0.02   0.01    -0.01  -0.01  -0.04
 115   1     0.00   0.01  -0.02    -0.01  -0.02   0.01    -0.01  -0.01  -0.04
 116   1     0.00   0.01  -0.02    -0.01  -0.01   0.01    -0.01  -0.00  -0.03
 117   1     0.01  -0.00  -0.05    -0.03   0.00  -0.02    -0.01   0.00  -0.01
 118   1     0.02  -0.01  -0.06    -0.04   0.01  -0.03    -0.02   0.01   0.00
 119   1     0.02  -0.02  -0.05    -0.04   0.03  -0.04    -0.02   0.02   0.03
 120   1     0.01  -0.02  -0.03    -0.02   0.03  -0.04    -0.01   0.02   0.05
 121   1     0.01  -0.01  -0.01    -0.01   0.04  -0.04    -0.01   0.02   0.06
 122   1    -0.00  -0.01   0.02     0.00   0.04  -0.03    -0.01   0.02   0.08
 123   1    -0.01  -0.01   0.03     0.02   0.03  -0.02    -0.00   0.02   0.06
 124   1    -0.00  -0.00   0.02     0.01   0.02  -0.01    -0.00   0.01   0.03
 125   1     0.00  -0.02   0.02     0.00   0.00   0.00     0.02   0.00   0.01
 126   1    -0.00  -0.02   0.04     0.02  -0.00   0.01     0.03   0.00   0.01
                      4                      5                      6
                        a                      a                      a 
 Frequencies --     9.2046                15.5642                17.6492
 Red. masses --    10.9998                11.7643                11.0085
 Frc consts  --     0.0000                 0.0000                 0.0000
 IR Inten    --     0.0070                 0.0020                 0.1529
 Raman Activ --     0.0000                 0.0000                 0.0000
 Depolar     --     0.0000                 0.0000                 0.0000
 Atom AN      X      Y      Z        X      Y      Z        X      Y      Z
   1   6     0.26  -0.10   0.02     0.03   0.02   0.14    -0.19   0.04  -0.10
   2   6     0.20  -0.07  -0.01    -0.03   0.00   0.10    -0.14   0.04  -0.07
   3   6     0.22  -0.02  -0.06    -0.04  -0.01   0.04    -0.17  -0.03  -0.06
   4   6     0.17  -0.09   0.02    -0.10   0.00   0.15    -0.14   0.11  -0.10
   5   6     0.14  -0.06  -0.01    -0.02   0.00   0.08    -0.07   0.03  -0.04
   6   6     0.15  -0.08   0.02     0.03   0.01   0.09    -0.06   0.03  -0.03
   7   6     0.11  -0.07   0.02     0.03   0.01   0.07    -0.02   0.02  -0.01
   8   6     0.06  -0.05   0.00    -0.00  -0.00   0.04     0.01   0.02   0.01
   9   7     0.03  -0.05   0.01     0.00  -0.01   0.02     0.02   0.02   0.01
  10   6     0.01  -0.06   0.03    -0.00  -0.01   0.08     0.02   0.02   0.00
  11   6     0.02  -0.06   0.04    -0.00  -0.01   0.09     0.02   0.01   0.01
  12   6     0.01  -0.08   0.07    -0.00   0.01   0.05     0.03   0.00   0.01
  13   6     0.01  -0.07   0.07    -0.00   0.01   0.03     0.03  -0.02   0.02
  14   6     0.01  -0.04   0.03    -0.00  -0.01   0.06     0.03  -0.03   0.04
  15   6     0.01  -0.02   0.02    -0.00  -0.00   0.03     0.03  -0.05   0.05
  16   6     0.02  -0.05   0.02     0.01   0.06  -0.01     0.03  -0.09   0.06
  17   9     0.05  -0.13   0.05     0.03   0.15  -0.00     0.03  -0.15   0.08
  18   6     0.02  -0.03   0.00     0.01   0.07  -0.04     0.03  -0.11   0.07
  19   9     0.04  -0.08   0.01     0.03   0.18  -0.09     0.04  -0.18   0.11
  20   6    -0.00   0.02  -0.02    -0.01   0.02  -0.04     0.03  -0.08   0.07
  21   6    -0.01   0.04  -0.03    -0.01   0.02  -0.08     0.03  -0.07   0.07
  22   6    -0.01   0.08  -0.08    -0.01  -0.00  -0.04     0.03  -0.03   0.03
  23   6    -0.01   0.09  -0.08    -0.01  -0.01  -0.05     0.03  -0.01   0.02
  24   6    -0.01   0.06  -0.04    -0.01   0.02  -0.10     0.02  -0.03   0.06
  25   6    -0.01   0.06  -0.03    -0.01   0.01  -0.08     0.02  -0.01   0.05
  26   7     0.00   0.06  -0.03     0.00   0.01  -0.11     0.01  -0.01   0.02
  27   6     0.00   0.04  -0.02    -0.00   0.00  -0.05     0.01   0.00   0.00
  28   6     0.01   0.03  -0.01     0.01  -0.00  -0.04    -0.00   0.01  -0.05
  29   6     0.03   0.03  -0.03     0.02   0.00  -0.10    -0.01   0.01  -0.11
  30   6     0.04   0.02  -0.03     0.02  -0.00  -0.10    -0.02   0.02  -0.19
  31   6     0.04   0.00  -0.02     0.02  -0.02  -0.04    -0.02   0.03  -0.21
  32   6     0.02  -0.00   0.00     0.01  -0.02   0.03    -0.01   0.04  -0.15
  33   6     0.01   0.01   0.00     0.01  -0.02   0.03     0.00   0.03  -0.06
  34   6    -0.01   0.00   0.02    -0.01  -0.02   0.10     0.01   0.03   0.01
  35   6    -0.01  -0.02   0.04    -0.01  -0.04   0.19     0.02   0.04   0.04
  36   6    -0.03  -0.02   0.06    -0.02  -0.04   0.25     0.02   0.04   0.12
  37   6    -0.04  -0.01   0.06    -0.03  -0.03   0.22     0.03   0.04   0.16
  38   6    -0.04   0.01   0.04    -0.03  -0.02   0.14     0.03   0.02   0.13
  39   6    -0.02   0.01   0.02    -0.01  -0.02   0.07     0.02   0.02   0.06
  40   6    -0.01   0.03  -0.00    -0.01  -0.00  -0.00     0.02   0.01   0.04
  41   7    -0.02   0.05  -0.01    -0.01   0.00  -0.03     0.03  -0.01   0.07
  42   6    -0.05   0.04  -0.01    -0.00   0.00  -0.04     0.03  -0.00   0.04
  43   6    -0.12   0.07  -0.02    -0.02  -0.01  -0.06    -0.06  -0.02  -0.02
  44   6    -0.17   0.07  -0.02     0.00  -0.01  -0.07    -0.08  -0.01  -0.07
  45   6    -0.15   0.05  -0.00     0.04   0.00  -0.07    -0.01   0.01  -0.05
  46   6    -0.21   0.06  -0.01     0.07   0.00  -0.08    -0.05   0.02  -0.11
  47   6    -0.16   0.03   0.02     0.12   0.02  -0.07     0.08   0.04  -0.07
  48   6    -0.24   0.13  -0.09     0.07  -0.03  -0.13    -0.09   0.08  -0.30
  49   6    -0.30   0.02   0.03     0.05   0.01  -0.06    -0.22  -0.06  -0.04
  50   6    -0.07   0.03   0.02     0.06   0.02  -0.05     0.10   0.02   0.01
  51   6    -0.02   0.03   0.02     0.04   0.02  -0.03     0.12   0.02   0.05
  52   6    -0.01   0.03   0.00    -0.01   0.05  -0.14     0.02  -0.07   0.10
  53   6    -0.01   0.02   0.01    -0.01   0.06  -0.13     0.03  -0.09   0.11
  54   6    -0.02   0.06  -0.02    -0.02  -0.05  -0.01     0.03  -0.04   0.06
  55   9    -0.05   0.14  -0.05    -0.05  -0.14  -0.02     0.04  -0.02   0.07
  56   6    -0.01   0.03  -0.00    -0.02  -0.06   0.02     0.03  -0.03   0.05
  57   9    -0.04   0.09  -0.01    -0.04  -0.16   0.06     0.04  -0.00   0.05
  58   6     0.01  -0.03  -0.00    -0.00  -0.04   0.11     0.02  -0.03   0.03
  59   6     0.02  -0.04   0.00    -0.00  -0.04   0.12     0.01  -0.01   0.01
  60   7    -0.00  -0.05   0.04    -0.01  -0.00   0.10     0.01   0.02  -0.01
  61   6     0.00  -0.03   0.02    -0.01  -0.00   0.05     0.01   0.02  -0.01
  62   6    -0.01  -0.02   0.02    -0.02   0.01   0.04     0.01   0.02  -0.02
  63   6    -0.03  -0.02   0.04    -0.03   0.01   0.11     0.01   0.02  -0.03
  64   6    -0.05  -0.01   0.04    -0.04   0.02   0.11     0.01   0.02  -0.05
  65   6    -0.04   0.01   0.03    -0.03   0.02   0.05     0.01   0.02  -0.04
  66   6    -0.02   0.01   0.01    -0.02   0.02  -0.01     0.01   0.03  -0.02
  67   6    -0.01  -0.00   0.00    -0.01   0.01  -0.02     0.01   0.03  -0.01
  68   6     0.01  -0.00  -0.02     0.00   0.00  -0.09     0.02   0.03   0.01
  69   6     0.02   0.02  -0.04     0.01   0.00  -0.18     0.02   0.03   0.02
  70   6     0.04   0.02  -0.06     0.02  -0.00  -0.24     0.02   0.04   0.04
  71   6     0.05   0.00  -0.06     0.03  -0.01  -0.22     0.02   0.04   0.04
  72   6     0.04  -0.01  -0.03     0.02  -0.01  -0.14     0.02   0.03   0.03
  73   6     0.02  -0.01  -0.01     0.01  -0.00  -0.07     0.02   0.03   0.01
  74   6     0.02  -0.03   0.01    -0.00  -0.00  -0.00     0.02   0.02   0.01
  75   6     0.04  -0.03  -0.02    -0.05  -0.02   0.03     0.02   0.02   0.01
  76   6     0.08  -0.03  -0.02    -0.06  -0.02   0.05    -0.02   0.03  -0.01
  77   1     0.09  -0.03   0.00     0.01   0.01   0.05    -0.07   0.01  -0.04
  78   1     0.07  -0.04   0.02     0.01   0.01   0.05    -0.05   0.03  -0.03
  79   1     0.08  -0.02  -0.00     0.02   0.01   0.03    -0.06  -0.00  -0.02
  80   1     0.05   0.00  -0.02    -0.03  -0.01   0.00    -0.04  -0.01  -0.01
  81   1     0.07  -0.00  -0.02     0.00  -0.00   0.00    -0.05  -0.02  -0.01
  82   1     0.07  -0.01  -0.02    -0.01  -0.00   0.02    -0.07  -0.01  -0.03
  83   1     0.04  -0.02   0.00    -0.04  -0.00   0.04    -0.03   0.03  -0.02
  84   1     0.06  -0.03   0.01    -0.03   0.00   0.05    -0.06   0.03  -0.04
  85   1     0.04  -0.04   0.02    -0.03   0.00   0.06    -0.03   0.05  -0.03
  86   1     0.06  -0.03   0.01     0.02   0.01   0.03    -0.03   0.01  -0.01
  87   1     0.03  -0.03   0.01     0.02   0.01   0.02    -0.00   0.01  -0.00
  88   1     0.00  -0.03   0.03     0.00   0.01   0.01     0.01   0.00  -0.00
  89   1     0.00  -0.02   0.03    -0.00   0.01  -0.00     0.01  -0.01   0.01
  90   1    -0.00   0.03  -0.03    -0.00  -0.01   0.00     0.01  -0.01   0.00
  91   1    -0.00   0.03  -0.03    -0.00  -0.01  -0.01     0.01   0.00  -0.00
  92   1     0.01   0.01  -0.01     0.00   0.00  -0.04    -0.00   0.00  -0.03
  93   1     0.02   0.01  -0.01     0.01   0.00  -0.04    -0.01   0.01  -0.07
  94   1     0.01  -0.00  -0.00     0.01  -0.01  -0.01    -0.01   0.01  -0.08
  95   1     0.01  -0.00   0.00     0.00  -0.01   0.02    -0.00   0.01  -0.05
  96   1     0.00  -0.01   0.01    -0.00  -0.01   0.06     0.00   0.01   0.00
  97   1    -0.01  -0.01   0.02    -0.01  -0.01   0.09     0.01   0.02   0.04
  98   1    -0.02  -0.00   0.02    -0.01  -0.01   0.08     0.01   0.01   0.07
  99   1    -0.01   0.00   0.01    -0.01  -0.00   0.03     0.01   0.01   0.05
 100   1    -0.04   0.02  -0.01    -0.01  -0.01  -0.02    -0.04  -0.01  -0.01
 101   1    -0.07   0.03  -0.01    -0.00  -0.01  -0.02    -0.05  -0.01  -0.03
 102   1    -0.06   0.01   0.00     0.04   0.00  -0.02     0.02   0.01  -0.03
 103   1    -0.04  -0.00   0.02     0.04   0.01  -0.01     0.03   0.00   0.02
 104   1    -0.03   0.02  -0.00     0.04   0.00  -0.02     0.06   0.02  -0.04
 105   1    -0.05   0.05  -0.04     0.03  -0.01  -0.04     0.01   0.04  -0.11
 106   1    -0.08   0.04  -0.03     0.01  -0.01  -0.04    -0.06   0.02  -0.10
 107   1    -0.08   0.04  -0.03     0.03  -0.01  -0.04    -0.04   0.03  -0.10
 108   1    -0.10   0.01   0.00     0.01  -0.00  -0.02    -0.09  -0.02  -0.02
 109   1    -0.10   0.01   0.01     0.02   0.00  -0.02    -0.07  -0.01  -0.03
 110   1    -0.08  -0.01   0.03     0.01   0.01  -0.01    -0.06  -0.03   0.03
 111   1    -0.01   0.00   0.01     0.03   0.01  -0.01     0.05   0.01   0.01
 112   1     0.01   0.00   0.01     0.01   0.01  -0.01     0.06   0.01   0.03
 113   1    -0.00   0.01   0.01    -0.00   0.02  -0.05     0.00  -0.02   0.04
 114   1    -0.00  -0.00   0.01    -0.00   0.02  -0.05     0.01  -0.03   0.04
 115   1     0.00  -0.00  -0.01    -0.00  -0.02   0.04     0.00  -0.01   0.01
 116   1     0.01  -0.01  -0.01    -0.00  -0.01   0.05     0.00  -0.00   0.00
 117   1    -0.01  -0.01   0.02    -0.01   0.00   0.04     0.00   0.01  -0.01
 118   1    -0.02  -0.00   0.02    -0.01   0.01   0.05     0.00   0.01  -0.02
 119   1    -0.02   0.00   0.01    -0.01   0.01   0.02     0.00   0.01  -0.02
 120   1    -0.01   0.01  -0.00    -0.01   0.01  -0.02     0.00   0.01  -0.01
 121   1     0.00   0.01  -0.01     0.00   0.00  -0.06     0.00   0.01   0.01
 122   1     0.01   0.01  -0.02     0.01  -0.00  -0.09     0.00   0.01   0.01
 123   1     0.02   0.00  -0.02     0.01  -0.00  -0.08     0.01   0.01   0.01
 124   1     0.02  -0.01  -0.01     0.01  -0.00  -0.04     0.01   0.01   0.01
 125   1    -0.00  -0.00  -0.01    -0.02  -0.01   0.00     0.01   0.00   0.01
 126   1     0.02  -0.00  -0.01    -0.03  -0.01   0.01    -0.01   0.01  -0.00
                      7                      8                      9
                        a                      a                      a 
 Frequencies --    18.2944                19.3924                23.5353
 Red. masses --    11.7431                12.0303                12.1204
 Frc consts  --     0.0000                 0.0000                 0.0000
 IR Inten    --     0.0055                 0.0452                 0.0042
 Raman Activ --     0.0000                 0.0000                 0.0000
 Depolar     --     0.0000                 0.0000                 0.0000
 Atom AN      X      Y      Z        X      Y      Z        X      Y      Z
   1   6    -0.04  -0.07  -0.17     0.17  -0.05   0.01     0.07   0.03   0.09
   2   6     0.08  -0.03  -0.09     0.10  -0.02  -0.01     0.10  -0.00   0.09
   3   6     0.11   0.02   0.06     0.13   0.03  -0.06     0.15   0.08   0.20
   4   6     0.23  -0.04  -0.19     0.08  -0.06   0.02     0.18  -0.13   0.08
   5   6     0.04  -0.02  -0.05     0.05  -0.02  -0.02     0.02   0.01   0.02
   6   6    -0.05  -0.05  -0.06     0.05  -0.03  -0.01    -0.02   0.04  -0.02
   7   6    -0.07  -0.05  -0.02     0.01  -0.03  -0.01    -0.05   0.04  -0.07
   8   6    -0.00  -0.01   0.04    -0.03  -0.01  -0.02    -0.04   0.01  -0.08
   9   7    -0.01  -0.01   0.08    -0.04  -0.00  -0.01    -0.02   0.01  -0.11
  10   6    -0.01  -0.01   0.06    -0.03   0.01  -0.02    -0.01   0.02  -0.10
  11   6    -0.01  -0.01   0.08    -0.03   0.03  -0.02    -0.01   0.04  -0.11
  12   6    -0.01   0.01   0.04    -0.05   0.01   0.03    -0.02   0.05  -0.14
  13   6    -0.01   0.02   0.04    -0.06   0.04   0.03    -0.02   0.05  -0.13
  14   6    -0.01  -0.00   0.08    -0.04   0.08  -0.02    -0.01   0.03  -0.08
  15   6    -0.01   0.01   0.06    -0.05   0.10  -0.01    -0.01   0.02  -0.04
  16   6    -0.01   0.09   0.03    -0.05   0.04   0.02    -0.05   0.08  -0.04
  17   9    -0.01   0.19   0.03    -0.06  -0.02   0.03    -0.11   0.19  -0.09
  18   6    -0.01   0.10   0.01    -0.05   0.03   0.03    -0.04   0.07  -0.00
  19   9    -0.02   0.23  -0.01    -0.06  -0.04   0.06    -0.11   0.16   0.00
  20   6    -0.01   0.03   0.02    -0.04   0.08   0.03     0.00  -0.01   0.04
  21   6    -0.02   0.04   0.00    -0.04   0.05   0.05     0.01  -0.02   0.07
  22   6    -0.02   0.01   0.04    -0.05   0.05   0.03     0.01  -0.05   0.12
  23   6    -0.02   0.00   0.02    -0.05   0.03   0.04     0.02  -0.06   0.14
  24   6    -0.01   0.03  -0.03    -0.03   0.01   0.06     0.01  -0.04   0.11
  25   6    -0.01   0.02  -0.03    -0.03  -0.01   0.05     0.01  -0.03   0.10
  26   7    -0.00   0.02  -0.04    -0.02  -0.01   0.03    -0.00  -0.03   0.08
  27   6    -0.00   0.01  -0.02    -0.01  -0.02   0.01    -0.00  -0.01   0.05
  28   6     0.01  -0.00  -0.02    -0.00  -0.03  -0.04    -0.02   0.01   0.00
  29   6     0.02   0.01  -0.05     0.01  -0.02  -0.09    -0.03   0.00  -0.02
  30   6     0.03  -0.00  -0.05     0.02  -0.03  -0.18    -0.04   0.01  -0.09
  31   6     0.03  -0.01  -0.02     0.02  -0.04  -0.21    -0.04   0.03  -0.13
  32   6     0.01  -0.02   0.00     0.01  -0.05  -0.15    -0.03   0.03  -0.11
  33   6     0.01  -0.01   0.01    -0.01  -0.04  -0.06    -0.01   0.02  -0.04
  34   6    -0.01  -0.02   0.03    -0.02  -0.05   0.00     0.00   0.03  -0.02
  35   6    -0.01  -0.03   0.07    -0.02  -0.06   0.03     0.01   0.04  -0.04
  36   6    -0.02  -0.03   0.09    -0.04  -0.07   0.09     0.02   0.05  -0.02
  37   6    -0.03  -0.03   0.08    -0.05  -0.06   0.14     0.03   0.04   0.02
  38   6    -0.03  -0.01   0.05    -0.05  -0.05   0.12     0.03   0.02   0.05
  39   6    -0.01  -0.01   0.03    -0.03  -0.04   0.05     0.02   0.01   0.03
  40   6    -0.01   0.00   0.00    -0.03  -0.03   0.03     0.01  -0.00   0.06
  41   7    -0.02   0.01  -0.00    -0.04  -0.02   0.06     0.02  -0.02   0.10
  42   6    -0.01   0.01  -0.01    -0.03  -0.02   0.03     0.03  -0.02   0.07
  43   6     0.01  -0.00  -0.01    -0.04  -0.05  -0.00     0.04  -0.04   0.06
  44   6     0.01  -0.00  -0.02     0.01  -0.05  -0.03     0.01  -0.04   0.01
  45   6    -0.01   0.01  -0.04     0.08  -0.02  -0.02    -0.02  -0.00  -0.02
  46   6    -0.01   0.01  -0.05     0.17  -0.03  -0.04    -0.09   0.01  -0.08
  47   6    -0.05   0.03  -0.07     0.25   0.01  -0.03    -0.12   0.04  -0.10
  48   6    -0.01   0.01  -0.02     0.19  -0.12  -0.08    -0.11   0.07  -0.10
  49   6     0.02   0.00  -0.08     0.18   0.01  -0.02    -0.12  -0.08  -0.11
  50   6    -0.03   0.02  -0.04     0.07   0.01   0.00    -0.01   0.02   0.01
  51   6    -0.03   0.02  -0.02     0.02   0.02   0.03     0.02   0.01   0.05
  52   6    -0.01   0.06  -0.07    -0.02   0.01   0.09     0.00  -0.02   0.07
  53   6    -0.01   0.07  -0.06    -0.02   0.03   0.08     0.00  -0.01   0.05
  54   6    -0.01  -0.04   0.05    -0.05   0.15   0.00     0.04  -0.07   0.04
  55   9    -0.02  -0.14   0.07    -0.05   0.26   0.00     0.11  -0.18   0.08
  56   6    -0.01  -0.06   0.07    -0.05   0.16  -0.01     0.04  -0.06  -0.00
  57   9    -0.01  -0.17   0.12    -0.06   0.29  -0.04     0.11  -0.15  -0.01
  58   6    -0.00  -0.03   0.13    -0.03   0.10  -0.07    -0.00   0.01  -0.05
  59   6    -0.00  -0.03   0.12    -0.02   0.07  -0.08    -0.00   0.02  -0.07
  60   7    -0.01  -0.01   0.03    -0.01   0.00  -0.03     0.01   0.02  -0.08
  61   6    -0.01  -0.01   0.01    -0.02  -0.01  -0.01     0.01   0.00  -0.05
  62   6    -0.00  -0.02  -0.07    -0.00  -0.02  -0.01     0.02  -0.01   0.01
  63   6     0.00  -0.03  -0.15     0.01  -0.02  -0.02     0.04   0.00   0.05
  64   6     0.00  -0.04  -0.25     0.03  -0.03  -0.02     0.05  -0.00   0.12
  65   6     0.00  -0.04  -0.28     0.02  -0.05  -0.00     0.04  -0.02   0.16
  66   6     0.00  -0.04  -0.20     0.01  -0.05   0.01     0.03  -0.03   0.12
  67   6    -0.00  -0.02  -0.09    -0.01  -0.04   0.01     0.01  -0.02   0.05
  68   6    -0.01  -0.01   0.01    -0.02  -0.04   0.03    -0.01  -0.03   0.01
  69   6    -0.01  -0.00   0.05    -0.03  -0.06   0.05    -0.01  -0.05   0.02
  70   6    -0.01   0.01   0.15    -0.05  -0.06   0.06    -0.03  -0.06  -0.01
  71   6    -0.02   0.02   0.21    -0.06  -0.05   0.05    -0.04  -0.05  -0.06
  72   6    -0.02   0.01   0.17    -0.05  -0.04   0.03    -0.04  -0.04  -0.07
  73   6    -0.01  -0.00   0.07    -0.04  -0.03   0.02    -0.02  -0.02  -0.04
  74   6    -0.01  -0.01   0.05    -0.03  -0.02  -0.00    -0.01  -0.01  -0.06
  75   6     0.09   0.02   0.06    -0.05   0.01  -0.04    -0.02  -0.01  -0.05
  76   6     0.11   0.02   0.01    -0.01   0.00  -0.04     0.01  -0.02  -0.00
  77   1    -0.01  -0.02  -0.06     0.06  -0.02   0.01     0.04   0.01   0.04
  78   1    -0.02  -0.02  -0.08     0.04  -0.03   0.01     0.01  -0.00   0.01
  79   1    -0.04  -0.02  -0.03     0.06  -0.01  -0.00     0.01   0.03   0.03
  80   1     0.06   0.02   0.04     0.02   0.01  -0.02     0.05   0.02   0.06
  81   1     0.00   0.01   0.04     0.04   0.02  -0.02     0.03   0.05   0.06
  82   1     0.04   0.00   0.01     0.05   0.01  -0.02     0.06   0.02   0.07
  83   1     0.10  -0.01  -0.04     0.01  -0.01   0.00     0.06  -0.05   0.03
  84   1     0.08  -0.01  -0.06     0.04  -0.02   0.01     0.07  -0.04   0.04
  85   1     0.06  -0.02  -0.09     0.02  -0.03   0.02     0.04  -0.05   0.00
  86   1    -0.03  -0.02  -0.03     0.02  -0.01   0.00    -0.01   0.02  -0.00
  87   1    -0.04  -0.02  -0.01     0.00  -0.01   0.00    -0.02   0.02  -0.03
  88   1    -0.00   0.01   0.00    -0.02  -0.01   0.02    -0.01   0.02  -0.05
  89   1    -0.01   0.01   0.00    -0.02   0.01   0.02    -0.01   0.02  -0.04
  90   1    -0.01  -0.01   0.02    -0.02   0.02   0.00     0.01  -0.02   0.04
  91   1    -0.01  -0.01   0.02    -0.02   0.01   0.01     0.01  -0.02   0.05
  92   1     0.01   0.00  -0.02     0.00  -0.00  -0.02    -0.01  -0.00   0.00
  93   1     0.01   0.00  -0.02     0.01  -0.01  -0.06    -0.02   0.00  -0.03
  94   1     0.01  -0.01  -0.01     0.01  -0.01  -0.08    -0.01   0.01  -0.05
  95   1     0.00  -0.01   0.01     0.00  -0.02  -0.05    -0.01   0.01  -0.04
  96   1    -0.00  -0.01   0.02    -0.00  -0.02  -0.00    -0.00   0.02  -0.02
  97   1    -0.01  -0.01   0.03    -0.01  -0.02   0.03     0.01   0.02  -0.01
  98   1    -0.01  -0.01   0.03    -0.02  -0.02   0.06     0.01   0.01   0.01
  99   1    -0.01  -0.00   0.01    -0.02  -0.01   0.05     0.01   0.00   0.03
 100   1     0.01  -0.00  -0.00    -0.02  -0.02  -0.00     0.02  -0.02   0.02
 101   1     0.01  -0.00  -0.01     0.00  -0.02  -0.01     0.00  -0.02  -0.00
 102   1    -0.01   0.01  -0.02     0.09   0.00  -0.01    -0.05   0.01  -0.04
 103   1    -0.01   0.01  -0.03     0.07   0.02   0.00    -0.03   0.00  -0.03
 104   1    -0.02   0.01  -0.01     0.07  -0.01  -0.01    -0.03   0.03  -0.02
 105   1    -0.01   0.01   0.00     0.05  -0.04  -0.03    -0.02   0.04  -0.02
 106   1     0.00  -0.00  -0.00     0.04  -0.04  -0.03    -0.03   0.01  -0.02
 107   1    -0.00   0.00  -0.01     0.08  -0.04  -0.03    -0.05   0.02  -0.04
 108   1     0.01  -0.00  -0.02     0.04  -0.00  -0.01    -0.03  -0.03  -0.03
 109   1     0.00   0.00  -0.03     0.07   0.00  -0.01    -0.05  -0.02  -0.05
 110   1     0.00   0.00  -0.03     0.05   0.02   0.00    -0.03  -0.04  -0.03
 111   1    -0.01   0.01  -0.01     0.03   0.01   0.00    -0.01   0.01  -0.00
 112   1    -0.01   0.01  -0.01     0.01   0.01   0.01     0.01   0.01   0.02
 113   1    -0.00   0.02  -0.03    -0.00  -0.00   0.03    -0.00  -0.00   0.01
 114   1    -0.00   0.03  -0.03    -0.00   0.01   0.03    -0.00   0.00   0.00
 115   1     0.00  -0.01   0.05    -0.00   0.04  -0.03     0.00  -0.00  -0.00
 116   1     0.00  -0.01   0.05    -0.00   0.03  -0.03     0.00   0.00  -0.01
 117   1     0.00  -0.01  -0.04     0.00  -0.00  -0.01     0.01   0.00   0.01
 118   1     0.00  -0.01  -0.09     0.01  -0.01  -0.01     0.02   0.00   0.04
 119   1     0.00  -0.02  -0.11     0.01  -0.02  -0.00     0.02  -0.01   0.06
 120   1    -0.00  -0.01  -0.07     0.00  -0.02   0.01     0.01  -0.01   0.05
 121   1    -0.00  -0.00   0.00    -0.01  -0.02   0.02    -0.00  -0.02   0.01
 122   1    -0.00   0.00   0.05    -0.01  -0.02   0.02    -0.01  -0.02  -0.00
 123   1    -0.01   0.01   0.08    -0.02  -0.01   0.02    -0.02  -0.02  -0.02
 124   1    -0.01   0.01   0.06    -0.02  -0.01   0.01    -0.01  -0.01  -0.03
 125   1     0.04   0.01   0.03    -0.02   0.01  -0.01    -0.01  -0.01  -0.02
 126   1     0.05   0.01   0.01    -0.00   0.00  -0.02     0.01  -0.01   0.01
                     10                     11                     12
                        a                      a                      a 
 Frequencies --    26.2325                26.8536                32.0204
 Red. masses --     9.3235                10.0794                11.7031
 Frc consts  --     0.0000                 0.0000                 0.0000
 IR Inten    --     0.0176                 0.0054                 0.0030
 Raman Activ --     0.0000                 0.0000                 0.0000
 Depolar     --     0.0000                 0.0000                 0.0000
 Atom AN      X      Y      Z        X      Y      Z        X      Y      Z
   1   6     0.20  -0.01   0.10    -0.28   0.03  -0.11     0.06   0.02  -0.03
   2   6    -0.02   0.01  -0.01    -0.04  -0.01   0.01     0.06   0.05  -0.02
   3   6    -0.06  -0.05  -0.28    -0.03  -0.00   0.29     0.09   0.11  -0.00
   4   6    -0.25   0.09   0.13     0.18  -0.06  -0.13     0.09   0.01  -0.03
   5   6     0.02   0.00  -0.00    -0.03  -0.01  -0.00     0.00   0.06  -0.01
   6   6     0.09  -0.00   0.03    -0.08   0.01  -0.04    -0.01   0.03   0.01
   7   6     0.08  -0.00   0.02    -0.05   0.00  -0.04    -0.04   0.04   0.03
   8   6     0.02   0.00  -0.01     0.02  -0.02  -0.01    -0.05   0.07   0.04
   9   7     0.01   0.00  -0.03     0.02  -0.02  -0.02    -0.04   0.07   0.07
  10   6     0.01  -0.00  -0.05     0.01  -0.03  -0.01    -0.01   0.10   0.08
  11   6     0.01  -0.01  -0.04     0.01  -0.03  -0.01    -0.01   0.12   0.06
  12   6     0.01  -0.03  -0.02     0.01  -0.04  -0.00    -0.00   0.12   0.04
  13   6     0.01  -0.03  -0.01     0.01  -0.04   0.00     0.00   0.11   0.03
  14   6     0.01  -0.03  -0.02     0.01  -0.03  -0.01    -0.01   0.10   0.02
  15   6     0.01  -0.03  -0.00     0.01  -0.03  -0.00    -0.01   0.06   0.01
  16   6     0.00  -0.02  -0.00     0.01  -0.08   0.02     0.02  -0.01   0.02
  17   9    -0.00  -0.03  -0.01     0.02  -0.17   0.03     0.05  -0.03   0.03
  18   6     0.00  -0.02   0.01     0.01  -0.06   0.02     0.04  -0.08   0.01
  19   9    -0.01  -0.00   0.01     0.02  -0.14   0.04     0.09  -0.19   0.02
  20   6     0.01  -0.02   0.01     0.00   0.00   0.01     0.01  -0.07  -0.01
  21   6     0.01  -0.01   0.02     0.00   0.01   0.01     0.02  -0.10  -0.02
  22   6     0.02  -0.02   0.04     0.00   0.03  -0.01     0.01  -0.10  -0.03
  23   6     0.01  -0.01   0.03    -0.00   0.04  -0.01     0.01  -0.11  -0.05
  24   6     0.01   0.00   0.01    -0.00   0.03   0.01     0.01  -0.10  -0.06
  25   6     0.00   0.01   0.00    -0.00   0.03   0.01     0.01  -0.08  -0.08
  26   7     0.00   0.01  -0.02     0.01   0.03  -0.00    -0.03  -0.07  -0.09
  27   6     0.00   0.01  -0.01     0.01   0.02  -0.00    -0.03  -0.03  -0.06
  28   6     0.01   0.01  -0.03     0.02   0.01  -0.02    -0.07   0.00  -0.03
  29   6     0.01   0.02  -0.08     0.04   0.02  -0.06    -0.12  -0.02  -0.06
  30   6     0.02   0.02  -0.12     0.05   0.01  -0.10    -0.15   0.01  -0.02
  31   6     0.02   0.01  -0.10     0.05  -0.01  -0.09    -0.14   0.06   0.05
  32   6     0.01   0.00  -0.04     0.03  -0.02  -0.05    -0.10   0.07   0.08
  33   6     0.01   0.01  -0.00     0.02  -0.01  -0.01    -0.06   0.04   0.03
  34   6     0.00   0.00   0.05     0.00  -0.02   0.03    -0.02   0.06   0.05
  35   6     0.00  -0.00   0.10    -0.00  -0.04   0.08    -0.01   0.10   0.13
  36   6    -0.01  -0.00   0.14    -0.02  -0.04   0.11     0.03   0.11   0.13
  37   6    -0.01  -0.00   0.11    -0.04  -0.03   0.09     0.06   0.08   0.06
  38   6    -0.01   0.00   0.06    -0.03  -0.01   0.05     0.05   0.04  -0.01
  39   6     0.00   0.01   0.04    -0.01  -0.01   0.03     0.02   0.03  -0.01
  40   6     0.00   0.01   0.02    -0.01   0.01   0.01     0.01  -0.01  -0.05
  41   7     0.01   0.01   0.02    -0.01   0.02   0.01     0.03  -0.05  -0.07
  42   6     0.01   0.01   0.02    -0.02   0.02   0.01     0.05  -0.05  -0.04
  43   6     0.08  -0.00   0.04     0.04   0.01   0.02     0.05  -0.03  -0.02
  44   6     0.07  -0.00   0.03     0.04   0.01   0.02     0.03  -0.03  -0.00
  45   6    -0.04   0.02  -0.02    -0.03   0.03  -0.01    -0.01  -0.05  -0.01
  46   6    -0.06   0.02  -0.04    -0.01   0.02  -0.01    -0.06  -0.05   0.01
  47   6    -0.32   0.06  -0.14    -0.22   0.06  -0.10    -0.16  -0.06  -0.02
  48   6    -0.03   0.01   0.23     0.03  -0.03   0.24    -0.06  -0.01   0.09
  49   6     0.15  -0.00  -0.21     0.21   0.04  -0.16    -0.01  -0.07  -0.04
  50   6    -0.10   0.03  -0.04    -0.08   0.04  -0.03     0.00  -0.07  -0.02
  51   6    -0.07   0.03  -0.02    -0.07   0.04  -0.02     0.03  -0.07  -0.03
  52   6     0.00   0.01  -0.01    -0.01   0.01   0.04     0.02  -0.10  -0.04
  53   6     0.00   0.00  -0.00    -0.00  -0.00   0.04     0.02  -0.10  -0.02
  54   6     0.02  -0.04   0.01     0.00   0.05  -0.01    -0.02  -0.00  -0.02
  55   9     0.04  -0.06   0.02    -0.00   0.14  -0.02    -0.04   0.01  -0.03
  56   6     0.02  -0.04   0.00     0.01   0.03  -0.01    -0.03   0.06  -0.01
  57   9     0.04  -0.06  -0.00    -0.00   0.10  -0.03    -0.09   0.17  -0.02
  58   6     0.01  -0.02  -0.04     0.01  -0.02  -0.03    -0.03   0.10   0.03
  59   6     0.01  -0.01  -0.05     0.01  -0.03  -0.03    -0.03   0.11   0.05
  60   7     0.00  -0.00  -0.06     0.00  -0.03   0.00     0.03   0.09   0.09
  61   6     0.00   0.00  -0.04     0.00  -0.01  -0.00     0.03   0.04   0.07
  62   6     0.00   0.00  -0.04    -0.02   0.00   0.02     0.07   0.00   0.04
  63   6     0.00  -0.00  -0.08    -0.04   0.00   0.07     0.12   0.02   0.05
  64   6     0.00  -0.00  -0.08    -0.05   0.02   0.11     0.16  -0.02   0.00
  65   6     0.00   0.00  -0.03    -0.05   0.04   0.10     0.15  -0.07  -0.07
  66   6     0.00   0.01   0.02    -0.03   0.04   0.05     0.10  -0.09  -0.08
  67   6     0.00   0.01   0.02    -0.01   0.02   0.01     0.06  -0.05  -0.03
  68   6     0.00   0.01   0.06     0.01   0.02  -0.04     0.02  -0.07  -0.04
  69   6    -0.00   0.02   0.13     0.02   0.03  -0.09     0.01  -0.12  -0.10
  70   6    -0.01   0.03   0.16     0.04   0.04  -0.13    -0.03  -0.13  -0.10
  71   6    -0.01   0.02   0.11     0.05   0.02  -0.11    -0.07  -0.09  -0.03
  72   6    -0.00   0.01   0.04     0.05   0.01  -0.06    -0.07  -0.04   0.03
  73   6     0.00   0.01   0.03     0.02   0.01  -0.04    -0.02  -0.03   0.02
  74   6     0.01   0.01  -0.01     0.02  -0.01  -0.02    -0.01   0.03   0.05
  75   6    -0.04   0.00  -0.04     0.08  -0.04   0.03    -0.05   0.09   0.01
  76   6    -0.05   0.00  -0.04     0.06  -0.03   0.04    -0.02   0.09  -0.01
  77   1     0.06  -0.00   0.03    -0.09   0.01  -0.03     0.03   0.00  -0.01
  78   1     0.06  -0.01   0.08    -0.08   0.02  -0.08     0.01  -0.01  -0.01
  79   1     0.10  -0.01   0.00    -0.12   0.01  -0.00     0.01   0.01  -0.01
  80   1    -0.06  -0.02  -0.11     0.04  -0.00   0.11     0.03   0.04   0.00
  81   1     0.03  -0.02  -0.11    -0.06   0.00   0.12     0.02   0.04   0.00
  82   1    -0.03  -0.01  -0.08    -0.01  -0.00   0.08     0.04   0.03  -0.00
  83   1    -0.12   0.04   0.01     0.11  -0.04  -0.02     0.03   0.01  -0.01
  84   1    -0.08   0.03   0.03     0.05  -0.02  -0.03     0.04   0.00  -0.01
  85   1    -0.07   0.03   0.10     0.05  -0.01  -0.10     0.02  -0.01  -0.01
  86   1     0.04  -0.00   0.02    -0.04   0.01  -0.02    -0.00   0.00   0.00
  87   1     0.04  -0.00   0.01    -0.03   0.00  -0.02    -0.01   0.01   0.01
  88   1     0.00  -0.01  -0.00     0.00  -0.01   0.00     0.00   0.04   0.01
  89   1     0.00  -0.01   0.00     0.00  -0.01   0.01     0.01   0.03   0.01
  90   1     0.01  -0.01   0.02     0.00   0.01  -0.01    -0.00  -0.03  -0.01
  91   1     0.01  -0.01   0.01     0.00   0.02  -0.01     0.00  -0.03  -0.02
  92   1     0.00   0.01  -0.03     0.01   0.01  -0.02    -0.04  -0.01  -0.03
  93   1     0.01   0.01  -0.05     0.02   0.00  -0.04    -0.05   0.00  -0.01
  94   1     0.01   0.00  -0.04     0.02  -0.01  -0.04    -0.05   0.02   0.02
  95   1     0.00  -0.00  -0.01     0.01  -0.01  -0.01    -0.03   0.03   0.04
  96   1     0.00  -0.00   0.04     0.00  -0.01   0.03    -0.01   0.03   0.05
  97   1    -0.00  -0.00   0.05    -0.01  -0.02   0.04     0.01   0.04   0.06
  98   1    -0.00  -0.00   0.04    -0.01  -0.01   0.03     0.03   0.03   0.01
  99   1    -0.00   0.00   0.01    -0.01  -0.00   0.01     0.02   0.01  -0.02
 100   1     0.05  -0.00   0.02     0.02   0.00   0.01     0.02  -0.01  -0.01
 101   1     0.04  -0.00   0.01     0.03   0.00   0.01     0.01  -0.00   0.00
 102   1    -0.11   0.02  -0.05    -0.07   0.02  -0.03    -0.06  -0.02  -0.01
 103   1    -0.10   0.01  -0.09    -0.07   0.01  -0.07    -0.04  -0.03  -0.02
 104   1    -0.13   0.04  -0.01    -0.10   0.03   0.00    -0.05  -0.01   0.00
 105   1    -0.05   0.01   0.11    -0.03  -0.01   0.10    -0.03   0.01   0.04
 106   1     0.04  -0.01   0.09     0.05  -0.03   0.09     0.00  -0.00   0.03
 107   1    -0.01   0.00   0.06     0.02  -0.01   0.06    -0.03  -0.00   0.03
 108   1     0.10   0.00  -0.04     0.11   0.01  -0.03     0.02  -0.01  -0.01
 109   1     0.03   0.00  -0.06     0.06   0.01  -0.04    -0.02  -0.02  -0.01
 110   1     0.04  -0.01  -0.12     0.05   0.02  -0.10    -0.00  -0.03  -0.03
 111   1    -0.05   0.01  -0.02    -0.04   0.01  -0.01    -0.01  -0.03  -0.00
 112   1    -0.03   0.01  -0.01    -0.03   0.01  -0.01     0.01  -0.03  -0.01
 113   1    -0.00   0.01  -0.01    -0.00   0.00   0.02     0.01  -0.03  -0.01
 114   1    -0.00   0.00  -0.00    -0.00  -0.01   0.02     0.01  -0.03  -0.00
 115   1     0.00  -0.00  -0.01     0.00  -0.00  -0.01    -0.01   0.03   0.01
 116   1     0.00   0.00  -0.02     0.00  -0.01  -0.01    -0.01   0.03   0.02
 117   1     0.00  -0.00  -0.03    -0.01  -0.00   0.02     0.04   0.02   0.03
 118   1     0.00  -0.00  -0.03    -0.02   0.01   0.04     0.06  -0.00   0.00
 119   1     0.00   0.00  -0.01    -0.02   0.02   0.04     0.05  -0.03  -0.03
 120   1     0.00   0.00   0.01    -0.01   0.02   0.02     0.03  -0.04  -0.04
 121   1    -0.00   0.01   0.05     0.00   0.01  -0.03     0.01  -0.04  -0.04
 122   1    -0.00   0.01   0.06     0.01   0.01  -0.05    -0.01  -0.05  -0.04
 123   1    -0.00   0.01   0.04     0.02   0.01  -0.04    -0.03  -0.03  -0.01
 124   1    -0.00   0.00   0.00     0.02   0.00  -0.02    -0.03  -0.00   0.02
 125   1    -0.03   0.00  -0.02     0.04  -0.02   0.02    -0.02   0.03   0.01
 126   1    -0.03   0.00  -0.02     0.03  -0.01   0.02    -0.01   0.03  -0.01
                     13                     14                     15
                        a                      a                      a 
 Frequencies --    39.5177                44.5122                56.3281
 Red. masses --    12.1912                11.9120                11.4351
 Frc consts  --     0.0000                 0.0000                 0.0000
 IR Inten    --     0.0822                 0.1311                 0.0166
 Raman Activ --     0.0000                 0.0000                 0.0000
 Depolar     --     0.0000                 0.0000                 0.0000
 Atom AN      X      Y      Z        X      Y      Z        X      Y      Z
   1   6    -0.04  -0.07  -0.03    -0.08   0.00  -0.00     0.05  -0.06  -0.00
   2   6    -0.02  -0.05  -0.02    -0.03  -0.05   0.01     0.01  -0.02  -0.01
   3   6    -0.06  -0.11  -0.06    -0.04  -0.08   0.07    -0.01  -0.05  -0.08
   4   6    -0.05   0.04  -0.03    -0.00  -0.06  -0.00    -0.04   0.06   0.00
   5   6     0.03  -0.05   0.04     0.01  -0.05  -0.02     0.03  -0.02   0.04
   6   6     0.02  -0.07   0.05     0.05  -0.03  -0.02    -0.08  -0.03   0.00
   7   6     0.03  -0.07   0.09     0.07  -0.03  -0.04    -0.10  -0.02   0.02
   8   6     0.05  -0.05   0.11     0.05  -0.06  -0.07    -0.01  -0.01   0.08
   9   7     0.04  -0.05   0.13     0.04  -0.06  -0.11    -0.02  -0.01   0.10
  10   6     0.01  -0.07   0.12     0.02  -0.07  -0.10    -0.02  -0.01   0.04
  11   6     0.01  -0.06   0.08     0.02  -0.06  -0.04    -0.02   0.00  -0.03
  12   6     0.01  -0.06   0.08    -0.03  -0.08   0.04    -0.00  -0.01  -0.03
  13   6    -0.00  -0.00   0.00    -0.04  -0.03   0.09    -0.01   0.01  -0.08
  14   6    -0.00   0.04  -0.07     0.00   0.03   0.06    -0.02   0.03  -0.13
  15   6    -0.01   0.08  -0.11    -0.01   0.09   0.07    -0.01   0.01  -0.08
  16   6    -0.01   0.09  -0.11    -0.01   0.10   0.07    -0.06  -0.01  -0.04
  17   9    -0.01   0.11  -0.13    -0.01   0.13   0.09    -0.15  -0.01  -0.10
  18   6    -0.01   0.09  -0.11    -0.01   0.10   0.07    -0.06  -0.02   0.03
  19   9    -0.02   0.12  -0.14    -0.00   0.14   0.08    -0.15  -0.04   0.09
  20   6    -0.01   0.08  -0.10    -0.01   0.07   0.07     0.01  -0.03   0.08
  21   6    -0.00   0.04  -0.07     0.01   0.02   0.06     0.01  -0.04   0.12
  22   6     0.00  -0.02   0.01    -0.04  -0.05   0.09     0.01  -0.04   0.12
  23   6     0.01  -0.07   0.08    -0.03  -0.09   0.04     0.00  -0.01   0.08
  24   6     0.02  -0.07   0.08     0.02  -0.07  -0.05     0.00   0.01   0.03
  25   6     0.02  -0.08   0.12     0.02  -0.07  -0.11     0.00   0.04  -0.04
  26   7    -0.00  -0.08   0.12    -0.00  -0.06  -0.13     0.01   0.04  -0.05
  27   6    -0.01  -0.04   0.10    -0.00  -0.03  -0.12     0.01   0.03  -0.07
  28   6    -0.04  -0.02   0.05    -0.04  -0.01  -0.07     0.03   0.02  -0.05
  29   6    -0.07  -0.03   0.04    -0.08  -0.02  -0.10     0.05   0.03  -0.09
  30   6    -0.10  -0.00  -0.03    -0.11  -0.00  -0.02     0.07   0.01  -0.05
  31   6    -0.10   0.04  -0.09    -0.10   0.03   0.09     0.06  -0.01   0.03
  32   6    -0.06   0.05  -0.09    -0.06   0.04   0.12     0.04  -0.02   0.06
  33   6    -0.03   0.02  -0.02    -0.03   0.02   0.03     0.02  -0.01   0.02
  34   6     0.01   0.04  -0.01     0.00   0.03   0.04     0.01  -0.01   0.04
  35   6     0.02   0.08  -0.07     0.01   0.07   0.15    -0.00  -0.04   0.16
  36   6     0.05   0.09  -0.07     0.04   0.08   0.14    -0.02  -0.04   0.13
  37   6     0.08   0.06  -0.00     0.07   0.06   0.01    -0.03  -0.03  -0.04
  38   6     0.07   0.02   0.06     0.06   0.02  -0.09    -0.03  -0.01  -0.13
  39   6     0.03   0.01   0.05     0.03   0.01  -0.06    -0.01   0.00  -0.07
  40   6     0.02  -0.03   0.10     0.02  -0.02  -0.11     0.00   0.03  -0.09
  41   7     0.04  -0.06   0.13     0.04  -0.05  -0.12    -0.00   0.04  -0.09
  42   6     0.06  -0.06   0.10     0.05  -0.05  -0.08     0.00   0.03  -0.07
  43   6     0.06  -0.08   0.09     0.10  -0.03  -0.04     0.18   0.03   0.01
  44   6     0.05  -0.08   0.05     0.08  -0.03  -0.01     0.18   0.03   0.04
  45   6     0.03  -0.05   0.03     0.03  -0.06  -0.02     0.03   0.03  -0.01
  46   6    -0.03  -0.04  -0.03    -0.02  -0.06   0.01     0.01   0.03   0.02
  47   6    -0.09  -0.00  -0.06    -0.00  -0.10   0.03     0.10  -0.01   0.06
  48   6    -0.04   0.01  -0.00    -0.04   0.01  -0.03    -0.01   0.10  -0.08
  49   6    -0.03  -0.12  -0.07    -0.08  -0.08   0.04    -0.09   0.01   0.08
  50   6     0.05  -0.03   0.06    -0.00  -0.08  -0.05    -0.15   0.03  -0.10
  51   6     0.06  -0.04   0.09     0.01  -0.08  -0.08    -0.16   0.03  -0.13
  52   6     0.01  -0.02   0.00     0.06  -0.01  -0.06     0.01  -0.01   0.07
  53   6     0.00   0.03  -0.07     0.05   0.03  -0.00     0.01  -0.04   0.11
  54   6    -0.01   0.09  -0.11    -0.01   0.10   0.07     0.06  -0.02   0.04
  55   9    -0.00   0.10  -0.13    -0.02   0.14   0.08     0.15  -0.04   0.10
  56   6    -0.01   0.09  -0.11    -0.01   0.11   0.07     0.05   0.01  -0.04
  57   9    -0.02   0.13  -0.14    -0.02   0.18   0.07     0.15   0.03  -0.10
  58   6     0.00   0.04  -0.07     0.06   0.04  -0.00    -0.03   0.06  -0.17
  59   6     0.01  -0.01   0.00     0.06  -0.01  -0.05    -0.03   0.04  -0.12
  60   7    -0.01  -0.06   0.12     0.00  -0.07  -0.12    -0.02  -0.01   0.04
  61   6    -0.01  -0.03   0.10     0.00  -0.04  -0.11    -0.02  -0.01   0.07
  62   6    -0.04  -0.01   0.05    -0.03  -0.02  -0.07    -0.02  -0.01   0.05
  63   6    -0.08  -0.02   0.05    -0.06  -0.03  -0.09    -0.03  -0.01   0.08
  64   6    -0.11  -0.00  -0.02    -0.09   0.00  -0.01    -0.04  -0.00   0.05
  65   6    -0.10   0.03  -0.09    -0.08   0.04   0.09    -0.04  -0.00  -0.02
  66   6    -0.06   0.04  -0.09    -0.05   0.06   0.11    -0.03  -0.00  -0.05
  67   6    -0.03   0.02  -0.02    -0.02   0.03   0.03    -0.02  -0.01  -0.02
  68   6     0.01   0.03  -0.02     0.01   0.03   0.03    -0.01  -0.01  -0.04
  69   6     0.02   0.06  -0.09     0.01   0.08   0.13    -0.00  -0.01  -0.16
  70   6     0.06   0.07  -0.09     0.03   0.08   0.12     0.01  -0.01  -0.14
  71   6     0.09   0.06  -0.01     0.06   0.05   0.01     0.00   0.01   0.02
  72   6     0.07   0.02   0.05     0.06   0.01  -0.08    -0.00   0.01   0.13
  73   6     0.03   0.01   0.05     0.03   0.00  -0.06    -0.01   0.00   0.08
  74   6     0.02  -0.02   0.10     0.03  -0.04  -0.10    -0.02  -0.00   0.10
  75   6     0.08  -0.04   0.11     0.01  -0.08  -0.07     0.10  -0.00   0.12
  76   6     0.07  -0.04   0.07    -0.00  -0.08  -0.04     0.11  -0.00   0.10
  77   1    -0.02  -0.02  -0.02    -0.04   0.00   0.00     0.02  -0.02  -0.00
  78   1    -0.01  -0.01  -0.01    -0.02   0.01  -0.01     0.01  -0.03   0.01
  79   1    -0.01  -0.04  -0.01    -0.03  -0.00   0.00     0.02  -0.02  -0.00
  80   1    -0.01  -0.03  -0.01    -0.00  -0.03   0.03    -0.01  -0.02  -0.03
  81   1    -0.01  -0.05  -0.01    -0.02  -0.02   0.03     0.01  -0.02  -0.03
  82   1    -0.03  -0.03  -0.03    -0.02  -0.02   0.02    -0.01  -0.01  -0.03
  83   1    -0.01   0.02  -0.01     0.01  -0.03   0.00    -0.02   0.04  -0.00
  84   1    -0.03   0.01  -0.02    -0.01  -0.02   0.01    -0.01   0.02  -0.02
  85   1    -0.01   0.02  -0.00     0.00  -0.01  -0.02    -0.01   0.02   0.02
  86   1     0.00  -0.03   0.01     0.02  -0.00   0.00    -0.05  -0.01  -0.01
  87   1     0.01  -0.03   0.03     0.03  -0.00  -0.01    -0.05  -0.01  -0.00
  88   1     0.00  -0.03   0.04    -0.02  -0.04   0.02     0.00  -0.01   0.01
  89   1    -0.00   0.00   0.00    -0.03  -0.01   0.04    -0.00   0.00  -0.02
  90   1    -0.00  -0.00   0.00    -0.02  -0.02   0.04     0.00  -0.02   0.04
  91   1     0.01  -0.03   0.04    -0.02  -0.04   0.02    -0.00  -0.00   0.02
  92   1    -0.02  -0.02   0.03    -0.02  -0.02  -0.05     0.01   0.01  -0.04
  93   1    -0.04  -0.00  -0.01    -0.04  -0.00  -0.01     0.02   0.01  -0.03
  94   1    -0.04   0.02  -0.04    -0.03   0.01   0.05     0.02  -0.01   0.02
  95   1    -0.02   0.02  -0.04    -0.02   0.02   0.06     0.01  -0.01   0.03
  96   1    -0.00   0.03  -0.04    -0.01   0.02   0.07     0.00  -0.01   0.08
  97   1     0.02   0.03  -0.03     0.01   0.03   0.07    -0.01  -0.02   0.07
  98   1     0.03   0.02   0.00     0.03   0.02  -0.00    -0.02  -0.01  -0.02
  99   1     0.03   0.00   0.03     0.02   0.00  -0.06    -0.01   0.00  -0.07
 100   1     0.02  -0.03   0.03     0.04  -0.00  -0.01     0.09   0.01   0.02
 101   1     0.01  -0.03   0.01     0.03  -0.00   0.00     0.09   0.01   0.03
 102   1    -0.04   0.00  -0.03    -0.01  -0.03   0.02     0.04  -0.01   0.03
 103   1    -0.02  -0.01  -0.02     0.00  -0.03   0.01     0.03   0.01   0.03
 104   1    -0.03   0.02  -0.01     0.01  -0.03   0.00     0.03  -0.02   0.00
 105   1    -0.01   0.02   0.01     0.00   0.00  -0.02     0.02   0.02  -0.05
 106   1    -0.00  -0.01   0.01    -0.02   0.02  -0.01    -0.02   0.05  -0.04
 107   1    -0.02   0.00  -0.02    -0.02   0.00   0.00    -0.02   0.03  -0.00
 108   1     0.00  -0.04  -0.02    -0.03  -0.02   0.01    -0.05  -0.01   0.02
 109   1    -0.02  -0.03  -0.03    -0.03  -0.02   0.01    -0.02   0.00   0.01
 110   1    -0.00  -0.05  -0.03    -0.02  -0.03   0.02    -0.02   0.00   0.05
 111   1     0.01  -0.00   0.01    -0.01  -0.03  -0.01    -0.08   0.01  -0.04
 112   1     0.02  -0.01   0.03    -0.01  -0.03  -0.03    -0.09   0.01  -0.06
 113   1     0.01  -0.01  -0.00     0.03  -0.00  -0.03     0.00   0.00   0.01
 114   1     0.00   0.02  -0.04     0.03   0.02  -0.00     0.00  -0.01   0.04
 115   1     0.00   0.02  -0.04     0.03   0.02  -0.00    -0.01   0.02  -0.07
 116   1     0.01  -0.00  -0.00     0.03   0.00  -0.03    -0.01   0.02  -0.04
 117   1    -0.02  -0.01   0.03    -0.02  -0.02  -0.05    -0.01  -0.00   0.04
 118   1    -0.04  -0.00  -0.00    -0.03  -0.00  -0.01    -0.01  -0.00   0.02
 119   1    -0.03   0.01  -0.04    -0.03   0.02   0.04    -0.01   0.00  -0.01
 120   1    -0.02   0.02  -0.04    -0.01   0.03   0.05    -0.01   0.00  -0.03
 121   1     0.00   0.02  -0.04    -0.00   0.03   0.06    -0.00  -0.01  -0.08
 122   1     0.02   0.03  -0.04     0.01   0.03   0.06     0.00  -0.00  -0.07
 123   1     0.03   0.02  -0.00     0.02   0.01  -0.00     0.00   0.01   0.02
 124   1     0.03   0.00   0.03     0.02  -0.01  -0.05    -0.00   0.01   0.07
 125   1     0.03  -0.01   0.04    -0.00  -0.03  -0.03     0.05   0.00   0.05
 126   1     0.02  -0.01   0.02    -0.01  -0.03  -0.01     0.06   0.00   0.04
                     16                     17                     18
                        a                      a                      a 
 Frequencies --    59.9201                64.0361                67.2949
 Red. masses --    10.6864                10.5364                10.5674
 Frc consts  --     0.0000                 0.0000                 0.0000
 IR Inten    --     0.0472                 0.0618                 0.5029
 Raman Activ --     0.0000                 0.0000                 0.0000
 Depolar     --     0.0000                 0.0000                 0.0000
 Atom AN      X      Y      Z        X      Y      Z        X      Y      Z
   1   6    -0.05   0.04  -0.03     0.15   0.01   0.10     0.02   0.01   0.06
   2   6    -0.01   0.03  -0.01     0.03   0.01   0.02    -0.02  -0.03   0.02
   3   6     0.01   0.05   0.05     0.00  -0.03  -0.10     0.01   0.04   0.05
   4   6     0.04  -0.01  -0.03    -0.09   0.04   0.09    -0.01  -0.14   0.06
   5   6    -0.01   0.03  -0.01     0.02   0.01  -0.01    -0.08  -0.02  -0.05
   6   6     0.09   0.02   0.04    -0.28   0.06  -0.17    -0.05   0.00  -0.05
   7   6     0.10   0.02   0.04    -0.28   0.05  -0.20    -0.03  -0.00  -0.08
   8   6    -0.00   0.02  -0.01     0.00   0.01  -0.06    -0.04  -0.02  -0.09
   9   7    -0.00   0.03  -0.02     0.03  -0.00  -0.07    -0.01  -0.03  -0.07
  10   6    -0.00   0.03  -0.00     0.03   0.01  -0.05    -0.01  -0.02   0.09
  11   6     0.00   0.01   0.02     0.03  -0.00  -0.02    -0.01  -0.01   0.07
  12   6     0.02  -0.01   0.05     0.02   0.07  -0.15    -0.01   0.08  -0.10
  13   6     0.02  -0.04   0.07     0.02   0.04  -0.10    -0.01   0.09  -0.14
  14   6     0.01  -0.05   0.05     0.03  -0.05   0.05    -0.00   0.01  -0.02
  15   6     0.01  -0.05   0.02     0.02  -0.03   0.05     0.00   0.02  -0.04
  16   6     0.04  -0.08   0.02     0.02  -0.04   0.04     0.00   0.01  -0.04
  17   9     0.09  -0.20   0.06     0.04  -0.10   0.06    -0.01   0.04  -0.06
  18   6     0.03  -0.04  -0.03     0.01   0.01   0.01     0.01  -0.02  -0.03
  19   9     0.09  -0.05  -0.06     0.06  -0.00  -0.00     0.01  -0.08  -0.02
  20   6    -0.02   0.01  -0.06    -0.02   0.06  -0.02     0.01   0.00  -0.03
  21   6    -0.02   0.04  -0.08    -0.03   0.06  -0.03     0.02  -0.01  -0.01
  22   6    -0.00  -0.05   0.07    -0.04   0.02   0.01     0.02   0.05  -0.09
  23   6     0.00  -0.06   0.12    -0.03  -0.02   0.03     0.03   0.05  -0.06
  24   6    -0.02   0.02  -0.01    -0.03  -0.00  -0.00     0.03  -0.01   0.05
  25   6    -0.02   0.01   0.03    -0.02  -0.02   0.01     0.04  -0.00   0.05
  26   7    -0.02   0.02   0.02    -0.03  -0.02   0.01     0.04  -0.01   0.13
  27   6    -0.02   0.01   0.04    -0.03  -0.02   0.02     0.03  -0.00   0.07
  28   6    -0.01   0.00   0.02    -0.04  -0.01   0.01     0.03   0.00   0.06
  29   6     0.01   0.01  -0.02    -0.05  -0.02   0.00     0.03   0.00   0.07
  30   6     0.02   0.00  -0.05    -0.06  -0.01  -0.01     0.03   0.01  -0.02
  31   6     0.02  -0.02  -0.04    -0.06   0.00  -0.02     0.03   0.01  -0.12
  32   6     0.00  -0.02  -0.01    -0.05   0.00  -0.01     0.03   0.01  -0.10
  33   6    -0.01  -0.01   0.02    -0.04  -0.00   0.01     0.03   0.01   0.01
  34   6    -0.02  -0.02   0.02    -0.03  -0.00   0.01     0.04   0.01   0.03
  35   6    -0.02  -0.03  -0.03    -0.03   0.01  -0.01     0.03   0.01   0.15
  36   6    -0.03  -0.04  -0.06    -0.02   0.01  -0.01     0.04   0.01   0.12
  37   6    -0.04  -0.03  -0.04    -0.01   0.00  -0.01     0.04   0.01  -0.04
  38   6    -0.04  -0.01   0.02    -0.02  -0.00   0.01     0.05   0.01  -0.12
  39   6    -0.03  -0.01   0.05    -0.02  -0.01   0.01     0.04   0.01  -0.05
  40   6    -0.03   0.01   0.08    -0.03  -0.02   0.02     0.04   0.01  -0.03
  41   7    -0.03   0.01   0.09    -0.03  -0.02   0.03     0.04   0.01  -0.05
  42   6     0.02   0.00   0.08    -0.02  -0.02   0.02     0.03   0.01  -0.05
  43   6     0.29  -0.05   0.18     0.02  -0.04   0.03     0.10   0.02  -0.01
  44   6     0.32  -0.05   0.16     0.03  -0.04   0.02     0.09   0.02   0.01
  45   6     0.09   0.00   0.06    -0.00  -0.03   0.01     0.02   0.01  -0.01
  46   6     0.02   0.02  -0.01     0.00  -0.03  -0.00     0.00   0.01   0.02
  47   6     0.09   0.04   0.01     0.01  -0.02  -0.00     0.02  -0.03   0.04
  48   6    -0.03   0.15  -0.13    -0.00  -0.02  -0.02    -0.01   0.04   0.00
  49   6    -0.12  -0.12   0.02    -0.02  -0.04  -0.00    -0.03   0.01   0.05
  50   6    -0.16   0.05  -0.03    -0.04  -0.01  -0.00    -0.06  -0.00  -0.05
  51   6    -0.20   0.05  -0.02    -0.05  -0.01   0.00    -0.05  -0.00  -0.08
  52   6    -0.06   0.12  -0.19    -0.02   0.04  -0.05     0.03  -0.08   0.14
  53   6    -0.06   0.12  -0.21    -0.02   0.07  -0.07     0.03  -0.07   0.11
  54   6    -0.04   0.01  -0.05    -0.03   0.08  -0.02     0.00   0.03  -0.04
  55   9    -0.06   0.05  -0.07    -0.06   0.20  -0.05    -0.01   0.08  -0.06
  56   6    -0.03  -0.01  -0.01    -0.02   0.02   0.02     0.00   0.02  -0.04
  57   9    -0.09   0.02   0.00    -0.07   0.02   0.05    -0.00   0.01  -0.04
  58   6    -0.01  -0.03   0.02     0.05  -0.13   0.19     0.00  -0.08   0.15
  59   6    -0.01  -0.00   0.01     0.05  -0.11   0.16     0.00  -0.09   0.20
  60   7     0.00   0.03  -0.00     0.04   0.00  -0.06    -0.03  -0.01   0.22
  61   6     0.00   0.02  -0.01     0.04  -0.00  -0.06    -0.02  -0.01   0.13
  62   6     0.02   0.01  -0.01     0.04   0.00  -0.03    -0.04   0.00   0.11
  63   6     0.04   0.01  -0.03     0.04   0.01   0.03    -0.06  -0.00   0.13
  64   6     0.05   0.00  -0.03     0.03   0.01   0.08    -0.07  -0.01  -0.01
  65   6     0.04  -0.01  -0.00     0.04   0.01   0.08    -0.07  -0.01  -0.20
  66   6     0.03  -0.01   0.02     0.04   0.01   0.02    -0.05  -0.00  -0.18
  67   6     0.01  -0.00   0.01     0.04   0.00  -0.03    -0.03   0.01   0.00
  68   6     0.00  -0.01   0.02     0.04   0.00  -0.05    -0.02   0.02   0.04
  69   6    -0.00  -0.02   0.05     0.04   0.00  -0.06    -0.03   0.06   0.19
  70   6    -0.02  -0.02   0.04     0.04   0.01  -0.01    -0.01   0.06   0.17
  71   6    -0.03  -0.02  -0.02     0.04   0.02   0.07     0.01   0.01  -0.05
  72   6    -0.02  -0.01  -0.05     0.04   0.02   0.05     0.01  -0.02  -0.15
  73   6    -0.01   0.00  -0.02     0.04   0.00  -0.02    -0.00  -0.01  -0.07
  74   6    -0.00   0.02  -0.02     0.04  -0.00  -0.06    -0.01  -0.02  -0.03
  75   6    -0.10   0.03  -0.06     0.25  -0.04   0.08    -0.10  -0.04  -0.10
  76   6    -0.10   0.04  -0.06     0.25  -0.04   0.10    -0.13  -0.04  -0.08
  77   1    -0.02   0.01  -0.01     0.08  -0.00   0.05     0.02   0.00   0.03
  78   1    -0.01   0.02  -0.01     0.03  -0.03   0.04     0.00  -0.01   0.02
  79   1    -0.02   0.00  -0.00     0.05   0.04   0.01     0.01   0.02   0.01
  80   1     0.01   0.02   0.02    -0.03  -0.04  -0.05    -0.00   0.01   0.01
  81   1    -0.01   0.02   0.02     0.03   0.01  -0.06     0.00   0.04   0.01
  82   1     0.01   0.01   0.01    -0.01  -0.01   0.00     0.02   0.01   0.03
  83   1     0.02  -0.01  -0.01    -0.06   0.04   0.02    -0.01  -0.05   0.01
  84   1     0.01  -0.00   0.00    -0.01   0.01   0.01     0.02  -0.04   0.03
  85   1     0.01   0.00  -0.02    -0.03  -0.00   0.07    -0.01  -0.06   0.01
  86   1     0.05   0.00   0.02    -0.14   0.03  -0.08    -0.01   0.01  -0.01
  87   1     0.05   0.00   0.02    -0.14   0.03  -0.09    -0.00   0.00  -0.02
  88   1     0.01  -0.00   0.01     0.00   0.04  -0.08    -0.00   0.04  -0.06
  89   1     0.01  -0.02   0.03     0.01   0.03  -0.06    -0.00   0.04  -0.08
  90   1     0.00  -0.03   0.05    -0.02   0.00   0.01     0.01   0.03  -0.05
  91   1     0.01  -0.04   0.07    -0.01  -0.01   0.02     0.01   0.03  -0.03
  92   1     0.00   0.01  -0.00    -0.02  -0.01   0.00     0.01  -0.00   0.04
  93   1     0.01   0.00  -0.02    -0.02  -0.00  -0.01     0.01   0.00  -0.01
  94   1     0.01  -0.01  -0.02    -0.02   0.00  -0.01     0.01   0.00  -0.06
  95   1     0.00  -0.01  -0.00    -0.01   0.00  -0.00     0.01   0.00  -0.05
  96   1    -0.00  -0.01  -0.01    -0.01   0.00  -0.00     0.01   0.00   0.08
  97   1    -0.01  -0.01  -0.03    -0.01   0.01  -0.01     0.01   0.00   0.07
  98   1    -0.02  -0.01  -0.02    -0.00   0.00  -0.00     0.01   0.00  -0.03
  99   1    -0.02  -0.00   0.01    -0.00  -0.00   0.00     0.01   0.00  -0.07
 100   1     0.13  -0.02   0.07     0.01  -0.01   0.01     0.05   0.01   0.00
 101   1     0.15  -0.03   0.06     0.02  -0.01   0.01     0.04   0.01   0.01
 102   1     0.04   0.01  -0.00     0.01  -0.01  -0.00     0.01  -0.01   0.02
 103   1     0.03   0.02   0.01     0.00  -0.00   0.00     0.00  -0.00   0.01
 104   1     0.03   0.01  -0.00     0.00  -0.01  -0.00     0.01  -0.02   0.01
 105   1     0.02   0.06  -0.06     0.00  -0.01  -0.01     0.01   0.01  -0.01
 106   1    -0.02   0.06  -0.05    -0.00  -0.00  -0.01    -0.01   0.03  -0.00
 107   1    -0.03   0.05  -0.04    -0.00  -0.01  -0.01    -0.01   0.01   0.01
 108   1    -0.06  -0.06   0.00    -0.01  -0.02  -0.00    -0.02   0.00   0.01
 109   1    -0.05  -0.03  -0.03    -0.00  -0.01  -0.01    -0.01   0.00   0.01
 110   1    -0.03  -0.05   0.05    -0.00  -0.01   0.01    -0.01   0.00   0.02
 111   1    -0.10   0.03  -0.03    -0.02  -0.00  -0.00    -0.04  -0.00  -0.02
 112   1    -0.12   0.03  -0.02    -0.02  -0.00  -0.00    -0.03  -0.00  -0.03
 113   1    -0.02   0.05  -0.08    -0.00   0.02  -0.02     0.01  -0.04   0.07
 114   1    -0.02   0.05  -0.10    -0.01   0.03  -0.03     0.01  -0.03   0.05
 115   1    -0.01  -0.01   0.00     0.02  -0.05   0.09     0.00  -0.04   0.07
 116   1    -0.01   0.00  -0.00     0.01  -0.05   0.08     0.00  -0.05   0.10
 117   1     0.01   0.01  -0.01     0.01   0.00   0.01    -0.02  -0.00   0.07
 118   1     0.02   0.00  -0.01     0.01   0.00   0.04    -0.02  -0.00  -0.00
 119   1     0.02  -0.01  -0.00     0.01   0.01   0.03    -0.02  -0.00  -0.10
 120   1     0.01  -0.01   0.01     0.01   0.00   0.00    -0.01  -0.00  -0.10
 121   1     0.00  -0.01   0.03     0.01  -0.00  -0.03    -0.01   0.03   0.11
 122   1    -0.01  -0.01   0.02     0.01   0.00  -0.00    -0.00   0.03   0.09
 123   1    -0.01  -0.01  -0.01     0.01   0.01   0.04     0.01   0.00  -0.03
 124   1    -0.01  -0.00  -0.03     0.01   0.01   0.03     0.01  -0.01  -0.08
 125   1    -0.05   0.01  -0.03     0.13  -0.02   0.05    -0.04  -0.02  -0.04
 126   1    -0.05   0.01  -0.03     0.13  -0.02   0.06    -0.05  -0.01  -0.03
                     19                     20                     21
                        a                      a                      a 
 Frequencies --    69.9150                72.6982                78.7552
 Red. masses --    11.0391                11.3770                13.5157
 Frc consts  --     0.0000                 0.0000                 0.0000
 IR Inten    --     0.1057                 0.0095                 0.0083
 Raman Activ --     0.0000                 0.0000                 0.0000
 Depolar     --     0.0000                 0.0000                 0.0000
 Atom AN      X      Y      Z        X      Y      Z        X      Y      Z
   1   6     0.06  -0.05   0.04    -0.04   0.06   0.02     0.00  -0.02   0.01
   2   6    -0.01  -0.04   0.00    -0.01   0.01   0.02     0.01  -0.03   0.01
   3   6     0.02   0.02  -0.02    -0.03  -0.03   0.05    -0.02  -0.09  -0.01
   4   6    -0.02  -0.11   0.04    -0.00   0.01   0.02    -0.02   0.01   0.01
   5   6    -0.08  -0.03  -0.03     0.04   0.01  -0.00     0.04  -0.04   0.01
   6   6    -0.17  -0.02  -0.07     0.11   0.02   0.01    -0.03  -0.02  -0.04
   7   6    -0.17  -0.02  -0.07     0.13   0.02  -0.01    -0.03  -0.02  -0.05
   8   6    -0.09  -0.03  -0.03     0.08  -0.00  -0.05     0.04  -0.03  -0.02
   9   7    -0.08  -0.03  -0.02     0.08  -0.00  -0.05     0.04  -0.04  -0.03
  10   6    -0.06  -0.02   0.01     0.07  -0.00   0.06     0.04  -0.03   0.01
  11   6    -0.06  -0.00   0.01     0.06  -0.00   0.01     0.02   0.03   0.04
  12   6    -0.06   0.01  -0.01     0.05   0.04  -0.08    -0.04   0.04   0.07
  13   6    -0.06   0.03   0.00     0.05   0.06  -0.13    -0.05   0.12   0.05
  14   6    -0.04   0.04   0.01     0.03   0.01  -0.08    -0.02   0.18   0.01
  15   6    -0.02   0.04   0.01     0.02   0.00  -0.06    -0.03   0.17   0.00
  16   6     0.00  -0.01   0.02    -0.04  -0.01  -0.02     0.01   0.11  -0.00
  17   9     0.02  -0.01   0.03    -0.12  -0.05  -0.07     0.02   0.31  -0.02
  18   6     0.02  -0.05   0.02    -0.04  -0.01   0.04     0.05  -0.08  -0.00
  19   9     0.03  -0.11   0.04    -0.09  -0.02   0.06     0.13  -0.23   0.00
  20   6     0.02  -0.04   0.02    -0.02  -0.00   0.05     0.02  -0.17  -0.01
  21   6     0.04  -0.04   0.01    -0.03  -0.01   0.08     0.02  -0.17  -0.02
  22   6     0.05  -0.05   0.04    -0.04  -0.06   0.14     0.05  -0.11  -0.06
  23   6     0.05  -0.03   0.02    -0.05  -0.05   0.09     0.03  -0.03  -0.07
  24   6     0.05   0.01  -0.05    -0.06   0.00   0.00    -0.03  -0.01  -0.05
  25   6     0.06   0.03  -0.07    -0.07   0.01  -0.05    -0.04   0.03  -0.02
  26   7     0.07   0.04  -0.20    -0.07   0.02  -0.16    -0.05   0.04   0.01
  27   6     0.07   0.03  -0.12    -0.07   0.01  -0.12    -0.05   0.03   0.04
  28   6     0.08   0.02  -0.11    -0.06   0.00  -0.12    -0.03   0.01   0.04
  29   6     0.10   0.03  -0.14    -0.06   0.00  -0.18     0.00   0.02   0.11
  30   6     0.12   0.02   0.00    -0.06  -0.00  -0.05     0.02   0.01   0.07
  31   6     0.12  -0.01   0.19    -0.06  -0.02   0.17     0.02  -0.01  -0.04
  32   6     0.10  -0.01   0.17    -0.06  -0.02   0.19    -0.01  -0.02  -0.09
  33   6     0.08   0.01  -0.01    -0.06  -0.01   0.01    -0.03  -0.01  -0.03
  34   6     0.08   0.00  -0.04    -0.07  -0.02  -0.01    -0.04  -0.01  -0.03
  35   6     0.08  -0.01  -0.18    -0.07  -0.03  -0.12    -0.05  -0.04  -0.08
  36   6     0.07  -0.01  -0.14    -0.08  -0.03  -0.11    -0.08  -0.05  -0.03
  37   6     0.05  -0.00   0.06    -0.09  -0.03   0.01    -0.10  -0.04   0.07
  38   6     0.05   0.01   0.15    -0.09  -0.02   0.08    -0.10  -0.01   0.10
  39   6     0.06   0.01   0.06    -0.08  -0.01   0.03    -0.06   0.00   0.04
  40   6     0.06   0.02   0.02    -0.07  -0.01   0.01    -0.05   0.03   0.04
  41   7     0.07   0.02   0.06    -0.08  -0.01   0.06    -0.05   0.04   0.01
  42   6     0.09   0.02   0.08    -0.07  -0.01   0.06    -0.04   0.04   0.00
  43   6     0.06   0.01   0.06    -0.11  -0.03   0.03     0.03   0.03   0.03
  44   6     0.07   0.01   0.04    -0.10  -0.03  -0.00     0.04   0.03   0.03
  45   6     0.10   0.03   0.05    -0.05  -0.01   0.00    -0.02   0.04   0.00
  46   6     0.02   0.04  -0.01    -0.00  -0.01  -0.02     0.00   0.04   0.00
  47   6    -0.06   0.07  -0.05     0.02   0.03  -0.03     0.03   0.04   0.01
  48   6    -0.00   0.13   0.00     0.01  -0.08  -0.03     0.00   0.03  -0.02
  49   6     0.00  -0.06  -0.06     0.03   0.01  -0.03    -0.01   0.05   0.02
  50   6     0.18   0.03   0.09    -0.03   0.01   0.03    -0.10   0.05  -0.03
  51   6     0.17   0.03   0.10    -0.04   0.01   0.06    -0.11   0.05  -0.03
  52   6     0.03   0.02  -0.09    -0.05   0.04  -0.04    -0.06  -0.07  -0.02
  53   6     0.04  -0.01  -0.05    -0.04   0.03   0.00    -0.04  -0.15  -0.01
  54   6    -0.00  -0.00   0.02     0.04   0.01   0.01    -0.01  -0.11  -0.00
  55   9    -0.01  -0.02   0.02     0.13   0.06   0.06    -0.02  -0.31   0.01
  56   6    -0.02   0.05   0.01     0.04   0.01  -0.04    -0.05   0.07   0.00
  57   9    -0.03   0.13  -0.00     0.09   0.03  -0.08    -0.13   0.21  -0.00
  58   6    -0.04   0.04   0.01     0.04  -0.03  -0.01     0.04   0.16   0.01
  59   6    -0.04   0.02   0.01     0.04  -0.04   0.04     0.05   0.08   0.01
  60   7    -0.08  -0.02   0.05     0.07   0.00   0.17     0.05  -0.03   0.00
  61   6    -0.07  -0.02   0.03     0.06   0.01   0.13     0.04  -0.03  -0.04
  62   6    -0.09  -0.01   0.03     0.06   0.01   0.12     0.03  -0.02  -0.03
  63   6    -0.11  -0.02   0.05     0.06   0.02   0.16     0.01  -0.03  -0.06
  64   6    -0.12  -0.01   0.02     0.06   0.01   0.03    -0.01  -0.01  -0.04
  65   6    -0.12  -0.00  -0.04     0.06  -0.01  -0.17    -0.01   0.01   0.03
  66   6    -0.10   0.00  -0.06     0.06  -0.01  -0.18     0.01   0.02   0.06
  67   6    -0.09  -0.01  -0.01     0.06   0.01  -0.00     0.03   0.01   0.02
  68   6    -0.08  -0.00  -0.01     0.07   0.02   0.02     0.04   0.01   0.02
  69   6    -0.08   0.01   0.01     0.07   0.05   0.12     0.04   0.04   0.08
  70   6    -0.07   0.01   0.02     0.08   0.05   0.11     0.07   0.05   0.05
  71   6    -0.06   0.00   0.01     0.10   0.02  -0.03     0.09   0.02  -0.06
  72   6    -0.06  -0.01  -0.01     0.10  -0.00  -0.09     0.09  -0.01  -0.10
  73   6    -0.07  -0.01  -0.01     0.08   0.00  -0.03     0.06  -0.01  -0.05
  74   6    -0.07  -0.02  -0.01     0.08   0.00  -0.00     0.05  -0.03  -0.05
  75   6    -0.04  -0.03  -0.01     0.02  -0.02  -0.06     0.11  -0.05   0.03
  76   6    -0.04  -0.03  -0.01     0.00  -0.02  -0.04     0.12  -0.06   0.04
  77   1     0.04  -0.02   0.02    -0.03   0.02   0.01    -0.00  -0.00   0.01
  78   1     0.01  -0.04   0.01    -0.01   0.03   0.00     0.00  -0.00   0.00
  79   1     0.02   0.01   0.00    -0.01   0.01   0.01     0.00  -0.00   0.00
  80   1    -0.01  -0.00  -0.02     0.00  -0.01   0.02    -0.01  -0.03  -0.00
  81   1     0.01   0.03  -0.02    -0.01  -0.01   0.02     0.00  -0.03  -0.00
  82   1     0.02   0.01   0.01    -0.02  -0.01   0.01    -0.02  -0.02   0.00
  83   1    -0.02  -0.02   0.01     0.01  -0.01   0.00    -0.01   0.00   0.00
  84   1     0.02  -0.04   0.01    -0.02   0.01   0.01    -0.01   0.00  -0.00
[...]
   6   6    -0.00  -0.00   0.00    -0.00  -0.00   0.00     0.00   0.00  -0.00
   7   6    -0.00   0.00   0.00    -0.00   0.00   0.00    -0.00   0.00   0.00
   8   6    -0.00   0.00  -0.00     0.00   0.00  -0.00    -0.00   0.00   0.00
   9   7     0.00  -0.00   0.00    -0.00  -0.00   0.00     0.00   0.00  -0.00
  10   6    -0.00   0.00   0.00     0.00   0.00  -0.00     0.00  -0.00   0.00
  11   6    -0.00  -0.00  -0.00    -0.00  -0.00  -0.00    -0.00   0.00   0.00
  12   6    -0.00   0.00   0.00    -0.00   0.00   0.00    -0.00   0.00   0.00
  13   6     0.00   0.00   0.00     0.00   0.00   0.00     0.00   0.00   0.00
  14   6     0.00  -0.00  -0.00     0.00   0.00   0.00    -0.00  -0.00  -0.00
  15   6    -0.00  -0.00  -0.00    -0.00  -0.00   0.00    -0.00  -0.00   0.00
  16   6    -0.00   0.00   0.00    -0.00   0.00   0.00     0.00   0.00  -0.00
  17   9     0.00  -0.00  -0.00     0.00  -0.00  -0.00     0.00   0.00   0.00
  18   6     0.00   0.00   0.00     0.00   0.00   0.00    -0.00  -0.00  -0.00
  19   9    -0.00  -0.00  -0.00    -0.00  -0.00   0.00     0.00   0.00   0.00
  20   6     0.00   0.00   0.00     0.00  -0.00  -0.00    -0.00  -0.00  -0.00
  21   6    -0.00  -0.00  -0.00    -0.00   0.00   0.00    -0.00   0.00   0.00
  22   6     0.01   0.02   0.01    -0.03  -0.07  -0.04    -0.00  -0.00  -0.00
  23   6    -0.04   0.03   0.03     0.16  -0.16  -0.12     0.00  -0.00  -0.00
  24   6     0.01   0.00   0.00     0.01   0.00   0.00     0.00  -0.00  -0.00
  25   6    -0.00   0.00   0.00     0.00  -0.00  -0.00     0.00   0.00  -0.00
  26   7     0.00  -0.00  -0.00    -0.00  -0.00  -0.00    -0.00  -0.00  -0.00
  27   6    -0.00  -0.00   0.00     0.00   0.00   0.00     0.00  -0.00   0.00
  28   6    -0.00  -0.00  -0.00    -0.00  -0.00   0.00    -0.00  -0.00   0.00
  29   6    -0.00   0.00   0.00    -0.00   0.00   0.00    -0.00   0.00   0.00
  30   6    -0.00   0.00   0.00    -0.00   0.00   0.00     0.00  -0.00  -0.00
  31   6     0.00   0.00   0.00     0.00   0.00   0.00    -0.00  -0.00  -0.00
  32   6     0.00  -0.00  -0.00     0.00  -0.00  -0.00    -0.00   0.00  -0.00
  33   6     0.00  -0.00  -0.00     0.00  -0.00  -0.00     0.00  -0.00   0.00
  34   6    -0.00   0.00  -0.00     0.00   0.00   0.00    -0.00  -0.00  -0.00
  35   6     0.00   0.00   0.00     0.00   0.00   0.00    -0.00  -0.00  -0.00
  36   6    -0.00  -0.00  -0.00     0.00  -0.00   0.00    -0.00  -0.00  -0.00
  37   6    -0.00   0.00  -0.00     0.00  -0.00   0.00    -0.00   0.00  -0.00
  38   6     0.01   0.01  -0.00    -0.01  -0.01  -0.00     0.00   0.00  -0.00
  39   6     0.00  -0.00  -0.00    -0.00  -0.00  -0.00     0.00   0.00   0.00
  40   6     0.00   0.00   0.00    -0.00  -0.00  -0.00     0.00   0.00   0.00
  41   7    -0.00   0.00  -0.00    -0.00   0.00   0.00    -0.00  -0.00   0.00
  42   6    -0.00  -0.00  -0.00     0.00   0.00   0.00     0.00  -0.00  -0.00
  43   6     0.00  -0.00  -0.00    -0.00   0.00   0.01    -0.00   0.00   0.00
  44   6     0.00   0.00  -0.00    -0.00  -0.00   0.00    -0.00  -0.00   0.00
  45   6     0.00   0.00  -0.00    -0.00  -0.00  -0.00    -0.00  -0.00  -0.00
  46   6     0.00  -0.00  -0.00    -0.00  -0.00  -0.00    -0.00  -0.00   0.00
  47   6     0.00  -0.00   0.00    -0.00   0.00  -0.00    -0.00  -0.00  -0.00
  48   6     0.00  -0.00  -0.00    -0.00   0.00   0.00    -0.00   0.00   0.00
  49   6     0.00  -0.00  -0.00    -0.00   0.00   0.00    -0.00  -0.00   0.00
  50   6    -0.00   0.00   0.00     0.00  -0.01  -0.01     0.00  -0.00  -0.00
  51   6    -0.00   0.00   0.00     0.00  -0.00  -0.00     0.00  -0.00   0.00
  52   6     0.09   0.21   0.11     0.02   0.05   0.03    -0.00  -0.00  -0.00
  53   6    -0.06   0.06   0.04    -0.01   0.01   0.01     0.00  -0.00  -0.00
  54   6    -0.00   0.00   0.00     0.00  -0.00  -0.00    -0.00  -0.00   0.00
  55   9     0.00  -0.00  -0.00    -0.00   0.00   0.00     0.00   0.00  -0.00
  56   6    -0.00  -0.00   0.00    -0.00  -0.00  -0.00     0.00   0.00   0.00
  57   9     0.00  -0.00   0.00     0.00   0.00   0.00    -0.00  -0.00  -0.00
  58   6    -0.00   0.00   0.00     0.00  -0.00  -0.00    -0.00   0.00   0.00
  59   6     0.00   0.00   0.00    -0.00  -0.00  -0.00     0.00   0.00   0.00
  60   7     0.00  -0.00  -0.00    -0.00  -0.00   0.00    -0.00   0.00  -0.00
  61   6     0.00  -0.00   0.00     0.00  -0.00   0.00    -0.00  -0.00   0.00
  62   6    -0.00  -0.00   0.00    -0.00  -0.00   0.00    -0.00   0.00  -0.00
  63   6    -0.00   0.00  -0.00     0.00  -0.00   0.00    -0.00   0.00  -0.00
  64   6    -0.00   0.00  -0.00     0.00  -0.00   0.00    -0.00   0.00  -0.00
  65   6    -0.00  -0.00   0.00    -0.00  -0.00   0.00     0.00   0.00  -0.00
  66   6    -0.00   0.00  -0.00    -0.00   0.00  -0.00     0.01  -0.00   0.00
  67   6    -0.00   0.00   0.00    -0.00   0.00  -0.00    -0.00  -0.00   0.00
  68   6     0.00   0.00   0.00    -0.00  -0.00   0.00     0.00   0.00  -0.00
  69   6    -0.00  -0.00   0.00    -0.00  -0.00   0.00     0.01   0.01  -0.00
  70   6    -0.00   0.00  -0.00    -0.00   0.00  -0.00     0.02  -0.00   0.00
  71   6     0.00  -0.00   0.00    -0.00   0.00  -0.00     0.02  -0.06   0.01
  72   6    -0.00  -0.00   0.00     0.00   0.00  -0.00    -0.18  -0.19   0.02
  73   6    -0.00   0.00  -0.00     0.00   0.00  -0.00    -0.01   0.00  -0.00
  74   6     0.00   0.00  -0.00     0.00   0.00  -0.00    -0.00  -0.00  -0.00
  75   6     0.00   0.00  -0.00    -0.00   0.00   0.00     0.00   0.00  -0.01
  76   6    -0.00   0.00   0.00    -0.00   0.00   0.00     0.00  -0.00  -0.00
  77   1    -0.00  -0.00  -0.00    -0.00  -0.00  -0.00     0.00   0.00   0.00
  78   1    -0.00   0.00   0.00     0.00  -0.00  -0.00    -0.00   0.00   0.00
  79   1    -0.00  -0.00  -0.00     0.00   0.00   0.00     0.00   0.00   0.00
  80   1     0.00   0.00  -0.00     0.00   0.00  -0.00     0.00   0.00  -0.00
  81   1    -0.00  -0.00  -0.00     0.00   0.00   0.00     0.00   0.00   0.00
  82   1    -0.00  -0.00   0.00    -0.00  -0.00   0.00    -0.00  -0.00   0.00
  83   1     0.00   0.00  -0.00    -0.00   0.00  -0.00     0.00   0.00  -0.00
  84   1    -0.00  -0.00   0.00    -0.00  -0.00   0.00     0.00   0.00   0.00
  85   1    -0.00   0.00   0.00     0.00  -0.00  -0.00    -0.00   0.00   0.00
  86   1     0.00   0.00  -0.00     0.00   0.00  -0.00    -0.01  -0.01   0.01
  87   1     0.00  -0.00  -0.00     0.00  -0.00  -0.00     0.00  -0.00  -0.00
  88   1     0.00  -0.00  -0.00     0.00  -0.00  -0.00     0.01  -0.01  -0.01
  89   1    -0.00  -0.00  -0.00    -0.00  -0.00  -0.00    -0.00  -0.00  -0.00
  90   1    -0.02  -0.06  -0.03     0.10   0.24   0.13     0.00   0.00   0.00
  91   1     0.12  -0.12  -0.10    -0.55   0.55   0.43    -0.00   0.00   0.00
  92   1     0.01  -0.00  -0.00     0.01  -0.00  -0.00     0.00  -0.00  -0.00
  93   1     0.00  -0.00  -0.00     0.00  -0.00  -0.00    -0.00   0.00   0.00
  94   1    -0.00  -0.00  -0.00    -0.00  -0.00  -0.00     0.00   0.00   0.00
  95   1    -0.00   0.00   0.00    -0.01   0.00   0.00    -0.00  -0.00   0.00
  96   1    -0.00  -0.00  -0.00    -0.01  -0.01  -0.00     0.00   0.00   0.00
  97   1     0.00  -0.00   0.00    -0.01   0.00  -0.00     0.00  -0.00   0.00
  98   1     0.00  -0.01   0.00    -0.00   0.01  -0.00     0.00  -0.00   0.00
  99   1    -0.02  -0.03  -0.00     0.03   0.03   0.00    -0.00  -0.00  -0.00
 100   1    -0.00   0.00   0.01     0.01  -0.01  -0.02     0.00  -0.00  -0.00
 101   1    -0.00  -0.00   0.00     0.01   0.01  -0.01     0.00   0.00  -0.00
 102   1     0.00   0.00   0.00    -0.00  -0.00  -0.00    -0.00   0.00  -0.00
 103   1    -0.00  -0.00   0.00     0.00  -0.00  -0.00     0.00   0.00  -0.00
 104   1    -0.00   0.00  -0.00     0.00  -0.00   0.00     0.00  -0.00   0.00
 105   1    -0.00   0.00  -0.00     0.00  -0.00   0.00     0.00  -0.00   0.00
 106   1    -0.00   0.00   0.00     0.00  -0.00  -0.00     0.00  -0.00  -0.00
 107   1     0.00   0.00   0.00    -0.00  -0.00  -0.00     0.00   0.00   0.00
 108   1    -0.00   0.00   0.00     0.00  -0.00  -0.00     0.00  -0.00  -0.00
 109   1     0.00   0.00   0.00    -0.00  -0.00  -0.00    -0.00   0.00   0.00
 110   1    -0.00  -0.00   0.00     0.00   0.00  -0.00     0.00   0.00  -0.00
 111   1     0.00  -0.00  -0.01    -0.01   0.02   0.04    -0.00   0.00   0.00
 112   1     0.00   0.00  -0.00     0.00   0.00  -0.00     0.00   0.00  -0.00
 113   1    -0.31  -0.74  -0.39    -0.07  -0.17  -0.09     0.00   0.00   0.00
 114   1     0.18  -0.18  -0.13     0.03  -0.03  -0.02    -0.00   0.00   0.00
 115   1     0.00  -0.00  -0.00    -0.00   0.00   0.00     0.00  -0.00  -0.00
 116   1    -0.00  -0.01  -0.00     0.00   0.01   0.01    -0.01  -0.01  -0.01
 117   1     0.00  -0.00   0.00    -0.00   0.00  -0.00     0.01  -0.00   0.00
 118   1     0.00  -0.00   0.00    -0.00   0.00  -0.00     0.00  -0.01   0.00
 119   1     0.00   0.00  -0.00     0.00   0.00  -0.00    -0.01  -0.01   0.00
 120   1     0.00  -0.00   0.00     0.00  -0.00   0.00    -0.02   0.00  -0.00
 121   1     0.00   0.00  -0.00     0.00   0.00  -0.00    -0.03  -0.03   0.00
 122   1     0.00  -0.00   0.00     0.00  -0.00   0.00    -0.05   0.01  -0.00
 123   1    -0.00   0.00  -0.00     0.00  -0.00   0.00    -0.05   0.17  -0.03
 124   1     0.00   0.00  -0.00    -0.00  -0.00   0.00     0.65   0.68  -0.08
 125   1    -0.00  -0.00   0.00    -0.00  -0.00   0.00    -0.01  -0.01   0.02
 126   1     0.00  -0.00  -0.00     0.00  -0.00  -0.00    -0.00   0.01   0.01
                    370                    371                    372
                        a                      a                      a 
 Frequencies --  3116.5660              3121.6302              3122.7296
 Red. masses --     1.8340                 1.8378                 1.8387
 Frc consts  --     0.0000                 0.0000                 0.0000
 IR Inten    --    16.9301                16.2007                15.8508
 Raman Activ --     0.0000                 0.0000                 0.0000
 Depolar     --     0.0000                 0.0000                 0.0000
 Atom AN      X      Y      Z        X      Y      Z        X      Y      Z
   1   6    -0.00  -0.00   0.00     0.00  -0.00   0.00     0.00  -0.00  -0.00
   2   6    -0.00  -0.00  -0.00     0.00  -0.00   0.00     0.00   0.00  -0.00
   3   6    -0.00  -0.00   0.00     0.00  -0.00   0.00     0.00   0.00  -0.00
   4   6    -0.00  -0.00  -0.00     0.00  -0.00   0.00     0.00   0.00  -0.00
   5   6     0.00   0.00   0.00     0.00   0.00  -0.00     0.00   0.01  -0.00
   6   6     0.00   0.00  -0.00     0.00   0.00  -0.00     0.12   0.10  -0.22
   7   6    -0.00  -0.00  -0.00     0.00  -0.00  -0.00     0.02  -0.03  -0.04
   8   6    -0.00   0.00   0.00    -0.00  -0.00   0.00    -0.00  -0.00   0.00
   9   7     0.00   0.00   0.00     0.00   0.00  -0.00     0.00   0.00  -0.00
  10   6     0.00  -0.00  -0.00    -0.00  -0.00   0.00     0.00  -0.00  -0.00
  11   6    -0.00  -0.00   0.00     0.00   0.00   0.00     0.00   0.00   0.00
  12   6     0.00   0.00  -0.00     0.00  -0.00  -0.00    -0.00   0.00   0.00
  13   6    -0.00  -0.00  -0.00     0.00   0.00   0.00     0.00   0.00   0.00
  14   6    -0.00   0.00  -0.00    -0.00  -0.00  -0.00    -0.00  -0.00  -0.00
  15   6    -0.00  -0.00  -0.00     0.00   0.00   0.00     0.00   0.00   0.00
  16   6    -0.00  -0.00   0.00     0.00   0.00  -0.00    -0.00  -0.00  -0.00
  17   9     0.00  -0.00  -0.00    -0.00   0.00   0.00    -0.00  -0.00   0.00
  18   6     0.00   0.00   0.00     0.00  -0.00   0.00     0.00   0.00  -0.00
  19   9    -0.00  -0.00  -0.00    -0.00  -0.00  -0.00    -0.00  -0.00   0.00
  20   6    -0.00   0.00   0.00     0.00  -0.00  -0.00     0.00  -0.00   0.00
  21   6     0.00  -0.00  -0.00    -0.00   0.00   0.00     0.00   0.00   0.00
  22   6     0.00   0.00   0.00    -0.00  -0.00  -0.00     0.00   0.00   0.00
  23   6    -0.01   0.01   0.01     0.01  -0.01  -0.01     0.00  -0.00  -0.00
  24   6    -0.00  -0.00   0.00     0.00   0.00  -0.00     0.00   0.00  -0.00
  25   6     0.00  -0.00   0.00     0.00  -0.00   0.00    -0.00   0.00  -0.00
  26   7    -0.00   0.00  -0.00     0.00   0.00  -0.00     0.00  -0.00   0.00
  27   6    -0.00  -0.00  -0.00    -0.00   0.00   0.00    -0.00   0.00  -0.00
  28   6    -0.00   0.00   0.00    -0.00  -0.00  -0.00     0.00   0.00   0.00
  29   6    -0.00   0.00   0.00     0.00  -0.00  -0.00     0.00  -0.00  -0.00
  30   6    -0.00   0.00   0.00     0.00  -0.00  -0.00     0.00  -0.00  -0.00
  31   6     0.00   0.00   0.00    -0.00  -0.00  -0.00    -0.00  -0.00  -0.00
  32   6     0.00  -0.00  -0.00    -0.00   0.00   0.00    -0.00   0.00   0.00
  33   6    -0.00  -0.00  -0.00     0.00   0.00   0.00    -0.00   0.00   0.00
  34   6     0.00   0.00   0.00    -0.00  -0.00  -0.00    -0.00  -0.00   0.00
  35   6     0.01   0.01   0.00    -0.00  -0.00  -0.00    -0.00  -0.00  -0.00
  36   6     0.02   0.00   0.00    -0.00   0.00  -0.00    -0.00   0.00  -0.00
  37   6     0.02  -0.06   0.00    -0.00   0.00  -0.00    -0.00   0.00  -0.00
  38   6    -0.17  -0.20   0.00     0.01   0.01  -0.00     0.00   0.00   0.00
  39   6    -0.01  -0.00  -0.00     0.00   0.00   0.00     0.00  -0.00   0.00
  40   6    -0.00  -0.00  -0.00    -0.00  -0.00   0.00     0.00  -0.00  -0.00
  41   7     0.00   0.00   0.00    -0.00   0.00   0.00    -0.00  -0.00   0.00
  42   6    -0.00   0.00   0.00     0.00  -0.00  -0.00     0.00   0.00   0.00
  43   6    -0.00   0.00   0.00     0.00  -0.00  -0.00     0.00  -0.00  -0.00
  44   6    -0.00  -0.00   0.00     0.00   0.00  -0.01     0.00   0.00  -0.00
  45   6    -0.00   0.00   0.00     0.00   0.01   0.00    -0.00  -0.00  -0.00
  46   6     0.00  -0.00   0.00    -0.00   0.00   0.00     0.00  -0.00  -0.00
  47   6     0.00  -0.00   0.00    -0.00  -0.00   0.00     0.00   0.00  -0.00
  48   6     0.00  -0.00   0.00    -0.00   0.00   0.00     0.00   0.00  -0.00
  49   6     0.00   0.00  -0.00    -0.00   0.00   0.00     0.00  -0.00  -0.00
  50   6    -0.01   0.01   0.01    -0.08   0.11   0.23     0.00  -0.00  -0.00
  51   6    -0.00   0.00  -0.00    -0.02  -0.03   0.04     0.00   0.00  -0.00
  52   6     0.00   0.01   0.00    -0.00   0.00   0.00     0.00   0.00   0.00
  53   6    -0.00   0.00   0.00     0.00  -0.00  -0.00    -0.00   0.00   0.00
  54   6     0.00   0.00   0.00    -0.00   0.00   0.00     0.00   0.00  -0.00
  55   9     0.00  -0.00   0.00    -0.00   0.00  -0.00    -0.00  -0.00   0.00
  56   6    -0.00  -0.00  -0.00     0.00   0.00   0.00    -0.00  -0.00  -0.00
  57   9     0.00   0.00   0.00    -0.00  -0.00  -0.00     0.00  -0.00   0.00
  58   6    -0.00   0.00   0.00     0.00  -0.00  -0.00    -0.00   0.00   0.00
  59   6    -0.00  -0.00  -0.00     0.00   0.00   0.00     0.00   0.00   0.00
  60   7    -0.00  -0.00  -0.00     0.00   0.00  -0.00     0.00   0.00   0.00
  61   6     0.00  -0.00   0.00    -0.00   0.00  -0.00    -0.00   0.00  -0.00
  62   6    -0.00  -0.00   0.00     0.00   0.00  -0.00    -0.00  -0.00   0.00
  63   6    -0.00   0.00  -0.00     0.00  -0.00   0.00     0.00  -0.00   0.00
  64   6    -0.00   0.00  -0.00    -0.00   0.00  -0.00     0.00  -0.00   0.00
  65   6     0.00   0.00  -0.00     0.00   0.00  -0.00    -0.00  -0.00   0.00
  66   6     0.00  -0.00   0.00     0.00  -0.00   0.00    -0.00   0.00  -0.00
  67   6     0.00  -0.00   0.00    -0.00   0.00  -0.00    -0.00   0.00  -0.00
  68   6     0.00   0.00  -0.00    -0.00  -0.00  -0.00    -0.00  -0.00   0.00
  69   6     0.00   0.00  -0.00     0.00   0.00  -0.00    -0.00  -0.00   0.00
  70   6     0.00  -0.00   0.00     0.00  -0.00   0.00    -0.00   0.00  -0.00
  71   6     0.00  -0.00   0.00     0.00  -0.00   0.00    -0.00   0.00  -0.00
  72   6    -0.00  -0.00   0.00     0.00   0.00  -0.00     0.00   0.00  -0.00
  73   6    -0.00   0.00  -0.00     0.00  -0.00   0.00     0.00  -0.00   0.00
  74   6    -0.00  -0.00  -0.00    -0.00  -0.00   0.00    -0.00  -0.00  -0.00
  75   6     0.00   0.00  -0.00    -0.00  -0.00   0.00    -0.00   0.00   0.00
  76   6     0.00  -0.00  -0.00    -0.00   0.00   0.00    -0.00   0.00   0.00
  77   1    -0.00   0.00   0.00     0.00   0.00   0.00     0.00   0.01   0.00
  78   1     0.00  -0.00  -0.00    -0.00   0.00   0.00    -0.01   0.01   0.00
  79   1    -0.00   0.00   0.00    -0.00  -0.00  -0.00     0.01   0.01   0.01
  80   1     0.00   0.00  -0.00    -0.00  -0.00   0.00    -0.00  -0.00   0.00
  81   1     0.00   0.00   0.00    -0.00  -0.00  -0.00     0.00   0.00   0.00
  82   1    -0.00  -0.00   0.00     0.00   0.00  -0.00    -0.00  -0.00  -0.00
  83   1    -0.00  -0.00   0.00     0.00   0.00  -0.00    -0.00  -0.00   0.00
  84   1     0.00   0.00  -0.00     0.00  -0.00   0.00     0.00  -0.00   0.00
  85   1     0.00  -0.00  -0.00    -0.00   0.00   0.00    -0.00   0.00  -0.00
  86   1    -0.00  -0.00   0.00    -0.00  -0.00   0.00    -0.43  -0.36   0.76
  87   1     0.00  -0.00  -0.00    -0.00   0.00   0.00    -0.05   0.09   0.11
  88   1     0.00  -0.00  -0.00    -0.00   0.00   0.00     0.00  -0.00  -0.00
  89   1     0.00   0.00   0.00    -0.00  -0.00  -0.00    -0.00  -0.00  -0.00
  90   1    -0.00  -0.01  -0.01     0.00   0.01   0.01    -0.00  -0.00  -0.00
  91   1     0.03  -0.03  -0.02    -0.03   0.03   0.03    -0.00   0.00   0.00
  92   1     0.01  -0.00  -0.00    -0.00   0.00   0.00    -0.00   0.00   0.00
  93   1     0.00  -0.01  -0.00    -0.00   0.00   0.00    -0.00   0.00   0.00
  94   1    -0.00  -0.01  -0.00     0.00   0.00   0.00     0.00   0.00   0.00
  95   1    -0.01   0.00   0.00     0.00  -0.00  -0.00     0.00  -0.00  -0.00
  96   1    -0.02  -0.03  -0.00     0.00   0.00   0.00     0.00   0.00   0.00
  97   1    -0.05   0.01  -0.00     0.00  -0.00   0.00     0.00  -0.00   0.00
  98   1    -0.06   0.16  -0.00     0.00  -0.01   0.00     0.00  -0.00   0.00
  99   1     0.61   0.72   0.00    -0.04  -0.04   0.00    -0.00  -0.00  -0.00
 100   1     0.00  -0.00  -0.01    -0.00   0.00   0.00    -0.00   0.00   0.00
 101   1     0.00   0.00  -0.00    -0.01  -0.01   0.01    -0.00  -0.00   0.00
 102   1     0.00   0.00   0.00     0.00   0.01  -0.00     0.00  -0.00  -0.00
 103   1     0.00   0.00  -0.00     0.01   0.00  -0.00    -0.00  -0.00   0.00
 104   1    -0.00   0.00  -0.00    -0.01   0.01  -0.01     0.00  -0.00   0.00
 105   1    -0.00   0.00  -0.00    -0.00   0.00  -0.00     0.00   0.00  -0.00
 106   1    -0.00   0.00   0.00     0.00  -0.00  -0.01    -0.00   0.00   0.00
 107   1     0.00   0.00   0.00     0.00  -0.00   0.00    -0.00  -0.00  -0.00
 108   1    -0.00   0.00   0.00     0.00  -0.00  -0.00    -0.00   0.00   0.00
 109   1     0.00  -0.00  -0.00    -0.00  -0.00  -0.00     0.00  -0.00  -0.00
 110   1     0.00   0.00   0.00     0.00   0.00   0.00    -0.00  -0.00  -0.00
 111   1     0.02  -0.03  -0.05     0.27  -0.40  -0.81    -0.00   0.00   0.00
 112   1    -0.00  -0.01   0.01     0.05   0.08  -0.11    -0.00  -0.00   0.00
 113   1    -0.01  -0.02  -0.01     0.00  -0.00  -0.00    -0.00  -0.00  -0.00
 114   1     0.01  -0.01  -0.00    -0.00   0.00   0.00     0.00  -0.00  -0.00
 115   1     0.00  -0.00  -0.00    -0.00   0.00   0.00     0.00  -0.00  -0.00
 116   1     0.00   0.00   0.00    -0.00  -0.00  -0.00    -0.00  -0.00  -0.00
 117   1     0.00  -0.00   0.00    -0.00   0.00  -0.00    -0.00   0.00  -0.00
 118   1     0.00  -0.00   0.00     0.00  -0.00   0.00    -0.00   0.00  -0.00
 119   1    -0.00  -0.00   0.00    -0.00  -0.00   0.00     0.00   0.00  -0.00
 120   1    -0.00   0.00  -0.00    -0.00   0.00  -0.00     0.00  -0.00   0.00
 121   1    -0.00  -0.00   0.00    -0.00  -0.00   0.00     0.00   0.00  -0.00
 122   1    -0.00   0.00  -0.00    -0.00   0.00  -0.00     0.00  -0.00   0.00
 123   1    -0.00   0.00  -0.00    -0.00   0.00  -0.00     0.00  -0.00   0.00
 124   1     0.00   0.00  -0.00    -0.00  -0.00   0.00    -0.01  -0.01   0.00
 125   1    -0.00  -0.00   0.00     0.00   0.00  -0.00     0.00   0.00  -0.00
 126   1    -0.00   0.00   0.00     0.00  -0.00  -0.00     0.01  -0.01  -0.01
