 Entering Gaussian System
 *********************************************
 Gaussian 98:
 frequency output generated by the xtb code
 *********************************************
                         Standard orientation:
 --------------------------------------------------------------------
  Center     Atomic     Atomic              Coordinates (Angstroms)
  Number     Number      Type              X           Y           Z
 --------------------------------------------------------------------
    1          6             0       -4.026843   -5.044300   -1.108220
    2          6             0       -2.671352   -4.937439   -0.839540
    3          6             0       -2.074575   -3.693722   -0.770846
    4          6             0       -2.824423   -2.533066   -0.963119
    5          6             0       -2.154625   -1.243654   -0.878846
    6          7             0       -0.819224   -1.143616   -1.129382
    7          6             0       -0.497119    0.121307   -1.008873
    8          6             0        0.868708    0.595960   -1.125228
    9          6             0        1.355738    1.688571   -0.408399
   10          6             0        2.689100    2.023874   -0.473683
   11          6             0        3.582490    1.281273   -1.249743
   12          8             0        4.880879    1.680284   -1.176576
   13          6             0        5.890157    0.987756   -1.890884
   14          6             0        6.245738   -0.402337   -1.353794
   15          6             0        6.787788   -0.416203    0.077365
   16          6             0        5.713640   -0.201353    1.149201
   17          6             0        4.545459   -1.153638    1.084729
   18          6             0        4.636503   -2.449545    0.599582
   19          6             0        3.530762   -3.294204    0.517395
   20          6             0        2.279372   -2.877820    0.919889
   21          6             0        2.152354   -1.596161    1.439402
   22          6             0        3.285408   -0.755928    1.532143
   23          7             0        2.908702    0.425108    2.126404
   24          6             0        1.564997    0.394300    2.388481
   25          6             0        0.754556    1.358712    2.968840
   26          6             0       -0.586437    1.063406    3.122054
   27          6             0       -1.111577   -0.159437    2.707514
   28          6             0       -0.306899   -1.126361    2.137332
   29          6             0        1.045142   -0.854652    1.975019
   30          6             0        3.091107    0.221102   -2.005625
   31          6             0        1.755012   -0.117595   -1.929058
   32          7             0       -1.594688    0.879370   -0.693401
   33          6             0       -1.667621    2.278609   -0.557700
   34          6             0       -2.233412    2.840700    0.580508
   35          6             0       -2.321657    4.216363    0.694566
   36          6             0       -1.848843    5.033011   -0.319442
   37          6             0       -1.285794    4.471065   -1.454092
   38          6             0       -1.198187    3.096811   -1.580540
   39          6             0       -2.662406    0.012147   -0.592299
   40          6             0       -4.009078    0.447121   -0.243151
   41          6             0       -4.706177   -0.202733    0.775342
   42          6             0       -5.980464    0.203900    1.121727
   43          6             0       -6.578541    1.263844    0.458143
   44          6             0       -5.897194    1.909490   -0.560202
   45          6             0       -4.621488    1.506655   -0.910559
   46          6             0       -4.182100   -2.651271   -1.256179
   47          6             0       -4.775568   -3.898321   -1.322884
   48          1             0       -4.496236   -6.016219   -1.158346
   49          1             0       -2.079342   -5.828132   -0.682752
   50          1             0       -1.018651   -3.591649   -0.571331
   51          1             0        0.699650    2.256985    0.232089
   52          1             0        3.073441    2.862357    0.087598
   53          1             0        6.760189    1.646739   -1.810071
   54          1             0        5.611486    0.911403   -2.949984
   55          1             0        7.008117   -0.805059   -2.024358
   56          1             0        5.373124   -1.052850   -1.403212
   57          1             0        7.542949    0.365700    0.186599
   58          1             0        7.283563   -1.373119    0.250165
   59          1             0        5.335867    0.819024    1.058432
   60          1             0        6.187891   -0.287983    2.133391
   61          1             0        5.591832   -2.829259    0.270866
   62          1             0        3.664391   -4.291731    0.124063
   63          1             0        1.421176   -3.527667    0.844049
   64          1             0        3.508004    1.216359    2.282520
   65          1             0        1.156748    2.309552    3.287162
   66          1             0       -1.240479    1.794238    3.575988
   67          1             0       -2.166891   -0.351394    2.840468
   68          1             0       -0.719426   -2.071327    1.817115
   69          1             0        3.736549   -0.352663   -2.650488
   70          1             0        1.378145   -0.959794   -2.488417
   71          1             0       -2.592933    2.195598    1.366779
   72          1             0       -2.761136    4.649644    1.580494
   73          1             0       -1.919782    6.106228   -0.226925
   74          1             0       -0.919278    5.103328   -2.248820
   75          1             0       -0.765473    2.649160   -2.463529
   76          1             0       -4.237347   -1.030119    1.288357
   77          1             0       -6.508284   -0.306112    1.914557
   78          1             0       -7.573812    1.582000    0.731225
   79          1             0       -6.361205    2.730366   -1.087459
   80          1             0       -4.101094    2.006095   -1.715432
   81          1             0       -4.770952   -1.765291   -1.442612
   82          1             0       -5.829598   -3.976061   -1.549234
 --------------------------------------------------------------------
     1 basis functions        1 primitive gaussians
     1 alpha electrons        1 beta electrons
 
 Harmonic frequencies (cm**-1), IR intensities (km*mol⁻¹),
 Raman scattering activities (A**4/amu), Raman depolarization ratios,
 reduced masses (AMU), force constants (mDyne/A) and normal coordinates:
                      1                      2                      3
                        a                      a                      a 
 Frequencies --    10.7768                19.0988                21.5570
 Red. masses --    11.0264                11.3808                10.8554
 Frc consts  --     0.0000                 0.0000                 0.0000
 IR Inten    --     0.2131                 0.0576                 0.0238
 Raman Activ --     0.0000                 0.0000                 0.0000
 Depolar     --     0.0000                 0.0000                 0.0000
 Atom AN      X      Y      Z        X      Y      Z        X      Y      Z
   1   6    -0.08   0.05   0.10    -0.16   0.02  -0.21     0.00   0.04  -0.13
   2   6    -0.08   0.04   0.13    -0.15  -0.02  -0.20     0.01   0.02  -0.19
   3   6    -0.07   0.04   0.11    -0.13  -0.03  -0.15     0.02   0.02  -0.15
   4   6    -0.05   0.04   0.05    -0.10  -0.01  -0.10     0.01   0.03  -0.05
   5   6    -0.05   0.04   0.04    -0.08  -0.02  -0.05     0.02   0.02  -0.03
   6   7    -0.05   0.03   0.06    -0.08  -0.04  -0.05     0.01   0.03  -0.07
   7   6    -0.04   0.03   0.04    -0.06  -0.04  -0.02     0.01   0.02  -0.05
   8   6    -0.03   0.02   0.04    -0.05  -0.05   0.01     0.01   0.02  -0.06
   9   6    -0.03   0.04   0.01    -0.06  -0.05   0.00     0.01   0.04  -0.09
  10   6    -0.04   0.04  -0.00    -0.06  -0.06   0.02     0.02   0.03  -0.08
  11   6    -0.03   0.02   0.02    -0.05  -0.07   0.05     0.02  -0.00  -0.04
  12   8    -0.04   0.04  -0.01    -0.05  -0.09   0.07     0.03  -0.01  -0.05
  13   6    -0.04   0.05  -0.02    -0.05  -0.04   0.03     0.03  -0.05   0.01
  14   6     0.02   0.07  -0.00     0.02  -0.03   0.01     0.01  -0.02   0.08
  15   6     0.06   0.13  -0.02     0.10  -0.01  -0.02    -0.03   0.05   0.10
  16   6     0.07   0.08   0.00     0.16  -0.01   0.04    -0.06   0.06   0.06
  17   6     0.13   0.00   0.03     0.15   0.01   0.08    -0.03   0.02   0.08
  18   6     0.21  -0.01   0.09     0.13  -0.00   0.11     0.03   0.00   0.15
  19   6     0.27  -0.08   0.12     0.11   0.01   0.12     0.06  -0.04   0.17
  20   6     0.24  -0.14   0.08     0.11   0.05   0.10     0.04  -0.07   0.12
  21   6     0.15  -0.13   0.02     0.13   0.07   0.07    -0.02  -0.04   0.04
  22   6     0.10  -0.05  -0.00     0.15   0.04   0.07    -0.05   0.00   0.02
  23   7     0.02  -0.06  -0.06     0.18   0.07   0.04    -0.12   0.03  -0.05
  24   6     0.01  -0.12  -0.08     0.16   0.10   0.02    -0.11  -0.01  -0.07
  25   6    -0.05  -0.15  -0.13     0.18   0.12  -0.01    -0.15  -0.02  -0.12
  26   6    -0.04  -0.22  -0.14     0.16   0.16  -0.04    -0.14  -0.07  -0.10
  27   6     0.04  -0.27  -0.10     0.14   0.17  -0.04    -0.09  -0.10  -0.06
  28   6     0.11  -0.24  -0.04     0.13   0.14  -0.00    -0.05  -0.10  -0.01
  29   6     0.09  -0.17  -0.03     0.14   0.10   0.03    -0.06  -0.05  -0.01
  30   6    -0.03  -0.01   0.06    -0.04  -0.08   0.06     0.02  -0.02  -0.02
  31   6    -0.03  -0.01   0.07    -0.04  -0.07   0.04     0.02  -0.01  -0.03
  32   7    -0.04   0.04   0.01    -0.06  -0.04  -0.01     0.02   0.02  -0.02
  33   6    -0.03   0.04  -0.00    -0.05  -0.03  -0.00     0.02   0.02  -0.06
  34   6    -0.04   0.05  -0.01    -0.06  -0.03  -0.00     0.05   0.06  -0.06
  35   6    -0.04   0.05  -0.02    -0.06  -0.03  -0.00     0.04   0.07  -0.11
  36   6    -0.03   0.04  -0.02    -0.06  -0.03   0.00     0.00   0.03  -0.16
  37   6    -0.02   0.03  -0.01    -0.05  -0.03   0.00    -0.03  -0.01  -0.16
  38   6    -0.02   0.03  -0.00    -0.05  -0.03   0.00    -0.02  -0.01  -0.11
  39   6    -0.04   0.05   0.01    -0.07  -0.02  -0.03     0.02   0.02   0.00
  40   6    -0.05   0.06  -0.03    -0.06  -0.02   0.00     0.04  -0.00   0.10
  41   6    -0.08   0.08  -0.04    -0.03  -0.04   0.01     0.12  -0.04   0.13
  42   6    -0.09   0.10  -0.08    -0.03  -0.04   0.04     0.15  -0.06   0.25
  43   6    -0.06   0.09  -0.11    -0.04  -0.04   0.07     0.10  -0.03   0.34
  44   6    -0.03   0.07  -0.10    -0.07  -0.02   0.06     0.01   0.00   0.31
  45   6    -0.02   0.05  -0.06    -0.07  -0.02   0.03    -0.01   0.02   0.19
  46   6    -0.05   0.05   0.02    -0.11   0.03  -0.11    -0.00   0.04   0.00
  47   6    -0.06   0.05   0.04    -0.13   0.05  -0.16    -0.01   0.05  -0.04
  48   1    -0.02   0.02   0.03    -0.05   0.01  -0.07    -0.00   0.01  -0.05
  49   1    -0.03   0.01   0.05    -0.05  -0.01  -0.07     0.01   0.00  -0.08
  50   1    -0.02   0.01   0.04    -0.04  -0.02  -0.04     0.01   0.00  -0.06
  51   1    -0.01   0.02  -0.00    -0.02  -0.01  -0.00     0.00   0.02  -0.03
  52   1    -0.01   0.02  -0.01    -0.02  -0.01   0.01     0.00   0.01  -0.03
  53   1    -0.02   0.02  -0.02    -0.02  -0.00   0.00     0.01  -0.01  -0.00
  54   1    -0.02   0.00  -0.00    -0.02  -0.01   0.01     0.01  -0.03   0.00
  55   1     0.00   0.02  -0.00    -0.00  -0.00  -0.01     0.01  -0.02   0.04
  56   1     0.01   0.01   0.01     0.01  -0.01   0.02     0.00  -0.01   0.03
  57   1     0.00   0.05  -0.01     0.03  -0.00  -0.02    -0.01   0.02   0.03
  58   1     0.04   0.05  -0.00     0.03  -0.00  -0.01    -0.00   0.02   0.04
  59   1     0.00   0.02   0.00     0.05   0.00   0.02    -0.03   0.01   0.00
  60   1     0.03   0.03  -0.00     0.06  -0.01   0.00    -0.02   0.04   0.02
  61   1     0.07   0.01   0.03     0.04  -0.01   0.04     0.01   0.00   0.05
  62   1     0.10  -0.03   0.05     0.03   0.00   0.04     0.03  -0.02   0.07
  63   1     0.08  -0.06   0.03     0.03   0.02   0.03     0.02  -0.03   0.04
  64   1    -0.01  -0.00  -0.03     0.05   0.01   0.01    -0.04   0.02  -0.02
  65   1    -0.03  -0.03  -0.05     0.06   0.03  -0.00    -0.05   0.00  -0.04
  66   1    -0.03  -0.07  -0.05     0.05   0.05  -0.02    -0.05  -0.02  -0.04
  67   1     0.01  -0.09  -0.03     0.04   0.06  -0.02    -0.02  -0.04  -0.01
  68   1     0.05  -0.08  -0.00     0.03   0.04  -0.00    -0.00  -0.04   0.01
  69   1    -0.01  -0.01   0.02    -0.01  -0.03   0.03     0.01  -0.01   0.00
  70   1    -0.01  -0.01   0.03    -0.01  -0.02   0.01     0.01  -0.01  -0.00
  71   1    -0.02   0.01  -0.00    -0.02  -0.01  -0.00     0.02   0.03  -0.01
  72   1    -0.01   0.02  -0.01    -0.02  -0.01  -0.00     0.02   0.03  -0.03
  73   1    -0.01   0.01  -0.01    -0.02  -0.01   0.00    -0.00   0.01  -0.06
  74   1    -0.00   0.01  -0.00    -0.02  -0.01   0.00    -0.02  -0.01  -0.06
  75   1    -0.00   0.01   0.00    -0.01  -0.01   0.00    -0.01  -0.01  -0.03
  76   1    -0.03   0.03  -0.00    -0.01  -0.01  -0.00     0.05  -0.02   0.02
  77   1    -0.03   0.03  -0.02    -0.00  -0.02   0.01     0.06  -0.03   0.08
  78   1    -0.02   0.03  -0.04    -0.01  -0.01   0.03     0.04  -0.01   0.13
  79   1    -0.00   0.02  -0.04    -0.02  -0.01   0.02    -0.01   0.01   0.11
  80   1     0.00   0.01  -0.02    -0.03  -0.00   0.01    -0.02   0.01   0.05
  81   1    -0.01   0.01  -0.01    -0.02   0.02  -0.02    -0.00   0.02   0.02
  82   1    -0.02   0.02   0.00    -0.04   0.02  -0.05    -0.01   0.02   0.00
                      4                      5                      6
                        a                      a                      a 
 Frequencies --    25.9863                28.2464                30.5512
 Red. masses --    11.0744                11.1702                10.1708
 Frc consts  --     0.0000                 0.0000                 0.0000
 IR Inten    --     0.2584                 0.1202                 0.1521
 Raman Activ --     0.0000                 0.0000                 0.0000
 Depolar     --     0.0000                 0.0000                 0.0000
 Atom AN      X      Y      Z        X      Y      Z        X      Y      Z
   1   6    -0.23   0.02  -0.04    -0.03  -0.00   0.11    -0.13   0.10   0.12
   2   6    -0.23  -0.06  -0.01    -0.02  -0.00   0.07    -0.18   0.06   0.38
   3   6    -0.15  -0.09   0.01    -0.02  -0.00   0.03    -0.11   0.03   0.32
   4   6    -0.08  -0.05  -0.02    -0.02  -0.00   0.02    -0.01   0.04  -0.02
   5   6    -0.02  -0.08  -0.01    -0.02  -0.00  -0.01     0.03   0.03  -0.05
   6   7    -0.01  -0.13   0.01    -0.02  -0.00  -0.02     0.03   0.03  -0.05
   7   6     0.02  -0.13   0.01    -0.03  -0.00  -0.03     0.02   0.03  -0.04
   8   6     0.02  -0.13   0.02    -0.03   0.01   0.01     0.02   0.03  -0.03
   9   6    -0.01  -0.12   0.03    -0.07  -0.02   0.09     0.03   0.02  -0.02
  10   6    -0.03  -0.06   0.00    -0.07  -0.01   0.17     0.03   0.01  -0.01
  11   6    -0.01   0.00  -0.04    -0.03   0.04   0.17     0.03   0.01  -0.01
  12   8    -0.04   0.10  -0.09    -0.04   0.05   0.30     0.04  -0.00   0.01
  13   6    -0.00   0.11  -0.05    -0.00   0.15   0.20     0.03  -0.01   0.02
  14   6     0.04   0.14   0.00     0.04   0.10   0.05     0.02  -0.01   0.02
  15   6    -0.01   0.20   0.02     0.05  -0.03   0.04     0.01  -0.02   0.02
  16   6    -0.05   0.19  -0.01     0.07  -0.11   0.07     0.00  -0.01   0.01
  17   6    -0.02   0.15  -0.02     0.04  -0.07  -0.02    -0.00  -0.01   0.00
  18   6     0.01   0.17  -0.07     0.00  -0.03  -0.14    -0.01  -0.01   0.01
  19   6     0.03   0.14  -0.09    -0.03   0.02  -0.24    -0.01  -0.00  -0.00
  20   6     0.03   0.09  -0.06    -0.02   0.02  -0.22    -0.01   0.01  -0.01
  21   6    -0.00   0.06  -0.00     0.02  -0.02  -0.11    -0.01   0.01  -0.02
  22   6    -0.03   0.09   0.02     0.04  -0.07  -0.01    -0.01   0.00  -0.01
  23   7    -0.06   0.06   0.08     0.08  -0.11   0.09    -0.00   0.01  -0.02
  24   6    -0.05   0.00   0.10     0.06  -0.07   0.04    -0.01   0.01  -0.03
  25   6    -0.07  -0.05   0.15     0.08  -0.08   0.08    -0.01   0.02  -0.04
  26   6    -0.05  -0.10   0.16     0.06  -0.04   0.00    -0.01   0.03  -0.05
  27   6    -0.02  -0.09   0.11     0.03   0.01  -0.10    -0.01   0.03  -0.05
  28   6    -0.00  -0.04   0.06     0.02   0.02  -0.14    -0.01   0.02  -0.04
  29   6    -0.02   0.00   0.05     0.03  -0.02  -0.07    -0.01   0.02  -0.03
  30   6     0.02  -0.02  -0.03     0.01   0.09   0.09     0.03   0.02  -0.02
  31   6     0.04  -0.08  -0.01     0.01   0.07   0.01     0.02   0.03  -0.03
  32   7     0.05  -0.11  -0.00    -0.03   0.00  -0.04     0.02   0.03  -0.04
  33   6     0.09  -0.10  -0.02    -0.02   0.01  -0.11     0.02   0.03  -0.02
  34   6     0.15  -0.07   0.00    -0.00   0.07  -0.13     0.02   0.01  -0.01
  35   6     0.21  -0.06  -0.00    -0.00   0.08  -0.21     0.03   0.01   0.02
  36   6     0.19  -0.09  -0.03    -0.02   0.02  -0.26     0.05   0.03   0.04
  37   6     0.12  -0.12  -0.05    -0.03  -0.04  -0.24     0.05   0.04   0.03
  38   6     0.07  -0.12  -0.04    -0.03  -0.05  -0.16     0.04   0.04   0.00
  39   6     0.02  -0.06  -0.01    -0.02   0.00  -0.02     0.02   0.03  -0.04
  40   6     0.03  -0.02  -0.01    -0.01   0.00   0.01     0.01  -0.04  -0.01
  41   6     0.01   0.01  -0.01     0.03   0.01   0.05     0.03  -0.21  -0.10
  42   6     0.03   0.07  -0.00     0.04   0.02   0.10     0.00  -0.31  -0.06
  43   6     0.07   0.10   0.01     0.02   0.01   0.12    -0.04  -0.25   0.06
  44   6     0.10   0.07   0.00    -0.02   0.00   0.08    -0.05  -0.09   0.16
  45   6     0.08   0.01  -0.00    -0.04  -0.00   0.03    -0.03   0.01   0.12
  46   6    -0.08   0.03  -0.06    -0.03  -0.01   0.06     0.05   0.08  -0.29
  47   6    -0.15   0.07  -0.07    -0.03  -0.01   0.11    -0.01   0.11  -0.22
  48   1    -0.08   0.01  -0.01    -0.01  -0.00   0.04    -0.05   0.03   0.05
  49   1    -0.08  -0.03   0.00    -0.01   0.00   0.02    -0.08   0.01   0.19
  50   1    -0.04  -0.04   0.01    -0.00   0.00  -0.00    -0.04  -0.00   0.15
  51   1    -0.01  -0.05   0.02    -0.03  -0.02   0.03     0.01   0.01  -0.01
  52   1    -0.02  -0.01   0.00    -0.03  -0.01   0.07     0.01   0.00  -0.00
  53   1    -0.01   0.04  -0.02    -0.01   0.05   0.08     0.01  -0.00   0.01
  54   1     0.00   0.02  -0.01     0.00   0.07   0.05     0.01  -0.00   0.00
  55   1     0.02   0.05   0.01     0.01   0.06   0.00     0.01  -0.01   0.01
  56   1     0.02   0.03  -0.01     0.02   0.02  -0.00     0.00  -0.00   0.00
  57   1    -0.01   0.07   0.01     0.02  -0.02   0.03     0.00  -0.01   0.01
  58   1     0.01   0.07   0.02     0.01  -0.02  -0.01    -0.00  -0.01   0.01
  59   1    -0.03   0.05  -0.01     0.03  -0.03   0.05     0.00  -0.00   0.00
  60   1    -0.02   0.07   0.00     0.02  -0.07   0.02    -0.00  -0.01   0.00
  61   1     0.01   0.06  -0.03    -0.00  -0.01  -0.04    -0.00  -0.00   0.00
  62   1     0.02   0.05  -0.04    -0.02   0.01  -0.09    -0.00  -0.00   0.00
  63   1     0.01   0.02  -0.02    -0.01   0.02  -0.09    -0.00   0.00  -0.01
  64   1    -0.02   0.02   0.03     0.03  -0.04   0.04    -0.00   0.00  -0.00
  65   1    -0.03  -0.01   0.05     0.03  -0.04   0.05    -0.00   0.01  -0.01
  66   1    -0.02  -0.04   0.06     0.02  -0.01   0.01    -0.00   0.01  -0.02
  67   1    -0.00  -0.04   0.04     0.01   0.01  -0.04    -0.00   0.01  -0.02
  68   1     0.01  -0.01   0.01    -0.00   0.02  -0.06    -0.00   0.01  -0.01
  69   1     0.01   0.01  -0.01     0.01   0.04   0.02     0.01   0.00  -0.00
  70   1     0.02  -0.03  -0.00     0.01   0.03  -0.01     0.01   0.01  -0.01
  71   1     0.05  -0.01   0.01     0.00   0.03  -0.02     0.00  -0.00  -0.01
  72   1     0.08  -0.01   0.00     0.00   0.04  -0.07     0.01  -0.00   0.01
  73   1     0.07  -0.02  -0.01    -0.01   0.01  -0.09     0.02   0.01   0.02
  74   1     0.03  -0.04  -0.02    -0.01  -0.03  -0.08     0.02   0.02   0.01
  75   1     0.01  -0.04  -0.02    -0.01  -0.03  -0.04     0.01   0.02  -0.00
  76   1    -0.01  -0.00  -0.00     0.01   0.00   0.01     0.02  -0.07  -0.06
  77   1     0.00   0.03  -0.00     0.02   0.01   0.04     0.01  -0.13  -0.04
  78   1     0.03   0.04   0.00     0.01   0.01   0.05    -0.02  -0.10   0.03
  79   1     0.04   0.03   0.00    -0.01  -0.00   0.03    -0.02  -0.01   0.07
  80   1     0.03  -0.00  -0.00    -0.02  -0.00   0.00    -0.01   0.04   0.05
  81   1    -0.01   0.02  -0.02    -0.01  -0.00   0.02     0.04   0.03  -0.16
  82   1    -0.04   0.04  -0.03    -0.01  -0.00   0.04     0.01   0.04  -0.12
                      7                      8                      9
                        a                      a                      a 
 Frequencies --    43.1469                47.2851                51.4626
 Red. masses --    10.9836                10.7123                10.9307
 Frc consts  --     0.0000                 0.0000                 0.0000
 IR Inten    --     0.8375                 0.2262                 0.2088
 Raman Activ --     0.0000                 0.0000                 0.0000
 Depolar     --     0.0000                 0.0000                 0.0000
 Atom AN      X      Y      Z        X      Y      Z        X      Y      Z
   1   6    -0.04  -0.04   0.25    -0.14   0.10  -0.01    -0.01   0.01   0.10
   2   6    -0.02  -0.02   0.10    -0.14   0.02   0.02    -0.01   0.01   0.09
   3   6    -0.01  -0.02  -0.05    -0.06  -0.02   0.04     0.00   0.01   0.00
   4   6    -0.02  -0.03  -0.06     0.02   0.02   0.01     0.01   0.00  -0.08
   5   6    -0.02  -0.02  -0.15     0.07  -0.01   0.03     0.01   0.00  -0.14
   6   7    -0.03  -0.02  -0.20     0.08  -0.01   0.05     0.01   0.01  -0.18
   7   6    -0.02  -0.02  -0.17     0.08  -0.01   0.05    -0.00   0.02  -0.16
   8   6    -0.01  -0.03  -0.13     0.09  -0.03   0.04    -0.01   0.05  -0.15
   9   6    -0.04  -0.04  -0.09     0.08   0.04  -0.06    -0.03  -0.02  -0.04
  10   6    -0.03  -0.05  -0.03     0.09   0.03  -0.08    -0.03  -0.00   0.02
  11   6     0.00  -0.05   0.01     0.09  -0.05  -0.00    -0.02   0.07  -0.04
  12   8    -0.01  -0.05   0.09     0.11  -0.05  -0.02    -0.02   0.06   0.03
  13   6     0.04  -0.00   0.10     0.10  -0.06   0.00    -0.01   0.06   0.03
  14   6     0.07   0.01   0.12     0.13  -0.04   0.04    -0.08   0.02  -0.03
  15   6     0.05   0.03   0.13     0.05  -0.00   0.07    -0.04  -0.06  -0.05
  16   6     0.02   0.03   0.11    -0.01   0.01   0.01     0.00  -0.05  -0.01
  17   6     0.02   0.03   0.06    -0.01   0.02  -0.04     0.00  -0.06   0.03
  18   6     0.04   0.03   0.06    -0.02   0.03  -0.07    -0.01  -0.07   0.06
  19   6     0.04   0.04  -0.01    -0.02   0.04  -0.11    -0.00  -0.08   0.14
  20   6     0.02   0.06  -0.09    -0.02   0.04  -0.11     0.01  -0.08   0.18
  21   6    -0.00   0.05  -0.08    -0.02   0.02  -0.07     0.02  -0.06   0.13
  22   6     0.00   0.04  -0.01    -0.02   0.02  -0.06     0.02  -0.05   0.06
  23   7    -0.02   0.04  -0.02    -0.02   0.01  -0.04     0.03  -0.04   0.05
  24   6    -0.04   0.04  -0.08    -0.02   0.00  -0.03     0.04  -0.04   0.10
  25   6    -0.06   0.03  -0.09    -0.01  -0.02   0.01     0.07  -0.03   0.13
  26   6    -0.06   0.03  -0.15    -0.00  -0.03   0.05     0.08  -0.04   0.21
  27   6    -0.05   0.04  -0.21     0.00  -0.03   0.04     0.06  -0.05   0.24
  28   6    -0.03   0.05  -0.20    -0.01  -0.01  -0.00     0.04  -0.05   0.20
  29   6    -0.02   0.05  -0.13    -0.01   0.01  -0.04     0.03  -0.05   0.15
  30   6     0.03  -0.04  -0.01     0.10  -0.12   0.10    -0.00   0.15  -0.16
  31   6     0.02  -0.03  -0.09     0.09  -0.11   0.12    -0.00   0.14  -0.22
  32   7    -0.02  -0.03  -0.14     0.09  -0.01   0.06    -0.00   0.01  -0.15
  33   6    -0.01  -0.04  -0.01    -0.00  -0.01   0.05    -0.02   0.00  -0.09
  34   6     0.00  -0.15   0.05    -0.05  -0.06   0.05     0.10  -0.07   0.00
  35   6     0.03  -0.16   0.19    -0.26  -0.07   0.01     0.04  -0.08   0.06
  36   6     0.03  -0.06   0.28    -0.43  -0.03  -0.04    -0.14  -0.02   0.02
  37   6     0.00   0.05   0.21    -0.36   0.02  -0.03    -0.25   0.05  -0.07
  38   6    -0.01   0.06   0.06    -0.14   0.02   0.02    -0.18   0.05  -0.12
  39   6    -0.01  -0.02  -0.12     0.08  -0.01   0.04     0.01  -0.00  -0.13
  40   6     0.01  -0.00  -0.06     0.08   0.00   0.02     0.02   0.01  -0.09
  41   6     0.05   0.03  -0.01     0.09   0.07   0.07     0.05   0.03  -0.06
  42   6     0.08   0.08   0.06     0.09   0.09   0.05     0.08   0.06  -0.00
  43   6     0.08   0.10   0.08     0.08   0.03  -0.02     0.08   0.08   0.03
  44   6     0.04   0.06   0.03     0.06  -0.04  -0.08     0.05   0.06  -0.01
  45   6     0.00   0.01  -0.04     0.06  -0.06  -0.06     0.02   0.02  -0.07
  46   6    -0.05  -0.05   0.09     0.02   0.11  -0.03     0.01  -0.00  -0.08
  47   6    -0.06  -0.05   0.24    -0.06   0.15  -0.04    -0.00  -0.00   0.01
  48   1    -0.02  -0.01   0.11    -0.06   0.04  -0.01    -0.01   0.00   0.05
  49   1    -0.00  -0.00   0.03    -0.06  -0.01   0.01    -0.01   0.00   0.05
  50   1     0.00  -0.00  -0.05    -0.02  -0.03   0.02     0.00   0.00   0.00
  51   1    -0.02  -0.01  -0.03     0.02   0.03  -0.04    -0.01  -0.02   0.00
  52   1    -0.02  -0.02  -0.00     0.02   0.02  -0.04    -0.01  -0.02   0.03
  53   1     0.00   0.01   0.04     0.03  -0.01  -0.01     0.00   0.01   0.03
  54   1     0.02  -0.01   0.03     0.03  -0.03   0.00     0.01   0.04   0.00
  55   1     0.03   0.01   0.04     0.05  -0.00   0.03    -0.04  -0.00  -0.02
  56   1     0.03  -0.00   0.03     0.05  -0.02   0.00    -0.04   0.02  -0.00
  57   1     0.01   0.01   0.04     0.01   0.00   0.03     0.00  -0.03  -0.01
  58   1     0.02   0.01   0.04     0.01   0.00   0.03    -0.02  -0.03  -0.03
  59   1     0.01   0.01   0.03     0.00   0.00  -0.00     0.00  -0.02  -0.00
  60   1     0.00   0.00   0.03    -0.02   0.00   0.01     0.01  -0.01  -0.01
  61   1     0.02   0.01   0.04    -0.00   0.01  -0.02    -0.01  -0.02   0.01
  62   1     0.02   0.01  -0.00    -0.01   0.02  -0.04    -0.00  -0.03   0.05
  63   1     0.00   0.02  -0.04    -0.01   0.01  -0.04     0.00  -0.03   0.07
  64   1    -0.01   0.01   0.01    -0.01   0.00  -0.01     0.01  -0.01   0.00
  65   1    -0.02   0.01  -0.02    -0.00  -0.01   0.01     0.02  -0.01   0.03
  66   1    -0.02   0.01  -0.04     0.00  -0.02   0.02     0.03  -0.01   0.07
  67   1    -0.02   0.01  -0.07     0.00  -0.02   0.02     0.02  -0.01   0.08
  68   1    -0.01   0.02  -0.07    -0.00  -0.00  -0.00     0.01  -0.01   0.07
  69   1     0.02  -0.02   0.01     0.03  -0.05   0.04     0.00   0.07  -0.06
  70   1     0.01  -0.01  -0.03     0.03  -0.05   0.06     0.00   0.06  -0.09
  71   1     0.00  -0.06  -0.01     0.02  -0.03   0.02     0.07  -0.03   0.01
  72   1     0.01  -0.07   0.07    -0.09  -0.03   0.00     0.04  -0.04   0.04
  73   1     0.01  -0.02   0.11    -0.18  -0.01  -0.02    -0.06  -0.01   0.02
  74   1     0.00   0.04   0.08    -0.14   0.01  -0.02    -0.11   0.03  -0.03
  75   1    -0.01   0.04   0.00    -0.03   0.02   0.01    -0.08   0.03  -0.05
  76   1     0.01   0.01  -0.01     0.03   0.03   0.04     0.02   0.01  -0.02
  77   1     0.03   0.03   0.03     0.03   0.04   0.03     0.03   0.02   0.01
  78   1     0.03   0.04   0.04     0.02   0.01  -0.01     0.03   0.03   0.02
  79   1     0.01   0.02   0.01     0.01  -0.03  -0.04     0.01   0.02   0.00
  80   1    -0.01  -0.01  -0.02     0.01  -0.03  -0.03    -0.00   0.00  -0.03
  81   1    -0.02  -0.02   0.02     0.02   0.04  -0.02     0.01  -0.00  -0.04
  82   1    -0.02  -0.02   0.10    -0.02   0.06  -0.02    -0.00  -0.00   0.00
                     10                     11                     12
                        a                      a                      a 
 Frequencies --    55.9562                64.1819                71.6615
 Red. masses --    10.2149                10.4464                10.7969
 Frc consts  --     0.0000                 0.0000                 0.0000
 IR Inten    --     0.0964                 0.1340                 0.2168
 Raman Activ --     0.0000                 0.0000                 0.0000
 Depolar     --     0.0000                 0.0000                 0.0000
 Atom AN      X      Y      Z        X      Y      Z        X      Y      Z
   1   6     0.18  -0.11  -0.09    -0.04   0.07   0.10    -0.11   0.03  -0.06
   2   6     0.14  -0.02   0.06     0.01   0.07  -0.11    -0.11  -0.05  -0.05
   3   6     0.06   0.02   0.11     0.00   0.07  -0.17    -0.04  -0.09   0.01
   4   6     0.00  -0.03   0.02    -0.03   0.08  -0.02     0.02  -0.04   0.06
   5   6    -0.05  -0.00   0.03    -0.03   0.07  -0.03     0.06  -0.06   0.10
   6   7    -0.05  -0.00   0.06    -0.04   0.07  -0.07     0.06  -0.05   0.09
   7   6    -0.05   0.00   0.03    -0.02   0.06  -0.06     0.03  -0.03   0.06
   8   6    -0.04  -0.02   0.03    -0.00   0.02  -0.05     0.01   0.03   0.03
   9   6    -0.05   0.04  -0.07     0.02   0.04  -0.08    -0.05   0.08  -0.01
  10   6    -0.04   0.01  -0.07     0.03  -0.01  -0.07    -0.06   0.13  -0.00
  11   6    -0.03  -0.08   0.03     0.03  -0.07  -0.01    -0.02   0.13   0.05
  12   8    -0.03  -0.10   0.02     0.04  -0.10  -0.01    -0.02   0.14   0.14
  13   6    -0.03  -0.07   0.01     0.04  -0.09   0.00    -0.00   0.15   0.11
  14   6     0.06  -0.04   0.03     0.09  -0.06   0.06    -0.04   0.09  -0.01
  15   6     0.04   0.01   0.04     0.05   0.01   0.07    -0.02  -0.06  -0.02
  16   6     0.02   0.01   0.02     0.01   0.03   0.04    -0.01  -0.10  -0.00
  17   6     0.01   0.02  -0.01     0.01   0.04   0.01    -0.02  -0.08  -0.03
  18   6     0.01   0.03  -0.01     0.02   0.04  -0.01    -0.03  -0.10   0.03
  19   6     0.01   0.04  -0.06     0.02   0.05  -0.05    -0.04  -0.10   0.09
  20   6     0.00   0.05  -0.08     0.01   0.04  -0.07    -0.04  -0.07   0.07
  21   6     0.00   0.04  -0.06     0.01   0.03  -0.04    -0.03  -0.03  -0.02
  22   6     0.00   0.03  -0.04     0.01   0.03  -0.01    -0.03  -0.03  -0.08
  23   7    -0.00   0.03  -0.04    -0.00   0.02   0.01    -0.02   0.02  -0.19
  24   6     0.00   0.02  -0.03     0.00  -0.01   0.03    -0.02   0.05  -0.17
  25   6     0.00  -0.00   0.01     0.01  -0.05   0.11     0.00   0.10  -0.23
  26   6     0.01  -0.02   0.04     0.02  -0.09   0.16     0.01   0.11  -0.17
  27   6     0.01  -0.01   0.01     0.03  -0.08   0.12    -0.01   0.08  -0.07
  28   6     0.01   0.01  -0.03     0.02  -0.03   0.04    -0.02   0.04  -0.02
  29   6     0.00   0.03  -0.05     0.01   0.00  -0.00    -0.03   0.02  -0.07
  30   6    -0.02  -0.15   0.13     0.02  -0.10   0.05     0.02   0.13   0.03
  31   6    -0.03  -0.12   0.13     0.00  -0.05   0.02     0.04   0.07   0.03
  32   7    -0.06   0.00  -0.01    -0.00   0.07  -0.03     0.03  -0.06   0.08
  33   6    -0.04   0.01  -0.01     0.01   0.07  -0.02     0.02  -0.05   0.04
  34   6     0.17   0.01   0.09     0.17   0.07   0.06     0.21  -0.03   0.13
  35   6     0.21   0.01   0.11     0.23   0.08   0.08     0.28  -0.03   0.14
  36   6     0.01   0.01   0.01     0.10   0.07   0.01     0.12  -0.05   0.05
  37   6    -0.22   0.00  -0.10    -0.08   0.06  -0.08    -0.12  -0.07  -0.06
  38   6    -0.24  -0.00  -0.11    -0.12   0.06  -0.09    -0.16  -0.07  -0.06
  39   6    -0.06   0.01  -0.01    -0.01   0.07   0.00     0.05  -0.06   0.10
  40   6    -0.05   0.04  -0.02    -0.02   0.03   0.02     0.04  -0.05   0.06
  41   6    -0.13  -0.04  -0.13     0.01  -0.04  -0.01     0.01   0.00   0.07
  42   6    -0.10   0.02  -0.10    -0.06  -0.21  -0.09    -0.02   0.01  -0.01
  43   6     0.01   0.17   0.05    -0.17  -0.30  -0.15    -0.00  -0.04  -0.11
  44   6     0.08   0.25   0.15    -0.18  -0.20  -0.09     0.04  -0.09  -0.11
  45   6     0.05   0.18   0.11    -0.10  -0.03  -0.01     0.07  -0.09  -0.02
  46   6     0.04  -0.11  -0.10    -0.07   0.07   0.17     0.02   0.04   0.06
  47   6     0.13  -0.15  -0.16    -0.08   0.07   0.24    -0.05   0.08  -0.00
  48   1     0.07  -0.04  -0.04    -0.01   0.02   0.05    -0.05   0.02  -0.03
  49   1     0.05   0.01   0.04     0.01   0.02  -0.07    -0.04  -0.03  -0.03
  50   1     0.01   0.03   0.06     0.01   0.02  -0.09    -0.01  -0.04   0.00
  51   1    -0.01   0.04  -0.04     0.01   0.03  -0.04    -0.02   0.02  -0.01
  52   1    -0.01   0.02  -0.04     0.01   0.00  -0.03    -0.03   0.05  -0.00
  53   1    -0.01  -0.01  -0.01     0.01  -0.02  -0.01     0.00   0.04   0.06
  54   1    -0.02  -0.04   0.01     0.00  -0.04   0.00     0.01   0.07   0.03
  55   1     0.03   0.00   0.01     0.04  -0.01   0.03    -0.02   0.04  -0.02
  56   1     0.03  -0.03   0.01     0.03  -0.03   0.01    -0.02   0.03  -0.01
  57   1     0.00   0.01   0.01     0.01   0.01   0.02     0.01  -0.03   0.01
  58   1     0.02   0.01   0.02     0.02   0.01   0.04    -0.02  -0.03  -0.03
  59   1     0.01   0.00   0.01     0.01   0.01   0.00     0.01  -0.03   0.01
  60   1     0.00  -0.00   0.01    -0.00   0.01   0.02    -0.00  -0.05  -0.00
  61   1     0.01   0.00   0.01     0.01   0.01   0.01    -0.01  -0.04   0.01
  62   1     0.00   0.01  -0.02     0.01   0.02  -0.02    -0.01  -0.04   0.04
  63   1    -0.00   0.02  -0.03     0.00   0.01  -0.03    -0.01  -0.02   0.04
  64   1     0.00   0.01  -0.00    -0.00   0.00   0.01    -0.00   0.01  -0.07
  65   1     0.00  -0.00   0.01    -0.00  -0.02   0.04     0.00   0.03  -0.09
  66   1     0.01  -0.01   0.03     0.01  -0.04   0.07     0.01   0.04  -0.05
  67   1     0.00  -0.01   0.01     0.01  -0.03   0.05    -0.00   0.03  -0.01
  68   1     0.00   0.01  -0.01     0.01  -0.01   0.00    -0.01   0.00   0.02
  69   1    -0.00  -0.07   0.06     0.01  -0.05   0.03     0.01   0.05   0.01
  70   1    -0.01  -0.05   0.06    -0.00  -0.02   0.02     0.02   0.01   0.01
  71   1     0.09   0.00   0.04     0.08   0.02   0.03     0.09  -0.01   0.05
  72   1     0.11   0.00   0.06     0.11   0.02   0.04     0.13  -0.00   0.06
  73   1     0.01   0.00   0.01     0.04   0.02   0.01     0.05  -0.01   0.02
  74   1    -0.11  -0.00  -0.05    -0.05   0.02  -0.04    -0.08  -0.02  -0.04
  75   1    -0.12  -0.00  -0.05    -0.07   0.02  -0.04    -0.09  -0.03  -0.04
  76   1    -0.06  -0.04  -0.06     0.02   0.01   0.01    -0.00   0.01   0.04
  77   1    -0.05  -0.01  -0.05    -0.01  -0.08  -0.04    -0.01   0.02  -0.00
  78   1     0.01   0.07   0.02    -0.07  -0.13  -0.07    -0.01  -0.01  -0.05
  79   1     0.05   0.11   0.07    -0.07  -0.08  -0.04     0.02  -0.04  -0.05
  80   1     0.03   0.07   0.05    -0.03   0.01   0.01     0.03  -0.04  -0.01
  81   1     0.00  -0.04  -0.05    -0.03   0.02   0.07     0.02   0.02   0.03
  82   1     0.05  -0.06  -0.08    -0.03   0.02   0.11    -0.02   0.04  -0.00
                     13                     14                     15
                        a                      a                      a 
 Frequencies --    81.2466                86.6427               104.2151
 Red. masses --    10.2443                10.2717                11.0039
 Frc consts  --     0.0000                 0.0000                 0.0000
 IR Inten    --     0.2438                 0.3743                 0.3277
 Raman Activ --     0.0000                 0.0000                 0.0000
 Depolar     --     0.0000                 0.0000                 0.0000
 Atom AN      X      Y      Z        X      Y      Z        X      Y      Z
   1   6    -0.07   0.03   0.09     0.06   0.00  -0.15    -0.00   0.01   0.11
   2   6    -0.03  -0.00  -0.08     0.02   0.00   0.05     0.01   0.02   0.02
   3   6     0.00  -0.02  -0.11    -0.00   0.00   0.17     0.02   0.02  -0.09
   4   6     0.01   0.00   0.00     0.02   0.00   0.10     0.02   0.01  -0.12
   5   6     0.03  -0.01   0.02     0.01   0.00   0.11     0.01   0.01  -0.11
   6   7     0.02  -0.02  -0.02    -0.00   0.02   0.04     0.04   0.01   0.05
   7   6     0.04  -0.02   0.03    -0.02   0.02  -0.01     0.03   0.00   0.10
   8   6     0.04  -0.01  -0.00    -0.03   0.03  -0.08     0.04  -0.02   0.19
   9   6     0.06  -0.07   0.07     0.01  -0.04   0.01     0.04   0.04   0.10
  10   6     0.05  -0.05   0.05     0.02  -0.07   0.00     0.04   0.05   0.03
  11   6     0.02   0.03  -0.07    -0.02  -0.02  -0.09     0.02   0.03   0.03
  12   8     0.03   0.04  -0.11    -0.01  -0.06  -0.11     0.01   0.11  -0.17
  13   6     0.01  -0.02  -0.05    -0.03  -0.12  -0.05    -0.06   0.03  -0.17
  14   6    -0.09  -0.02  -0.00    -0.11  -0.10   0.06    -0.06   0.04  -0.12
  15   6    -0.03   0.00  -0.02    -0.02   0.00   0.03    -0.08   0.08  -0.11
  16   6     0.01   0.02   0.02     0.04   0.03   0.09    -0.08   0.04  -0.10
  17   6     0.02  -0.01   0.08     0.05   0.01   0.13    -0.03  -0.03  -0.00
  18   6     0.02  -0.00   0.07     0.06   0.02   0.11    -0.04  -0.01  -0.08
  19   6     0.02   0.00   0.04     0.05   0.05  -0.01    -0.03  -0.03   0.00
  20   6     0.01   0.01  -0.00     0.03   0.07  -0.11    -0.01  -0.07   0.10
  21   6     0.01   0.00   0.02     0.02   0.04  -0.04    -0.00  -0.08   0.15
  22   6     0.02  -0.02   0.09     0.03   0.00   0.10     0.01  -0.10   0.15
  23   7     0.02  -0.04   0.14     0.02  -0.04   0.19     0.04  -0.13   0.24
  24   6     0.01  -0.02   0.07     0.00  -0.03   0.09     0.02  -0.08   0.15
  25   6    -0.01  -0.03   0.06    -0.02  -0.08   0.14     0.02  -0.03   0.07
  26   6    -0.03   0.02  -0.08    -0.04  -0.05  -0.01    -0.03   0.08  -0.15
  27   6    -0.04   0.06  -0.20    -0.05   0.01  -0.20    -0.06   0.13  -0.24
  28   6    -0.03   0.06  -0.16    -0.02   0.05  -0.23    -0.05   0.05  -0.09
  29   6    -0.00   0.01  -0.02    -0.00   0.02  -0.07    -0.00  -0.05   0.11
  30   6    -0.00   0.10  -0.16    -0.07   0.07  -0.19     0.02  -0.07   0.18
  31   6     0.00   0.08  -0.12    -0.07   0.10  -0.19     0.04  -0.10   0.27
  32   7     0.08  -0.03   0.13    -0.01   0.01   0.03     0.00   0.01  -0.04
  33   6     0.06  -0.02   0.09    -0.01   0.01   0.02    -0.01   0.01  -0.02
  34   6     0.05   0.01   0.07     0.09   0.03   0.06     0.08  -0.00   0.02
  35   6    -0.07   0.01  -0.02     0.12   0.03   0.06     0.11  -0.01   0.07
  36   6    -0.18  -0.02  -0.09     0.03   0.02   0.01     0.03   0.01   0.04
  37   6    -0.14  -0.05  -0.06    -0.09   0.00  -0.04    -0.09   0.02  -0.03
  38   6    -0.01  -0.05   0.03    -0.10   0.00  -0.03    -0.09   0.02  -0.05
  39   6     0.06  -0.01   0.11     0.01   0.00   0.10    -0.01   0.01  -0.16
  40   6     0.06   0.00   0.07     0.00   0.00   0.09    -0.01  -0.00  -0.14
  41   6    -0.11  -0.15  -0.13     0.04   0.13   0.19     0.09   0.01  -0.07
  42   6    -0.14  -0.17  -0.24     0.03   0.14   0.15     0.12   0.00   0.05
  43   6    -0.01  -0.01  -0.12    -0.03  -0.01  -0.03     0.05  -0.03   0.08
  44   6     0.16   0.16   0.11    -0.07  -0.15  -0.15    -0.06  -0.05  -0.01
  45   6     0.19   0.16   0.19    -0.05  -0.13  -0.08    -0.08  -0.03  -0.12
  46   6    -0.02   0.03   0.12     0.05   0.01  -0.05     0.01   0.00  -0.06
  47   6    -0.06   0.05   0.18     0.07   0.00  -0.19    -0.00   0.00   0.05
  48   1    -0.03   0.01   0.04     0.02  -0.00  -0.08    -0.00   0.00   0.06
  49   1    -0.01  -0.01  -0.05     0.00  -0.00   0.03     0.00   0.01   0.01
  50   1     0.01  -0.01  -0.06    -0.01   0.00   0.09     0.01   0.01  -0.04
  51   1     0.02  -0.04   0.04     0.01  -0.03   0.02     0.01   0.03   0.02
  52   1     0.02  -0.03   0.03     0.02  -0.04   0.02     0.01   0.03  -0.01
  53   1     0.01  -0.02  -0.01    -0.00  -0.04  -0.02    -0.01   0.00  -0.07
  54   1     0.01  -0.01  -0.02    -0.00  -0.05  -0.01    -0.04  -0.01  -0.04
  55   1    -0.04  -0.04  -0.00    -0.05  -0.07   0.02    -0.01   0.01  -0.03
  56   1    -0.04   0.02   0.02    -0.05  -0.01   0.05    -0.01   0.01  -0.03
  57   1    -0.01   0.00  -0.02    -0.01   0.01  -0.02    -0.03   0.03  -0.03
  58   1    -0.01   0.00  -0.01     0.00   0.01   0.02    -0.01   0.03  -0.03
  59   1    -0.00   0.00   0.00     0.00   0.01   0.02    -0.05   0.00  -0.04
  60   1     0.01   0.02   0.00     0.03   0.02   0.02    -0.01   0.04  -0.03
  61   1     0.01   0.00   0.02     0.02   0.01   0.04    -0.02   0.01  -0.06
  62   1     0.01   0.00   0.01     0.02   0.02  -0.01    -0.01  -0.00  -0.01
  63   1     0.00   0.01  -0.01     0.00   0.03  -0.07    -0.00  -0.02   0.03
  64   1     0.01  -0.02   0.06     0.01  -0.02   0.09     0.01  -0.04   0.06
  65   1     0.00  -0.02   0.04    -0.00  -0.04   0.08     0.01  -0.02   0.03
  66   1    -0.01   0.00  -0.03    -0.02  -0.03   0.01    -0.01   0.04  -0.07
  67   1    -0.02   0.03  -0.09    -0.02   0.01  -0.09    -0.03   0.06  -0.12
  68   1    -0.01   0.03  -0.07    -0.01   0.03  -0.11    -0.02   0.02  -0.05
  69   1    -0.01   0.05  -0.07    -0.03   0.03  -0.07     0.00  -0.03   0.05
  70   1    -0.00   0.04  -0.06    -0.03   0.05  -0.07     0.01  -0.05   0.11
  71   1     0.03   0.01   0.03     0.04   0.01   0.03     0.03  -0.01   0.01
  72   1    -0.02   0.01  -0.01     0.06   0.01   0.03     0.06  -0.01   0.03
  73   1    -0.08  -0.01  -0.05     0.02   0.01   0.00     0.02   0.00   0.02
  74   1    -0.06  -0.02  -0.03    -0.05  -0.00  -0.02    -0.05   0.01  -0.02
  75   1    -0.00  -0.02   0.01    -0.05  -0.00  -0.02    -0.05   0.01  -0.03
  76   1    -0.06  -0.08  -0.06     0.02   0.06   0.09     0.04   0.01  -0.03
  77   1    -0.08  -0.09  -0.12     0.02   0.07   0.07     0.06   0.01   0.03
  78   1    -0.01  -0.01  -0.06    -0.01  -0.00  -0.02     0.02  -0.01   0.05
  79   1     0.08   0.08   0.06    -0.03  -0.08  -0.08    -0.04  -0.02   0.00
  80   1     0.09   0.08   0.10    -0.02  -0.07  -0.04    -0.04  -0.01  -0.05
  81   1    -0.01   0.01   0.05     0.02   0.00  -0.02     0.00  -0.00  -0.03
  82   1    -0.03   0.02   0.08     0.03   0.00  -0.10    -0.00  -0.00   0.03
                     16                     17                     18
                        a                      a                      a 
 Frequencies --   116.3398               124.7385               131.2809
 Red. masses --    10.4396                11.0368                11.1333
 Frc consts  --     0.0000                 0.0000                 0.0000
 IR Inten    --     1.3070                 0.4469                 2.2021
 Raman Activ --     0.0000                 0.0000                 0.0000
 Depolar     --     0.0000                 0.0000                 0.0000
 Atom AN      X      Y      Z        X      Y      Z        X      Y      Z
   1   6     0.07  -0.01  -0.15    -0.05   0.01  -0.11     0.03  -0.02   0.13
   2   6     0.04   0.03  -0.03    -0.05  -0.05  -0.07     0.04   0.03   0.10
   3   6    -0.03   0.05   0.13    -0.02  -0.07   0.07     0.01   0.05  -0.09
   4   6    -0.06   0.03   0.16     0.02  -0.03   0.16    -0.02   0.01  -0.21
   5   6    -0.06   0.03   0.12     0.03  -0.04   0.15    -0.04   0.02  -0.19
   6   7    -0.08  -0.03   0.00     0.04  -0.03   0.16    -0.07   0.07  -0.33
   7   6    -0.01  -0.04  -0.11    -0.00  -0.00  -0.02    -0.03   0.03  -0.07
   8   6     0.01  -0.10  -0.14    -0.02   0.04  -0.09    -0.03   0.02  -0.07
   9   6    -0.00  -0.16  -0.04    -0.06   0.17  -0.26    -0.03   0.06  -0.13
  10   6    -0.00  -0.16   0.02    -0.08   0.23  -0.31    -0.03   0.07  -0.16
  11   6     0.02  -0.10  -0.01    -0.03   0.12  -0.16    -0.02   0.01  -0.08
  12   8    -0.01  -0.04   0.06    -0.04   0.15  -0.16    -0.03   0.05  -0.08
  13   6     0.09   0.11   0.05     0.03   0.05   0.03     0.04   0.05   0.02
  14   6     0.22   0.12   0.00    -0.03   0.07   0.13     0.11   0.10   0.09
  15   6     0.04   0.09   0.07    -0.02   0.08   0.13     0.01   0.14   0.13
  16   6    -0.08   0.05  -0.05    -0.04  -0.05   0.13    -0.09   0.02   0.05
  17   6    -0.03   0.00  -0.08     0.02  -0.12   0.07    -0.02  -0.07  -0.01
  18   6    -0.06   0.06  -0.22     0.01  -0.10   0.03    -0.00  -0.05  -0.04
  19   6    -0.04   0.02  -0.12    -0.01  -0.06  -0.04    -0.00  -0.06  -0.01
  20   6     0.00  -0.07   0.11    -0.02  -0.05  -0.07    -0.01  -0.08   0.02
  21   6     0.01  -0.10   0.19    -0.02  -0.07  -0.01    -0.03  -0.08   0.02
  22   6     0.00  -0.07   0.09     0.01  -0.12   0.05    -0.01  -0.10   0.01
  23   7     0.02  -0.08   0.11     0.06  -0.13   0.08     0.03  -0.10   0.01
  24   6     0.02  -0.05   0.07     0.06  -0.08   0.07     0.04  -0.06   0.02
  25   6    -0.01   0.06  -0.14     0.13  -0.06   0.12     0.10  -0.01   0.03
  26   6    -0.03   0.13  -0.23     0.11   0.02   0.09     0.09   0.06   0.02
  27   6    -0.02   0.07  -0.08     0.04   0.08   0.00     0.02   0.10   0.01
  28   6     0.00  -0.04   0.14    -0.02   0.05  -0.03    -0.03   0.05   0.01
  29   6     0.02  -0.09   0.19     0.00  -0.03  -0.00    -0.01  -0.04   0.02
  30   6     0.04  -0.06  -0.08     0.01  -0.01  -0.01    -0.00  -0.06   0.00
  31   6     0.03  -0.06  -0.15     0.02  -0.05   0.03    -0.01  -0.04  -0.00
  32   7     0.04   0.03  -0.08    -0.04   0.01  -0.15     0.00  -0.03   0.25
  33   6     0.05   0.03  -0.05    -0.05   0.01  -0.13    -0.00  -0.03   0.20
  34   6     0.06  -0.03  -0.02    -0.09  -0.05  -0.12    -0.02   0.09   0.13
  35   6     0.00  -0.04   0.03    -0.06  -0.06  -0.02    -0.00   0.11  -0.02
  36   6    -0.07   0.02   0.04     0.05  -0.00   0.07     0.03   0.00  -0.09
  37   6    -0.07   0.07   0.02     0.09   0.06   0.06     0.04  -0.12  -0.03
  38   6     0.00   0.08  -0.03     0.02   0.06  -0.05     0.01  -0.13   0.12
  39   6     0.01   0.07   0.07    -0.01  -0.01  -0.02     0.00  -0.04   0.15
  40   6     0.02   0.09   0.09    -0.01  -0.01  -0.03    -0.00  -0.04   0.16
  41   6     0.00   0.06   0.06    -0.02  -0.05  -0.06    -0.07   0.03   0.15
  42   6    -0.04  -0.02  -0.01    -0.02  -0.05  -0.04    -0.09   0.09   0.05
  43   6    -0.07  -0.06  -0.05     0.01   0.01   0.02    -0.03   0.05  -0.06
  44   6    -0.04  -0.01  -0.00     0.02   0.04   0.05     0.04  -0.03  -0.06
  45   6     0.00   0.07   0.07     0.01   0.03   0.02     0.05  -0.07   0.05
  46   6    -0.05  -0.00   0.11     0.02   0.02   0.15    -0.01  -0.04  -0.20
  47   6     0.02  -0.03  -0.05    -0.02   0.05   0.02     0.02  -0.07  -0.05
  48   1     0.04  -0.01  -0.09    -0.02   0.01  -0.07     0.01  -0.01   0.08
  49   1     0.02   0.01  -0.02    -0.02  -0.02  -0.05     0.01   0.02   0.07
  50   1    -0.01   0.02   0.06    -0.00  -0.04   0.03     0.00   0.03  -0.03
  51   1    -0.01  -0.06  -0.01    -0.02   0.07  -0.09    -0.01   0.03  -0.04
  52   1    -0.00  -0.06   0.03    -0.03   0.09  -0.12    -0.01   0.03  -0.06
  53   1     0.01   0.06   0.04     0.01   0.01   0.02    -0.00   0.03   0.00
  54   1     0.04   0.04   0.01     0.04  -0.01   0.00     0.03  -0.01   0.00
  55   1     0.10   0.08   0.02    -0.01   0.00   0.04     0.06   0.04   0.05
  56   1     0.09   0.01  -0.05    -0.01   0.03   0.05     0.05   0.01   0.01
  57   1     0.00   0.03   0.05    -0.02   0.04   0.05    -0.02   0.06   0.06
  58   1     0.01   0.03   0.03     0.01   0.03   0.03     0.02   0.05   0.05
  59   1    -0.03   0.01  -0.03    -0.04  -0.02   0.04    -0.05  -0.00   0.00
  60   1    -0.05   0.03  -0.00    -0.02  -0.01   0.04    -0.05   0.02   0.02
  61   1    -0.03   0.03  -0.12     0.00  -0.03   0.01    -0.00  -0.01  -0.02
  62   1    -0.02   0.02  -0.07    -0.01  -0.01  -0.02    -0.00  -0.02  -0.01
  63   1     0.01  -0.03   0.06    -0.01  -0.01  -0.04     0.00  -0.03   0.01
  64   1     0.00  -0.01  -0.01     0.03  -0.05   0.04     0.01  -0.03   0.00
  65   1    -0.00   0.03  -0.07     0.06  -0.03   0.05     0.05  -0.01   0.01
  66   1    -0.02   0.06  -0.12     0.04   0.01   0.03     0.04   0.03   0.01
  67   1    -0.01   0.04  -0.04     0.01   0.04  -0.01     0.00   0.05  -0.00
  68   1     0.00  -0.02   0.07    -0.02   0.03  -0.02    -0.03   0.02   0.00
  69   1     0.02  -0.01  -0.02     0.01  -0.03   0.03     0.00  -0.03   0.02
  70   1     0.01  -0.01  -0.06     0.02  -0.04   0.05    -0.00  -0.02   0.02
  71   1     0.03  -0.02  -0.01    -0.04  -0.03  -0.05    -0.02   0.05   0.06
  72   1     0.00  -0.03   0.02    -0.03  -0.03  -0.01    -0.01   0.06  -0.02
  73   1    -0.04   0.00   0.02     0.03  -0.00   0.05     0.01   0.00  -0.06
  74   1    -0.03   0.03   0.01     0.05   0.03   0.04     0.02  -0.06  -0.03
  75   1     0.00   0.04  -0.02     0.01   0.03  -0.02     0.00  -0.07   0.05
  76   1     0.01   0.02   0.02    -0.01  -0.02  -0.03    -0.04   0.01   0.06
  77   1    -0.02  -0.01  -0.01    -0.01  -0.02  -0.02    -0.04   0.04   0.01
  78   1    -0.03  -0.04  -0.04     0.00   0.00   0.01    -0.01   0.02  -0.04
  79   1    -0.02  -0.01  -0.01     0.01   0.02   0.03     0.02  -0.02  -0.05
  80   1     0.00   0.03   0.03     0.00   0.01   0.01     0.03  -0.04   0.02
  81   1    -0.02  -0.00   0.05     0.01   0.01   0.06    -0.01  -0.02  -0.08
  82   1     0.01  -0.02  -0.03    -0.01   0.03   0.00     0.01  -0.03  -0.01
                     19                     20                     21
                        a                      a                      a 
 Frequencies --   134.2383               149.1984               154.9674
 Red. masses --    10.6974                10.4715                10.1486
 Frc consts  --     0.0000                 0.0000                 0.0000
 IR Inten    --     0.5381                 0.4513                 0.3978
 Raman Activ --     0.0000                 0.0000                 0.0000
 Depolar     --     0.0000                 0.0000                 0.0000
 Atom AN      X      Y      Z        X      Y      Z        X      Y      Z
   1   6    -0.09   0.03   0.06    -0.03   0.03  -0.04    -0.07   0.02   0.01
   2   6    -0.07  -0.06  -0.02    -0.03  -0.04  -0.01    -0.05  -0.06  -0.03
   3   6     0.04  -0.11  -0.07     0.02  -0.06   0.04     0.03  -0.09  -0.02
   4   6     0.11  -0.06  -0.05     0.07  -0.03   0.06     0.09  -0.05   0.02
   5   6     0.09  -0.05  -0.01     0.06  -0.02   0.04     0.07  -0.04   0.05
   6   7     0.09   0.06  -0.00     0.03   0.05  -0.11     0.08   0.05   0.13
   7   6    -0.02   0.09   0.01    -0.03   0.07  -0.14    -0.02   0.08   0.07
   8   6    -0.05   0.16  -0.04    -0.03   0.08  -0.13    -0.03   0.11   0.04
   9   6    -0.01   0.17  -0.07    -0.05   0.10  -0.14     0.08  -0.02   0.17
  10   6     0.01   0.10  -0.07    -0.04   0.04  -0.04     0.11  -0.13   0.17
  11   6    -0.01   0.01  -0.01     0.00  -0.06   0.10     0.03  -0.08   0.03
  12   8     0.03  -0.14   0.06     0.02  -0.13   0.23     0.06  -0.15  -0.01
  13   6    -0.01  -0.15   0.02     0.00   0.06   0.01     0.04  -0.09  -0.06
  14   6    -0.02  -0.14   0.04     0.17   0.02  -0.21     0.24   0.01   0.07
  15   6     0.04  -0.09   0.02     0.05  -0.11  -0.17     0.03   0.23   0.15
  16   6     0.07  -0.01   0.04     0.01   0.03  -0.23    -0.17   0.14  -0.04
  17   6     0.03   0.05   0.04    -0.04   0.08  -0.12    -0.04  -0.01  -0.11
  18   6    -0.02   0.12  -0.17    -0.05   0.04  -0.02     0.03  -0.03  -0.03
  19   6    -0.03   0.14  -0.25    -0.00  -0.04   0.20     0.06  -0.08   0.07
  20   6     0.02   0.07  -0.04     0.01  -0.02   0.21     0.03  -0.11   0.03
  21   6     0.07  -0.01   0.16     0.00   0.04   0.04    -0.06  -0.07  -0.08
  22   6     0.05   0.02   0.14    -0.01   0.07  -0.01    -0.06  -0.06  -0.13
  23   7     0.03   0.01   0.16    -0.03   0.04   0.07    -0.01  -0.07  -0.13
  24   6     0.01   0.00   0.09    -0.02  -0.00   0.11     0.01  -0.05  -0.06
  25   6    -0.09   0.06  -0.13    -0.04  -0.10   0.25     0.12  -0.01   0.02
  26   6    -0.09   0.02  -0.19    -0.06  -0.10   0.11     0.11   0.08   0.07
  27   6    -0.00  -0.08   0.01    -0.08  -0.00  -0.16     0.03   0.13   0.02
  28   6     0.08  -0.12   0.19    -0.04   0.05  -0.19    -0.06   0.08  -0.03
  29   6     0.06  -0.05   0.19    -0.02   0.03   0.00    -0.04  -0.02  -0.07
  30   6    -0.06   0.05  -0.02     0.04  -0.09   0.12    -0.07   0.05  -0.09
  31   6    -0.08   0.13  -0.04     0.01  -0.02   0.01    -0.10   0.16  -0.10
  32   7    -0.09  -0.01   0.03    -0.04   0.01  -0.04    -0.10   0.02  -0.03
  33   6    -0.13  -0.01   0.01    -0.07   0.01  -0.04    -0.12   0.02  -0.03
  34   6    -0.10   0.03   0.00    -0.08   0.01  -0.05    -0.08   0.03  -0.02
  35   6     0.03   0.04   0.01    -0.03   0.01  -0.02     0.02   0.03   0.01
  36   6     0.11   0.01   0.02     0.06   0.02   0.02     0.06   0.02   0.02
  37   6     0.02  -0.04  -0.01     0.05   0.02   0.02    -0.03   0.01  -0.01
  38   6    -0.11  -0.04  -0.01    -0.03   0.02  -0.02    -0.11   0.01  -0.04
  39   6    -0.01  -0.10   0.02     0.03  -0.05   0.09    -0.04  -0.06  -0.05
  40   6    -0.03  -0.13  -0.01     0.02  -0.07   0.10    -0.07  -0.10  -0.09
  41   6    -0.08  -0.10  -0.02    -0.05  -0.04   0.07    -0.07  -0.09  -0.08
  42   6    -0.04   0.02  -0.01    -0.06   0.01  -0.01    -0.02  -0.00  -0.00
  43   6     0.05   0.09   0.02     0.02   0.03  -0.05     0.02   0.07   0.07
  44   6     0.09   0.02  -0.00     0.09  -0.00  -0.02     0.00   0.02   0.02
  45   6     0.04  -0.10  -0.02     0.09  -0.06   0.06    -0.05  -0.07  -0.06
  46   6     0.09   0.03  -0.03     0.07   0.03   0.05     0.08   0.03   0.02
  47   6    -0.01   0.08   0.03     0.01   0.07  -0.00    -0.00   0.07   0.03
  48   1    -0.05   0.02   0.04    -0.02   0.01  -0.02    -0.04   0.01   0.01
  49   1    -0.04  -0.03  -0.01    -0.02  -0.02  -0.01    -0.03  -0.03  -0.02
  50   1     0.01  -0.05  -0.03     0.01  -0.04   0.02     0.01  -0.05  -0.01
  51   1     0.00   0.06  -0.03    -0.02   0.04  -0.06     0.04  -0.01   0.07
  52   1     0.01   0.03  -0.02    -0.02   0.02  -0.01     0.06  -0.07   0.08
  53   1     0.00  -0.05  -0.01    -0.01   0.03   0.01    -0.01   0.00  -0.06
  54   1    -0.02  -0.05   0.01    -0.03   0.06   0.01    -0.02  -0.07  -0.01
  55   1    -0.01  -0.05   0.01     0.08   0.07  -0.06     0.12   0.03   0.06
  56   1    -0.01  -0.03   0.02     0.08  -0.03  -0.11     0.10  -0.04  -0.01
  57   1     0.02  -0.03  -0.01     0.04  -0.06  -0.03    -0.04   0.11   0.06
  58   1     0.01  -0.03   0.02    -0.03  -0.05  -0.05     0.05   0.10   0.09
  59   1     0.04   0.00   0.01     0.02   0.01  -0.09    -0.09   0.02  -0.05
  60   1     0.02  -0.01   0.01    -0.00   0.03  -0.06    -0.09   0.08   0.01
  61   1    -0.01   0.05  -0.08    -0.02   0.01  -0.02     0.01  -0.00  -0.00
  62   1    -0.02   0.06  -0.13     0.01  -0.03   0.10     0.03  -0.03   0.05
  63   1     0.00   0.03  -0.02     0.01  -0.02   0.10     0.02  -0.05   0.03
  64   1    -0.01   0.02   0.01    -0.01   0.01   0.02     0.01  -0.03  -0.03
  65   1    -0.05   0.04  -0.07    -0.02  -0.04   0.12     0.06  -0.02   0.01
  66   1    -0.04   0.02  -0.11    -0.02  -0.05   0.06     0.05   0.03   0.04
  67   1     0.00  -0.03  -0.00    -0.03   0.01  -0.09     0.00   0.06   0.01
  68   1     0.04  -0.06   0.09    -0.01   0.03  -0.10    -0.04   0.04  -0.01
  69   1    -0.02  -0.00   0.00     0.02  -0.05   0.07    -0.03   0.02  -0.04
  70   1    -0.03   0.04  -0.01     0.01  -0.01   0.01    -0.05   0.08  -0.06
  71   1    -0.05   0.02  -0.00    -0.03   0.00  -0.02    -0.03   0.01  -0.01
  72   1     0.02   0.02   0.00    -0.01   0.00  -0.01     0.02   0.01   0.01
  73   1     0.07   0.00   0.01     0.04   0.01   0.02     0.04   0.01   0.02
  74   1     0.02  -0.02  -0.00     0.03   0.01   0.01    -0.00   0.00  -0.00
  75   1    -0.05  -0.02  -0.01    -0.01   0.01  -0.01    -0.05  -0.00  -0.02
  76   1    -0.04  -0.04  -0.01    -0.03  -0.02   0.03    -0.03  -0.03  -0.03
  77   1    -0.02   0.02  -0.00    -0.04   0.01  -0.01    -0.00   0.01   0.01
  78   1     0.03   0.05   0.01     0.00   0.02  -0.03     0.02   0.05   0.05
  79   1     0.04   0.02   0.00     0.04   0.00  -0.01     0.01   0.02   0.02
  80   1     0.02  -0.04  -0.01     0.04  -0.03   0.02    -0.02  -0.03  -0.03
  81   1     0.05   0.02  -0.01     0.03   0.02   0.02     0.04   0.02   0.01
  82   1    -0.01   0.05   0.02     0.00   0.03  -0.01    -0.00   0.04   0.02
                     22                     23                     24
                        a                      a                      a 
 Frequencies --   175.0158               205.1202               217.8620
 Red. masses --    10.3938                11.3239                10.9820
 Frc consts  --     0.0000                 0.0000                 0.0000
 IR Inten    --     0.6188                 2.5945                 1.3629
 Raman Activ --     0.0000                 0.0000                 0.0000
 Depolar     --     0.0000                 0.0000                 0.0000
 Atom AN      X      Y      Z        X      Y      Z        X      Y      Z
   1   6     0.01   0.06  -0.03     0.02  -0.02  -0.01     0.01   0.07   0.04
   2   6     0.01   0.01  -0.00     0.02   0.03   0.00     0.03   0.03  -0.02
   3   6     0.05  -0.02   0.04    -0.03   0.05   0.01     0.06   0.02  -0.03
   4   6     0.08   0.00   0.05    -0.06   0.03  -0.00     0.06   0.02   0.00
   5   6     0.08  -0.00  -0.00    -0.03   0.01  -0.00     0.05   0.00   0.06
   6   7     0.03   0.04  -0.20     0.00  -0.07   0.10     0.05  -0.01   0.14
   7   6    -0.01   0.04  -0.19     0.03  -0.07   0.10    -0.00  -0.01   0.10
   8   6    -0.03   0.02  -0.07    -0.04   0.05   0.01    -0.05  -0.07  -0.03
   9   6    -0.10  -0.03   0.04    -0.11   0.15  -0.09    -0.10  -0.07  -0.03
  10   6    -0.09  -0.07   0.18    -0.13   0.20  -0.12    -0.12  -0.10  -0.09
  11   6    -0.09  -0.06   0.18    -0.11   0.07   0.03    -0.18  -0.16  -0.10
  12   8    -0.12  -0.03   0.06    -0.06  -0.23   0.30    -0.26  -0.10   0.03
  13   6    -0.29  -0.10  -0.13    -0.17  -0.19   0.08    -0.10   0.15   0.01
  14   6    -0.25  -0.03  -0.01    -0.05  -0.16   0.06     0.10   0.18  -0.04
  15   6    -0.13   0.22  -0.05    -0.02   0.03   0.05     0.05   0.09  -0.02
  16   6    -0.08   0.07   0.04    -0.09   0.13  -0.06     0.09  -0.15   0.09
  17   6     0.00  -0.03   0.05    -0.03   0.07  -0.10     0.01  -0.06   0.04
  18   6     0.05  -0.02   0.04     0.03   0.10  -0.15    -0.06  -0.07   0.05
  19   6     0.03   0.00  -0.06     0.07   0.02  -0.04    -0.09  -0.03   0.03
  20   6     0.01  -0.01  -0.11     0.08  -0.07   0.09    -0.07   0.04   0.01
  21   6    -0.03  -0.04  -0.03     0.01  -0.05   0.03     0.00   0.04   0.01
  22   6    -0.02  -0.06   0.01    -0.02  -0.00  -0.06     0.02   0.01   0.03
  23   7    -0.00  -0.06  -0.01    -0.01  -0.01  -0.06     0.01   0.02   0.04
  24   6    -0.00  -0.03  -0.04     0.01  -0.04   0.02    -0.00   0.04   0.01
  25   6     0.04   0.03  -0.08     0.05  -0.04   0.07    -0.05   0.01  -0.01
  26   6     0.05   0.07  -0.01     0.04   0.02   0.02    -0.04  -0.04  -0.01
  27   6     0.03   0.04   0.09    -0.00   0.08  -0.08    -0.01  -0.05  -0.00
  28   6    -0.02   0.01   0.08    -0.02   0.03  -0.04     0.02  -0.02  -0.01
  29   6    -0.02  -0.03  -0.02     0.00  -0.05   0.04     0.01   0.04  -0.00
  30   6    -0.01  -0.11   0.19    -0.09   0.11  -0.04    -0.15  -0.16  -0.12
  31   6    -0.01  -0.08   0.06    -0.08   0.11  -0.08    -0.16  -0.12  -0.09
  32   7     0.02   0.03  -0.10     0.08  -0.03   0.06     0.03   0.04   0.10
  33   6     0.02   0.03  -0.08     0.15  -0.04   0.08     0.04   0.06   0.11
  34   6     0.01  -0.01  -0.07     0.15  -0.05   0.08     0.05   0.14   0.09
  35   6    -0.02  -0.02  -0.01     0.01  -0.06  -0.00     0.02   0.15   0.02
  36   6    -0.01   0.03   0.02    -0.11  -0.07  -0.07    -0.05   0.12  -0.04
  37   6     0.01   0.07   0.01     0.04  -0.07   0.00    -0.01   0.06   0.01
  38   6     0.02   0.08  -0.05     0.17  -0.06   0.07     0.04   0.06   0.10
  39   6     0.08  -0.02   0.08     0.03   0.04  -0.07     0.05   0.01  -0.02
  40   6     0.12  -0.03   0.13     0.06   0.10  -0.09     0.04  -0.06  -0.13
  41   6     0.07  -0.02   0.10     0.15   0.06  -0.07     0.10  -0.12  -0.14
  42   6     0.03  -0.02  -0.03     0.14  -0.04  -0.02     0.15  -0.07  -0.04
  43   6     0.08  -0.05  -0.11     0.06  -0.08  -0.02     0.19   0.01   0.04
  44   6     0.17  -0.02  -0.04    -0.01  -0.00  -0.01     0.10  -0.04  -0.05
  45   6     0.19  -0.02   0.08     0.01   0.10  -0.05     0.05  -0.08  -0.15
  46   6     0.08   0.06   0.04    -0.06  -0.02   0.01     0.06   0.06  -0.02
  47   6     0.04   0.09  -0.00    -0.02  -0.04   0.00     0.03   0.08   0.02
  48   1    -0.01   0.02  -0.02     0.02  -0.01  -0.01    -0.01   0.02   0.03
  49   1    -0.01  -0.01  -0.01     0.01   0.01   0.00     0.00   0.00  -0.01
  50   1     0.01  -0.02   0.02    -0.01   0.03   0.00     0.02   0.00  -0.02
  51   1    -0.04  -0.01  -0.00    -0.03   0.04  -0.02    -0.03  -0.03  -0.00
  52   1    -0.03  -0.03   0.06    -0.04   0.07  -0.05    -0.01  -0.04  -0.04
  53   1    -0.07  -0.04  -0.12    -0.05  -0.05  -0.02    -0.06   0.08   0.02
  54   1    -0.16  -0.06  -0.02    -0.10  -0.06   0.04    -0.02   0.04   0.00
  55   1    -0.09  -0.04  -0.00    -0.01  -0.03   0.01     0.06   0.10  -0.01
  56   1    -0.07  -0.01   0.05     0.00  -0.07   0.03     0.06   0.01  -0.04
  57   1    -0.09   0.12  -0.05    -0.02   0.03  -0.02    -0.01   0.04   0.02
  58   1     0.03   0.10  -0.00     0.01   0.02   0.06     0.04   0.03  -0.04
  59   1    -0.05   0.01   0.03    -0.03   0.03  -0.06     0.04  -0.03   0.10
  60   1     0.00   0.02   0.00    -0.05   0.07  -0.00     0.05  -0.11   0.01
  61   1     0.02  -0.00   0.03     0.01   0.04  -0.06    -0.02  -0.03   0.02
  62   1     0.01   0.01  -0.03     0.03   0.01  -0.01    -0.04  -0.01   0.01
  63   1     0.00  -0.00  -0.06     0.04  -0.05   0.06    -0.03   0.03   0.00
  64   1     0.00  -0.02   0.00    -0.01   0.00  -0.03     0.00   0.01   0.01
  65   1     0.03   0.01  -0.04     0.03  -0.02   0.03    -0.03   0.01  -0.00
  66   1     0.02   0.03  -0.01     0.02   0.01   0.01    -0.02  -0.02  -0.00
  67   1     0.01   0.02   0.05    -0.01   0.04  -0.05    -0.00  -0.02   0.00
  68   1    -0.02   0.00   0.04    -0.02   0.02  -0.02     0.02  -0.01  -0.00
  69   1     0.01  -0.04   0.07    -0.02   0.02   0.01    -0.04  -0.05  -0.03
  70   1     0.00  -0.02   0.02    -0.03   0.03  -0.02    -0.07  -0.03  -0.02
  71   1     0.01  -0.01  -0.03     0.06  -0.02   0.03     0.02   0.05   0.04
  72   1    -0.01  -0.02  -0.00    -0.01  -0.01  -0.01     0.00   0.05   0.00
  73   1    -0.01   0.01   0.02    -0.08  -0.02  -0.04    -0.03   0.04  -0.03
  74   1     0.01   0.03   0.01     0.00  -0.02  -0.00    -0.01   0.01  -0.01
  75   1     0.01   0.04  -0.02     0.07  -0.02   0.03     0.02   0.01   0.04
  76   1     0.01  -0.00   0.04     0.07   0.02  -0.03     0.04  -0.04  -0.06
  77   1    -0.01  -0.01  -0.02     0.06  -0.02  -0.00     0.05  -0.01  -0.00
  78   1     0.01  -0.02  -0.06     0.01  -0.05  -0.00     0.07   0.03   0.05
  79   1     0.06  -0.01  -0.02    -0.02  -0.01   0.01     0.02  -0.01  -0.00
  80   1     0.07  -0.01   0.03    -0.01   0.05  -0.01     0.01  -0.03  -0.05
  81   1     0.04   0.03   0.02    -0.03  -0.01   0.00     0.03   0.02  -0.01
  82   1     0.01   0.04  -0.01    -0.00  -0.02   0.00     0.01   0.03   0.01
                     25                     26                     27
                        a                      a                      a 
 Frequencies --   228.6980               229.2071               233.3479
 Red. masses --     9.7974                10.5466                 9.2865
 Frc consts  --     0.0000                 0.0000                 0.0000
 IR Inten    --     2.0660                 1.2757                 1.0817
 Raman Activ --     0.0000                 0.0000                 0.0000
 Depolar     --     0.0000                 0.0000                 0.0000
 Atom AN      X      Y      Z        X      Y      Z        X      Y      Z
   1   6     0.01  -0.01  -0.04    -0.03  -0.14  -0.19    -0.00   0.07   0.17
   2   6    -0.00   0.00  -0.00    -0.07  -0.07  -0.00     0.04   0.02  -0.01
   3   6    -0.03   0.01   0.05    -0.14  -0.04   0.19     0.09   0.00  -0.17
   4   6    -0.03   0.01   0.03    -0.11  -0.03   0.12     0.07   0.00  -0.09
   5   6    -0.01   0.00  -0.01    -0.03  -0.01  -0.07     0.02  -0.01   0.09
   6   7    -0.01  -0.00  -0.01    -0.05   0.04  -0.20     0.03  -0.04   0.19
   7   6     0.01  -0.00   0.01    -0.02   0.03  -0.08     0.01  -0.03   0.09
   8   6    -0.00   0.04  -0.04     0.02  -0.03  -0.02     0.01  -0.12   0.01
   9   6    -0.00   0.07  -0.08     0.02  -0.04  -0.01    -0.04  -0.10  -0.02
  10   6     0.01   0.06  -0.05     0.02  -0.03   0.03    -0.06  -0.09  -0.05
  11   6     0.03   0.00   0.03     0.05   0.02   0.02    -0.08  -0.08  -0.07
  12   8     0.06  -0.10   0.16     0.05   0.09  -0.03    -0.14   0.02   0.04
  13   6     0.03   0.06  -0.04     0.07  -0.01   0.08     0.08   0.09   0.25
  14   6     0.16   0.02  -0.21    -0.14  -0.07   0.06    -0.17  -0.05   0.05
  15   6    -0.05  -0.04  -0.13    -0.05  -0.10   0.02    -0.10  -0.23   0.01
  16   6    -0.10   0.15  -0.20    -0.05   0.09  -0.04    -0.11   0.21  -0.12
  17   6     0.03  -0.04   0.17    -0.01   0.05  -0.03    -0.01   0.09  -0.01
  18   6     0.10  -0.09   0.33     0.04   0.07  -0.06     0.11   0.10  -0.00
  19   6     0.06  -0.01   0.05     0.08   0.03  -0.03     0.16   0.04  -0.03
  20   6    -0.04   0.09  -0.34     0.07  -0.04   0.02     0.11  -0.04  -0.07
  21   6    -0.05  -0.01  -0.08     0.01  -0.03   0.00    -0.01  -0.06  -0.03
  22   6    -0.00  -0.09   0.15    -0.02  -0.00  -0.03    -0.03  -0.02  -0.02
  23   7     0.00  -0.14   0.23    -0.02  -0.00  -0.06    -0.03  -0.04  -0.03
  24   6    -0.03  -0.05   0.01    -0.00  -0.02  -0.01    -0.01  -0.06  -0.01
  25   6    -0.02   0.05  -0.12     0.04  -0.01   0.01     0.06  -0.02   0.01
  26   6    -0.02   0.09  -0.07     0.03   0.02   0.02     0.05   0.07   0.01
  27   6    -0.00   0.01   0.16     0.01   0.04  -0.01     0.01   0.08   0.01
  28   6    -0.05  -0.01   0.12    -0.01   0.01   0.00    -0.04   0.02   0.02
  29   6    -0.06  -0.01  -0.06    -0.00  -0.03   0.01    -0.02  -0.06  -0.01
  30   6     0.02   0.03   0.01     0.06  -0.01   0.05    -0.04  -0.10  -0.08
  31   6     0.01   0.05  -0.04     0.07  -0.04   0.04    -0.03  -0.15  -0.00
  32   7     0.01  -0.01   0.04    -0.00   0.05   0.08     0.01   0.02  -0.00
  33   6     0.02  -0.02   0.06    -0.02   0.09   0.13    -0.04   0.04  -0.06
  34   6     0.03  -0.01   0.06    -0.01   0.21   0.09    -0.07   0.04  -0.07
  35   6     0.01  -0.00   0.01     0.02   0.23   0.01    -0.02   0.04  -0.01
  36   6    -0.02  -0.03  -0.03    -0.01   0.20  -0.02     0.05   0.07   0.05
  37   6     0.01  -0.05  -0.01    -0.03   0.10   0.02    -0.02   0.08   0.01
  38   6     0.03  -0.05   0.05    -0.03   0.09   0.12    -0.08   0.08  -0.05
  39   6    -0.01   0.01  -0.02     0.03  -0.01  -0.01     0.02   0.00   0.04
  40   6    -0.02   0.01  -0.06     0.00  -0.12  -0.10     0.02  -0.00   0.06
  41   6     0.00  -0.01  -0.06     0.02  -0.18  -0.14     0.01   0.01   0.06
  42   6     0.02  -0.01  -0.01     0.09  -0.07  -0.04    -0.00   0.01   0.01
  43   6     0.01   0.01   0.04     0.18   0.06   0.07     0.00  -0.01  -0.03
  44   6    -0.03   0.01   0.00     0.10  -0.04  -0.05     0.04  -0.01  -0.01
  45   6    -0.04   0.01  -0.05     0.03  -0.15  -0.16     0.05  -0.00   0.04
  46   6    -0.04  -0.01   0.05    -0.13  -0.10   0.20     0.09   0.04  -0.18
  47   6    -0.02  -0.02   0.01    -0.08  -0.13   0.04     0.05   0.06  -0.03
  48   1     0.01  -0.01  -0.03     0.01  -0.05  -0.13    -0.02   0.02   0.11
  49   1     0.00   0.00  -0.00    -0.01  -0.01  -0.02     0.00   0.00   0.01
  50   1    -0.01   0.01   0.02    -0.04  -0.02   0.08     0.03   0.00  -0.07
  51   1     0.00   0.03  -0.03     0.00  -0.01  -0.01    -0.02  -0.03  -0.01
  52   1    -0.00   0.02  -0.01    -0.00  -0.01   0.01    -0.01  -0.03  -0.02
  53   1    -0.00   0.03  -0.01     0.04  -0.03   0.06     0.03   0.01   0.20
  54   1    -0.02   0.05  -0.01     0.05   0.02   0.01     0.12   0.10   0.04
  55   1     0.10   0.07  -0.04    -0.08  -0.06   0.00    -0.09  -0.04  -0.01
  56   1     0.08  -0.04  -0.12    -0.08   0.03   0.04    -0.09   0.04   0.02
  57   1     0.01  -0.04  -0.02     0.02  -0.06  -0.01     0.05  -0.15  -0.01
  58   1    -0.05  -0.03  -0.02    -0.05  -0.05   0.02    -0.13  -0.12   0.02
  59   1    -0.08   0.01  -0.16    -0.01   0.02  -0.06    -0.04   0.04  -0.16
  60   1    -0.01   0.17  -0.05    -0.03   0.06   0.00    -0.06   0.17  -0.01
  61   1     0.04  -0.04   0.14     0.01   0.03  -0.03     0.04   0.04   0.00
  62   1     0.02   0.00   0.01     0.03   0.01  -0.01     0.07   0.02  -0.01
  63   1    -0.02   0.06  -0.21     0.03  -0.03   0.01     0.05  -0.03  -0.04
  64   1     0.01  -0.05   0.09    -0.01   0.00  -0.02    -0.01  -0.01  -0.01
  65   1     0.00   0.02  -0.06     0.02  -0.01   0.00     0.04  -0.01  -0.00
  66   1    -0.00   0.04  -0.04     0.01   0.01   0.01     0.02   0.03   0.00
  67   1     0.01  -0.01   0.09     0.00   0.02  -0.01     0.00   0.04   0.00
  68   1    -0.02  -0.01   0.07    -0.01   0.01  -0.00    -0.03   0.01   0.01
  69   1     0.01   0.00   0.01     0.02   0.00   0.01    -0.01  -0.01  -0.04
  70   1     0.01   0.02  -0.01     0.03  -0.02   0.01    -0.01  -0.05   0.01
  71   1     0.01   0.00   0.02    -0.01   0.08   0.04    -0.03   0.01  -0.02
  72   1     0.00   0.01  -0.00     0.01   0.08   0.00    -0.00   0.00   0.00
  73   1    -0.02  -0.01  -0.02    -0.01   0.06  -0.03     0.04   0.02   0.03
  74   1    -0.00  -0.02  -0.01    -0.01   0.01  -0.01    -0.00   0.03   0.01
  75   1     0.01  -0.02   0.02    -0.01   0.02   0.04    -0.03   0.03  -0.02
  76   1     0.01  -0.00  -0.02     0.00  -0.06  -0.06    -0.00   0.00   0.02
  77   1     0.01  -0.01   0.00     0.02  -0.01  -0.01    -0.01   0.00  -0.00
  78   1     0.01   0.01   0.03     0.08   0.06   0.06    -0.00  -0.01  -0.02
  79   1    -0.01   0.00   0.01     0.03  -0.01  -0.00     0.01  -0.00  -0.01
  80   1    -0.02   0.00  -0.02     0.01  -0.06  -0.06     0.02  -0.00   0.01
  81   1    -0.02  -0.01   0.02    -0.06  -0.04   0.08     0.04   0.02  -0.07
  82   1    -0.00  -0.01   0.00    -0.02  -0.04   0.01     0.01   0.02  -0.01
                     28                     29                     30
                        a                      a                      a 
 Frequencies --   236.7791               246.8955               263.3468
 Red. masses --    10.8303                10.4881                10.5283
 Frc consts  --     0.0000                 0.0000                 0.0000
 IR Inten    --     0.3627                 0.1468                 1.7646
 Raman Activ --     0.0000                 0.0000                 0.0000
 Depolar     --     0.0000                 0.0000                 0.0000
 Atom AN      X      Y      Z        X      Y      Z        X      Y      Z
   1   6    -0.13  -0.27   0.07     0.10   0.07  -0.09    -0.03   0.01  -0.11
   2   6    -0.12  -0.21   0.01     0.07   0.15   0.03    -0.05  -0.10   0.01
   3   6    -0.12  -0.19  -0.12    -0.05   0.19   0.10     0.07  -0.15   0.12
   4   6    -0.06  -0.13  -0.09    -0.12   0.11   0.02     0.17  -0.09   0.06
   5   6    -0.04  -0.06   0.00    -0.03   0.03  -0.07     0.05  -0.02  -0.12
   6   7    -0.01  -0.02   0.10    -0.02  -0.00  -0.04     0.02   0.09  -0.20
   7   6    -0.01  -0.01   0.07     0.01  -0.02   0.06    -0.06   0.09  -0.09
   8   6    -0.01   0.03   0.07     0.00  -0.02   0.06    -0.09   0.12   0.06
   9   6     0.01   0.04   0.04    -0.01  -0.01   0.04    -0.05   0.04   0.13
  10   6     0.01   0.05  -0.01    -0.01  -0.01   0.01    -0.03  -0.04   0.07
  11   6    -0.01   0.04  -0.01    -0.03  -0.00  -0.02    -0.12  -0.04  -0.04
  12   8     0.02  -0.04  -0.01    -0.03  -0.02  -0.02    -0.16   0.09  -0.23
  13   6     0.00  -0.03  -0.05     0.01  -0.01   0.01     0.05   0.03   0.10
  14   6     0.13   0.01  -0.03     0.04   0.00   0.01     0.05   0.01   0.09
  15   6     0.04   0.02   0.01     0.02  -0.01   0.02     0.00  -0.16   0.11
  16   6     0.01  -0.03  -0.01     0.00  -0.01  -0.00    -0.09   0.08  -0.07
  17   6     0.00  -0.02   0.01    -0.00   0.00  -0.01    -0.00  -0.02  -0.00
  18   6    -0.02  -0.04   0.05    -0.00  -0.01   0.01    -0.04  -0.02  -0.02
  19   6    -0.04  -0.02   0.03    -0.01  -0.01   0.01    -0.06  -0.01   0.01
  20   6    -0.04   0.03  -0.03    -0.01   0.01  -0.00    -0.04   0.02   0.02
  21   6    -0.00   0.02  -0.01    -0.00   0.01  -0.01     0.03   0.03   0.01
  22   6     0.01   0.00   0.01    -0.00   0.01  -0.02     0.03  -0.00   0.04
  23   7     0.01  -0.00   0.04     0.00   0.00   0.00     0.07   0.02   0.03
  24   6     0.00   0.01   0.01     0.01   0.00   0.01     0.05   0.05  -0.03
  25   6    -0.02   0.01  -0.01     0.00  -0.01   0.02     0.00   0.03  -0.05
  26   6    -0.02  -0.01  -0.02    -0.00  -0.01  -0.00     0.03  -0.07  -0.01
  27   6    -0.00  -0.03   0.01     0.00  -0.01  -0.00     0.06  -0.08  -0.00
  28   6     0.01  -0.01   0.01     0.01  -0.01   0.00     0.08  -0.02  -0.06
  29   6     0.00   0.02  -0.00     0.00   0.00   0.00     0.05   0.06  -0.04
  30   6    -0.04   0.07  -0.03    -0.04   0.02  -0.05    -0.14  -0.09   0.05
  31   6    -0.04   0.07   0.01    -0.03   0.00   0.00    -0.15   0.01   0.09
  32   7    -0.01   0.05  -0.04     0.03  -0.04   0.11    -0.08  -0.00  -0.05
  33   6    -0.03   0.10  -0.06    -0.22  -0.07   0.03    -0.00  -0.03   0.07
  34   6    -0.04   0.13  -0.07    -0.36  -0.05  -0.05     0.06  -0.02   0.09
  35   6    -0.02   0.14  -0.01    -0.09  -0.04  -0.01     0.02  -0.02   0.01
  36   6     0.01   0.19   0.05     0.26  -0.10   0.09    -0.07  -0.07  -0.07
  37   6    -0.02   0.19   0.04    -0.04  -0.16  -0.03     0.03  -0.09  -0.01
  38   6    -0.05   0.18  -0.02    -0.33  -0.16  -0.08     0.07  -0.08   0.07
  39   6     0.02  -0.00  -0.02     0.04   0.01  -0.02    -0.04  -0.02  -0.13
  40   6     0.12   0.10   0.09     0.11   0.08  -0.03     0.02   0.12  -0.07
  41   6     0.18   0.13   0.14     0.21   0.03  -0.01     0.12   0.15   0.01
  42   6     0.11   0.00   0.01     0.17  -0.07  -0.06     0.08   0.01  -0.00
  43   6     0.03  -0.14  -0.16     0.15  -0.11  -0.09    -0.06  -0.11  -0.07
  44   6     0.10   0.01  -0.02     0.14   0.02  -0.01    -0.05   0.06   0.03
  45   6     0.17   0.15   0.12     0.15   0.10  -0.01     0.00   0.19   0.04
  46   6    -0.06  -0.24  -0.12    -0.13   0.07   0.08     0.16   0.02   0.13
  47   6    -0.07  -0.26  -0.06    -0.02   0.02   0.02     0.04   0.09   0.03
  48   1    -0.04  -0.08   0.06     0.06   0.01  -0.06    -0.03   0.01  -0.07
  49   1    -0.03  -0.05   0.02     0.04   0.05   0.01    -0.04  -0.05  -0.00
  50   1    -0.03  -0.07  -0.04    -0.02   0.09   0.04     0.02  -0.08   0.05
  51   1     0.01   0.01   0.02    -0.00  -0.00   0.01     0.00   0.01   0.05
  52   1     0.01   0.02  -0.00     0.00  -0.00  -0.00     0.02  -0.02   0.02
  53   1    -0.01   0.01  -0.04    -0.00   0.01   0.01    -0.00   0.02   0.08
  54   1    -0.02  -0.03  -0.01     0.01  -0.01   0.00     0.09  -0.00   0.01
  55   1     0.06   0.03   0.00     0.02   0.01   0.00     0.02   0.02   0.02
  56   1     0.06  -0.03  -0.03     0.02  -0.01  -0.01     0.02  -0.00  -0.00
  57   1     0.00   0.01   0.01     0.01  -0.01   0.01     0.05  -0.10   0.05
  58   1     0.02   0.01   0.00     0.00  -0.01   0.01    -0.08  -0.09   0.04
  59   1    -0.00  -0.01  -0.00     0.00  -0.00  -0.01    -0.05   0.01  -0.12
  60   1     0.00  -0.01  -0.00    -0.00   0.00   0.00    -0.07   0.12   0.01
  61   1    -0.00  -0.02   0.02    -0.00  -0.00   0.01    -0.02  -0.01  -0.02
  62   1    -0.01  -0.01   0.01    -0.00  -0.00   0.01    -0.02  -0.00   0.00
  63   1    -0.02   0.02  -0.02    -0.00   0.00   0.00    -0.02   0.02   0.01
  64   1     0.00  -0.00   0.01     0.00   0.00   0.00     0.03  -0.00   0.01
  65   1    -0.01   0.00  -0.00    -0.00  -0.00   0.01    -0.02   0.01  -0.02
  66   1    -0.01  -0.00  -0.01    -0.00  -0.00  -0.01     0.00  -0.03   0.01
  67   1     0.00  -0.01   0.01     0.00  -0.00  -0.00     0.02  -0.04   0.01
  68   1     0.01  -0.01   0.00     0.00  -0.00   0.00     0.04  -0.01  -0.03
  69   1    -0.02   0.02  -0.01    -0.01   0.01  -0.02    -0.05  -0.04   0.02
  70   1    -0.02   0.02   0.00    -0.02   0.00   0.00    -0.07   0.00   0.04
  71   1    -0.02   0.04  -0.02    -0.14  -0.00  -0.02     0.03  -0.00   0.04
  72   1    -0.01   0.03   0.00    -0.02   0.01  -0.01     0.01   0.01  -0.00
  73   1     0.02   0.05   0.03     0.19  -0.03   0.06    -0.05  -0.02  -0.04
  74   1     0.00   0.05   0.01     0.01  -0.06  -0.01     0.01  -0.03  -0.01
  75   1    -0.02   0.07  -0.02    -0.14  -0.07  -0.03     0.03  -0.04   0.03
  76   1     0.07   0.06   0.05     0.08   0.02  -0.01     0.06   0.06   0.01
  77   1     0.02  -0.00  -0.01     0.05  -0.03  -0.03     0.04  -0.01   0.00
  78   1    -0.02  -0.09  -0.10     0.03  -0.06  -0.04    -0.04  -0.08  -0.05
  79   1     0.02  -0.01  -0.01     0.03   0.01   0.01    -0.03   0.02   0.02
  80   1     0.06   0.05   0.05     0.04   0.03   0.00    -0.01   0.08   0.02
  81   1    -0.03  -0.08  -0.04    -0.06   0.01   0.04     0.07   0.02   0.05
  82   1    -0.02  -0.07  -0.02    -0.00  -0.02   0.01     0.01   0.06   0.01
                     31                     32                     33
                        a                      a                      a 
 Frequencies --   263.8992               272.8306               281.8614
 Red. masses --    10.1535                10.2254                10.5224
 Frc consts  --     0.0000                 0.0000                 0.0000
 IR Inten    --     0.4223                 1.1761                 0.2156
 Raman Activ --     0.0000                 0.0000                 0.0000
 Depolar     --     0.0000                 0.0000                 0.0000
 Atom AN      X      Y      Z        X      Y      Z        X      Y      Z
   1   6     0.07   0.04   0.01    -0.02  -0.01   0.05     0.01  -0.01  -0.00
   2   6     0.06   0.14   0.00    -0.01  -0.03  -0.01     0.01   0.02   0.00
   3   6    -0.06   0.18  -0.02     0.02  -0.03  -0.05    -0.03   0.04  -0.00
   4   6    -0.16   0.11  -0.03     0.03  -0.02   0.00    -0.05   0.02  -0.01
   5   6    -0.04   0.02   0.00     0.00  -0.01   0.07    -0.01   0.00  -0.00
   6   7    -0.03  -0.03   0.01     0.00  -0.03   0.08    -0.00   0.01   0.03
   7   6    -0.03  -0.03   0.02     0.04  -0.04   0.01    -0.01   0.01   0.03
   8   6    -0.05   0.03   0.12     0.06  -0.10  -0.11    -0.02   0.05   0.04
   9   6    -0.05   0.03   0.14     0.01  -0.07  -0.13     0.01   0.05   0.01
  10   6    -0.06   0.08   0.03    -0.00  -0.03  -0.01     0.03  -0.00  -0.00
  11   6    -0.09   0.10  -0.03     0.07  -0.00   0.06     0.00  -0.03  -0.01
  12   8    -0.07   0.05  -0.14     0.08  -0.02   0.18     0.00  -0.03  -0.02
  13   6    -0.00  -0.08   0.04    -0.03  -0.02   0.04     0.03   0.03  -0.03
  14   6     0.14  -0.05   0.08    -0.16  -0.04   0.05     0.03   0.02  -0.05
  15   6     0.03  -0.10   0.12    -0.12   0.17   0.03    -0.00  -0.05  -0.04
  16   6    -0.11   0.08  -0.11    -0.21   0.13  -0.10     0.07  -0.03   0.05
  17   6    -0.01  -0.05  -0.03    -0.01  -0.10  -0.01     0.04  -0.01   0.14
  18   6    -0.07  -0.07   0.02    -0.14  -0.09  -0.08     0.02   0.13  -0.22
  19   6    -0.11  -0.03   0.04    -0.19  -0.06   0.04     0.09   0.03  -0.06
  20   6    -0.09   0.05  -0.01    -0.13   0.04   0.09     0.11  -0.11   0.19
  21   6     0.03   0.06  -0.01     0.05   0.07   0.03     0.01  -0.08   0.10
  22   6     0.04   0.01   0.01     0.08  -0.02   0.10     0.04  -0.12   0.28
  23   7     0.10   0.03   0.03     0.17   0.02   0.09    -0.02  -0.11   0.22
  24   6     0.08   0.06   0.01     0.12   0.14  -0.07    -0.11   0.06  -0.25
  25   6     0.00   0.02  -0.02     0.01   0.06  -0.10    -0.07   0.10  -0.26
  26   6     0.02  -0.08  -0.05     0.06  -0.17  -0.00     0.02  -0.02   0.23
  27   6     0.06  -0.11  -0.03     0.12  -0.20   0.00    -0.01  -0.01   0.23
[...]
   8   6     0.00   0.00  -0.00    -0.00  -0.00   0.00     0.00   0.00   0.00
   9   6     0.00  -0.00  -0.00    -0.00   0.00   0.00    -0.00   0.00   0.00
  10   6     0.00   0.00   0.00    -0.00  -0.00  -0.00     0.00   0.00   0.00
  11   6     0.00   0.00   0.00    -0.00  -0.00   0.00     0.00  -0.00  -0.00
  12   8    -0.00  -0.00  -0.00    -0.00   0.00  -0.00     0.00   0.00   0.00
  13   6     0.00   0.00  -0.00    -0.00  -0.00   0.00    -0.00   0.00  -0.00
  14   6     0.00   0.00  -0.00     0.00  -0.00   0.00    -0.00  -0.00   0.00
  15   6    -0.00   0.00  -0.00    -0.00   0.00  -0.00     0.00  -0.00   0.00
  16   6    -0.00  -0.00  -0.00    -0.00   0.00  -0.00     0.00   0.00   0.00
  17   6    -0.00  -0.00  -0.00    -0.01  -0.00   0.00     0.00   0.00  -0.00
  18   6    -0.01   0.00   0.00    -0.17   0.07   0.06     0.05  -0.02  -0.02
  19   6    -0.00   0.00   0.00    -0.01   0.09   0.04     0.01  -0.04  -0.01
  20   6    -0.00  -0.00  -0.00     0.10   0.08   0.01    -0.05  -0.04  -0.00
  21   6    -0.00   0.00   0.00     0.00  -0.00  -0.00    -0.00   0.00   0.00
  22   6     0.00  -0.00  -0.00     0.00  -0.00  -0.00    -0.00   0.00   0.00
  23   7    -0.00   0.00   0.00    -0.00  -0.00   0.00     0.00   0.00  -0.00
  24   6     0.00   0.00   0.00    -0.00   0.00   0.00     0.00   0.00   0.00
  25   6     0.00   0.00   0.00    -0.01  -0.01  -0.00     0.00   0.01   0.00
  26   6    -0.00   0.00   0.00     0.01  -0.01  -0.01    -0.01   0.01   0.00
  27   6    -0.00  -0.00   0.00     0.02   0.00  -0.00    -0.02  -0.00   0.00
  28   6    -0.00  -0.01  -0.00     0.02   0.03   0.01    -0.02  -0.04  -0.01
  29   6     0.00  -0.00  -0.00    -0.00   0.00   0.00     0.00  -0.00  -0.00
  30   6    -0.00   0.00   0.00    -0.00   0.00   0.00     0.01  -0.01  -0.01
  31   6     0.00   0.00   0.00    -0.00  -0.01  -0.00     0.01   0.02   0.01
  32   7     0.00  -0.00  -0.00     0.00   0.00  -0.00    -0.00  -0.00  -0.00
  33   6     0.00   0.00   0.00     0.00  -0.00  -0.00     0.00  -0.00  -0.00
  34   6    -0.00  -0.00   0.00     0.00   0.00  -0.00    -0.00  -0.00   0.00
  35   6    -0.00   0.00   0.00    -0.00   0.00   0.00    -0.00   0.00   0.00
  36   6     0.00  -0.00  -0.00    -0.00   0.00   0.00     0.00  -0.00  -0.00
  37   6    -0.00  -0.01   0.01     0.00   0.00  -0.00    -0.00  -0.00   0.00
  38   6    -0.00   0.00   0.01    -0.00   0.00   0.00    -0.00   0.00   0.00
  39   6    -0.00  -0.00   0.00    -0.00   0.00   0.00    -0.00   0.00   0.00
  40   6     0.01  -0.00  -0.00    -0.00  -0.00   0.00    -0.00  -0.00   0.00
  41   6     0.04  -0.07   0.04    -0.00   0.00  -0.00    -0.00   0.00  -0.00
  42   6    -0.07  -0.06   0.10     0.00   0.00  -0.00     0.00   0.00  -0.00
  43   6    -0.17   0.05   0.05     0.00  -0.00  -0.00     0.01  -0.00  -0.00
  44   6    -0.05   0.09  -0.06     0.00  -0.00   0.00     0.00  -0.00   0.00
  45   6     0.04   0.03  -0.06    -0.00  -0.00   0.00    -0.00  -0.00   0.00
  46   6    -0.01   0.02  -0.00     0.01  -0.02   0.00     0.02  -0.03   0.01
  47   6    -0.01  -0.00  -0.00     0.01   0.00   0.00     0.02   0.00   0.01
  48   1     0.01   0.02   0.00    -0.03  -0.06  -0.00    -0.06  -0.11  -0.01
  49   1    -0.00   0.00  -0.00     0.05  -0.07   0.01     0.12  -0.17   0.03
  50   1     0.05   0.01   0.01     0.33   0.03   0.06     0.81   0.08   0.15
  51   1    -0.01   0.00   0.01     0.01  -0.01  -0.01     0.01  -0.01  -0.01
  52   1    -0.00  -0.00  -0.00     0.00   0.01   0.00    -0.01  -0.01  -0.01
  53   1    -0.00  -0.00  -0.00     0.00   0.00   0.00    -0.00   0.00  -0.00
  54   1     0.00   0.00   0.00    -0.00  -0.00  -0.00     0.00   0.00   0.00
  55   1    -0.00   0.00   0.00     0.00  -0.00  -0.00     0.00  -0.00  -0.00
  56   1    -0.00  -0.00  -0.00    -0.00   0.00  -0.00     0.00   0.00   0.00
  57   1     0.00   0.00   0.00     0.00   0.00  -0.00    -0.00  -0.00  -0.00
  58   1     0.00  -0.00   0.00     0.01  -0.02   0.00    -0.00   0.01  -0.00
  59   1    -0.00   0.00   0.00     0.00  -0.00   0.00     0.00  -0.00  -0.00
  60   1     0.00   0.00   0.00     0.00   0.00   0.00    -0.00  -0.00  -0.00
  61   1     0.02  -0.01  -0.01     0.60  -0.24  -0.21    -0.19   0.07   0.07
  62   1     0.00  -0.00  -0.00     0.04  -0.29  -0.11    -0.02   0.12   0.05
  63   1     0.01   0.01   0.00    -0.35  -0.26  -0.03     0.18   0.14   0.02
  64   1    -0.00  -0.00   0.00     0.00   0.00   0.00    -0.00  -0.00  -0.00
  65   1    -0.00  -0.01  -0.00     0.02   0.04   0.01    -0.01  -0.02  -0.01
  66   1     0.01  -0.01  -0.00    -0.04   0.04   0.03     0.02  -0.03  -0.02
  67   1     0.00   0.00  -0.00    -0.07  -0.01   0.01     0.05   0.01  -0.01
  68   1     0.01   0.03   0.01    -0.05  -0.12  -0.04     0.06   0.14   0.05
  69   1     0.00  -0.00  -0.00     0.00  -0.00  -0.00    -0.03   0.02   0.03
  70   1    -0.00  -0.01  -0.00     0.01   0.02   0.01    -0.04  -0.08  -0.05
  71   1     0.00   0.00  -0.00    -0.00  -0.00   0.00     0.00   0.01  -0.01
  72   1     0.01  -0.01  -0.02     0.00  -0.00  -0.00     0.00  -0.00  -0.00
  73   1    -0.00   0.01   0.00     0.00  -0.01  -0.00    -0.00   0.00   0.00
  74   1     0.01   0.02  -0.02    -0.00  -0.00   0.00     0.00   0.00  -0.00
  75   1     0.01  -0.01  -0.02     0.00  -0.00  -0.00     0.00  -0.00  -0.00
  76   1    -0.13   0.23  -0.14     0.00  -0.00   0.00     0.01  -0.01   0.01
  77   1     0.22   0.21  -0.33    -0.00  -0.00   0.01    -0.01  -0.01   0.01
  78   1     0.57  -0.18  -0.16    -0.01   0.00   0.00    -0.02   0.01   0.01
  79   1     0.17  -0.30   0.20    -0.00   0.01  -0.00    -0.01   0.01  -0.01
  80   1    -0.12  -0.12   0.19     0.00   0.00  -0.01     0.01   0.01  -0.01
  81   1     0.04  -0.06   0.01    -0.04   0.06  -0.01    -0.06   0.09  -0.02
  82   1     0.04   0.00   0.01    -0.04  -0.00  -0.01    -0.08  -0.01  -0.02
                    235                    236                    237
                        a                      a                      a 
 Frequencies --  3097.9865              3098.1326              3103.8012
 Red. masses --     1.8826                 1.8106                 1.8582
 Frc consts  --     0.0000                 0.0000                 0.0000
 IR Inten    --    49.5401                49.9038                63.3047
 Raman Activ --     0.0000                 0.0000                 0.0000
 Depolar     --     0.0000                 0.0000                 0.0000
 Atom AN      X      Y      Z        X      Y      Z        X      Y      Z
   1   6    -0.00  -0.00  -0.00     0.00   0.00   0.00    -0.00  -0.00  -0.00
   2   6     0.00  -0.00   0.00    -0.00   0.01  -0.00     0.00  -0.00   0.00
   3   6     0.01   0.00   0.00    -0.02  -0.00  -0.00     0.00   0.00   0.00
   4   6     0.00   0.00   0.00    -0.00  -0.00  -0.00     0.00   0.00  -0.00
   5   6     0.00  -0.00   0.00    -0.00   0.00  -0.00    -0.00  -0.00   0.00
   6   7     0.00  -0.00  -0.00     0.00   0.00   0.00     0.00   0.00  -0.00
   7   6    -0.00   0.00   0.00    -0.00  -0.00   0.00    -0.00   0.00   0.00
   8   6     0.00   0.00   0.00    -0.01  -0.00  -0.00    -0.01  -0.00   0.00
   9   6    -0.02   0.01   0.02     0.01  -0.00  -0.00    -0.15   0.13   0.15
  10   6     0.01   0.01   0.01    -0.00  -0.01  -0.01     0.04   0.08   0.05
  11   6     0.00  -0.00  -0.00    -0.00   0.00   0.00     0.00  -0.00  -0.00
  12   8     0.00   0.00   0.00    -0.00  -0.00  -0.00    -0.00   0.00   0.00
  13   6    -0.00  -0.00  -0.00     0.00   0.00   0.00     0.00   0.00   0.00
  14   6    -0.00  -0.00   0.00     0.00   0.00  -0.00     0.00   0.00  -0.00
  15   6    -0.00   0.00  -0.00     0.00  -0.00   0.00     0.00  -0.00   0.00
  16   6    -0.00   0.00  -0.00     0.00  -0.00   0.00     0.00  -0.00   0.00
  17   6    -0.00  -0.00  -0.00     0.00   0.00   0.00     0.00   0.00   0.00
  18   6    -0.00   0.00   0.00     0.01  -0.00  -0.00     0.00  -0.00  -0.00
  19   6    -0.00   0.00   0.00     0.00  -0.01  -0.00     0.00  -0.00  -0.00
  20   6     0.01   0.00   0.00    -0.01  -0.01  -0.00    -0.00  -0.00  -0.00
  21   6     0.00  -0.00  -0.00    -0.00   0.00   0.00    -0.00   0.00   0.00
  22   6     0.00   0.00  -0.00    -0.00  -0.00   0.00    -0.00   0.00   0.00
  23   7    -0.00  -0.00   0.00     0.00   0.00  -0.00    -0.00  -0.00   0.00
  24   6    -0.00  -0.00  -0.00    -0.00  -0.00   0.00     0.00  -0.00  -0.00
  25   6    -0.00  -0.00  -0.00     0.00   0.00   0.00    -0.00  -0.00  -0.00
  26   6     0.00  -0.00  -0.00    -0.00   0.00   0.00     0.00  -0.00  -0.00
  27   6     0.01   0.00  -0.00    -0.00  -0.00   0.00     0.00   0.00  -0.00
  28   6     0.00   0.01   0.00    -0.00  -0.01  -0.00     0.00   0.00   0.00
  29   6    -0.00   0.00   0.00     0.00  -0.00  -0.00     0.00   0.00   0.00
  30   6     0.03  -0.02  -0.03    -0.06   0.06   0.06    -0.02   0.02   0.02
  31   6     0.03   0.08   0.05    -0.08  -0.17  -0.11     0.00  -0.00  -0.00
  32   7    -0.00  -0.00  -0.00     0.00  -0.00  -0.00     0.00  -0.00  -0.00
  33   6    -0.00   0.00  -0.00    -0.00   0.00  -0.00    -0.00  -0.00  -0.00
  34   6    -0.02  -0.04   0.05    -0.01  -0.02   0.02    -0.00  -0.01   0.01
  35   6     0.03  -0.03  -0.06     0.01  -0.01  -0.03    -0.00   0.00   0.01
  36   6     0.01  -0.17  -0.02     0.01  -0.08  -0.01    -0.00   0.01   0.00
  37   6    -0.05  -0.09   0.11    -0.02  -0.04   0.05     0.01   0.01  -0.01
  38   6    -0.03   0.03   0.05    -0.01   0.02   0.03     0.01  -0.01  -0.02
  39   6     0.00   0.00   0.00    -0.00   0.00   0.00     0.00  -0.00  -0.00
  40   6    -0.00   0.00  -0.00     0.00   0.00  -0.00    -0.00   0.00   0.00
  41   6    -0.00   0.00  -0.00    -0.00   0.00  -0.00     0.00  -0.00   0.00
  42   6     0.00   0.00  -0.00     0.00   0.00  -0.00    -0.00  -0.00   0.00
  43   6     0.00  -0.00  -0.00     0.00  -0.00  -0.00    -0.00   0.00   0.00
  44   6     0.00  -0.00   0.00     0.00  -0.00   0.00    -0.00   0.00  -0.00
  45   6     0.00   0.00  -0.00     0.00   0.00  -0.00     0.00   0.00  -0.00
  46   6     0.00  -0.00   0.00     0.00  -0.00   0.00    -0.00   0.00  -0.00
  47   6     0.00   0.00   0.00     0.00   0.00   0.00    -0.00  -0.00  -0.00
  48   1     0.00   0.00   0.00    -0.00  -0.01  -0.00     0.00   0.00   0.00
  49   1    -0.00   0.01  -0.00     0.01  -0.02   0.00    -0.00   0.00  -0.00
  50   1    -0.04  -0.00  -0.01     0.08   0.01   0.01    -0.01  -0.00  -0.00
  51   1     0.05  -0.05  -0.05    -0.02   0.01   0.02     0.54  -0.47  -0.52
  52   1    -0.02  -0.04  -0.03     0.02   0.04   0.03    -0.12  -0.26  -0.18
  53   1     0.00   0.00   0.00    -0.00  -0.00  -0.00    -0.00  -0.00  -0.00
  54   1     0.00   0.00   0.00    -0.00  -0.00  -0.00    -0.00  -0.00  -0.00
  55   1     0.00  -0.00  -0.00    -0.00   0.00   0.00    -0.00   0.00   0.00
  56   1     0.00   0.00   0.00    -0.01  -0.01  -0.00    -0.00  -0.00  -0.00
  57   1     0.00   0.00   0.00    -0.00  -0.00   0.00    -0.00  -0.00  -0.00
  58   1     0.00  -0.00   0.00    -0.00   0.00  -0.00    -0.00   0.00  -0.00
  59   1    -0.00  -0.00  -0.00    -0.00   0.00   0.00    -0.00   0.00  -0.00
  60   1     0.00  -0.00   0.00    -0.00   0.00  -0.00    -0.00  -0.00  -0.00
  61   1     0.01  -0.01  -0.00    -0.02   0.01   0.01    -0.01   0.00   0.00
  62   1     0.00  -0.01  -0.00    -0.00   0.02   0.01    -0.00   0.00   0.00
  63   1    -0.02  -0.01  -0.00     0.03   0.02   0.00     0.00   0.00   0.00
  64   1     0.00   0.00  -0.00    -0.00  -0.00   0.00     0.00   0.00  -0.00
  65   1     0.00   0.00   0.00    -0.00  -0.00  -0.00     0.00   0.01   0.00
  66   1    -0.01   0.01   0.00     0.00  -0.00  -0.00    -0.01   0.01   0.01
  67   1    -0.02  -0.00   0.00     0.01   0.00  -0.00    -0.01  -0.00   0.00
  68   1    -0.01  -0.03  -0.01     0.01   0.02   0.01    -0.00  -0.01  -0.00
  69   1    -0.11   0.09   0.10     0.24  -0.21  -0.24     0.09  -0.08  -0.09
  70   1    -0.12  -0.27  -0.18     0.27   0.60   0.40     0.01   0.02   0.01
  71   1     0.09   0.15  -0.19     0.04   0.07  -0.08     0.01   0.02  -0.03
  72   1    -0.10   0.10   0.20    -0.04   0.04   0.09     0.01  -0.01  -0.02
  73   1    -0.04   0.57   0.05    -0.02   0.25   0.02     0.00  -0.05  -0.00
  74   1     0.17   0.29  -0.37     0.08   0.14  -0.17    -0.02  -0.03   0.04
  75   1     0.09  -0.09  -0.18     0.05  -0.05  -0.10    -0.03   0.03   0.05
  76   1     0.01  -0.02   0.01     0.00  -0.00   0.00    -0.00   0.00  -0.00
  77   1    -0.01  -0.01   0.01    -0.00  -0.00   0.01     0.00   0.00  -0.00
  78   1    -0.01   0.00   0.00    -0.01   0.00   0.00     0.00  -0.00  -0.00
  79   1    -0.00   0.00  -0.00    -0.00   0.00  -0.00     0.00  -0.00   0.00
  80   1    -0.01  -0.01   0.01    -0.00  -0.00   0.01    -0.00  -0.00   0.00
  81   1    -0.00   0.00  -0.00    -0.00   0.01  -0.00     0.00  -0.01   0.00
  82   1    -0.00  -0.00  -0.00    -0.01  -0.00  -0.00     0.00   0.00   0.00
                    238                    239                    240
                        a                      a                      a 
 Frequencies --  3107.9307              3111.7135              3490.9242
 Red. masses --     1.8693                 1.8702                 1.8560
 Frc consts  --     0.0000                 0.0000                 0.0000
 IR Inten    --    23.1548                43.2400                43.0455
 Raman Activ --     0.0000                 0.0000                 0.0000
 Depolar     --     0.0000                 0.0000                 0.0000
 Atom AN      X      Y      Z        X      Y      Z        X      Y      Z
   1   6     0.00   0.00   0.00     0.00   0.00   0.00    -0.00  -0.00  -0.00
   2   6    -0.00   0.00  -0.00    -0.00   0.00  -0.00     0.00  -0.00   0.00
   3   6    -0.00  -0.00  -0.00     0.00   0.00   0.00     0.00   0.00   0.00
   4   6     0.00   0.00   0.00     0.00   0.00  -0.00    -0.00  -0.00  -0.00
   5   6     0.00  -0.00  -0.00    -0.00  -0.00   0.00     0.00   0.00  -0.00
   6   7    -0.00  -0.00   0.00     0.00  -0.00  -0.00    -0.00  -0.00   0.00
   7   6    -0.00   0.00  -0.00     0.00   0.00   0.00    -0.00   0.00  -0.00
   8   6    -0.00  -0.00   0.00     0.01  -0.00  -0.00    -0.00  -0.00  -0.00
   9   6    -0.01   0.01   0.01     0.02  -0.02  -0.02    -0.00  -0.00  -0.00
  10   6     0.00   0.00   0.00    -0.01  -0.02  -0.01    -0.00  -0.00  -0.00
  11   6     0.00  -0.00  -0.00    -0.01  -0.00  -0.00     0.00  -0.00  -0.00
  12   8     0.00   0.00   0.00     0.00   0.00   0.00    -0.00   0.00   0.00
  13   6    -0.00  -0.00  -0.00     0.00   0.00   0.00     0.00  -0.00  -0.00
  14   6    -0.00  -0.00  -0.00     0.00   0.00  -0.00     0.00  -0.00  -0.00
  15   6     0.00  -0.00   0.00     0.00   0.00  -0.00     0.00  -0.00   0.00
  16   6     0.00   0.00   0.00     0.00  -0.00   0.00    -0.00   0.00  -0.00
  17   6     0.00   0.00  -0.00    -0.00   0.00   0.00    -0.00   0.00   0.00
  18   6     0.00  -0.00  -0.00    -0.00   0.00   0.00    -0.00  -0.00  -0.00
  19   6     0.00  -0.00  -0.00    -0.00   0.00   0.00     0.00   0.00  -0.00
  20   6    -0.00  -0.00  -0.00     0.00   0.00   0.00    -0.00   0.00   0.00
  21   6    -0.00   0.00   0.00     0.00   0.00   0.00     0.00   0.00  -0.00
  22   6    -0.00   0.00   0.00    -0.00   0.00   0.00    -0.01  -0.00   0.00
  23   7    -0.00  -0.00   0.00    -0.00  -0.00   0.00    -0.15  -0.20  -0.04
  24   6     0.00  -0.00  -0.00     0.00   0.00  -0.00    -0.00  -0.01  -0.00
  25   6    -0.00  -0.00  -0.00    -0.00  -0.00  -0.00     0.00  -0.00  -0.00
  26   6     0.00  -0.00  -0.00     0.00  -0.00  -0.00    -0.00  -0.00   0.00
  27   6    -0.01  -0.00   0.00     0.00   0.00  -0.00    -0.00   0.00   0.00
  28   6    -0.00  -0.00  -0.00     0.00   0.00   0.00     0.00  -0.00  -0.00
  29   6     0.00   0.00  -0.00    -0.00   0.00   0.00     0.00   0.00   0.00
  30   6     0.00  -0.00  -0.00    -0.14   0.13   0.15     0.00  -0.00  -0.00
  31   6    -0.00  -0.00  -0.00     0.05   0.10   0.07    -0.00  -0.00  -0.00
  32   7     0.00  -0.00   0.00    -0.00   0.00   0.00    -0.00  -0.00   0.00
  33   6    -0.00   0.01   0.00     0.00  -0.00   0.00    -0.00   0.00  -0.00
  34   6     0.09   0.15  -0.19     0.00   0.00  -0.00    -0.00  -0.00   0.00
  35   6     0.04  -0.04  -0.08     0.00  -0.00  -0.00    -0.00   0.00   0.00
  36   6     0.00  -0.05  -0.00     0.00  -0.00  -0.00    -0.00   0.00   0.00
  37   6    -0.01  -0.02   0.02    -0.00  -0.00   0.00     0.00   0.00  -0.00
  38   6    -0.01   0.01   0.01    -0.00  -0.00   0.00     0.00  -0.00  -0.00
  39   6     0.00  -0.00  -0.00    -0.00  -0.00   0.00     0.00   0.00  -0.00
  40   6     0.00  -0.00   0.00     0.00  -0.00  -0.00    -0.00   0.00   0.00
  41   6     0.00  -0.00   0.00    -0.00   0.00  -0.00     0.00  -0.00   0.00
  42   6    -0.00  -0.00   0.00     0.00   0.00  -0.00    -0.00  -0.00   0.00
  43   6    -0.00   0.00   0.00     0.00  -0.00  -0.00    -0.00   0.00   0.00
  44   6     0.00  -0.00   0.00     0.00  -0.00   0.00    -0.00   0.00  -0.00
  45   6    -0.00  -0.00   0.00    -0.00  -0.00   0.00     0.00   0.00  -0.00
  46   6     0.00  -0.00   0.00     0.00  -0.00   0.00    -0.00   0.00  -0.00
  47   6     0.00   0.00   0.00     0.00   0.00   0.00    -0.00  -0.00  -0.00
  48   1    -0.00  -0.00  -0.00    -0.00  -0.00  -0.00     0.00   0.00   0.00
  49   1     0.00  -0.00   0.00     0.00  -0.00   0.00    -0.00   0.00  -0.00
  50   1     0.00   0.00   0.00    -0.00  -0.00  -0.00    -0.00  -0.00  -0.00
  51   1     0.04  -0.03  -0.04    -0.06   0.05   0.06    -0.00   0.00   0.00
  52   1    -0.01  -0.01  -0.01     0.02   0.05   0.04     0.00   0.00   0.00
  53   1    -0.00   0.00   0.00    -0.00  -0.00  -0.00    -0.00  -0.00   0.00
  54   1    -0.00   0.00  -0.00    -0.00  -0.00  -0.01    -0.00   0.00   0.00
  55   1    -0.00   0.00   0.00    -0.01   0.00   0.00    -0.00   0.00   0.00
  56   1     0.00   0.00   0.00    -0.01  -0.01  -0.00    -0.00  -0.00  -0.00
  57   1    -0.00  -0.00  -0.00    -0.00  -0.00  -0.00    -0.00  -0.00   0.00
  58   1    -0.00   0.00  -0.00     0.00  -0.00   0.00    -0.00   0.00   0.00
  59   1     0.00  -0.00  -0.00    -0.00   0.00  -0.00     0.00   0.00   0.00
  60   1    -0.00  -0.00  -0.00    -0.00   0.00  -0.00     0.00   0.00   0.00
  61   1    -0.00   0.00   0.00     0.01  -0.00  -0.00    -0.00   0.00   0.00
  62   1    -0.00   0.00   0.00     0.00  -0.00  -0.00    -0.00   0.00   0.00
  63   1     0.00   0.00   0.00    -0.01  -0.00  -0.00     0.00   0.00  -0.00
  64   1     0.00   0.00  -0.00     0.00   0.00  -0.00     0.58   0.76   0.15
  65   1     0.00   0.01   0.00     0.00   0.00   0.00     0.00   0.00   0.00
  66   1    -0.00   0.00   0.00    -0.00   0.00   0.00     0.00  -0.00  -0.00
  67   1     0.02   0.00  -0.00    -0.00  -0.00   0.00     0.00   0.00  -0.00
  68   1     0.00   0.01   0.00    -0.00  -0.01  -0.00     0.00   0.00   0.00
  69   1    -0.00   0.00   0.00     0.51  -0.45  -0.50    -0.00   0.00   0.00
  70   1     0.00   0.00   0.00    -0.15  -0.34  -0.23     0.00   0.00   0.00
  71   1    -0.30  -0.53   0.65    -0.00  -0.01   0.01     0.00   0.00  -0.00
  72   1    -0.12   0.12   0.24    -0.00   0.00   0.01     0.00  -0.00  -0.00
  73   1    -0.01   0.17   0.01    -0.00   0.01   0.00     0.00  -0.00  -0.00
  74   1     0.03   0.05  -0.07     0.00   0.00  -0.00    -0.00  -0.00   0.00
  75   1     0.02  -0.02  -0.05     0.00   0.00   0.00    -0.00   0.00   0.00
  76   1    -0.01   0.01  -0.01     0.00  -0.00   0.00    -0.00   0.00  -0.00
  77   1     0.00   0.00  -0.01    -0.00  -0.00   0.00     0.00   0.00  -0.00
  78   1     0.00  -0.00  -0.00    -0.00   0.00   0.00     0.00  -0.00  -0.00
  79   1    -0.00   0.00  -0.00    -0.00   0.00  -0.00     0.00  -0.00   0.00
  80   1     0.00   0.00  -0.01     0.00   0.00  -0.00    -0.00  -0.00   0.00
  81   1    -0.00   0.00  -0.00    -0.00   0.00  -0.00     0.00  -0.00   0.00
  82   1    -0.00  -0.00  -0.00    -0.00  -0.00  -0.00     0.00   0.00   0.00
