$hessian                                                                        
        0.6134536894   0.0519461006   0.1308946759  -0.3086938460   0.0112542707
       -0.0789385716  -0.0317140841  -0.0826512417   0.0151030267  -0.0451872188
        0.0246246375  -0.0189906550  -0.0007574032  -0.0012117390   0.0004031774
        0.0003537720   0.0000182049   0.0002967817   0.0001640824  -0.0001557388
       -0.0001001052  -0.0000424603  -0.0000542102  -0.0000061736   0.0000169172
        0.0000079510   0.0000088093   0.0000048841  -0.0000091260  -0.0000000718
        0.0000058064  -0.0000032914  -0.0000038992  -0.0000121215  -0.0000135970
       -0.0000007388   0.0000068117   0.0000057989  -0.0000062660   0.0000017632
        0.0000021023  -0.0000011445   0.0000007095   0.0000040101  -0.0000017392
        0.0000029670   0.0000072686   0.0000006664   0.0000015597  -0.0000028596
       -0.0000013601   0.0000046474   0.0000011388  -0.0000002585   0.0000008157
        0.0000000196  -0.0000002155   0.0000009034   0.0000049569   0.0000037930
        0.0000014084  -0.0000023260  -0.0000030969   0.0000019096   0.0000059402
        0.0000051132  -0.0000071063  -0.0000006143  -0.0000023833   0.0000084649
       -0.0000015375  -0.0000011928  -0.0000010407   0.0000017154   0.0000004402
       -0.0000001966   0.0000002657   0.0000003642  -0.0000002437   0.0000008516
        0.0000001223   0.0000025464   0.0000007534  -0.0000001799  -0.0000015618
        0.0000034914   0.0000027665  -0.0000249510  -0.0000068849   0.0000026801
        0.0000082685   0.0000360425   0.0000150927  -0.0004748616  -0.0003129719
        0.0001189859   0.0000284596   0.0000857010   0.0000263555   0.0000070571
       -0.0000391078   0.0000102878  -0.0000075480   0.0000086106  -0.0000063228
       -0.0000002797  -0.0000030654  -0.0000014478  -0.0000004166  -0.0000034733
        0.0000017273   0.0000053947  -0.0000266410   0.0000058852   0.0001823773
        0.0009324383  -0.0001563325  -0.0001133946  -0.0000213351   0.0000131708
        0.0001346215  -0.0001496203   0.0000101968  -0.0001155499   0.0000224224
        0.0000604402  -0.0000198544   0.0000715789  -0.0001147436   0.0001387951
       -0.0000438598   0.0000476431   0.0000097370   0.0001654206   0.0001103895
        0.0539377267   0.0344234140   0.0049706352  -0.1491178752   0.0497317068
       -0.0465644430  -0.0982765180  -0.1043780311   0.0131587237  -0.0169278504
        0.0005291340  -0.0054488174   0.0004731745  -0.0031465448  -0.0014966856
        0.0000203563  -0.0000221291  -0.0000301167  -0.0000055627  -0.0000048045
       -0.0000001712  -0.0000000558   0.0000018038   0.0000031740   0.0000022592
       -0.0000011944   0.0000005020  -0.0000009070  -0.0000029153   0.0000014688
       -0.0000036607   0.0000020264   0.0000016686   0.0000019573   0.0000011894
        0.0000018489  -0.0000042510  -0.0000026039   0.0000004213  -0.0000006186
       -0.0000033370   0.0000015343  -0.0000006602  -0.0000003436  -0.0000003050
       -0.0000021257  -0.0000013174  -0.0000004014  -0.0000005329   0.0000007417
        0.0000007693  -0.0000018655   0.0000011506   0.0000009777   0.0000009867
        0.0000000114   0.0000001104   0.0000004118  -0.0000000246  -0.0000005580
       -0.0000013907   0.0000003206  -0.0000002341  -0.0000014441   0.0000009427
        0.0000001052  -0.0000002837   0.0000012846   0.0000005965  -0.0000063085
       -0.0000046891  -0.0000012834  -0.0000011322  -0.0000024683  -0.0000012632
       -0.0000014123   0.0000060089  -0.0000068200  -0.0000010620  -0.0000076667
        0.0000042781   0.0000015146  -0.0000058678  -0.0000005581   0.0000013802
       -0.0000067649  -0.0000038487  -0.0000013785   0.0000018238  -0.0000021291
       -0.0000123955   0.0000002655   0.0000009867   0.0000052675   0.0000090624
        0.0000118793  -0.0000001728  -0.0000032972  -0.0000081931   0.0000069742
        0.0000080359  -0.0000011164  -0.0000213726   0.0000165268  -0.0000535923
        0.0003794932  -0.0038227101  -0.0011296813  -0.0178148966   0.0221828098
       -0.0122151549
        0.0519461006   0.6238182142  -0.1430802962  -0.0623576260  -0.0935365692
       -0.0043299156  -0.0273428548   0.0132098327  -0.0118187676   0.0248589651
       -0.0049248109   0.0070588344  -0.0011830997  -0.0026505160   0.0002012048
        0.0007236241   0.0004527794   0.0001500977   0.0001445178  -0.0005286923
        0.0000315228   0.0000342471   0.0000421727  -0.0000455574   0.0000008346
       -0.0000294289  -0.0000144653  -0.0000152503  -0.0000061202  -0.0000006276
        0.0000236290   0.0000044053   0.0000005255  -0.0000290546  -0.0000033360
        0.0000002593   0.0000077288  -0.0000142021  -0.0000057180  -0.0000013842
       -0.0000016483  -0.0000002535   0.0000002138  -0.0000007114  -0.0000000468
       -0.0000029783  -0.0000005281   0.0000007766   0.0000007345   0.0000009056
       -0.0000010423  -0.0000029205   0.0000006778  -0.0000015649   0.0000000002
       -0.0000004233  -0.0000008356  -0.0000008547  -0.0000002468  -0.0000005317
       -0.0000007130   0.0000016184   0.0000013521  -0.0000017124  -0.0000024221
       -0.0000020348   0.0000029648   0.0000035465   0.0000010355  -0.0000023170
        0.0000013213   0.0000015485  -0.0000007180  -0.0000001291  -0.0000003473
        0.0000002268   0.0000013947  -0.0000009876  -0.0000013576   0.0000013014
        0.0000007493  -0.0000017629   0.0000015836   0.0000009020   0.0000003910
        0.0000000796  -0.0000005335  -0.0000055478  -0.0000026397   0.0000058653
       -0.0000071053   0.0000159978   0.0000024927  -0.0003094405   0.0002658194
        0.0000454567   0.0000100836   0.0000103983   0.0000053416   0.0000098891
        0.0000022958  -0.0000157251   0.0000005274  -0.0000030539  -0.0000025012
       -0.0000001049  -0.0000020358  -0.0000002503  -0.0000012143  -0.0000135450
        0.0000026449  -0.0000108897   0.0000117626   0.0000008727  -0.0003708305
        0.0008508846  -0.0003473361   0.0001856573  -0.0000383288   0.0000410388
       -0.0000783846   0.0001596328  -0.0000690005   0.0000892249   0.0000061432
       -0.0000847465  -0.0000283184  -0.0000328833   0.0000795562  -0.0000622924
        0.0000183239  -0.0000071041   0.0000118111  -0.0001403645   0.0000229895
       -0.0207612474  -0.0615744874   0.0138821821   0.1230178022  -0.2317245232
        0.0944481680  -0.1044601258  -0.2385260907   0.0325050734   0.0229046173
        0.0006525240   0.0067692435  -0.0035608988  -0.0035936819   0.0025683829
        0.0000004364   0.0000005753  -0.0000028780  -0.0000121097  -0.0000011126
        0.0000039393   0.0000007372   0.0000028454   0.0000011915   0.0000007709
        0.0000047898   0.0000005627   0.0000016472   0.0000013645  -0.0000008831
       -0.0000028192   0.0000016847   0.0000016131   0.0000008721   0.0000007049
        0.0000011664  -0.0000017994   0.0000003237  -0.0000005653   0.0000022966
       -0.0000010538   0.0000000052  -0.0000003049  -0.0000006011  -0.0000016306
        0.0000028867  -0.0000011941  -0.0000000124  -0.0000005633   0.0000022177
        0.0000006845   0.0000002600   0.0000002356  -0.0000004413  -0.0000000362
       -0.0000007627   0.0000003401  -0.0000011807   0.0000006126   0.0000007913
       -0.0000002222   0.0000012134   0.0000007157   0.0000004470   0.0000009362
        0.0000003053  -0.0000001453   0.0000005084   0.0000000024  -0.0000077425
       -0.0000023355   0.0000024341   0.0000036471   0.0000041923   0.0000032641
        0.0000042904   0.0000026715  -0.0000082468  -0.0000007793  -0.0000078587
        0.0000027848  -0.0000018522  -0.0000080892  -0.0000009182  -0.0000008546
       -0.0000066273   0.0000004714  -0.0000038720   0.0000027749   0.0000162131
        0.0000004269   0.0000089409  -0.0000442707   0.0000024857  -0.0000162351
       -0.0000085257   0.0000152799   0.0000065235   0.0000004312   0.0000237435
       -0.0000286174  -0.0000231871  -0.0000242954  -0.0001113838   0.0000413532
       -0.0032909837  -0.0035608961   0.0026646614  -0.0000834537   0.0015214551
       -0.0006492989
        0.1308946759  -0.1430802962   0.1974861801  -0.0566337524   0.0176659793
       -0.0689155080  -0.0013023433  -0.0281875863   0.0094030057  -0.0194039528
        0.0067320966  -0.0141216022   0.0001922891   0.0004881295  -0.0002028981
       -0.0001698437  -0.0002028504   0.0000421733   0.0000357970   0.0001309572
       -0.0000235378  -0.0000258592  -0.0000298583   0.0000160556   0.0000019977
        0.0000145614   0.0000080567   0.0000088618  -0.0000036779   0.0000039252
       -0.0000089789   0.0000009676  -0.0000112353   0.0000041020  -0.0000025365
        0.0000016546   0.0000005842   0.0000059847  -0.0000035918  -0.0000019819
        0.0000001684   0.0000014370   0.0000006522   0.0000008106  -0.0000009512
        0.0000012406   0.0000020731   0.0000020731  -0.0000000342   0.0000008285
        0.0000006351   0.0000015247  -0.0000047124  -0.0000020251   0.0000020422
       -0.0000074576   0.0000029258  -0.0000014879  -0.0000009097   0.0000036464
        0.0000004874  -0.0000031466  -0.0000044715  -0.0000009474   0.0000063872
       -0.0000014407  -0.0000020384  -0.0000024372   0.0000021500   0.0000023335
       -0.0000005698   0.0000018859  -0.0000003666  -0.0000006155  -0.0000009203
        0.0000035023   0.0000022511  -0.0000026519  -0.0000000517  -0.0000015186
        0.0000001366  -0.0000008028   0.0000001909   0.0000012330   0.0000007758
        0.0000007994   0.0000022340  -0.0000037225  -0.0000037388  -0.0000002613
        0.0000067859   0.0000063579   0.0000031293  -0.0000312350  -0.0002022740
        0.0000426523   0.0000066978   0.0000218326   0.0000083055  -0.0000011099
       -0.0000142629   0.0000042914  -0.0000011421   0.0000040848  -0.0000001499
       -0.0000008692  -0.0000024411  -0.0000005730   0.0000020118   0.0000048924
        0.0000016304   0.0000053412  -0.0000103506  -0.0000005535   0.0001762670
        0.0000023619   0.0000726328  -0.0001007739   0.0000782114   0.0000093230
        0.0001014132  -0.0001228034   0.0000566979  -0.0000956564   0.0000026717
        0.0000609339   0.0000079445   0.0000418550  -0.0000815047   0.0001100249
       -0.0000241813   0.0000249936  -0.0000318183   0.0001718379   0.0000102065
        0.0224370856   0.0299861862  -0.0016894761  -0.0690423944   0.0718784511
       -0.0908261945   0.0131801808   0.0325579254  -0.0396737025  -0.0121140702
        0.0002106175  -0.0028802673  -0.0010701651   0.0026663634   0.0069832223
        0.0000087590  -0.0000064847  -0.0000127386  -0.0000001633   0.0000008945
       -0.0000004549   0.0000014442  -0.0000021868  -0.0000006958  -0.0000010267
       -0.0000018382   0.0000001227   0.0000000557  -0.0000030009   0.0000009044
       -0.0000010284   0.0000024595  -0.0000011885  -0.0000002419   0.0000015018
       -0.0000008932   0.0000021925  -0.0000000531  -0.0000016139  -0.0000001540
       -0.0000006510   0.0000000005   0.0000014402  -0.0000015344   0.0000022996
       -0.0000008420  -0.0000002995  -0.0000000662  -0.0000008225   0.0000059296
       -0.0000012720  -0.0000013155  -0.0000014040  -0.0000005308   0.0000002418
        0.0000015746  -0.0000012485  -0.0000002957  -0.0000002617   0.0000001265
        0.0000003641   0.0000001104  -0.0000004422   0.0000008494   0.0000003519
       -0.0000014459   0.0000001654  -0.0000001017   0.0000001693  -0.0000015879
       -0.0000008200  -0.0000002948  -0.0000005401  -0.0000006968  -0.0000022969
       -0.0000027210   0.0000129341   0.0000003243   0.0000000934   0.0000015757
        0.0000031029   0.0000028057   0.0000017935  -0.0000031683   0.0000004932
       -0.0000000237  -0.0000005436  -0.0000020716  -0.0000012896  -0.0000096657
       -0.0000077083   0.0000022610   0.0000143322  -0.0000004773   0.0000108619
        0.0000103385  -0.0000083557  -0.0000022901  -0.0000060709  -0.0000121151
        0.0000204185   0.0000098646   0.0000043677   0.0000614118  -0.0000250500
       -0.0014780055   0.0025435929   0.0069856755  -0.0056430205   0.0065776552
       -0.0027714908
       -0.3086938460  -0.0623576260  -0.0566337524   0.6164961420   0.0328774102
        0.1352463794  -0.1433206797  -0.0662178965  -0.0071694483   0.0521175510
       -0.0211639409   0.0214147779   0.0003265075   0.0056020400  -0.0034543677
       -0.0007060563  -0.0003793536  -0.0001855442  -0.0001440464   0.0006612847
        0.0001162399   0.0000351640   0.0000203755   0.0000340933  -0.0000066443
        0.0000463608   0.0000263096   0.0000272040  -0.0000027133  -0.0000029145
        0.0000254479   0.0000085084  -0.0000058541  -0.0000351976  -0.0000159183
        0.0000027641   0.0000099434   0.0000030955  -0.0000061685   0.0000026814
        0.0000040096   0.0000001771   0.0000005855   0.0000002605  -0.0000002902
        0.0000047301   0.0000057492   0.0000001690   0.0000016474  -0.0000052234
       -0.0000021338   0.0000053864  -0.0000011847   0.0000014152  -0.0000000258
       -0.0000029090   0.0000015188   0.0000004205   0.0000027113   0.0000057641
        0.0000007723  -0.0000056835  -0.0000030354   0.0000007758   0.0000055063
        0.0000066915  -0.0000093701  -0.0000016091  -0.0000028582   0.0000102826
       -0.0000035142  -0.0000019635  -0.0000013342   0.0000008084  -0.0000005293
        0.0000009652  -0.0000015072  -0.0000007467  -0.0000002281  -0.0000014841
       -0.0000000987   0.0000030007  -0.0000025672  -0.0000002971  -0.0000022065
        0.0000021660   0.0000038349  -0.0000070589   0.0000028682  -0.0000004308
        0.0000155604  -0.0000200602  -0.0000033205   0.0007027885   0.0001440554
        0.0001277057   0.0000541849  -0.0000552490   0.0000264180  -0.0000228723
        0.0000200355   0.0000017671  -0.0000013298  -0.0000082599  -0.0000048357
       -0.0000016331   0.0000113285  -0.0000012758  -0.0000073248  -0.0000021939
       -0.0000048112   0.0000036346   0.0000129151  -0.0000259627   0.0003746064
       -0.0012237862  -0.0000071848   0.0000272713   0.0000125004   0.0000329921
       -0.0000899184   0.0000864985  -0.0000107443   0.0001125614  -0.0000352648
       -0.0000601357   0.0000288168  -0.0000877584   0.0001416761  -0.0001946086
        0.0000586342  -0.0000514473   0.0000444912  -0.0001800198  -0.0001567845
       -0.0426349995  -0.0321561186  -0.0010739463  -0.0356592382   0.0736294577
       -0.0334272619  -0.0156046412  -0.0039301074  -0.0035781658  -0.1075562402
        0.0985101284  -0.0510926552  -0.0158033005  -0.0252102638   0.0027118846
       -0.0000033214  -0.0000088366  -0.0000203560   0.0000017524  -0.0000036012
       -0.0000001217  -0.0000032846  -0.0000039685   0.0000021547   0.0000000959
       -0.0000036976  -0.0000000267  -0.0000029740  -0.0000047144  -0.0000012021
       -0.0000036714  -0.0000035447   0.0000006093  -0.0000003016   0.0000022340
        0.0000001597  -0.0000025575  -0.0000034068  -0.0000016989  -0.0000029268
       -0.0000024307   0.0000025694  -0.0000021490   0.0000003905   0.0000012043
       -0.0000049843  -0.0000026439   0.0000014986  -0.0000021028  -0.0000026587
        0.0000036635  -0.0000036462  -0.0000021097   0.0000034756   0.0000005064
       -0.0000004437  -0.0000002894   0.0000000587  -0.0000001988  -0.0000018209
       -0.0000015865  -0.0000010265  -0.0000014348  -0.0000023649  -0.0000016918
        0.0000003279  -0.0000015778  -0.0000015401   0.0000022790  -0.0000004592
       -0.0000016765  -0.0000035491  -0.0000113569  -0.0000018576  -0.0000004286
        0.0000056377  -0.0000121516  -0.0000050416   0.0000027021  -0.0000001037
       -0.0000034794   0.0000022224  -0.0000009507  -0.0000027702   0.0000006497
        0.0000029772  -0.0000016718  -0.0000018086   0.0000004945   0.0000155880
        0.0000246158   0.0000031882  -0.0000142185   0.0000103747  -0.0000082085
       -0.0000108620   0.0000154742   0.0000056802   0.0000058589   0.0000085957
       -0.0000019256  -0.0000201831   0.0000513173  -0.0000408961   0.0000664706
       -0.0001020067  -0.0005610240   0.0001927414   0.0000987547   0.0020038477
       -0.0031430590
        0.0112542707  -0.0935365692   0.0176659793   0.0328774102   0.6232218305
       -0.1453052715  -0.1381808812  -0.2784317916   0.0312713508   0.0307806815
       -0.0609646337   0.0278633282   0.0036097063   0.0008340067   0.0028342794
       -0.0006138054   0.0000573354  -0.0004804631  -0.0000549898   0.0005443824
       -0.0000778727  -0.0000380354   0.0000393797   0.0000434786  -0.0000092714
        0.0000453524  -0.0000098389   0.0000446751   0.0000599020   0.0000324407
       -0.0001748278  -0.0000516200   0.0000165755   0.0001705758   0.0000505223
       -0.0000184584  -0.0000049471   0.0000195093   0.0000082820   0.0000084520
        0.0000038430   0.0000039103   0.0000049522  -0.0000029799   0.0000031606
        0.0000078727  -0.0000041638   0.0000009501   0.0000017364  -0.0000014185
       -0.0000030301   0.0000020947  -0.0000045833   0.0000007369   0.0000031475
       -0.0000041805   0.0000009829   0.0000014762  -0.0000012108   0.0000014893
        0.0000020932  -0.0000023406  -0.0000007998  -0.0000015586   0.0000058591
        0.0000011118  -0.0000028826  -0.0000050593   0.0000033398   0.0000038116
        0.0000000497  -0.0000026845   0.0000011007  -0.0000008700   0.0000006182
        0.0000021759  -0.0000005970  -0.0000019020  -0.0000003713  -0.0000017875
       -0.0000003120   0.0000020439  -0.0000016184   0.0000001229   0.0000003457
        0.0000005808   0.0000011368   0.0000555820  -0.0000267108  -0.0000356713
        0.0000267381  -0.0000510884  -0.0000152566   0.0006425077   0.0002804921
       -0.0004029247  -0.0000337210  -0.0002387107  -0.0000852553  -0.0000229619
        0.0000833414   0.0000107248   0.0000137161  -0.0000069940   0.0000053753
       -0.0000012878   0.0000030263   0.0000031766   0.0000075598  -0.0000207667
       -0.0000062422   0.0000091303   0.0000364833  -0.0000349266  -0.0003116248
       -0.0021952827   0.0008186628  -0.0000231366   0.0000662441  -0.0000762157
       -0.0001237347   0.0000504453   0.0000445874   0.0000999522   0.0000177589
       -0.0000642611  -0.0000027264  -0.0000557327   0.0001042531  -0.0001179278
        0.0000393472  -0.0000394707   0.0000324893  -0.0001004767  -0.0001096126
       -0.0298024691  -0.0191574818  -0.0046399587   0.0192400427   0.0357299216
       -0.0050554264  -0.0262344725  -0.0048822535  -0.0059557303   0.0984057365
       -0.1952441450   0.0776391571  -0.0035498283  -0.0038624694   0.0005142579
       -0.0000428343  -0.0000122774   0.0000231832   0.0000034926  -0.0000069566
       -0.0000047025  -0.0000060102  -0.0000050258  -0.0000045888  -0.0000074712
       -0.0000072430   0.0000011436  -0.0000033483  -0.0000019878   0.0000004134
       -0.0000011720  -0.0000021854  -0.0000004450  -0.0000039496   0.0000000817
       -0.0000034003   0.0000005950  -0.0000007622  -0.0000014806  -0.0000071991
        0.0000040365  -0.0000019004  -0.0000011869   0.0000025959   0.0000011748
       -0.0000051407   0.0000032285  -0.0000000980  -0.0000020840   0.0000021276
       -0.0000001078  -0.0000014732  -0.0000003928  -0.0000002255  -0.0000010693
        0.0000008153  -0.0000038227  -0.0000013138  -0.0000001457  -0.0000011169
       -0.0000006367  -0.0000003714  -0.0000009764  -0.0000006138  -0.0000007483
       -0.0000007529  -0.0000009037  -0.0000007388  -0.0000003071   0.0000055734
        0.0000130390   0.0000012975  -0.0000161635   0.0000040637   0.0000033489
        0.0000079836  -0.0000152722  -0.0000064255   0.0000037915   0.0000081560
       -0.0000075800  -0.0000026430   0.0000044073  -0.0000039341  -0.0000048862
        0.0000093239   0.0000062088  -0.0000080903  -0.0000102180   0.0000217638
        0.0000236820   0.0000226801  -0.0000526967  -0.0000138164   0.0000064036
       -0.0000139774   0.0000018837   0.0000142953   0.0000041204  -0.0000045689
       -0.0000169205  -0.0000026947   0.0000324798  -0.0001291806   0.0000781358
       -0.0006074877   0.0003444633  -0.0004468422   0.0026579657  -0.0025613684
        0.0039454014
       -0.0789385716  -0.0043299156  -0.0689155080   0.1352463794  -0.1453052715
        0.1990329506   0.0138097539   0.0518949837  -0.0576779777   0.0066195228
        0.0125095885  -0.0015134611  -0.0033757758   0.0031616185   0.0053089377
       -0.0002285091  -0.0008716107   0.0002521720  -0.0001395897  -0.0001598927
       -0.0001067392   0.0000102552  -0.0000325661  -0.0000315137   0.0000003334
       -0.0000106697  -0.0000002625  -0.0000032758  -0.0000243627  -0.0000085976
        0.0000758156   0.0000289220  -0.0000153149  -0.0000808389  -0.0000215989
        0.0000104603   0.0000081671  -0.0000101255  -0.0000104857  -0.0000051966
        0.0000001333  -0.0000000588  -0.0000009557   0.0000010895  -0.0000018787
       -0.0000025298   0.0000031719   0.0000011527   0.0000003481   0.0000014346
        0.0000000864  -0.0000014098  -0.0000027562  -0.0000031873   0.0000008203
       -0.0000066058   0.0000014197  -0.0000021643  -0.0000007040   0.0000022254
       -0.0000008119  -0.0000015241  -0.0000040463  -0.0000021465   0.0000028305
       -0.0000037120   0.0000005879   0.0000021113   0.0000014405   0.0000009034
        0.0000006041   0.0000027376  -0.0000011573  -0.0000003722  -0.0000025337
        0.0000028925   0.0000032872  -0.0000035445  -0.0000001645   0.0000002108
       -0.0000003327  -0.0000018977   0.0000012014   0.0000001133   0.0000004842
        0.0000011577   0.0000010255  -0.0000218357   0.0000053557   0.0000156935
       -0.0000181049   0.0000169574   0.0000117351  -0.0005498692  -0.0001262721
       -0.0002092078   0.0000353678   0.0001524979  -0.0001615140  -0.0000044090
        0.0000015790   0.0000056644   0.0000021671   0.0000200559  -0.0000171069
        0.0000000438  -0.0000016186  -0.0000044414   0.0000053647   0.0000126381
        0.0000079834   0.0000121361  -0.0000533500   0.0000064797   0.0008533959
        0.0012638863   0.0002131664  -0.0000402320   0.0000391456  -0.0000415874
        0.0000125841  -0.0000046697   0.0000008861  -0.0000101758  -0.0000094937
       -0.0000151182   0.0000177219  -0.0000159018   0.0000116284  -0.0000337937
        0.0000176791   0.0000085788   0.0000465326  -0.0000357132  -0.0000297607
       -0.0021264468  -0.0054477626  -0.0043837507  -0.0165266541   0.0115012977
       -0.0073383837   0.0032824940   0.0005425290   0.0013966254  -0.0511625911
        0.0776132997  -0.0728480538  -0.0037317492  -0.0058857154   0.0013705681
        0.0000106433  -0.0000070701  -0.0000135628  -0.0000083331   0.0000035850
        0.0000043264   0.0000022990  -0.0000006780   0.0000019962   0.0000005141
        0.0000028157  -0.0000016315   0.0000012932  -0.0000014129  -0.0000004961
       -0.0000023743   0.0000030037  -0.0000006955   0.0000007022   0.0000023790
        0.0000002055   0.0000017078   0.0000005770  -0.0000020993   0.0000026978
       -0.0000020192   0.0000000074   0.0000018957  -0.0000019752   0.0000016497
        0.0000017242  -0.0000018721  -0.0000000696  -0.0000008251   0.0000062834
       -0.0000007064  -0.0000010505  -0.0000009411  -0.0000009504   0.0000006219
        0.0000012727  -0.0000005523  -0.0000002413   0.0000006672  -0.0000001242
        0.0000005768   0.0000011883  -0.0000010454   0.0000009417   0.0000012018
       -0.0000021231   0.0000000428   0.0000006885  -0.0000002930  -0.0000064337
       -0.0000056412  -0.0000010431   0.0000037413  -0.0000005489  -0.0000009156
       -0.0000043338   0.0000160670  -0.0000034417  -0.0000011834   0.0000008890
        0.0000062444   0.0000021805  -0.0000038117  -0.0000023732   0.0000020908
       -0.0000061366  -0.0000034964   0.0000025592   0.0000001353  -0.0000065105
       -0.0000093070  -0.0000083501   0.0000109969   0.0000062306  -0.0000032770
        0.0000098659   0.0000069288  -0.0000062341   0.0000012948   0.0000044087
        0.0000035106  -0.0000085922  -0.0000018092   0.0000462796  -0.0000003473
        0.0001983281  -0.0003322675  -0.0000260078  -0.0032494524   0.0038508981
        0.0057248382
       -0.0317140841  -0.0273428548  -0.0013023433  -0.1433206797  -0.1381808812
        0.0138097539   0.6294019556   0.0614383099   0.1289678679  -0.1474400208
        0.1121642749  -0.0608022278   0.0104762007  -0.0042758425   0.0036192562
       -0.0010401032  -0.0016930737  -0.0001491798  -0.0000837462   0.0001462916
        0.0001369989   0.0001202906  -0.0000571451  -0.0001016450  -0.0000064605
       -0.0000131626  -0.0000771470  -0.0000447142  -0.0000213365  -0.0000369036
        0.0002684438   0.0001192596   0.0000187635  -0.0002784769  -0.0000768567
        0.0000275109   0.0000354348  -0.0000428791  -0.0000205498   0.0000012594
        0.0000167008   0.0000014949  -0.0000039740   0.0000105037  -0.0000022715
       -0.0000025178   0.0000073422  -0.0000056973  -0.0000022538  -0.0000003645
       -0.0000014030  -0.0000009442   0.0000019279  -0.0000049732   0.0000074010
        0.0000032385  -0.0000005382   0.0000018120   0.0000046394   0.0000026527
        0.0000024647  -0.0000005375  -0.0000004738   0.0000027684  -0.0000020619
        0.0000035028   0.0000064486   0.0000042205  -0.0000042261  -0.0000047150
       -0.0000024719   0.0000045999   0.0000002622   0.0000008064   0.0000024334
        0.0000002939  -0.0000009773   0.0000026853   0.0000005983   0.0000011457
        0.0000029151   0.0000012101   0.0000011435   0.0000015571   0.0000004486
       -0.0000012616   0.0000004389  -0.0000316494   0.0000417717   0.0000214259
       -0.0000515663   0.0000370267   0.0000319164  -0.0002828325  -0.0016684718
        0.0000171393  -0.0002217205   0.0005787557  -0.0000802077  -0.0000052130
       -0.0001630834  -0.0000192173  -0.0000034812   0.0000680491   0.0000075002
       -0.0000007479  -0.0000294736   0.0000057638   0.0000147493   0.0000842168
        0.0000004169   0.0000081568  -0.0001273429   0.0000493699  -0.0002119402
       -0.0029848355   0.0003540050  -0.0008860541   0.0002354634   0.0000978111
        0.0001423816  -0.0000818342  -0.0000558668  -0.0000427535   0.0000161329
        0.0000108337   0.0000863384  -0.0000558125   0.0000315310  -0.0001270309
        0.0000742515   0.0000044078   0.0001769263  -0.0000780511  -0.0001203469
       -0.0316691040   0.0201333328  -0.0160283406   0.0028425677   0.0005257608
        0.0023480067  -0.0050762817  -0.0015015554  -0.0032648462   0.0062613483
        0.0125755223  -0.0022555273  -0.2832110298  -0.0288582005  -0.0622812021
       -0.0000108512  -0.0000097284   0.0000625410  -0.0000280573   0.0000013140
        0.0000205531   0.0000011551   0.0000036536   0.0000151736  -0.0000048999
        0.0000084341  -0.0000065735   0.0000019698  -0.0000009338   0.0000042638
       -0.0000045113   0.0000006927   0.0000042301   0.0000031321  -0.0000094057
        0.0000030996   0.0000020378  -0.0000028505   0.0000003748  -0.0000020485
       -0.0000043724   0.0000081373  -0.0000032483  -0.0000052923  -0.0000004421
       -0.0000038063  -0.0000012279   0.0000037583  -0.0000020038   0.0000007065
        0.0000005393   0.0000003195   0.0000002033   0.0000003274  -0.0000038193
       -0.0000047943   0.0000042898  -0.0000009468  -0.0000030278   0.0000027254
       -0.0000005721  -0.0000011883   0.0000037340   0.0000001361  -0.0000002130
        0.0000025448  -0.0000005275   0.0000005297   0.0000016835  -0.0000148596
       -0.0000259917  -0.0000037102   0.0000349051  -0.0000251033  -0.0000036242
       -0.0000046298   0.0000118794   0.0000205237  -0.0000064693  -0.0000285692
        0.0000211730   0.0000004646  -0.0000179825   0.0000053663   0.0000100012
       -0.0000319944  -0.0000104604   0.0000166101   0.0000138352  -0.0000109029
       -0.0000336479  -0.0000222583   0.0000438506   0.0000394422  -0.0000381643
        0.0000282937   0.0000399867  -0.0000293793   0.0000005744   0.0000360612
       -0.0000062541  -0.0000361474  -0.0000072936   0.0000650606   0.0000796940
       -0.0050428763  -0.0010018807  -0.0035959219   0.0008931812   0.0001345823
        0.0003629066
       -0.0826512417   0.0132098327  -0.0281875863  -0.0662178965  -0.2784317916
        0.0518949837   0.0614383099   0.6147581684  -0.1337957805   0.0551417373
       -0.2116797030   0.0646605962   0.0041651547  -0.0438676570   0.0134935752
        0.0043496328   0.0007028297   0.0016872962   0.0005325869  -0.0017055077
       -0.0002768536   0.0000181242  -0.0000057345  -0.0001684451   0.0000793764
       -0.0000974672  -0.0000620586  -0.0000437054  -0.0000777832  -0.0000415077
        0.0003390152   0.0001188393  -0.0000120221  -0.0003466938  -0.0000885091
        0.0000368309   0.0000478587  -0.0000566879  -0.0000397093  -0.0000040959
        0.0000100501  -0.0000018536  -0.0000010185   0.0000021006   0.0000007198
       -0.0000048839   0.0000066366  -0.0000002643   0.0000047571  -0.0000011251
       -0.0000031777  -0.0000029072   0.0000031892  -0.0000034038  -0.0000029632
       -0.0000013846  -0.0000027029  -0.0000001366   0.0000007035  -0.0000005667
       -0.0000010267  -0.0000016573  -0.0000014726  -0.0000024415  -0.0000002711
        0.0000025797  -0.0000049445   0.0000031197  -0.0000036748   0.0000061738
       -0.0000023667   0.0000014312  -0.0000022671  -0.0000016729  -0.0000007649
        0.0000007562   0.0000001140  -0.0000005340  -0.0000007755  -0.0000006652
        0.0000000184  -0.0000001610  -0.0000011467  -0.0000012611  -0.0000009937
        0.0000019273   0.0000017058  -0.0000932529   0.0000365164   0.0000601381
       -0.0000448709   0.0001117171   0.0000232812  -0.0022454877  -0.0022537536
       -0.0000740523  -0.0002694868   0.0003512287  -0.0000916776   0.0000371471
       -0.0001996944   0.0000298346   0.0000220172   0.0000366749  -0.0000208969
        0.0000023416   0.0000157789  -0.0000102068   0.0000134264   0.0000285272
        0.0000451574   0.0000088184  -0.0001359869   0.0000475442  -0.0030427459
        0.0029537027   0.0005952519   0.0002310567  -0.0003366442   0.0000223964