66
 energy: -96.298542042557 gnorm: 0.000123138571 xtb: 6.7.1 (edcfbbe)
C            1.95296222583467       -3.13788418325964        3.52526796159087
C            0.66336951771538       -2.90039693377526        3.07455270928968
C            0.44008105455245       -1.94406411223059        2.10235254645548
C            1.50165485552950       -1.22223150198575        1.56755235489623
P            1.13452971678191        0.04061092136739        0.32649295202625
C            2.72383610248418        0.36827785326202       -0.51447521160256
C            3.12643631566366        1.67709418185851       -0.76875728385915
C            4.28006442082542        1.90941206949909       -1.49396963347304
C            5.01869515568786        0.84612514623204       -1.99146043036783
C            4.59714453723520       -0.45808968647525       -1.76986667404721
C            3.44414576999132       -0.70038699014608       -1.05103478829032
C            0.66651756311032        1.52283569474375        1.21527490799505
C            1.17201641180499        1.71343919346311        2.50533112615818
C            0.89202324418897        2.85467779723839        3.21715271813757
C            0.09592455852809        3.84611003127961        2.63139399642541
C           -0.39604690032107        3.67793695878532        1.35950102663780
C           -0.13696074346409        2.52634225446877        0.59879881960182
C           -0.69714514656693        2.38422055132043       -0.72498189513560
C           -0.92029302530762        3.51657795968594       -1.52474758192997
C           -1.45924676278647        3.43180849352002       -2.78469337901531
C           -1.83848815465258        2.18582101866995       -3.30420083720927
C           -1.66111285814469        1.06081379079902       -2.54155213763802
C           -1.04000423584770        1.11523180848408       -1.28468064792108
P           -1.12115346890209       -0.35520299703825       -0.25347360420699
C           -2.83264588896681       -0.45314078679543        0.39858026973394
C           -3.91313975529911       -0.79678902304793       -0.42168898875936
C           -5.19867609869366       -0.68589562216981        0.06426847821545
C           -5.43096158514674       -0.21826063461980        1.35222414830702
C           -4.36003956766218        0.14894095005264        2.15813017304522
C           -3.06978226229646        0.04372278427367        1.68340730280800
C           -0.91559783922327       -1.76283378270514       -1.35493161527961
C           -1.56054430988029       -2.97571757274938       -1.11094962931842
C           -1.24751659104359       -4.08803455492907       -1.86672286893179
C           -0.26879549605081       -4.01376612110470       -2.84914073950779
C            0.40365012787860       -2.81950172733020       -3.06833883217214
C            0.09525046879878       -1.70300008486010       -2.31763331995143
C            2.79622760319620       -1.46343926790994        2.02177441423555
C            3.01415811963112       -2.41768447206439        2.99991719226262
H            2.12977308008266       -3.88234203014722        4.28736909475706
H           -0.16646368871865       -3.45886429034009        3.48188668381677
H           -0.56498744402247       -1.75156444597888        1.73926757177604
H            2.54383725348297        2.50033334956650       -0.37814264559441
H            4.60292306721805        2.92455192278616       -1.67488677778295
H            5.91685358065579        1.03307203506558       -2.56119913325337
H            5.16626436685447       -1.28526371307038       -2.16893035918644
H            3.09510591995354       -1.71152119295278       -0.88665752952608
H            1.78946244112837        0.93941803815976        2.94330108212960
H            1.27943426727180        2.98683193327329        4.21659423648203
H           -0.14103990931992        4.74216228316906        3.18712485486699
H           -1.03665078413879        4.44225463039994        0.94275226528702
H           -0.62800024573459        4.48682251594483       -1.14720118726660
H           -1.59501914764727        4.32504013668902       -3.37775962740262
H           -2.26813293478565        2.11791853158301       -4.29338791142095
H           -1.96585615040774        0.09335877924892       -2.92354493310125
H           -3.73507757272768       -1.15527499154990       -1.42574836622405
H           -6.03182796553406       -0.96245696794862       -0.56684297739300
H           -6.44191009211226       -0.13298768615849        1.72196279200067
H           -4.53769951692480        0.52014056704970        3.15757083199328
H           -2.22755322574584        0.33039755229047        2.30176565110909
H           -2.31224272370722       -3.03398215667543       -0.33507063751368
H           -1.76120476882229       -5.02158854378186       -1.68681043722527
H           -0.02379601142169       -4.88758893165509       -3.43470154313802
H            1.17493983513155       -2.76307703950438       -3.82337493816313
H            0.61351094721719       -0.76513520877646       -2.48044417443772
H            3.62481955582314       -0.89889843506270        1.61823314945871
H            4.01815478301049       -2.59568444002414        3.35671068871254
