$hessian                                                                        
        0.5143965922  -0.0102178107  -0.0232638299  -0.0861477377  -0.0177250129
       -0.0420182328  -0.0149291125  -0.0029415070  -0.0205914252  -0.0090567016
       -0.0100250304  -0.0115576243   0.0069575019   0.0058534082   0.0144658922
       -0.0012870072   0.0000492558   0.0006127105   0.0006578006   0.0002063569
        0.0002945861   0.0003784519   0.0000073948  -0.0002259102  -0.0000947963
        0.0003002749   0.0009273442  -0.0023646061   0.0002462339   0.0022825519
       -0.0001137977   0.0000154845   0.0000573443  -0.0001680623  -0.0000117898
        0.0000451477  -0.0000457914  -0.0000002490   0.0000184034  -0.0000376916
       -0.0000117569  -0.0000172196   0.0000322785   0.0000060860   0.0000063671
        0.0000153966   0.0000194975   0.0000325167   0.0000158179   0.0000079386
        0.0000368600   0.0000357358   0.0000053088  -0.0000083651   0.0000529160
       -0.0000043713  -0.0000430348  -0.0001743173  -0.0000386817   0.0001139354
       -0.0002262150   0.0001774499   0.0006227728   0.0002590381   0.0000476740
       -0.0000170980  -0.0000616338  -0.0000072695  -0.0000304627   0.0000342051
       -0.0000021855   0.0000003104  -0.0000082791   0.0000070623  -0.0000042297
        0.0000261891   0.0000013439   0.0000003184  -0.0000170663   0.0000010855
       -0.0000037367   0.0000029742   0.0000023823   0.0000002053  -0.0000021501
        0.0000023032   0.0000007000   0.0000024364  -0.0000042602   0.0000014714
       -0.0000083492  -0.0000054521   0.0000041435  -0.0000013814   0.0000034617
       -0.0000005770  -0.0000042111   0.0000035721   0.0000019845   0.0000039092
       -0.0000022771  -0.0000006964  -0.0000021139  -0.0000023203   0.0000012256
        0.0000018983  -0.0000005420  -0.0000001130  -0.0000001816  -0.0000016037
        0.0000000135  -0.0000009438  -0.0000005427   0.0000002564   0.0000100528
       -0.0000008990   0.0000014262  -0.0000122054   0.0000007769  -0.0000021413
        0.0000050768   0.0000043828  -0.0000013120   0.0000003426  -0.0000016300
       -0.0000000765   0.0000009789  -0.0000002174   0.0000001897  -0.0000002740
        0.0000009286  -0.0000002809   0.0000001710   0.0000003369  -0.0000008129
        0.0000004057  -0.0000005225  -0.0000009234  -0.0000000886  -0.0000002461
       -0.0000002078  -0.0000001645  -0.0000000336  -0.0000004689   0.0000000804
       -0.0000006161  -0.0000000766  -0.0000014797   0.0000014186  -0.0000002001
       -0.0000016633  -0.0000005898  -0.0000006924   0.0000005805   0.0000008424
       -0.0000005823  -0.0000005261  -0.0000006243   0.0000003160   0.0000010593
       -0.0000004950  -0.0000003994   0.0000006501   0.0000005777  -0.0000003356
       -0.0000001920  -0.0000002067  -0.0000008229   0.0000001356   0.0000001216
       -0.0000003361  -0.0000001980   0.0000001495   0.0000002047   0.0000009924
        0.0000017676  -0.0000004688   0.0000016410  -0.0000046041   0.0000034192
       -0.0000017388   0.0000014022  -0.0000007373   0.0000010340   0.0000020065
       -0.0000015238  -0.0000024375   0.0000033330  -0.0000011071   0.0000000601
        0.0000030106  -0.0000005373   0.0000057067  -0.0000015882   0.0000000099
       -0.0000016906  -0.0000108446  -0.0000012655  -0.0000009491   0.0000015377
       -0.0000063728  -0.0000013712   0.0000011792   0.0000010865  -0.0000003685
       -0.0000002660  -0.0000004975  -0.0000006699  -0.0000009105   0.0000002207
        0.0000006198   0.0000059990  -0.0000113415   0.0000003493   0.0000150251
        0.0000234806   0.0000008245  -0.0000068218   0.0000037692   0.0000002672
        0.0000003265  -0.0000001771  -0.0000004441  -0.0000002393   0.0000000644
        0.0000009782   0.0000001013   0.0000000628  -0.0000006133  -0.0000017663
       -0.0000000933   0.0000010911   0.0000001066  -0.0000009474  -0.0000007187
       -0.0000197153  -0.0000186205   0.0000003397   0.0000015474   0.0000050759
        0.0000011657  -0.0000055196  -0.0000035899   0.0000013377   0.0000008072
       -0.0000017163  -0.0000009772  -0.0000029503  -0.0000031793  -0.0000020768
        0.0000045071   0.0000021572   0.0000112330   0.0000056509  -0.0000143339
       -0.0000681765  -0.0000052913   0.0000195394  -0.0852546001  -0.0887704160
        0.0165138673  -0.1636128529   0.0176793845   0.1178849637  -0.1557126342
        0.1055294098  -0.0544170592  -0.0033527822   0.0027644833  -0.0024418389
        0.0004606038  -0.0006761845  -0.0012209656   0.0005571089  -0.0007052720
        0.0002805311   0.0002615264  -0.0001597036  -0.0011329389   0.0005563011
        0.0007373268   0.0000581686  -0.0012583833  -0.0030327661   0.0000477426
       -0.0009039539   0.0006116765   0.0025649201   0.0000242996   0.0000124462
        0.0000106171   0.0001581013   0.0000525540   0.0000408339   0.0000408703
        0.0000011423  -0.0000243145  -0.0000035314  -0.0000079289  -0.0000058325
       -0.0000051311   0.0000008450  -0.0000079841   0.0000133632   0.0000054372
        0.0000108722  -0.0000084586  -0.0000006383  -0.0000085880   0.0000194465
       -0.0000014975   0.0000086611  -0.0000075166   0.0000001172  -0.0000048834
        0.0000173071   0.0000109135   0.0000050360  -0.0000079916  -0.0000058835
       -0.0000076300  -0.0000057543  -0.0000065430  -0.0000030795  -0.0000054403
        0.0000064221   0.0000215784  -0.0000260559   0.0000057594   0.0000257739
        0.0000085157  -0.0000135572   0.0000142967  -0.0000100706   0.0000021984
        0.0000000170   0.0000029441   0.0000011100   0.0000023331  -0.0000037655
       -0.0000044482   0.0000022558   0.0000022089   0.0000012270   0.0000001933
       -0.0000014068   0.0000019575   0.0000004510  -0.0000006350   0.0000001253
        0.0000013704  -0.0000014911   0.0000001995  -0.0000001024  -0.0000005853
        0.0000005135   0.0000000259  -0.0000001277   0.0000001099   0.0000000275
       -0.0000012639  -0.0000003711   0.0000000569   0.0000001237   0.0000001265
        0.0000007542  -0.0000002025   0.0000009137  -0.0000002123  -0.0000007396
       -0.0000002023  -0.0000002013   0.0000000725   0.0000004090  -0.0000000066
       -0.0000000777   0.0000002857   0.0000003912  -0.0000006764  -0.0000002485
       -0.0000000479  -0.0000000633   0.0000002438  -0.0000000810   0.0000000743
        0.0000000790   0.0000001679  -0.0000010493   0.0000004198  -0.0000000900
       -0.0000009473  -0.0000001536  -0.0000000370  -0.0000005737  -0.0000004078
        0.0000006062  -0.0000007714   0.0000008986  -0.0000001355  -0.0000000722
       -0.0000003044  -0.0000000969   0.0000001608   0.0000001087   0.0000002290
       -0.0000005566   0.0000007800   0.0000000690  -0.0000003166   0.0000002077
        0.0000005798  -0.0000003023  -0.0000000521   0.0000002792   0.0000001803
       -0.0000000941   0.0000004900  -0.0000001704   0.0000004979  -0.0000000268
       -0.0000000442   0.0000002412   0.0000002697  -0.0000006197  -0.0000003221
        0.0000002780  -0.0000020843  -0.0000001196   0.0000010022  -0.0000000428
       -0.0000006083   0.0000006910  -0.0000019858  -0.0000013806   0.0000005389
        0.0000001647  -0.0000011254   0.0000005896   0.0000003633  -0.0000000148
        0.0000008994   0.0000000873   0.0000003652   0.0000028714  -0.0000000973
        0.0000012819   0.0000026830   0.0000000831   0.0000022372   0.0000017322
       -0.0000009238   0.0000001359   0.0000004462  -0.0000013451   0.0000012246
        0.0000001192  -0.0000008275   0.0000019175   0.0000001153   0.0000006611
        0.0000012615   0.0000005981  -0.0000002775  -0.0000004285   0.0000011458
       -0.0000010367   0.0000034673   0.0000012071  -0.0000008910   0.0000017826
        0.0000008702  -0.0000008155   0.0000012679   0.0000026401  -0.0000001922
        0.0000007966   0.0000032634  -0.0000046904  -0.0000095003   0.0000159770
        0.0000131130   0.0000017059   0.0000107047
       -0.0102178107   0.5201331881  -0.0250146182  -0.0184242812  -0.0776252505
       -0.0350307835   0.0095363195   0.0033520435   0.0137297231  -0.0159886137
       -0.0164545222  -0.0204769930  -0.0004183957  -0.0014265743  -0.0057168151
        0.0000006783  -0.0007887424   0.0002230996  -0.0001104184   0.0000770810
       -0.0000381003  -0.0000111203   0.0000349586  -0.0001498456  -0.0000897872
       -0.0000102986  -0.0002311937   0.0003769262   0.0006171827  -0.0006483070
        0.0000464776  -0.0000297882   0.0000013944  -0.0000194895   0.0000100072
        0.0000193312  -0.0000018957   0.0000043996  -0.0000032859  -0.0000065079
       -0.0000056165   0.0000003106   0.0000007362   0.0000026571   0.0000010861
       -0.0000002367   0.0000032761   0.0000091494  -0.0000000137   0.0000054611
        0.0000112189  -0.0000077192  -0.0000043768  -0.0000177919   0.0000246098
        0.0000094739   0.0000098187  -0.0000368029  -0.0000278928  -0.0000296428
       -0.0000114233  -0.0000004020   0.0001175516  -0.0000091544   0.0000025549
        0.0000005674  -0.0000045446  -0.0000001579   0.0000062025  -0.0000068214
       -0.0000076014   0.0000023383   0.0000016284   0.0000024777   0.0000041241
        0.0000003235  -0.0000002614  -0.0000003575   0.0000026014  -0.0000016973
        0.0000015379  -0.0000011436  -0.0000018795  -0.0000017915  -0.0000004685
        0.0000015223  -0.0000001264  -0.0000011160   0.0000008017   0.0000002156
        0.0000017125  -0.0000007837   0.0000023739   0.0000004538   0.0000020374
        0.0000004642   0.0000007395  -0.0000006815   0.0000008362   0.0000004652
        0.0000013198   0.0000007926  -0.0000008695  -0.0000006803   0.0000002396
       -0.0000018089  -0.0000030391  -0.0000024285   0.0000011576   0.0000020821
        0.0000021541   0.0000007757   0.0000004836   0.0000025421  -0.0000010018
       -0.0000008157   0.0000002938   0.0000012279  -0.0000006153  -0.0000023450
       -0.0000001161  -0.0000002296  -0.0000009553   0.0000009878   0.0000007444
        0.0000010043  -0.0000000147  -0.0000011555  -0.0000000977   0.0000001162
        0.0000007137   0.0000004931  -0.0000008465  -0.0000007732  -0.0000000157
        0.0000007553  -0.0000001821   0.0000000533  -0.0000001006   0.0000002082
       -0.0000000117   0.0000003995  -0.0000006551   0.0000006992   0.0000001376
        0.0000003108  -0.0000011780  -0.0000001690  -0.0000008377  -0.0000002469
        0.0000006553   0.0000014900   0.0000017153  -0.0000008778  -0.0000038989
       -0.0000045815  -0.0000001599   0.0000057913   0.0000044343  -0.0000000492
       -0.0000005499  -0.0000000300  -0.0000001100   0.0000002767  -0.0000013758
       -0.0000001629  -0.0000001568   0.0000000251  -0.0000013377   0.0000014270
       -0.0000008157   0.0000011279  -0.0000007148  -0.0000005614  -0.0000017041
       -0.0000019178  -0.0000018092   0.0000007637   0.0000028521   0.0000045961
       -0.0000002041   0.0000013787   0.0000013097  -0.0000016570  -0.0000007105
       -0.0000016205  -0.0000002426  -0.0000013773   0.0000013080   0.0000020925
       -0.0000019078  -0.0000013304  -0.0000017493  -0.0000018874  -0.0000003105
        0.0000003723  -0.0000021936  -0.0000011667   0.0000003193  -0.0000000710
       -0.0000008997  -0.0000010680  -0.0000000926  -0.0000002496  -0.0000002031
       -0.0000015634   0.0000017838  -0.0000010396  -0.0000000671  -0.0000001112
        0.0000020997   0.0000005225   0.0000021965  -0.0000027234   0.0000089375
        0.0000048559  -0.0000009497  -0.0000036208   0.0000000046   0.0000007779
        0.0000014477  -0.0000020752   0.0000009845  -0.0000017382   0.0000028541
       -0.0000021874  -0.0000016329  -0.0000019173  -0.0000028185   0.0000000366
        0.0000024679  -0.0000008716   0.0000014051  -0.0000016417   0.0000012461
       -0.0000081348  -0.0000078074  -0.0000024275  -0.0000000774   0.0000031545
       -0.0000005820  -0.0000041395  -0.0000019828  -0.0000005137  -0.0000024907
        0.0000015003   0.0000003093   0.0000004496  -0.0000004633  -0.0000001123
        0.0000016737   0.0000012534   0.0000027923   0.0000008773  -0.0000034139
       -0.0000059932  -0.0000030920   0.0000071428  -0.0888259785  -0.2337195039
        0.0358543769   0.0176385486  -0.0465103393  -0.0159421838   0.1057998634
       -0.1435765390   0.0518391797   0.0032645261  -0.0018273623   0.0021795102
       -0.0000169417   0.0004253536   0.0007801995   0.0007453667   0.0008372945
        0.0006875207   0.0004385889   0.0005012338  -0.0009882453  -0.0005863506
        0.0007431754  -0.0010061277  -0.0031284574  -0.0052217192  -0.0000436279
       -0.0000625288   0.0005485639  -0.0001793524  -0.0000045695  -0.0000026378
        0.0000184480   0.0000737972  -0.0000613401   0.0000599701   0.0000197918
       -0.0000118025  -0.0000012004  -0.0000006161   0.0000003134   0.0000008621
        0.0000019424   0.0000023232  -0.0000055933   0.0000003843  -0.0000011016
       -0.0000007538   0.0000019483  -0.0000077998  -0.0000028572  -0.0000010250
        0.0000008236  -0.0000016166   0.0000018779   0.0000025562  -0.0000040871
       -0.0000006632   0.0000000434  -0.0000041634   0.0000043927  -0.0000033615
       -0.0000007147  -0.0000015102   0.0000027615   0.0000005189   0.0000001714
       -0.0000012837  -0.0000025078   0.0000024107  -0.0000018398  -0.0000077584
        0.0000020262   0.0000028440  -0.0000143475   0.0000053262   0.0000022655
       -0.0000035523  -0.0000013291   0.0000022251  -0.0000001499   0.0000002779
        0.0000021844   0.0000010913  -0.0000000802   0.0000029985  -0.0000014413
       -0.0000000503   0.0000007116  -0.0000005819   0.0000001943   0.0000004945
       -0.0000003670  -0.0000001076   0.0000000067  -0.0000002780  -0.0000000901
        0.0000003784  -0.0000003449   0.0000002907   0.0000003970   0.0000005362
       -0.0000003263  -0.0000001175   0.0000000347   0.0000001875   0.0000002703
        0.0000006461   0.0000002219   0.0000003124  -0.0000006859   0.0000001693
        0.0000001399   0.0000003684  -0.0000002200   0.0000002485  -0.0000004304
       -0.0000001983  -0.0000006572   0.0000002268  -0.0000001650   0.0000002246
       -0.0000000457  -0.0000004988   0.0000002700   0.0000000463   0.0000001784
        0.0000003824   0.0000009551  -0.0000003637   0.0000003215   0.0000004773
        0.0000004014   0.0000005273  -0.0000000386  -0.0000003851   0.0000002510
       -0.0000000936   0.0000001658  -0.0000002877  -0.0000002728  -0.0000004589
       -0.0000001791   0.0000008523   0.0000000679  -0.0000002430   0.0000001781
        0.0000002242  -0.0000006127  -0.0000002295   0.0000022126  -0.0000020677
       -0.0000000421   0.0000009462  -0.0000008336  -0.0000003454  -0.0000009554
       -0.0000000453  -0.0000002619   0.0000001330   0.0000000066  -0.0000000568
       -0.0000000375   0.0000005273  -0.0000001026   0.0000000679   0.0000000504
       -0.0000006163   0.0000005993  -0.0000007020  -0.0000002130  -0.0000004262
        0.0000005338   0.0000006180   0.0000014603   0.0000010675   0.0000000308
       -0.0000009205   0.0000014158   0.0000011383   0.0000015920   0.0000014194
       -0.0000008842  -0.0000000499   0.0000013307   0.0000001611   0.0000001216
        0.0000002395  -0.0000003807   0.0000002170   0.0000005714  -0.0000008824
        0.0000019178   0.0000006017  -0.0000007075   0.0000010205   0.0000002542
       -0.0000001676   0.0000016778  -0.0000003619   0.0000007713   0.0000009368
       -0.0000000572  -0.0000003210   0.0000007708  -0.0000006699  -0.0000008860
        0.0000006368   0.0000001800   0.0000006662   0.0000010628   0.0000001505
        0.0000006290   0.0000006438   0.0000033117   0.0000000964  -0.0000000716
        0.0000016208   0.0000002861   0.0000026548   0.0000010242  -0.0000005012
        0.0000030275   0.0000012587   0.0000004990
       -0.0232638299  -0.0250146182   0.4646388743  -0.0441461695  -0.0353990071
       -0.1484161142  -0.0110007428  -0.0010605174  -0.0140278096  -0.0012666460
       -0.0024542618  -0.0001842324  -0.0045664814  -0.0087749132  -0.0237934763
        0.0001081550   0.0001706172  -0.0004263698  -0.0006623564  -0.0002022616
       -0.0000763623  -0.0001382182  -0.0001221877  -0.0001646014  -0.0001476948
       -0.0004522646  -0.0011263836   0.0026384445  -0.0004982514  -0.0021628182
        0.0002006110   0.0000045984  -0.0000908169  -0.0000132226  -0.0000091417
       -0.0000129378   0.0000262088   0.0000021723  -0.0000028317   0.0000116241
        0.0000111216   0.0000193507  -0.0000147448  -0.0000016234   0.0000086750
       -0.0000044608  -0.0000035996   0.0000149227  -0.0000077554   0.0000102661
        0.0000106463  -0.0000334823  -0.0000093748  -0.0000044087   0.0000125651
        0.0000079860   0.0000196769  -0.0000186472  -0.0000384297  -0.0001858559
        0.0000771589  -0.0000022111  -0.0000680705  -0.0001500436  -0.0000198354
        0.0000097118   0.0000309473  -0.0000018743   0.0000185889  -0.0000157150
        0.0000019644  -0.0000013303   0.0000083137   0.0000000229  -0.0000033349
       -0.0000185174  -0.0000032455   0.0000028656   0.0000111597   0.0000009520
        0.0000054119  -0.0000041639  -0.0000014385  -0.0000004411   0.0000031136
       -0.0000023902   0.0000006630  -0.0000045463   0.0000048877   0.0000002087
        0.0000097182   0.0000047427  -0.0000037555   0.0000009673  -0.0000028869
        0.0000022688   0.0000049756  -0.0000008235   0.0000022033  -0.0000007443
        0.0000020554  -0.0000015888   0.0000011527   0.0000024995  -0.0000008751
       -0.0000011677   0.0000021163   0.0000011815   0.0000011135   0.0000004337
       -0.0000016875   0.0000011196   0.0000013016  -0.0000020840  -0.0000061497
        0.0000016455  -0.0000008624   0.0000071666   0.0000002614   0.0000028089
       -0.0000012398  -0.0000025627   0.0000010839   0.0000007181   0.0000011869
       -0.0000001323  -0.0000005595  -0.0000002785   0.0000005094   0.0000000936
       -0.0000007732  -0.0000004455  -0.0000000341  -0.0000000578  -0.0000002404
       -0.0000000053   0.0000004014  -0.0000001505   0.0000002372   0.0000001026
       -0.0000000475   0.0000001062   0.0000003485  -0.0000001851  -0.0000004688
        0.0000006633  -0.0000000394   0.0000009478  -0.0000008965   0.0000007241
        0.0000013943   0.0000008227  -0.0000018374   0.0000000783   0.0000007107
        0.0000014058   0.0000014487  -0.0000017687  -0.0000017914  -0.0000000411
        0.0000000797  -0.0000008401   0.0000000913  -0.0000001968  -0.0000000568
       -0.0000000863  -0.0000001180  -0.0000004220   0.0000009111  -0.0000012299
       -0.0000001322  -0.0000024775   0.0000013273   0.0000007556   0.0000004347
       -0.0000005701   0.0000006450  -0.0000018066   0.0000008283  -0.0000025780
        0.0000005005  -0.0000014502   0.0000012776   0.0000009242  -0.0000009762
        0.0000017550   0.0000022454  -0.0000032204  -0.0000003746  -0.0000013635
       -0.0000023331   0.0000045105  -0.0000037850   0.0000019795   0.0000003520
        0.0000022871  -0.0000004158   0.0000040538   0.0000004938  -0.0000001777
        0.0000001844   0.0000000347  -0.0000009105   0.0000020812   0.0000002986
        0.0000020418  -0.0000010196  -0.0000003352   0.0000029338   0.0000045420
       -0.0000009594   0.0000038670  -0.0000156864   0.0000021374   0.0000029397
        0.0000180965  -0.0000014066   0.0000017911  -0.0000001042  -0.0000003661
       -0.0000004125   0.0000013448  -0.0000008314   0.0000003601  -0.0000005640
       -0.0000003202   0.0000011812   0.0000003401   0.0000007055   0.0000001867
       -0.0000005689  -0.0000026124   0.0000006692   0.0000007384  -0.0000007477
       -0.0000078386  -0.0000057371  -0.0000000090   0.0000001588   0.0000015331
        0.0000012526   0.0000019013  -0.0000026696  -0.0000002594  -0.0000031691
       -0.0000010409  -0.0000013389  -0.0000030005  -0.0000021982   0.0000016461
        0.0000071245  -0.0000035983  -0.0000078465   0.0000003223   0.0000053359
        0.0000298039   0.0000038545  -0.0000176708   0.0167838620   0.0359990112
       -0.0491697859   0.1177715108  -0.0159272455  -0.1562794582  -0.0542629492
        0.0517565593  -0.0688964908  -0.0017425998   0.0014638108  -0.0007109107
        0.0009020243  -0.0006075920   0.0007199436   0.0002641047  -0.0007720207
        0.0001932113   0.0004895916   0.0010277012   0.0007340260   0.0004936482
        0.0005182270   0.0003569336   0.0006515226   0.0008655194   0.0005689668
        0.0007838714  -0.0005414247  -0.0014741378  -0.0000279431   0.0000026540
        0.0000177616   0.0001044421   0.0000657638   0.0000489566   0.0000378598
        0.0000092593  -0.0000007133   0.0000068458  -0.0000027962  -0.0000023451
        0.0000053629   0.0000022399  -0.0000017441  -0.0000098808  -0.0000044001
       -0.0000121435   0.0000136137  -0.0000048412  -0.0000036735  -0.0000110184
       -0.0000029939  -0.0000096369   0.0000031927   0.0000007559   0.0000016862
       -0.0000108656  -0.0000073072  -0.0000075647   0.0000101527   0.0000076187
       -0.0000088741   0.0000047333  -0.0000014394  -0.0000000918   0.0000094950
       -0.0000032163  -0.0000240069   0.0000211374  -0.0000072159  -0.0000287963
       -0.0000077459   0.0000068693  -0.0000072319   0.0000121176  -0.0000029987
        0.0000046717  -0.0000011843  -0.0000023581  -0.0000007298   0.0000040678
        0.0000031205  -0.0000014287  -0.0000018349  -0.0000004220   0.0000012553
        0.0000009390  -0.0000014384   0.0000005192  -0.0000011137  -0.0000005008
        0.0000001704   0.0000000106  -0.0000005945   0.0000006990  -0.0000001094
       -0.0000001841   0.0000002744   0.0000000456   0.0000001668   0.0000000670
        0.0000001298   0.0000002009  -0.0000000474  -0.0000000205  -0.0000000037
        0.0000005161  -0.0000000837   0.0000003857   0.0000000544   0.0000003715
       -0.0000000218   0.0000001609   0.0000004831  -0.0000002761   0.0000001781
       -0.0000002986   0.0000005298   0.0000008136   0.0000001983   0.0000000696
        0.0000002566   0.0000001598  -0.0000001654   0.0000001919   0.0000001053
       -0.0000000683   0.0000002787   0.0000003278  -0.0000001407  -0.0000001681
        0.0000002296  -0.0000000604  -0.0000002500   0.0000000155  -0.0000003100
       -0.0000000467   0.0000001319   0.0000001495  -0.0000004140   0.0000005376
        0.0000002003  -0.0000003730   0.0000004184   0.0000006104  -0.0000005180
       -0.0000002060   0.0000003219  -0.0000006971  -0.0000013103   0.0000015365
       -0.0000003160  -0.0000001648   0.0000004872  -0.0000005561   0.0000012685
       -0.0000001687   0.0000001687   0.0000002945  -0.0000001485  -0.0000004396
        0.0000002374   0.0000001051  -0.0000001740   0.0000004268   0.0000001122
        0.0000000663  -0.0000015489   0.0000004788   0.0000003376   0.0000001535
        0.0000002303   0.0000005738   0.0000018599   0.0000011259   0.0000002952
       -0.0000000688   0.0000003213  -0.0000006541  -0.0000012911   0.0000007901
        0.0000007991  -0.0000003523   0.0000002705  -0.0000000305  -0.0000003073
        0.0000000080  -0.0000001246   0.0000004656  -0.0000012254   0.0000003513
        0.0000008364  -0.0000000201  -0.0000002466   0.0000013035  -0.0000006295
       -0.0000000769   0.0000006021  -0.0000010711  -0.0000003569   0.0000002668
        0.0000005495  -0.0000003226   0.0000006821  -0.0000000002   0.0000000368
       -0.0000001412  -0.0000003517  -0.0000000122   0.0000003856  -0.0000015293
        0.0000026637   0.0000007591   0.0000009481   0.0000027391  -0.0000000582
       -0.0000007503  -0.0000005937   0.0000089392   0.0000045797  -0.0000076922
       -0.0000015506  -0.0000052707   0.0000041018
       -0.0861477377  -0.0184242812  -0.0441461695   0.4637408098   0.0025561429
        0.0028475039  -0.1159459534   0.0521440620  -0.0223451048  -0.0826095809
       -0.0428971056   0.0106060310  -0.1127094254   0.0082050339   0.0534864052
       -0.0229133881   0.0022724251   0.0186333379  -0.0033300965  -0.0020848112
       -0.0009613743  -0.0010564563  -0.0002240777   0.0000501846   0.0009614905
       -0.0019481031  -0.0028241755   0.0062458262   0.0019422681   0.0021116108
        0.0003802922  -0.0000956615  -0.0001649102   0.0001020983   0.0000047148
       -0.0000663457   0.0000251334   0.0000044476  -0.0000084290   0.0000009898
        0.0000020688  -0.0000000320  -0.0000311489   0.0000001880   0.0000006872
       -0.0000218994  -0.0000041155  -0.0000049264  -0.0000143929  -0.0000006357
       -0.0000166711  -0.0000619971  -0.0000241568  -0.0000261646   0.0000102173
        0.0000537156   0.0001327614  -0.0000593902  -0.0000194869  -0.0003324706
        0.0000612682   0.0001132020  -0.0001273352  -0.0000856335   0.0000083899
        0.0000080750   0.0000211433   0.0000407702  -0.0000530600  -0.0000140977
       -0.0000055820   0.0000110604  -0.0000003953   0.0000003924  -0.0000073098
        0.0000158319   0.0000022209  -0.0000008259   0.0000062014   0.0000024215
        0.0000000998   0.0000036891  -0.0000067496  -0.0000012537  -0.0000033584
        0.0000001255  -0.0000003433   0.0000025367   0.0000022944  -0.0000001359
        0.0000060181   0.0000001840  -0.0000024533  -0.0000010199   0.0000000309
       -0.0000005498  -0.0000007799   0.0000017126   0.0000000156   0.0000013592
       -0.0000004966  -0.0000013363  -0.0000008128   0.0000004474  -0.0000005037
        0.0000006572  -0.0000003267  -0.0000003491   0.0000005125  -0.0000011960
        0.0000006487   0.0000005040   0.0000000032  -0.0000006712   0.0000046457
       -0.0000004839   0.0000004545  -0.0000050408  -0.0000003503  -0.0000009828
        0.0000023373   0.0000015584  -0.0000005757   0.0000006990  -0.0000005712
       -0.0000003873   0.0000005993  -0.0000005769  -0.0000002188   0.0000000155
        0.0000001139  -0.0000003614   0.0000002547   0.0000000932  -0.0000005641
        0.0000008254  -0.0000006734  -0.0000008205   0.0000001427  -0.0000001239
       -0.0000000224   0.0000001568  -0.0000000943  -0.0000005443   0.0000003702
       -0.0000002401  -0.0000001879  -0.0000007368   0.0000000868  -0.0000000274
       -0.0000006698   0.0000001416  -0.0000004699   0.0000005812   0.0000001761
       -0.0000000720  -0.0000000467  -0.0000002677   0.0000005165   0.0000006652
       -0.0000004862   0.0000005126   0.0000009498   0.0000003294   0.0000004695
        0.0000000792  -0.0000005128   0.0000000961   0.0000001696   0.0000000656
        0.0000004810  -0.0000003735   0.0000003045   0.0000004163   0.0000009122
        0.0000004746  -0.0000000876   0.0000002170  -0.0000015115   0.0000016029
       -0.0000000736  -0.0000001254   0.0000002470   0.0000014078   0.0000006646
       -0.0000014551   0.0000000125  -0.0000006154  -0.0000008897   0.0000010713
        0.0000004036  -0.0000003915  -0.0000001596  -0.0000008618  -0.0000002412
        0.0000001239  -0.0000006266  -0.0000001409   0.0000008232  -0.0000006362
       -0.0000010822   0.0000002197  -0.0000017641  -0.0000002942   0.0000002359
       -0.0000001256   0.0000003535   0.0000004582  -0.0000004452  -0.0000004380
       -0.0000018560   0.0000005605  -0.0000008120   0.0000036975   0.0000037021
        0.0000015837  -0.0000007983  -0.0000026769   0.0000014492   0.0000005046
       -0.0000005355   0.0000002336  -0.0000007440  -0.0000001067   0.0000003529
        0.0000013580   0.0000001418   0.0000003273   0.0000003757  -0.0000022434
        0.0000006207   0.0000010315  -0.0000008922  -0.0000002472  -0.0000028436
       -0.0000019442  -0.0000019784   0.0000007180   0.0000008721  -0.0000001425
        0.0000008874  -0.0000012427  -0.0000009548   0.0000011883  -0.0000002761
       -0.0000000533   0.0000003050  -0.0000014390  -0.0000006756  -0.0000002099
        0.0000008888  -0.0000010515  -0.0000019283   0.0000035093  -0.0000057671
        0.0000248024  -0.0000064365   0.0000233400  -0.0067984889  -0.0069268485
       -0.0111408989   0.0068814499   0.0068052261   0.0172852120  -0.0111385883
       -0.0052640476  -0.0191575346  -0.0125842158   0.0089450705  -0.0074727520
       -0.0182809633   0.0152512555  -0.0031008236   0.0075692413  -0.0062893925
        0.0029162824  -0.0116466815  -0.0177408111   0.0073862227   0.0076881744
        0.0166152694  -0.0043709180  -0.0080866221  -0.0137765205   0.0008042212
        0.0008559700   0.0006309685   0.0002187155  -0.0007606580   0.0001301303
        0.0008000005  -0.0002989635   0.0000693738  -0.0009406712  -0.0000423060
       -0.0000150405  -0.0000042597   0.0000109389  -0.0000017877  -0.0000001732
        0.0000104196   0.0000032296  -0.0000014180  -0.0000129977  -0.0000060139
       -0.0000101639   0.0000091175  -0.0000026269  -0.0000011549  -0.0000110623
       -0.0000028452  -0.0000098886   0.0000098145   0.0000045742  -0.0000021395
       -0.0000116103  -0.0000080575  -0.0000081792   0.0000089503   0.0000002673
        0.0000014008   0.0000103456  -0.0000038068   0.0000032143   0.0000162990
       -0.0000074284  -0.0000067368   0.0000356470   0.0000000225  -0.0000329184
       -0.0000093800  -0.0000176240   0.0000350834   0.0000028244  -0.0000042124
        0.0000013606  -0.0000023072  -0.0000023666  -0.0000007888  -0.0000022736
       -0.0000007757   0.0000001275  -0.0000029369   0.0000010889   0.0000008116
       -0.0000015665   0.0000004935  -0.0000001116  -0.0000009044   0.0000003524
       -0.0000000787  -0.0000013024   0.0000001539  -0.0000001063  -0.0000005772
       -0.0000000899  -0.0000003233  -0.0000001452  -0.0000001098  -0.0000003698
       -0.0000007010  -0.0000005346  -0.0000000551   0.0000001803  -0.0000004069
        0.0000004727  -0.0000001684   0.0000003361  -0.0000001308  -0.0000003915
       -0.0000001484  -0.0000003276  -0.0000000716   0.0000001822  -0.0000000949
       -0.0000000882   0.0000000649  -0.0000001510  -0.0000001531  -0.0000004039
       -0.0000003711   0.0000000226  -0.0000001956  -0.0000006133   0.0000000907
       -0.0000003509  -0.0000002558  -0.0000006326  -0.0000000103   0.0000000261
       -0.0000006272  -0.0000002078   0.0000002788  -0.0000005518  -0.0000004076