161
 energy: -224.953180711168 gnorm: 0.000036987817 xtb: 6.7.1 (edcfbbe)
C          -13.03688811240129        1.48132916553505        4.77335446874709
C          -12.94788762737187        0.13216971663552        4.04417485258496
C          -14.35351567394080       -0.24183352444767        3.56341276316732
C          -12.47368963382351       -0.95565007750764        5.01974513248023
C          -11.94903735366444        0.24579081459864        2.90115010004156
C          -10.61825505345110        0.57622651501514        3.19352052917428
C           -9.64331770512099        0.69453541829703        2.22367721936148
C          -10.00462212044291        0.46473423778734        0.90399169795434
C          -11.34399279993366        0.15737932922774        0.57941544052257
C          -12.30399815918318        0.04523558620263        1.57523753140134
C          -11.39853519445005        0.04193241926234       -0.85352922146775
C          -12.42211212428968       -0.26000956840011       -1.74067253913007
C          -12.15901089580231       -0.32389714683061       -3.10116466815429
C          -13.23325832825390       -0.64433740090247       -4.13100940189894
C          -13.35031937083634        0.52680279082731       -5.11821269059965
C          -14.60935733783885       -0.86947985784294       -3.49660847167429
C          -12.84145408748834       -1.92361526861019       -4.88607070740020
C          -10.84692966985122       -0.09578369230363       -3.53913345562180
C           -9.80989637358075        0.20520569714988       -2.67949446947332
C          -10.09129883908311        0.29411971100113       -1.32373040142642
N           -9.25507186097765        0.54648821042628       -0.25346346347358
C           -7.89205631621793        0.84067343879844       -0.33105621822270
C           -6.96944386953091        0.17619019460208        0.48441043528068
C           -5.62947814779148        0.45872442045793        0.39620978536970
C           -5.13345888774615        1.43239784867136       -0.49757991500042
C           -3.72985179526698        1.73086746285163       -0.58426782947265
C           -3.27249919877182        2.99706142899335       -1.03854652767491
C           -1.94685864145489        3.31157827326560       -1.12998918314081
C           -0.97864273571209        2.34521450297510       -0.78378321337507
C           -1.42689293000317        1.06564923974352       -0.32958863906795
C           -2.74828618756053        0.76820944529514       -0.22112478213147
C           -0.24051632702848        0.17173623282855       -0.03802965523476
C            0.92238483549660        1.10934381792518       -0.34451065780005
C            2.25078189189415        0.85762010894491       -0.23456978237942
C            3.19958040899480        1.85223151944987       -0.59621714227124
C            4.60756146193991        1.59315350383387       -0.49178791133870
C            5.11401547180823        0.63935805410531        0.41966546739898
C            6.45477339305857        0.36730124336009        0.51025428560763
C            7.37363569960890        1.03165407687386       -0.31098806775077
N            8.73548227572811        0.73991738524239       -0.23339677068528
C            9.76361577870971        1.66128965135440       -0.17359805950445
C            9.72457250522261        3.04471569675257       -0.10484254205287
C           10.92239557039238        3.73209953281862       -0.02274953742228
C           12.16249673882201        3.08708507341595        0.00383417072425
C           13.47939795890240        3.84786967149833        0.07769716584982
C           14.32247018299737        3.50400864354841       -1.15992154570461
C           14.23221157070018        3.43141023646309        1.35048313649805
C           13.28953119883642        5.36737502713675        0.11525783928460
C           12.18638667685157        1.69676938462088       -0.03186345091355
C           11.00255978527853        0.98342716761322       -0.11313297227618
C           10.69821846128218       -0.42271278449351       -0.13876538033492
C           11.48955132288480       -1.56230950577130       -0.12059329432218
C           10.89682275939964       -2.81513776301816       -0.18157221346645
C           11.70192690237019       -4.10661572980861       -0.15296246581376
C           11.26963774125095       -4.93969041909182        1.06330133186276
C           13.20986935121017       -3.85856557069259       -0.04718413894375
C           11.43916167418658       -4.89628727227012       -1.44423116276308
C            9.50054031175820       -2.88811439064089       -0.28284070131672
C            8.68973791215870       -1.77139342278931       -0.30537383311838
C            9.29194594642809       -0.52491572802102       -0.21085027047515
C            6.89610953819496        1.99116430019617       -1.21206098919623
C            5.55472104555050        2.26551087349260       -1.29529211461860
C            2.69858538525327        3.09732683128977       -1.06374242135226
C            1.36263677600594        3.36483709317743       -1.15311108242162
C            0.42707534720811        2.37032182480499       -0.79351509269504
C           -0.16329476926861       -1.01742876565343       -0.96268557715577
C           -0.64219135783368       -0.93363984013825       -2.26009951970404
C           -0.49248504103355       -1.98454702755439       -3.14844873150744
C            0.15341260361902       -3.13845655251843       -2.73678700033437
C            0.63195213300253       -3.24394764964822       -1.44631871144625
C            0.48017612535535       -2.18854750756779       -0.54349711095203
N            0.93675937386407       -2.31109439514896        0.76020345390105
C            1.76160889382375       -3.42255783445115        1.09581598403853
C            3.11762496422955       -3.37158714215797        0.79873140758143
C            3.93482735164545       -4.44119343936873        1.12065715456865
C            3.40268237685644       -5.56170491585722        1.73681532649182
C            2.04868198870720       -5.61600024912870        2.02599728839996
C            1.22545265568815       -4.55052339583644        1.70626483052830
C            0.51668449549915       -1.43645582531712        1.75076104452216
C            0.74632757175246       -1.71886878449950        3.09986016072250
C            0.29409621428728       -0.86355979678589        4.08455943217183
C           -0.39345533941815        0.29008103634355        3.74592819746402
C           -0.59510561846269        0.59351766471793        2.41077240700858
C           -0.14343932259868       -0.24808820792310        1.40696304767613
C           -6.08376678484795        2.09654117322954       -1.30310190572198
C           -7.42246568976956        1.80535073718039       -1.22917836875873
H          -13.35295356659347        2.26193602905240        4.08382283595670
H          -13.76119497985117        1.42163426202795        5.58326233960087
H          -12.07804095612628        1.76906389963733        5.19569895658123
H          -14.35030440724580       -1.20345226263977        3.05504398522518
H          -15.02077889707474       -0.31700855424007        4.41990145146227
H          -14.75280535613821        0.51615528629696        2.89325867111721
H          -13.18848412613479       -1.06700079303536        5.83261011432441
H          -11.50646312889784       -0.71003427184996        5.44941482337081
H          -12.38526325866517       -1.91014777332814        4.50415292689604
H          -10.33033524293880        0.75416176008364        4.21849432831672
H           -8.63416000413025        0.97093403998231        2.48975071897804
H          -13.31598417190336       -0.19114641598981        1.29210646942852
H          -13.40770301100089       -0.44597116835333       -1.34798798302909
H          -12.41554901131097        0.69767639573907       -5.64503229266808
H          -13.61469441881767        1.44015598734817       -4.58853066004219
H          -14.12332693381495        0.31917679000092       -5.85541604881757
H          -14.59163257694187       -1.71473660568080       -2.81225986203085
H          -15.33658378155454       -1.08503798370369       -4.27706024469616
H          -14.94372743920771        0.01697336895181       -2.96222603377908
H          -13.61705015550207       -2.18805628528356       -5.60198066642589
H          -12.71893596484342       -2.74940041704107       -4.18772890316118
H          -11.90849739174377       -1.79557218886205       -5.42804245545329
H          -10.62205073509530       -0.16106185519186       -4.59281616061007
H           -8.80899847856820        0.35323421251425       -3.05629481707979
H           -7.31994547251922       -0.58082833283384        1.17101623612028
H           -4.94447876698765       -0.06186839741629        1.04810417707465
H           -4.00343820565944        3.75517526611983       -1.27880461740678
H           -1.63450753673838        4.29314028378260       -1.45688105212901
H           -3.05264937226432       -0.21848100099321        0.09635904660308
H            2.59314673253550       -0.11389427624046        0.08746840107888
H            4.43658439738375        0.14598144830763        1.10038345369953
H            6.81674572423219       -0.33809423565968        1.24415424433352
H            8.78735937003828        3.58065050370086       -0.10217984057420
H           10.87468099843598        4.80731393697109        0.02614103756398
H           15.26256520761713        4.05144989703290       -1.13675667951286
H           13.78663358049166        3.77623125826270       -2.06740574628679
H           14.54797235296287        2.44203959574710       -1.20383212918799
H           15.16925623138565        3.97926984006715        1.42701920277329
H           14.45915042855696        2.36892755579060        1.34873656145830
H           13.63140698634249        3.65012580294496        2.23129727932103
H           14.26302469275199        5.85176572814935        0.16319233419485
H           12.72148032079551        5.67025084349147        0.99208889440947
H           12.78285364005499        5.72200508504624       -0.77955983680319
H           13.11989519967179        1.15715561199447        0.00841615124304
H           12.55896163854209       -1.44720087119320       -0.06378235120083
H           11.43253359172262       -4.37759340799357        1.98105351028782
H           11.85056158731846       -5.85842247668644        1.11331584364619
H           10.21751176553249       -5.20521250022981        1.00889650526829
H           13.57503711058718       -3.29502355120932       -0.90293988146714
H           13.73303117060215       -4.81270468601613       -0.02639145145491
H           13.45540173000270       -3.32159879277249        0.86640313179311
H           11.71683055751334       -4.30101933623583       -2.31209063078179
H           10.39141365136133       -5.16754788592824       -1.53926158962164
H           12.02873146855492       -5.81085874824869       -1.44981701208222
H            9.02576874286751       -3.85490617768090       -0.35244061123209
H            7.61991776847171       -1.87171325262659       -0.40855298519322
H            7.59274644174752        2.48869224293490       -1.87110518940698
H            5.21441702952078        2.97850727499158       -2.03067075948418
H            3.40374366306650        3.87601884224874       -1.31575920806345
H            1.01619676459140        4.33221057852370       -1.48803171932472
H           -1.13271982076300       -0.02546235491467       -2.57874770237040
H           -0.87148873475590       -1.89845619320731       -4.15554136057973
H            0.28223708170356       -3.96391065736009       -3.42125207967997
H            1.12323277138509       -4.15130529521363       -1.12934056692862
H            3.52327312221613       -2.49772982598993        0.31025527234097
H            4.98894584010654       -4.39675585622994        0.89088808206726
H            4.04197096501702       -6.39436959767908        1.98909567728728
H            1.63035760905605       -6.49137416981478        2.50018872157964
H            0.16782264974950       -4.58511523930248        1.92366212748015
H            1.28413109278919       -2.61250892232958        3.37650800710258
H            0.48105182813291       -1.10126456028108        5.12143006903167
H           -0.75381257556842        0.95845867339913        4.51324178257136
H           -1.10163782062709        1.50744119594172        2.13627667511698
H           -5.75246540175001        2.83499722856279       -2.01718664050131
H           -8.12850999249958        2.33644511424917       -1.85101568569415
