      -----------------------------------------------------------      
     |                   =====================                   |     
     |                           x T B                           |     
     |                   =====================                   |     
     |                         S. Grimme                         |     
     |          Mulliken Center for Theoretical Chemistry        |     
     |                    University of Bonn                     |     
      -----------------------------------------------------------      

   * xtb version 6.7.1 (edcfbbe) compiled by 'albert@albert-system' on 2024-07-22

   xtb is free software: you can redistribute it and/or modify it under
   the terms of the GNU Lesser General Public License as published by
   the Free Software Foundation, either version 3 of the License, or
   (at your option) any later version.
   
   xtb is distributed in the hope that it will be useful,
   but WITHOUT ANY WARRANTY; without even the implied warranty of
   MERCHANTABILITY or FITNESS FOR A PARTICULAR PURPOSE.  See the
   GNU Lesser General Public License for more details.
   
   Cite this work as:
   * C. Bannwarth, E. Caldeweyher, S. Ehlert, A. Hansen, P. Pracht,
     J. Seibert, S. Spicher, S. Grimme, WIREs Comput. Mol. Sci., 2020, 11,
     e01493. DOI: 10.1002/wcms.1493
   
   for GFN2-xTB:
   * C. Bannwarth, S. Ehlert and S. Grimme., J. Chem. Theory Comput., 2019,
     15, 1652-1671. DOI: 10.1021/acs.jctc.8b01176
   for GFN1-xTB:
   * S. Grimme, C. Bannwarth, P. Shushkov, J. Chem. Theory Comput., 2017,
     13, 1989-2009. DOI: 10.1021/acs.jctc.7b00118
   for GFN0-xTB:
   * P. Pracht, E. Caldeweyher, S. Ehlert, S. Grimme, ChemRxiv, 2019, preprint.
     DOI: 10.26434/chemrxiv.8326202.v1
   for GFN-FF:
   * S. Spicher and S. Grimme, Angew. Chem. Int. Ed., 2020, 59, 15665-15673.
     DOI: 10.1002/anie.202004239
   
   for ALPB and GBSA implicit solvation:
   * S. Ehlert, M. Stahn, S. Spicher, S. Grimme, J. Chem. Theory Comput.,
     2021, 17, 4250-4261. DOI: 10.1021/acs.jctc.1c00471
   
   for ddCOSMO and CPCM-X implicit solvation:
   * M. Stahn, S. Ehlert, S. Grimme, J. Phys. Chem. A,
     2023, XX, XXXX-XXXX. DOI: 10.1021/acs.jpca.3c04382
   
   for DFT-D4:
   * E. Caldeweyher, C. Bannwarth and S. Grimme, J. Chem. Phys., 2017,
     147, 034112. DOI: 10.1063/1.4993215
   * E. Caldeweyher, S. Ehlert, A. Hansen, H. Neugebauer, S. Spicher,
     C. Bannwarth and S. Grimme, J. Chem. Phys., 2019, 150, 154122.
     DOI: 10.1063/1.5090222
   * E. Caldeweyher, J.-M. Mewes, S. Ehlert and S. Grimme, Phys. Chem. Chem. Phys.
     2020, 22, 8499-8512. DOI: 10.1039/D0CP00502A
   
   for sTDA-xTB:
   * S. Grimme and C. Bannwarth, J. Chem. Phys., 2016, 145, 054103.
     DOI: 10.1063/1.4959605
   
   in the mass-spec context:
   * V. Asgeirsson, C. Bauer and S. Grimme, Chem. Sci., 2017, 8, 4879.
     DOI: 10.1039/c7sc00601b
   * J. Koopman and S. Grimme, ACS Omega 2019, 4, 12, 15120-15133.
     DOI: 10.1021/acsomega.9b02011
   
   for metadynamics refer to:
   * S. Grimme, J. Chem. Theory Comput., 2019, 155, 2847-2862
     DOI: 10.1021/acs.jctc.9b00143
   
   for SPH calculations refer to:
   * S. Spicher and S. Grimme, J. Chem. Theory Comput., 2021, 17, 1701-1714
     DOI: 10.1021/acs.jctc.0c01306
   
   for ONIOM refer to:
   * C. Plett, A. Katbashev, S. Ehlert, S. Grimme, M. Bursch,
     Phys. Chem. Chem. Phys., 2023, 25, 17860-17868. DOI: 10.1039/D3CP02178E
   
   for DIPRO refer to:
   * J. Kohn, N. Gildemeister, S. Grimme, D. Fazzi, A. Hansen,
     J. Chem. Phys., 2023, just accepted.
   
   for PTB refer to:
   * S. Grimme, M. Mueller, A. Hansen, J. Chem. Phys., 2023, 158, 124111.
     DOI: 10.1063/5.0137838
   
   with help from (in alphabetical order)
   P. Atkinson, C. Bannwarth, F. Bohle, G. Brandenburg, E. Caldeweyher
   M. Checinski, S. Dohm, S. Ehlert, S. Ehrlich, I. Gerasimov, C. Hölzer
   A. Katbashev, J. Kohn, J. Koopman, C. Lavigne, S. Lehtola, F. März, M. Müller,
   F. Musil, H. Neugebauer, J. Pisarek, C. Plett, P. Pracht, F. Pultar,
   J. Seibert, P. Shushkov, S. Spicher, M. Stahn, M. Steiner, T. Strunk,
   J. Stückrath, T. Rose, and J. Unsleber
   
 * started run on 2025/08/29 at 12:24:16.197     
   ID    Z sym.   atoms
    1    6 C      1-9, 11-15, 17-30
    2    7 N      10
    3    8 O      16
    4    1 H      31-53

           -------------------------------------------------
          |                Calculation Setup                |
           -------------------------------------------------

          program call               : xtb data2507/toluene/PhCO-DMAC/PhCO-DMAC.xyz --gfn 2 --gbsa toluene --ohess vtight --parallel 40 --molden --ceasefiles --namespace data2507/toluene/PhCO-DMAC/PhCO-DMAC_toluene_S0_preOpt
          calculation namespace      : data2507/toluene/PhCO-DMAC/PhCO-DMAC_toluene_S0_preOpt
          coordinate file            : data2507/toluene/PhCO-DMAC/PhCO-DMAC.xyz
          omp threads                :                    40


           -------------------------------------------------
          |                 G F N 2 - x T B                 |
           -------------------------------------------------

        Reference                      10.1021/acs.jctc.8b01176
      * Hamiltonian:
        H0-scaling (s, p, d)           1.850000    2.230000    2.230000
        zeta-weighting                 0.500000
      * Dispersion:
        s8                             2.700000
        a1                             0.520000
        a2                             5.000000
        s9                             5.000000
      * Repulsion:
        kExp                           1.500000    1.000000
        rExp                           1.000000
      * Coulomb:
        alpha                          2.000000
        third order                    shell-resolved
        anisotropic                    true
        a3                             3.000000
        a5                             4.000000
        cn-shift                       1.200000
        cn-exp                         4.000000
        max-rad                        5.000000

      * Solvation model:               GBSA
        Solvent                        toluene
        Parameter file                 internal GFN2-xTB/GBSA
        Dielectric constant                7.0000E+00
        Reference state                gsolv [1 M gas/solution]
        Free energy shift                  4.5239E-03 Eh       2.8388E+00 kcal/mol
        Temperature                        2.9815E+02 K
        Density                            8.6700E-01 kg/L
        Solvent mass                       9.2140E+01 g/mol
        Interaction kernel             Still
        Born radius scaling (c1)           1.5686E+00
        Born radii integrator          GBOBC
        Born offset                        0.0000E+00 a0       0.0000E+00 AA
        H-bond correction              false
        Ion screening                  false
        Surface tension                    1.0000E-05 Eh       1.5569E+01 dyn/cm
        Grid points                               230 per atom

          ...................................................
          :                      SETUP                      :
          :.................................................:
          :  # basis functions                 143          :
          :  # atomic orbitals                 143          :
          :  # shells                           83          :
          :  # electrons                       146          :
          :  max. iterations                   250          :
          :  Hamiltonian                  GFN2-xTB          :
          :  restarted?                      false          :
          :  GBSA solvation                   true          :
          :  PC potential                    false          :
          :  electronic temp.          300.0000000     K    :
          :  accuracy                    1.0000000          :
          :  -> integral cutoff          0.2500000E+02      :
          :  -> integral neglect         0.1000000E-07      :
          :  -> SCF convergence          0.1000000E-05 Eh   :
          :  -> wf. convergence          0.1000000E-03 e    :
          :  Broyden damping             0.4000000          :
          :  net charge                          0          :
          :  unpaired electrons                  0          :
          ...................................................

 iter      E             dE          RMSdq      gap      omega  full diag
   1    -79.9246192 -0.799246E+02  0.460E+00    1.49       0.0  T
   2    -79.9873327 -0.627135E-01  0.267E+00    1.41       1.0  T
   3    -79.9715453  0.157874E-01  0.110E+00    1.66       1.0  T
   4    -79.9950957 -0.235504E-01  0.276E-01    1.44       1.0  T
   5    -79.9973828 -0.228706E-02  0.900E-02    1.45       1.0  T
   6    -79.9976100 -0.227184E-03  0.369E-02    1.45       1.0  T
   7    -79.9976260 -0.160576E-04  0.159E-02    1.45       1.0  T
   8    -79.9976279 -0.184595E-05  0.640E-03    1.45       2.1  T
   9    -79.9976286 -0.748490E-06  0.240E-03    1.45       5.7  T
  10    -79.9976287 -0.125874E-06  0.105E-03    1.45      13.1  T
  11    -79.9976288 -0.710884E-08  0.614E-04    1.45      22.4  T
  12    -79.9976288 -0.587859E-08  0.203E-04    1.45      67.6  T

   *** convergence criteria satisfied after 12 iterations ***

         #    Occupation            Energy/Eh            Energy/eV
      -------------------------------------------------------------
         1        2.0000           -0.7116285             -19.3644
       ...           ...                  ...                  ...
        67        2.0000           -0.4094374             -11.1414
        68        2.0000           -0.4075615             -11.0903
        69        2.0000           -0.4029908             -10.9659
        70        2.0000           -0.3978485             -10.8260
        71        2.0000           -0.3946072             -10.7378
        72        2.0000           -0.3896746             -10.6036
        73        2.0000           -0.3484637              -9.4822 (HOMO)
        74                         -0.2951537              -8.0315 (LUMO)
        75                         -0.2460960              -6.6966
        76                         -0.2449944              -6.6666
        77                         -0.2384913              -6.4897
        78                         -0.2257107              -6.1419
       ...                                ...                  ...
       143                          0.6329168              17.2225
      -------------------------------------------------------------
                  HL-Gap            0.0533099 Eh            1.4506 eV
             Fermi-level           -0.3218087 Eh           -8.7569 eV

 SCC (total)                   0 d,  0 h,  0 min,  0.117 sec
 SCC setup                      ...        0 min,  0.001 sec (  1.128%)
 Dispersion                     ...        0 min,  0.003 sec (  2.571%)
 classical contributions        ...        0 min,  0.000 sec (  0.356%)
 integral evaluation            ...        0 min,  0.004 sec (  3.586%)
 iterations                     ...        0 min,  0.099 sec ( 84.640%)
 molecular gradient             ...        0 min,  0.008 sec (  7.167%)
 printout                       ...        0 min,  0.001 sec (  0.473%)

         :::::::::::::::::::::::::::::::::::::::::::::::::::::
         ::                     SUMMARY                     ::
         :::::::::::::::::::::::::::::::::::::::::::::::::::::
         :: total energy             -78.698556535974 Eh    ::
         :: total w/o Gsasa/hb       -78.668765302969 Eh    ::
         :: gradient norm              0.060154888272 Eh/a0 ::
         :: HOMO-LUMO gap              1.450636294210 eV    ::
         ::.................................................::
         :: SCC energy               -79.997251585961 Eh    ::
         :: -> isotropic ES            0.040389530250 Eh    ::
         :: -> anisotropic ES          0.008265134340 Eh    ::
         :: -> anisotropic XC          0.046533101397 Eh    ::
         :: -> dispersion             -0.066295260940 Eh    ::
         :: -> Gsolv                  -0.035111586861 Eh    ::
         ::    -> Gelec               -0.005320353857 Eh    ::
         ::    -> Gsasa               -0.034315112876 Eh    ::
         ::    -> Ghb                  0.000000000000 Eh    ::
         ::    -> Gshift               0.004523879872 Eh    ::
         :: repulsion energy           1.298695049987 Eh    ::
         :: add. restraining           0.000000000000 Eh    ::
         :: total charge              -0.000000000000 e     ::
         :::::::::::::::::::::::::::::::::::::::::::::::::::::

      ----------------------------------------------------------- 
     |                   =====================                   |
     |                        A N C O P T                        |
     |                   =====================                   |
     |               Approximate Normal Coordinate               |
     |                Rational Function Optimizer                |
      ----------------------------------------------------------- 

Optimization log is written to '/dev/null'
      ----------------------------------------------------------- 
     |                   =====================                   |
     |                        A N C O P T                        |
     |                   =====================                   |
     |               Approximate Normal Coordinate               |
     |                Rational Function Optimizer                |
      ----------------------------------------------------------- 

          ...................................................
          :                      SETUP                      :
          :.................................................:
          :   optimization level         verytight          :
          :   max. optcycles                  1060          :
          :   ANC micro-cycles                  20          :
          :   degrees of freedom               153          :
          :.................................................:
          :   RF solver                   davidson          :
          :   write xtbopt.log                true          :
          :   linear?                        false          :
          :   energy convergence         0.1000000E-06 Eh   :
          :   grad. convergence          0.2000000E-03 Eh/α :
          :   maxmium RF displ.          1.0000000          :
          :   Hlow (freq-cutoff)         0.1000000E-01      :
          :   Hmax (freq-cutoff)         5.0000000          :
          :   S6 in model hess.         20.0000000          :
          ...................................................

generating ANC from exact Hessian ...
Using Lindh-Hessian (1995)
 Shifting diagonal of input Hessian by   9.829240590858932E-003
 Lowest  eigenvalues of input Hessian
    0.000000    0.000000    0.000000    0.000000    0.000000    0.000000
    0.010000    0.010101    0.010367    0.010683    0.011184    0.011676
    0.011741    0.012161    0.012464    0.014431    0.015514    0.016064
 Highest eigenvalues
    1.927903    1.932837    1.957224    1.982222    2.015118    2.134532
 

........................................................................
.............................. CYCLE    1 ..............................
........................................................................

 iter      E             dE          RMSdq      gap      omega  full diag
   1    -79.9976288 -0.799976E+02  0.844E-05    1.45       0.0  T
   2    -79.9976288 -0.136410E-09  0.563E-05    1.45     243.9  T
   3    -79.9976288 -0.132530E-09  0.298E-05    1.45     461.3  T
     SCC iter.                  ...        0 min,  0.016 sec
     gradient                   ...        0 min,  0.006 sec
 * total energy  :   -78.6985565 Eh     change       -0.5385346E-09 Eh
   gradient norm :     0.0601563 Eh/α   predicted     0.0000000E+00 (-100.00%)
   displ. norm   :     0.4231868 α      lambda       -0.1488749E-01
   maximum displ.:     0.2838659 α      in ANC's #34, #36, #33, ...

........................................................................
.............................. CYCLE    2 ..............................
........................................................................

 iter      E             dE          RMSdq      gap      omega  full diag
   1    -80.0702509 -0.800703E+02  0.199E-01    1.40       0.0  T
   2    -80.0704470 -0.196096E-03  0.129E-01    1.44       1.0  T
   3    -80.0704147  0.323820E-04  0.704E-02    1.41       1.0  T
   4    -80.0705532 -0.138503E-03  0.126E-02    1.43       1.1  T
   5    -80.0705584 -0.525976E-05  0.362E-03    1.42       3.8  T
   6    -80.0705587 -0.327444E-06  0.172E-03    1.42       8.0  T
   7    -80.0705588 -0.332896E-07  0.505E-04    1.42      27.2  T
   8    -80.0705588 -0.166970E-08  0.232E-04    1.42      59.1  T
     SCC iter.                  ...        0 min,  0.038 sec
     gradient                   ...        0 min,  0.006 sec
 * total energy  :   -78.7090613 Eh     change       -0.1050477E-01 Eh
   gradient norm :     0.0268181 Eh/α   predicted    -0.8776946E-02 ( -16.45%)
   displ. norm   :     0.3682477 α      lambda       -0.4756224E-02
   maximum displ.:     0.2085862 α      in ANC's #34, #11, #13, ...

........................................................................
.............................. CYCLE    3 ..............................
........................................................................

 iter      E             dE          RMSdq      gap      omega  full diag
   1    -80.1103755 -0.801104E+02  0.132E-01    1.37       0.0  T
   2    -80.1105484 -0.172882E-03  0.922E-02    1.41       1.0  T
   3    -80.1106012 -0.528710E-04  0.491E-02    1.39       1.0  T
   4    -80.1106299 -0.287068E-04  0.140E-02    1.40       1.0  T
   5    -80.1106355 -0.557557E-05  0.301E-03    1.40       4.6  T
   6    -80.1106358 -0.311753E-06  0.121E-03    1.40      11.3  T
   7    -80.1106358 -0.162466E-07  0.383E-04    1.40      35.9  T
   8    -80.1106358 -0.108824E-08  0.182E-04    1.40      75.7  T
     SCC iter.                  ...        0 min,  0.038 sec
     gradient                   ...        0 min,  0.006 sec
 * total energy  :   -78.7118273 Eh     change       -0.2765984E-02 Eh
   gradient norm :     0.0070674 Eh/α   predicted    -0.2700982E-02 (  -2.35%)
   displ. norm   :     0.2099672 α      lambda       -0.6279872E-03
   maximum displ.:     0.1481156 α      in ANC's #11, #13, #5, ...

........................................................................
.............................. CYCLE    4 ..............................
........................................................................

 iter      E             dE          RMSdq      gap      omega  full diag
   1    -80.1145372 -0.801145E+02  0.489E-02    1.38       0.0  T
   2    -80.1145490 -0.118150E-04  0.318E-02    1.39       1.0  T
   3    -80.1145460  0.302820E-05  0.167E-02    1.38       1.0  T
   4    -80.1145543 -0.827515E-05  0.335E-03    1.39       4.1  T
   5    -80.1145547 -0.429135E-06  0.717E-04    1.39      19.2  T
   6    -80.1145547 -0.155403E-07  0.338E-04    1.39      40.6  T
     SCC iter.                  ...        0 min,  0.028 sec
     gradient                   ...        0 min,  0.005 sec
 * total energy  :   -78.7122982 Eh     change       -0.4709107E-03 Eh
   gradient norm :     0.0047191 Eh/α   predicted    -0.3278388E-03 ( -30.38%)
   displ. norm   :     0.2779884 α      lambda       -0.4977373E-03
   maximum displ.:     0.1892787 α      in ANC's #11, #5, #13, ...

........................................................................
.............................. CYCLE    5 ..............................
........................................................................

 iter      E             dE          RMSdq      gap      omega  full diag
   1    -80.1142726 -0.801143E+02  0.586E-02    1.37       0.0  T
   2    -80.1142769 -0.432967E-05  0.353E-02    1.38       1.0  T
   3    -80.1142687  0.825782E-05  0.138E-02    1.38       1.0  T
   4    -80.1142785 -0.985882E-05  0.208E-03    1.38       6.6  T
   5    -80.1142787 -0.184844E-06  0.624E-04    1.38      22.0  T
   6    -80.1142787 -0.515874E-08  0.346E-04    1.38      39.7  T
     SCC iter.                  ...        0 min,  0.029 sec
     gradient                   ...        0 min,  0.006 sec
 * total energy  :   -78.7126063 Eh     change       -0.3080971E-03 Eh
   gradient norm :     0.0034648 Eh/α   predicted    -0.2681012E-03 ( -12.98%)
   displ. norm   :     0.1294181 α      lambda       -0.9757592E-04
   maximum displ.:     0.0728402 α      in ANC's #5, #11, #4, ...

........................................................................
.............................. CYCLE    6 ..............................
........................................................................

 iter      E             dE          RMSdq      gap      omega  full diag
   1    -80.1140369 -0.801140E+02  0.242E-02    1.37       0.0  T
   2    -80.1140373 -0.417726E-06  0.142E-02    1.38       1.0  T
   3    -80.1140370  0.301829E-06  0.282E-03    1.38       4.9  T
   4    -80.1140373 -0.366431E-06  0.713E-04    1.38      19.3  T
   5    -80.1140374 -0.187928E-07  0.234E-04    1.38      58.7  T
     SCC iter.                  ...        0 min,  0.024 sec
     gradient                   ...        0 min,  0.006 sec
 * total energy  :   -78.7126769 Eh     change       -0.7061510E-04 Eh
   gradient norm :     0.0022467 Eh/α   predicted    -0.4960570E-04 ( -29.75%)
   displ. norm   :     0.1231228 α      lambda       -0.6987507E-04
   maximum displ.:     0.0750027 α      in ANC's #5, #4, #6, ...

........................................................................
.............................. CYCLE    7 ..............................
........................................................................

 iter      E             dE          RMSdq      gap      omega  full diag
   1    -80.1141193 -0.801141E+02  0.259E-02    1.38       0.0  T
   2    -80.1141198 -0.451170E-06  0.152E-02    1.38       1.0  T
   3    -80.1141192  0.576997E-06  0.366E-03    1.38       3.8  T
   4    -80.1141199 -0.671818E-06  0.694E-04    1.38      19.8  T
   5    -80.1141199 -0.206742E-07  0.230E-04    1.38      59.7  T
     SCC iter.                  ...        0 min,  0.024 sec
     gradient                   ...        0 min,  0.006 sec
 * total energy  :   -78.7127307 Eh     change       -0.5377583E-04 Eh
   gradient norm :     0.0014664 Eh/α   predicted    -0.3547021E-04 ( -34.04%)
   displ. norm   :     0.2108970 α      lambda       -0.6151880E-04
   maximum displ.:     0.1236394 α      in ANC's #5, #4, #6, ...

........................................................................
.............................. CYCLE    8 ..............................
........................................................................

 iter      E             dE          RMSdq      gap      omega  full diag
   1    -80.1143573 -0.801144E+02  0.503E-02    1.38       0.0  T
   2    -80.1143578 -0.553056E-06  0.296E-02    1.38       1.0  T
   3    -80.1143571  0.765213E-06  0.424E-03    1.38       3.2  T
   4    -80.1143580 -0.931526E-06  0.756E-04    1.38      18.2  T
   5    -80.1143580 -0.161657E-07  0.327E-04    1.38      42.0  T
     SCC iter.                  ...        0 min,  0.024 sec
     gradient                   ...        0 min,  0.005 sec
 * total energy  :   -78.7127911 Eh     change       -0.6045908E-04 Eh
   gradient norm :     0.0026759 Eh/α   predicted    -0.3136972E-04 ( -48.11%)
   displ. norm   :     0.0902021 α      lambda       -0.3011212E-04
   maximum displ.:     0.0495908 α      in ANC's #5, #4, #6, ...

........................................................................
.............................. CYCLE    9 ..............................
........................................................................

 iter      E             dE          RMSdq      gap      omega  full diag
   1    -80.1146391 -0.801146E+02  0.234E-02    1.38       0.0  T
   2    -80.1146392 -0.927779E-07  0.138E-02    1.38       1.0  T
   3    -80.1146389  0.282008E-06  0.221E-03    1.38       6.2  T
   4    -80.1146393 -0.325960E-06  0.287E-04    1.38      47.8  T
   5    -80.1146393 -0.258194E-08  0.139E-04    1.38      98.9  T
     SCC iter.                  ...        0 min,  0.024 sec
     gradient                   ...        0 min,  0.005 sec
 * total energy  :   -78.7128160 Eh     change       -0.2483595E-04 Eh
   gradient norm :     0.0018750 Eh/α   predicted    -0.1519020E-04 ( -38.84%)
   displ. norm   :     0.2158258 α      lambda       -0.3602220E-04
   maximum displ.:     0.1126339 α      in ANC's #4, #5, #7, ...

........................................................................
.............................. CYCLE   10 ..............................
........................................................................

 iter      E             dE          RMSdq      gap      omega  full diag
   1    -80.1145979 -0.801146E+02  0.585E-02    1.38       0.0  T
   2    -80.1145983 -0.498380E-06  0.344E-02    1.38       1.0  T
   3    -80.1145975  0.803378E-06  0.405E-03    1.38       3.4  T
   4    -80.1145985 -0.967086E-06  0.738E-04    1.38      18.6  T
   5    -80.1145985 -0.191264E-07  0.330E-04    1.38      41.6  T
     SCC iter.                  ...        0 min,  0.023 sec
     gradient                   ...        0 min,  0.006 sec
 * total energy  :   -78.7128382 Eh     change       -0.2221636E-04 Eh
   gradient norm :     0.0010492 Eh/α   predicted    -0.1838464E-04 ( -17.25%)
   displ. norm   :     0.0296435 α      lambda       -0.3922992E-05
   maximum displ.:     0.0183034 α      in ANC's #5, #6, #7, ...

........................................................................
.............................. CYCLE   11 ..............................
........................................................................

 iter      E             dE          RMSdq      gap      omega  full diag
   1    -80.1148705 -0.801149E+02  0.763E-03    1.38       0.0  T
   2    -80.1148705 -0.262796E-07  0.452E-03    1.38       3.0  T
   3    -80.1148704  0.985577E-07  0.125E-03    1.38      11.0  T
   4    -80.1148705 -0.113116E-06  0.147E-04    1.38      93.4  T
   5    -80.1148705 -0.721229E-09  0.674E-05    1.38     203.8  T
     SCC iter.                  ...        0 min,  0.024 sec
     gradient                   ...        0 min,  0.006 sec
 * total energy  :   -78.7128423 Eh     change       -0.4124306E-05 Eh
   gradient norm :     0.0004064 Eh/α   predicted    -0.1963518E-05 ( -52.39%)
   displ. norm   :     0.0329423 α      lambda       -0.3311492E-05
   maximum displ.:     0.0167376 α      in ANC's #6, #4, #5, ...

........................................................................
.............................. CYCLE   12 ..............................
........................................................................

 iter      E             dE          RMSdq      gap      omega  full diag
   1    -80.1147741 -0.801148E+02  0.757E-03    1.38       0.0  T
   2    -80.1147742 -0.251665E-07  0.446E-03    1.38       3.1  T
   3    -80.1147741  0.729584E-07  0.112E-03    1.38      12.3  T
   4    -80.1147742 -0.852254E-07  0.161E-04    1.38      85.2  T
   5    -80.1147742 -0.733877E-09  0.808E-05    1.38     169.9  T
     SCC iter.                  ...        0 min,  0.024 sec
     gradient                   ...        0 min,  0.006 sec
 * total energy  :   -78.7128460 Eh     change       -0.3637383E-05 Eh
   gradient norm :     0.0004432 Eh/α   predicted    -0.1658435E-05 ( -54.41%)
   displ. norm   :     0.0514701 α      lambda       -0.3505485E-05
   maximum displ.:     0.0270724 α      in ANC's #4, #1, #6, ...

........................................................................
.............................. CYCLE   13 ..............................
........................................................................

 iter      E             dE          RMSdq      gap      omega  full diag
   1    -80.1147174 -0.801147E+02  0.115E-02    1.38       0.0  T
   2    -80.1147174 -0.173537E-07  0.675E-03    1.38       2.0  T
   3    -80.1147174  0.237777E-07  0.781E-04    1.38      17.6  T
   4    -80.1147175 -0.327258E-07  0.163E-04    1.38      84.4  T
     SCC iter.                  ...        0 min,  0.019 sec
     gradient                   ...        0 min,  0.006 sec
 * total energy  :   -78.7128500 Eh     change       -0.3998742E-05 Eh
   gradient norm :     0.0007367 Eh/α   predicted    -0.1756544E-05 ( -56.07%)
   displ. norm   :     0.0750249 α      lambda       -0.4310685E-05
   maximum displ.:     0.0404547 α      in ANC's #4, #1, #2, ...

........................................................................
.............................. CYCLE   14 ..............................
........................................................................

 iter      E             dE          RMSdq      gap      omega  full diag
   1    -80.1147806 -0.801148E+02  0.153E-02    1.38       0.0  T
   2    -80.1147806 -0.291065E-07  0.900E-03    1.38       1.5  T
   3    -80.1147806  0.177824E-07  0.840E-04    1.38      16.3  T
   4    -80.1147806 -0.318366E-07  0.217E-04    1.38      63.2  T
     SCC iter.                  ...        0 min,  0.019 sec
     gradient                   ...        0 min,  0.006 sec
 * total energy  :   -78.7128550 Eh     change       -0.5066534E-05 Eh
   gradient norm :     0.0006707 Eh/α   predicted    -0.2161827E-05 ( -57.33%)
   displ. norm   :     0.0905567 α      lambda       -0.4460488E-05
   maximum displ.:     0.0517910 α      in ANC's #4, #1, #2, ...

........................................................................
.............................. CYCLE   15 ..............................
........................................................................

 iter      E             dE          RMSdq      gap      omega  full diag
   1    -80.1146315 -0.801146E+02  0.174E-02    1.38       0.0  T
   2    -80.1146315 -0.396195E-07  0.102E-02    1.38       1.3  T
   3    -80.1146314  0.596079E-07  0.123E-03    1.38      11.2  T
   4    -80.1146315 -0.791703E-07  0.239E-04    1.38      57.4  T
   5    -80.1146315 -0.400306E-09  0.135E-04    1.38     102.1  T
     SCC iter.                  ...        0 min,  0.024 sec
     gradient                   ...        0 min,  0.006 sec
 * total energy  :   -78.7128603 Eh     change       -0.5278008E-05 Eh
   gradient norm :     0.0003563 Eh/α   predicted    -0.2239611E-05 ( -57.57%)
   displ. norm   :     0.0987384 α      lambda       -0.3945199E-05
   maximum displ.:     0.0586800 α      in ANC's #4, #1, #2, ...

........................................................................
.............................. CYCLE   16 ..............................
........................................................................

 iter      E             dE          RMSdq      gap      omega  full diag
   1    -80.1147072 -0.801147E+02  0.184E-02    1.38       0.0  T
   2    -80.1147073 -0.407593E-07  0.108E-02    1.38       1.3  T
   3    -80.1147072  0.625774E-07  0.124E-03    1.38      11.1  T
   4    -80.1147073 -0.821534E-07  0.229E-04    1.38      59.9  T
   5    -80.1147073 -0.501032E-09  0.133E-04    1.38     103.6  T
     SCC iter.                  ...        0 min,  0.024 sec
     gradient                   ...        0 min,  0.006 sec
 * total energy  :   -78.7128646 Eh     change       -0.4343440E-05 Eh
   gradient norm :     0.0002648 Eh/α   predicted    -0.1981838E-05 ( -54.37%)
   displ. norm   :     0.0844789 α      lambda       -0.2539600E-05
   maximum displ.:     0.0506776 α      in ANC's #4, #2, #1, ...

........................................................................
.............................. CYCLE   17 ..............................
........................................................................

 iter      E             dE          RMSdq      gap      omega  full diag
   1    -80.1147634 -0.801148E+02  0.159E-02    1.38       0.0  T
   2    -80.1147634 -0.244651E-07  0.931E-03    1.38       1.5  T
   3    -80.1147634  0.250343E-07  0.905E-04    1.38      15.2  T
   4    -80.1147634 -0.369652E-07  0.189E-04    1.38      72.6  T
     SCC iter.                  ...        0 min,  0.019 sec
     gradient                   ...        0 min,  0.006 sec
 * total energy  :   -78.7128672 Eh     change       -0.2562996E-05 Eh
   gradient norm :     0.0003337 Eh/α   predicted    -0.1274734E-05 ( -50.26%)
   displ. norm   :     0.0608876 α      lambda       -0.1483129E-05
   maximum displ.:     0.0359711 α      in ANC's #4, #2, #1, ...

........................................................................
.............................. CYCLE   18 ..............................
........................................................................

 iter      E             dE          RMSdq      gap      omega  full diag
   1    -80.1147715 -0.801148E+02  0.122E-02    1.38       0.0  T
   2    -80.1147715 -0.130808E-07  0.712E-03    1.38       1.9  T
   3    -80.1147715  0.144637E-07  0.710E-04    1.38      19.3  T
   4    -80.1147715 -0.211426E-07  0.129E-04    1.38     106.4  T
     SCC iter.                  ...        0 min,  0.019 sec
     gradient                   ...        0 min,  0.006 sec
 * total energy  :   -78.7128688 Eh     change       -0.1601767E-05 Eh
   gradient norm :     0.0002625 Eh/α   predicted    -0.7463547E-06 ( -53.40%)
   displ. norm   :     0.0522216 α      lambda       -0.1182544E-05
   maximum displ.:     0.0293817 α      in ANC's #4, #2, #1, ...

........................................................................
.............................. CYCLE   19 ..............................
........................................................................

 iter      E             dE          RMSdq      gap      omega  full diag
   1    -80.1148899 -0.801149E+02  0.112E-02    1.38       0.0  T
   2    -80.1148900 -0.110776E-07  0.659E-03    1.38       2.1  T
   3    -80.1148899  0.139027E-07  0.679E-04    1.38      20.2  T
   4    -80.1148900 -0.200793E-07  0.123E-04    1.38     111.6  T
     SCC iter.                  ...        0 min,  0.019 sec
     gradient                   ...        0 min,  0.006 sec
 * total energy  :   -78.7128701 Eh     change       -0.1307935E-05 Eh
   gradient norm :     0.0001515 Eh/α   predicted    -0.5926993E-06 ( -54.68%)
   displ. norm   :     0.0369922 α      lambda       -0.8416843E-06
   maximum displ.:     0.0195648 α      in ANC's #2, #4, #1, ...

........................................................................
.............................. CYCLE   20 ..............................
........................................................................

 iter      E             dE          RMSdq      gap      omega  full diag
   1    -80.1148865 -0.801149E+02  0.892E-03    1.38       0.0  T
   2    -80.1148865 -0.889661E-08  0.523E-03    1.38       2.6  T
   3    -80.1148865  0.175926E-07  0.691E-04    1.38      19.9  T
   4    -80.1148865 -0.225684E-07  0.997E-05    1.38     137.8  T
     SCC iter.                  ...        0 min,  0.019 sec
     gradient                   ...        0 min,  0.006 sec
 * total energy  :   -78.7128710 Eh     change       -0.8870640E-06 Eh
   gradient norm :     0.0001311 Eh/α   predicted    -0.4243173E-06 ( -52.17%)
   displ. norm   :     0.0221337 α      lambda       -0.4909519E-06
   maximum displ.:     0.0111567 α      in ANC's #2, #7, #6, ...
 * RMSD in coord.:     0.2342561 α      energy gain  -0.1431447E-01 Eh

generating ANC from exact Hessian ...
Using Lindh-Hessian (1995)
 Shifting diagonal of input Hessian by   9.818715113099249E-003
 Lowest  eigenvalues of input Hessian
    0.000000    0.000000    0.000000    0.000000    0.000000    0.000000
    0.010000    0.010131    0.010417    0.010759    0.011292    0.011964
    0.012056    0.012620    0.012929    0.015103    0.016151    0.016679
 Highest eigenvalues
    2.007598    2.027358    2.038178    2.156079    2.156589    2.197013
 

........................................................................
.............................. CYCLE   21 ..............................
........................................................................

 iter      E             dE          RMSdq      gap      omega  full diag
   1    -80.1148951 -0.801149E+02  0.583E-03    1.38       0.0  T
   2    -80.1148951 -0.419418E-08  0.343E-03    1.38       4.0  T
   3    -80.1148951  0.855768E-08  0.462E-04    1.38      29.7  T
   4    -80.1148951 -0.108070E-07  0.710E-05    1.38     193.5  T
     SCC iter.                  ...        0 min,  0.019 sec
     gradient                   ...        0 min,  0.006 sec
 * total energy  :   -78.7128715 Eh     change       -0.5196325E-06 Eh
   gradient norm :     0.0001358 Eh/α   predicted     0.0000000E+00 (-100.00%)
   displ. norm   :     0.0053596 α      lambda       -0.1410862E-07
   maximum displ.:     0.0027171 α      in ANC's #9, #3, #2, ...

........................................................................
.............................. CYCLE   22 ..............................
........................................................................

 iter      E             dE          RMSdq      gap      omega  full diag
   1    -80.1148748 -0.801149E+02  0.144E-03    1.38       0.0  T
   2    -80.1148748 -0.333046E-09  0.847E-04    1.38      16.2  T
   3    -80.1148748  0.315893E-09  0.922E-05    1.38     149.0  T
     SCC iter.                  ...        0 min,  0.015 sec
     gradient                   ...        0 min,  0.006 sec
 * total energy  :   -78.7128718 Eh     change       -0.2372019E-06 Eh
   gradient norm :     0.0000957 Eh/α   predicted    -0.9847628E-07 ( -58.48%)
   displ. norm   :     0.0223219 α      lambda       -0.5956168E-06
   maximum displ.:     0.0118021 α      in ANC's #9, #3, #2, ...

........................................................................
.............................. CYCLE   23 ..............................
........................................................................

 iter      E             dE          RMSdq      gap      omega  full diag
   1    -80.1148464 -0.801148E+02  0.525E-03    1.38       0.0  T
   2    -80.1148465 -0.402564E-08  0.309E-03    1.38       4.4  T
   3    -80.1148464  0.433467E-08  0.363E-04    1.38      37.8  T
   4    -80.1148465 -0.591614E-08  0.724E-05    1.38     189.7  T
     SCC iter.                  ...        0 min,  0.019 sec
     gradient                   ...        0 min,  0.006 sec
 * total energy  :   -78.7128724 Eh     change       -0.6645702E-06 Eh
   gradient norm :     0.0001418 Eh/α   predicted    -0.2992287E-06 ( -54.97%)
   displ. norm   :     0.0255656 α      lambda       -0.4474447E-06
   maximum displ.:     0.0127093 α      in ANC's #9, #3, #2, ...

........................................................................
.............................. CYCLE   24 ..............................
........................................................................

 iter      E             dE          RMSdq      gap      omega  full diag
   1    -80.1148626 -0.801149E+02  0.569E-03    1.38       0.0  T
   2    -80.1148626 -0.399100E-08  0.335E-03    1.38       4.1  T
   3    -80.1148626  0.101897E-07  0.503E-04    1.38      27.3  T
   4    -80.1148626 -0.124827E-07  0.702E-05    1.38     195.7  T
     SCC iter.                  ...        0 min,  0.019 sec
     gradient                   ...        0 min,  0.006 sec
 * total energy  :   -78.7128729 Eh     change       -0.5035860E-06 Eh
   gradient norm :     0.0001608 Eh/α   predicted    -0.2248156E-06 ( -55.36%)
   displ. norm   :     0.0238330 α      lambda       -0.3376538E-06
   maximum displ.:     0.0121736 α      in ANC's #2, #3, #7, ...

........................................................................
.............................. CYCLE   25 ..............................
........................................................................

 iter      E             dE          RMSdq      gap      omega  full diag
   1    -80.1148748 -0.801149E+02  0.500E-03    1.38       0.0  T
   2    -80.1148748 -0.306200E-08  0.294E-03    1.38       4.7  T
   3    -80.1148748  0.927213E-08  0.454E-04    1.38      30.3  T
   4    -80.1148748 -0.111596E-07  0.602E-05    1.38     228.2  T
     SCC iter.                  ...        0 min,  0.019 sec
     gradient                   ...        0 min,  0.006 sec
 * total energy  :   -78.7128733 Eh     change       -0.3896390E-06 Eh
   gradient norm :     0.0001126 Eh/α   predicted    -0.1691957E-06 ( -56.58%)
   displ. norm   :     0.0207455 α      lambda       -0.2734531E-06
   maximum displ.:     0.0116109 α      in ANC's #2, #3, #7, ...

........................................................................
.............................. CYCLE   26 ..............................
........................................................................

 iter      E             dE          RMSdq      gap      omega  full diag
   1    -80.1149053 -0.801149E+02  0.409E-03    1.38       0.0  T
   2    -80.1149053 -0.218731E-08  0.241E-03    1.38       5.7  T
   3    -80.1149053  0.657360E-08  0.376E-04    1.38      36.5  T
   4    -80.1149053 -0.788195E-08  0.480E-05    1.38     286.2  T
     SCC iter.                  ...        0 min,  0.023 sec
     gradient                   ...        0 min,  0.006 sec
 * total energy  :   -78.7128736 Eh     change       -0.3097334E-06 Eh
   gradient norm :     0.0000638 Eh/α   predicted    -0.1374344E-06 ( -55.63%)
   displ. norm   :     0.0171532 α      lambda       -0.2011261E-06
   maximum displ.:     0.0105607 α      in ANC's #2, #3, #7, ...

........................................................................
.............................. CYCLE   27 ..............................
........................................................................

 iter      E             dE          RMSdq      gap      omega  full diag
   1    -80.1149222 -0.801149E+02  0.327E-03    1.38       0.0  T
   2    -80.1149222 -0.130539E-08  0.192E-03    1.38       7.1  T
   3    -80.1149222  0.268388E-08  0.254E-04    1.38      54.1  T
   4    -80.1149222 -0.340536E-08  0.411E-05    1.38     334.6  T
     SCC iter.                  ...        0 min,  0.019 sec
     gradient                   ...        0 min,  0.006 sec
 * total energy  :   -78.7128739 Eh     change       -0.2326528E-06 Eh
   gradient norm :     0.0000774 Eh/α   predicted    -0.1014573E-06 ( -56.39%)
   displ. norm   :     0.0144226 α      lambda       -0.1615413E-06
   maximum displ.:     0.0093924 α      in ANC's #2, #3, #7, ...

........................................................................
.............................. CYCLE   28 ..............................
........................................................................

 iter      E             dE          RMSdq      gap      omega  full diag
   1    -80.1149288 -0.801149E+02  0.277E-03    1.38       0.0  T
   2    -80.1149288 -0.905771E-09  0.163E-03    1.38       8.4  T
   3    -80.1149288  0.111297E-08  0.180E-04    1.38      76.2  T
   4    -80.1149288 -0.155988E-08  0.348E-05    1.38     394.4  T
     SCC iter.                  ...        0 min,  0.019 sec
     gradient                   ...        0 min,  0.006 sec
 * total energy  :   -78.7128741 Eh     change       -0.1943045E-06 Eh
   gradient norm :     0.0000853 Eh/α   predicted    -0.8261295E-07 ( -57.48%)
   displ. norm   :     0.0131357 α      lambda       -0.1490658E-06
   maximum displ.:     0.0090417 α      in ANC's #2, #3, #6, ...

........................................................................
.............................. CYCLE   29 ..............................
........................................................................

 iter      E             dE          RMSdq      gap      omega  full diag
   1    -80.1149301 -0.801149E+02  0.256E-03    1.38       0.0  T
   2    -80.1149301 -0.635325E-09  0.150E-03    1.38       9.2  T
   3    -80.1149301  0.335135E-09  0.119E-04    1.38     115.5  T
   4    -80.1149301 -0.648058E-09  0.315E-05    1.38     435.5  T
     SCC iter.                  ...        0 min,  0.019 sec
     gradient                   ...        0 min,  0.006 sec
 * total energy  :   -78.7128742 Eh     change       -0.1837070E-06 Eh
   gradient norm :     0.0000710 Eh/α   predicted    -0.7533804E-07 ( -58.99%)
   displ. norm   :     0.0114687 α      lambda       -0.1329819E-06
   maximum displ.:     0.0081909 α      in ANC's #2, #3, #9, ...

........................................................................
.............................. CYCLE   30 ..............................
........................................................................

 iter      E             dE          RMSdq      gap      omega  full diag
   1    -80.1149247 -0.801149E+02  0.232E-03    1.38       0.0  T
   2    -80.1149247 -0.452530E-09  0.136E-03    1.38      10.1  T
   3    -80.1149247  0.128068E-09  0.892E-05    1.38     154.0  T
   4    -80.1149247 -0.371685E-09  0.286E-05    1.38     480.8  T
     SCC iter.                  ...        0 min,  0.019 sec
     gradient                   ...        0 min,  0.006 sec
 * total energy  :   -78.7128744 Eh     change       -0.1653137E-06 Eh
   gradient norm :     0.0000475 Eh/α   predicted    -0.6744302E-07 ( -59.20%)
   displ. norm   :     0.0113657 α      lambda       -0.1220074E-06
   maximum displ.:     0.0082860 α      in ANC's #2, #9, #3, ...

........................................................................
.............................. CYCLE   31 ..............................
........................................................................

 iter      E             dE          RMSdq      gap      omega  full diag
   1    -80.1149145 -0.801149E+02  0.248E-03    1.38       0.0  T
   2    -80.1149145 -0.560121E-09  0.145E-03    1.38       9.5  T
   3    -80.1149145  0.520856E-09  0.133E-04    1.38     103.0  T
   4    -80.1149145 -0.838099E-09  0.296E-05    1.38     464.0  T
     SCC iter.                  ...        0 min,  0.019 sec
     gradient                   ...        0 min,  0.006 sec
 * total energy  :   -78.7128746 Eh     change       -0.1535802E-06 Eh
   gradient norm :     0.0000503 Eh/α   predicted    -0.6211127E-07 ( -59.56%)
   displ. norm   :     0.0099069 α      lambda       -0.8925523E-07
   maximum displ.:     0.0075192 α      in ANC's #2, #3, #9, ...

........................................................................
.............................. CYCLE   32 ..............................
........................................................................

 iter      E             dE          RMSdq      gap      omega  full diag
   1    -80.1149117 -0.801149E+02  0.212E-03    1.38       0.0  T
   2    -80.1149117 -0.502922E-09  0.125E-03    1.38      11.0  T
   3    -80.1149117  0.475239E-09  0.128E-04    1.38     107.4  T
   4    -80.1149117 -0.737543E-09  0.274E-05    1.38     500.7  T
     SCC iter.                  ...        0 min,  0.019 sec
     gradient                   ...        0 min,  0.006 sec
 * total energy  :   -78.7128747 Eh     change       -0.1360926E-06 Eh
   gradient norm :     0.0000544 Eh/α   predicted    -0.4956835E-07 ( -63.58%)
   displ. norm   :     0.0088293 α      lambda       -0.9529640E-07
   maximum displ.:     0.0065173 α      in ANC's #2, #6, #3, ...

........................................................................
.............................. CYCLE   33 ..............................
........................................................................

 iter      E             dE          RMSdq      gap      omega  full diag
   1    -80.1149078 -0.801149E+02  0.189E-03    1.38       0.0  T
   2    -80.1149078 -0.515683E-09  0.111E-03    1.38      12.4  T
   3    -80.1149078  0.475836E-09  0.127E-04    1.38     108.2  T
   4    -80.1149078 -0.727468E-09  0.281E-05    1.38     489.6  T
     SCC iter.                  ...        0 min,  0.019 sec
     gradient                   ...        0 min,  0.006 sec
 * total energy  :   -78.7128748 Eh     change       -0.1442777E-06 Eh
   gradient norm :     0.0000496 Eh/α   predicted    -0.5130328E-07 ( -64.44%)
   displ. norm   :     0.0117544 α      lambda       -0.1368286E-06
   maximum displ.:     0.0084237 α      in ANC's #2, #6, #3, ...

........................................................................
.............................. CYCLE   34 ..............................
........................................................................

 iter      E             dE          RMSdq      gap      omega  full diag
   1    -80.1149047 -0.801149E+02  0.242E-03    1.38       0.0  T
   2    -80.1149047 -0.988479E-09  0.142E-03    1.38       9.7  T
   3    -80.1149047  0.911115E-09  0.173E-04    1.38      79.3  T
   4    -80.1149047 -0.136679E-08  0.382E-05    1.38     359.1  T
     SCC iter.                  ...        0 min,  0.019 sec
     gradient                   ...        0 min,  0.006 sec
 * total energy  :   -78.7128750 Eh     change       -0.1872421E-06 Eh
   gradient norm :     0.0000363 Eh/α   predicted    -0.7076987E-07 ( -62.20%)
   displ. norm   :     0.0154538 α      lambda       -0.1578867E-06
   maximum displ.:     0.0110666 α      in ANC's #2, #6, #3, ...

........................................................................
.............................. CYCLE   35 ..............................
........................................................................

 iter      E             dE          RMSdq      gap      omega  full diag
   1    -80.1149015 -0.801149E+02  0.306E-03    1.38       0.0  T
   2    -80.1149015 -0.153601E-08  0.179E-03    1.38       7.7  T
   3    -80.1149015  0.123261E-08  0.203E-04    1.38      67.8  T
   4    -80.1149015 -0.194107E-08  0.487E-05    1.38     281.8  T
     SCC iter.                  ...        0 min,  0.019 sec
     gradient                   ...        0 min,  0.006 sec
 * total energy  :   -78.7128752 Eh     change       -0.1977552E-06 Eh
   gradient norm :     0.0000298 Eh/α   predicted    -0.8052962E-07 ( -59.28%)
   displ. norm   :     0.0148721 α      lambda       -0.1159739E-06
   maximum displ.:     0.0108759 α      in ANC's #2, #6, #3, ...

........................................................................
.............................. CYCLE   36 ..............................
........................................................................

 iter      E             dE          RMSdq      gap      omega  full diag
   1    -80.1148940 -0.801149E+02  0.280E-03    1.38       0.0  T
   2    -80.1148940 -0.119871E-08  0.164E-03    1.38       8.4  T
   3    -80.1148940  0.911385E-09  0.178E-04    1.38      77.0  T
   4    -80.1148940 -0.146844E-08  0.433E-05    1.38     317.1  T
     SCC iter.                  ...        0 min,  0.019 sec
     gradient                   ...        0 min,  0.006 sec
 * total energy  :   -78.7128754 Eh     change       -0.1439012E-06 Eh
   gradient norm :     0.0000340 Eh/α   predicted    -0.5871810E-07 ( -59.20%)
   displ. norm   :     0.0097350 α      lambda       -0.5661033E-07
   maximum displ.:     0.0075270 α      in ANC's #2, #6, #3, ...

........................................................................
.............................. CYCLE   37 ..............................
........................................................................

 iter      E             dE          RMSdq      gap      omega  full diag
   1    -80.1148919 -0.801149E+02  0.171E-03    1.38       0.0  T
   2    -80.1148919 -0.391196E-09  0.101E-03    1.38      13.7  T
   3    -80.1148919  0.285581E-09  0.104E-04    1.38     132.1  T
   4    -80.1148919 -0.474628E-09  0.254E-05    1.38     541.0  T
     SCC iter.                  ...        0 min,  0.019 sec
     gradient                   ...        0 min,  0.006 sec
 * total energy  :   -78.7128755 Eh     change       -0.8736878E-07 Eh
   gradient norm :     0.0000311 Eh/α   predicted    -0.3202933E-07 ( -63.34%)
   displ. norm   :     0.0097350 α      lambda        0.0000000E+00
   maximum displ.:     0.0075270 α      in ANC's #2, #6, #3, ...

   *** GEOMETRY OPTIMIZATION CONVERGED AFTER 37 ITERATIONS ***

------------------------------------------------------------------------
 total energy gain   :        -0.0143189 Eh       -8.9853 kcal/mol
 total RMSD          :         0.2364313 a0        0.1251 Å
 total power (kW/mol):        -1.0160629 (step)  -31.1475 (real)
------------------------------------------------------------------------

 ANCopt (total)                0 d,  0 h,  0 min,  1.207 sec
 optimizer setup                ...        0 min,  0.000 sec (  0.015%)
 model hessian                  ...        0 min,  0.054 sec (  4.443%)
 ANC generation                 ...        0 min,  0.008 sec (  0.659%)
 coordinate transformation      ...        0 min,  0.004 sec (  0.325%)
 single point calculation       ...        0 min,  1.123 sec ( 93.071%)
 optimization log               ...        0 min,  0.007 sec (  0.550%)
 hessian update                 ...        0 min,  0.005 sec (  0.424%)
 rational function              ...        0 min,  0.003 sec (  0.257%)

================
 final structure:
================
53
 xtb: 6.7.1 (edcfbbe)
C           -4.68796839228245       -0.52077235265756        1.64592422255814
C           -4.05274484992725       -0.27741306847818        0.26394507209590
C           -5.13695178989444       -0.29583680655310       -0.83010026267384
C           -3.38870440215630        1.08750916222354        0.26678763434681
C           -4.15325160466956        2.22028314970107        0.51128542337950
C           -3.60366229027537        3.48941319789148        0.52820585623344
C           -2.24856669772895        3.64278703737479        0.29617842965568
C           -1.46479071832376        2.53464149268789        0.05036719110669
C           -2.01956772792642        1.25149431410241        0.03053157980983
N           -1.20538552293201        0.15748026419452       -0.21887370966735
C            0.18252469707492        0.36891658219687       -0.44671729121892
C            0.64768664840945        0.62073512472789       -1.73359305082624
C            1.99451400800222        0.83665687116992       -1.94659511290432
C            2.89743415351950        0.78077792587540       -0.88528309893831
C            4.33309651438365        1.04904968126921       -1.15267129926878
O            4.67787883362727        1.82094109243912       -2.03442238392940
C            5.32448730390354        0.34714621143053       -0.30465136945433
C            6.53411117919505        0.98096048796014       -0.02148088771185
C            7.48877403796974        0.34932892742401        0.75245010005200
C            7.25558606286143       -0.93102235080589        1.23053877945194
C            6.06667478459414       -1.57823589641570        0.93134105780773
C            5.10037262263858       -0.94429663779028        0.17189611813077
C            2.42456133428213        0.53463539667735        0.40327741200900
C            1.07474111712101        0.33399855773806        0.62019258677077
C           -1.70231128858650       -1.13608109173374       -0.24793027379409
C           -0.83686391597653       -2.20165536674968       -0.51274166390649
C           -1.29923187369204       -3.50081175000807       -0.54491667074420
C           -2.63819357702046       -3.76001134260404       -0.31329396781512
C           -3.49649758643828       -2.70637963024750       -0.05587311220012
C           -3.05887518863004       -1.38936676868321       -0.01805340914582
H           -5.41031714934308        0.25543509226816        1.88269862468842
H           -3.91655017617922       -0.51811222467540        2.41432908521894
H           -5.19790988431143       -1.47972204345877        1.67483321083816
H           -4.68364680724469       -0.12385842965942       -1.80503533887713
H           -5.87722674551608        0.47990969742325       -0.65503644624769
H           -5.64752062394902       -1.25461475347496       -0.85379855947235
H           -5.21190146545690        2.11625596432238        0.69531212093980
H           -4.22850937516704        4.34840924327784        0.72203245473608
H           -1.79729809512083        4.62425555099976        0.30581151968738
H           -0.40788997149982        2.66193300176768       -0.12904560930312
H           -0.05207473748515        0.65253452935379       -2.55535985782195
H            2.37075715481025        1.04348509625506       -2.93779678736653
H            6.70052055984832        1.97565261137670       -0.40940322086651
H            8.41730698897639        0.85228222645666        0.97813571714733
H            8.00376447441398       -1.42745322242506        1.83059046272580
H            5.89238048573713       -2.58136340812470        1.29132769197218
H            4.18258651713988       -1.45715897849865       -0.07454477326995
H            3.11048910603222        0.52499675473544        1.23672197208269
H            0.70083259305342        0.15096997173779        1.61660458999798
H            0.20823199683448       -2.00452462986135       -0.69728322657799
H           -0.61209254723183       -4.30826211009382       -0.75199830347683
H           -3.01354453107644       -4.77221260670691       -0.33456882236192
H           -4.53926563838886       -2.92370774735299        0.11974959640058
 
 Bond Distances (Angstroems)
 ---------------------------
C1-C2=1.5403         C1-H31=1.0864        C1-H32=1.0888        C1-H33=1.0865        C2-C1=1.5403         C2-C3=1.5404         
C2-C4=1.5179         C2-C30=1.5178        C3-C2=1.5404         C3-H34=1.0888        C3-H35=1.0865        C3-H36=1.0865        
C4-C2=1.5179         C4-C5=1.3883         C4-C9=1.3990         C5-C4=1.3883         C5-C6=1.3831         C5-H37=1.0795        
C6-C5=1.3831         C6-C7=1.3833         C6-H38=1.0798        C7-C6=1.3833         C7-C8=1.3794         C7-H39=1.0803        
C8-C7=1.3794         C8-C9=1.3981         C8-H40=1.0796        C9-C4=1.3990         C9-C8=1.3981         C9-N10=1.3863        
N10-C9=1.3863        N10-C11=1.4223       N10-C25=1.3860       C11-N10=1.4223       C11-C12=1.3913       C11-C24=1.3912       
C12-C11=1.3913       C12-C13=1.3806       C12-H41=1.0798       C13-C12=1.3806       C13-C14=1.3946       C13-H42=1.0802       
C14-C13=1.3946       C14-C15=1.4848       C14-C23=1.3945       C15-C14=1.4848       C15-O16=1.2215       C15-C17=1.4814       
O16-C15=1.2215       C17-C15=1.4814       C17-C18=1.3947       C17-C22=1.3947       C18-C17=1.3947       C18-C19=1.3818       
C18-H43=1.0806       C19-C18=1.3818       C19-C20=1.3865       C19-H44=1.0798       C20-C19=1.3865       C20-C21=1.3863       
C20-H45=1.0799       C21-C20=1.3863       C21-C22=1.3829       C21-H46=1.0799       C22-C17=1.3947       C22-C21=1.3829       
C22-H47=1.0799       C23-C14=1.3945       C23-C24=1.3818       C23-H48=1.0795       C24-C11=1.3912       C24-C23=1.3818       
C24-H49=1.0799       C25-N10=1.3860       C25-C26=1.3981       C25-C30=1.3990       C26-C25=1.3981       C26-C27=1.3794       
C26-H50=1.0794       C27-C26=1.3794       C27-C28=1.3833       C27-H51=1.0803       C28-C27=1.3833       C28-C29=1.3831       
C28-H52=1.0798       C29-C28=1.3831       C29-C30=1.3883       C29-H53=1.0796       C30-C2=1.5178        C30-C25=1.3990       
C30-C29=1.3883       H31-C1=1.0864        H32-C1=1.0888        H33-C1=1.0865        H34-C3=1.0888        H35-C3=1.0865        
H36-C3=1.0865        H37-C5=1.0795        H38-C6=1.0798        H39-C7=1.0803        H40-C8=1.0796        H41-C12=1.0798       
H42-C13=1.0802       H43-C18=1.0806       H44-C19=1.0798       H45-C20=1.0799       H46-C21=1.0799       H47-C22=1.0799       
H48-C23=1.0795       H49-C24=1.0799       H50-C26=1.0794       H51-C27=1.0803       H52-C28=1.0798       H53-C29=1.0796       
 C  H  Rav=1.0818 sigma=0.0033  Rmin=1.0794  Rmax=1.0888    23
 C  C  Rav=1.4135 sigma=0.0516  Rmin=1.3794  Rmax=1.5404    30
 N  C  Rav=1.3982 sigma=0.0170  Rmin=1.3860  Rmax=1.4223     3
 O  C  Rav=1.2215 sigma=0.0000  Rmin=1.2215  Rmax=1.2215     1
 
 selected bond angles (degree)
 --------------------
H31-C1-C2=110.91               H32-C1-C2=109.91               H32-C1-H31=108.39              H33-C1-C2=110.91               
H33-C1-H31=108.22              H33-C1-H32=108.42              C3-C2-C1=110.19                C4-C2-C1=108.71                
C4-C2-C3=108.66                C30-C2-C1=108.72               C30-C2-C3=108.67               C30-C2-C4=111.88               
H34-C3-C2=109.94               H35-C3-C2=110.89               H35-C3-H34=108.37              H36-C3-C2=110.90               
H36-C3-H34=108.39              H36-C3-H35=108.26              C5-C4-C2=119.55                C9-C4-C2=122.22                
C9-C4-C5=118.23                C6-C5-C4=122.14                H37-C5-C4=119.43               H37-C5-C6=118.42               
C7-C6-C5=119.27                H38-C6-C5=120.15               H38-C6-C7=120.58               C8-C7-C6=119.83                
H39-C7-C6=120.56               H39-C7-C8=119.61               C9-C8-C7=120.96                H40-C8-C7=119.42               
H40-C8-C9=119.63               C8-C9-C4=119.57                N10-C9-C4=120.84               N10-C9-C8=119.59               
C11-N10-C9=118.99              C25-N10-C9=121.99              C25-N10-C11=119.03             
 
 selected dihedral angles (degree)
 ---------------------------------
C3-C2-C1-H31=299.20           C3-C2-C1-H32=179.36           C3-C2-C1-H33= 59.49           C4-C2-C1-H31= 58.18           
C4-C2-C1-H32=298.34           C4-C2-C1-H33=178.47           C30-C2-C1-H31=180.20          C30-C2-C1-H32= 60.36          
C30-C2-C1-H33=300.49          H34-C3-C2-C1=180.02           H34-C3-C2-C4= 61.01           H34-C3-C2-C30=299.05          
H35-C3-C2-C1= 60.20           H35-C3-C2-C4=301.19           H35-C3-C2-C30=179.23          H36-C3-C2-C1=299.88           
H36-C3-C2-C4=180.87           H36-C3-C2-C30= 58.91          C5-C4-C2-C1=300.19            C5-C4-C2-C3= 60.12            
C5-C4-C2-C30=180.11           C9-C4-C2-C1=120.16            C9-C4-C2-C3=240.09            C9-C4-C2-C30=  0.08           
C6-C5-C4-C2=179.91            C6-C5-C4-C9=359.95            H37-C5-C4-C2=359.92           H37-C5-C4-C9=179.96           
C7-C6-C5-C4=359.93            C7-C6-C5-H37=179.92           H38-C6-C5-C4=180.01           H38-C6-C5-H37=  0.00          
C8-C7-C6-C5=  0.07            C8-C7-C6-H38=179.99           H39-C7-C6-C5=180.08           H39-C7-C6-H38=  0.00          
C9-C8-C7-C6=  0.05            C9-C8-C7-H39=180.04           H40-C8-C7-C6=180.05           H40-C8-C7-H39=  0.04          
C8-C9-C4-C2=180.20            C8-C9-C4-C5=  0.17            N10-C9-C4-C2=  0.00           N10-C9-C4-C5=179.97           
C4-C9-C8-C7=359.83            C4-C9-C8-H40=179.83           N10-C9-C8-C7=180.03           N10-C9-C8-H40=  0.03          
C11-N10-C9-C4=180.34          C11-N10-C9-C8=  0.14          C25-N10-C9-C4=  0.10          C25-N10-C9-C8=179.89          
           -------------------------------------------------
          |                Final Singlepoint                |
           -------------------------------------------------

          ...................................................
          :                      SETUP                      :
          :.................................................:
          :  # basis functions                 143          :
          :  # atomic orbitals                 143          :
          :  # shells                           83          :
          :  # electrons                       146          :
          :  max. iterations                   250          :
          :  Hamiltonian                  GFN2-xTB          :
          :  restarted?                      false          :
          :  GBSA solvation                   true          :
          :  PC potential                    false          :
          :  electronic temp.          300.0000000     K    :
          :  accuracy                    1.0000000          :
          :  -> integral cutoff          0.2500000E+02      :
          :  -> integral neglect         0.1000000E-07      :
          :  -> SCF convergence          0.1000000E-05 Eh   :
          :  -> wf. convergence          0.1000000E-03 e    :
          :  Broyden damping             0.4000000          :
          :  net charge                          0          :
          :  unpaired electrons                  0          :
          ...................................................

 iter      E             dE          RMSdq      gap      omega  full diag
   1    -80.1148919 -0.801149E+02  0.112E-05    1.38       0.0  T
   2    -80.1148919 -0.142109E-11  0.731E-06    1.38    1878.3  T
   3    -80.1148919 -0.120792E-11  0.425E-06    1.38    3229.5  T

   *** convergence criteria satisfied after 3 iterations ***

         #    Occupation            Energy/Eh            Energy/eV
      -------------------------------------------------------------
         1        2.0000           -0.7139749             -19.4282
       ...           ...                  ...                  ...
        67        2.0000           -0.4081226             -11.1056
        68        2.0000           -0.4071211             -11.0783
        69        2.0000           -0.4030569             -10.9677
        70        2.0000           -0.3981378             -10.8339
        71        2.0000           -0.3975882             -10.8189
        72        2.0000           -0.3922392             -10.6734
        73        2.0000           -0.3464545              -9.4275 (HOMO)
        74                         -0.2956608              -8.0453 (LUMO)
        75                         -0.2451516              -6.6709
        76                         -0.2438851              -6.6365
        77                         -0.2355723              -6.4102
        78                         -0.2238671              -6.0917
       ...                                ...                  ...
       143                          0.6783623              18.4592
      -------------------------------------------------------------
                  HL-Gap            0.0507937 Eh            1.3822 eV
             Fermi-level           -0.3210576 Eh           -8.7364 eV

 SCC (total)                   0 d,  0 h,  0 min,  0.023 sec
 SCC setup                      ...        0 min,  0.000 sec (  1.817%)
 Dispersion                     ...        0 min,  0.000 sec (  2.020%)
 classical contributions        ...        0 min,  0.000 sec (  0.117%)
 integral evaluation            ...        0 min,  0.002 sec (  7.938%)
 iterations                     ...        0 min,  0.014 sec ( 61.128%)
 molecular gradient             ...        0 min,  0.006 sec ( 25.340%)
 printout                       ...        0 min,  0.000 sec (  1.258%)

         :::::::::::::::::::::::::::::::::::::::::::::::::::::
         ::                     SUMMARY                     ::
         :::::::::::::::::::::::::::::::::::::::::::::::::::::
         :: total energy             -78.712875459456 Eh    ::
         :: total w/o Gsasa/hb       -78.683834491136 Eh    ::
         :: gradient norm              0.000041057471 Eh/a0 ::
         :: HOMO-LUMO gap              1.382166501186 eV    ::
         ::.................................................::
         :: SCC energy               -80.114482323939 Eh    ::
         :: -> isotropic ES            0.039821548994 Eh    ::
         :: -> anisotropic ES          0.007633763674 Eh    ::
         :: -> anisotropic XC          0.043749810776 Eh    ::
         :: -> dispersion             -0.067987072586 Eh    ::
         :: -> Gsolv                  -0.034342738166 Eh    ::
         ::    -> Gelec               -0.005301769845 Eh    ::
         ::    -> Gsasa               -0.033564848192 Eh    ::
         ::    -> Ghb                  0.000000000000 Eh    ::
         ::    -> Gshift               0.004523879872 Eh    ::
         :: repulsion energy           1.401606864482 Eh    ::
         :: add. restraining           0.000000000000 Eh    ::
         :: total charge              -0.000000000000 e     ::
         :::::::::::::::::::::::::::::::::::::::::::::::::::::

           ------------------------------------------------- 
          |                Numerical Hessian                |
           ------------------------------------------------- 
step length          :   0.00500
SCC accuracy         :   0.30000
Hessian scale factor :   1.00000
frozen atoms in %    :   0.00000    0
RMS gradient         :   0.00004
estimated CPU  time      3.19 min
estimated wall time      0.08 min

writing file <hessian>.

 projected vibrational frequencies (cm⁻¹)
eigval :       -0.00    -0.00    -0.00     0.00     0.00     0.00
eigval :      -18.15    16.37    17.30    32.60    43.66    56.92
eigval :       72.29    98.08   102.54   119.01   124.19   154.62
eigval :      170.62   186.62   189.50   220.96   221.62   233.89
eigval :      277.30   301.64   311.92   330.47   343.71   357.35
eigval :      362.18   373.73   375.80   380.91   397.61   409.34
eigval :      449.75   452.96   480.24   489.02   515.94   540.75
eigval :      547.60   558.46   580.83   585.82   592.34   606.78
eigval :      621.29   647.64   664.04   678.42   682.65   693.73
eigval :      706.20   721.74   756.51   774.61   776.09   777.67
eigval :      816.90   827.86   862.83   865.20   870.76   877.68
eigval :      896.14   911.19   911.89   912.82   915.77   920.72
eigval :      921.02   921.66   927.19   931.55   932.20   936.04
eigval :      940.87   954.94   993.37  1012.37  1022.94  1075.76
eigval :     1078.26  1084.51  1110.76  1117.40  1117.47  1126.76
eigval :     1138.45  1158.01  1166.75  1173.61  1177.47  1179.88
eigval :     1183.72  1186.46  1191.56  1207.64  1242.20  1246.90
eigval :     1256.64  1261.06  1265.64  1275.00  1292.56  1308.24
eigval :     1316.94  1320.85  1323.91  1333.62  1338.35  1397.12
eigval :     1399.01  1417.44  1426.24  1435.31  1440.23  1458.21
eigval :     1470.35  1476.99  1485.99  1487.40  1495.61  1497.18
eigval :     1502.01  1557.59  1573.73  1576.53  1581.68  1587.12
eigval :     1589.79  1590.29  1600.66  1655.64  3020.17  3022.67
eigval :     3037.89  3039.84  3046.47  3050.30  3070.96  3071.33
eigval :     3077.16  3077.99  3078.17  3078.97  3083.94  3084.99
eigval :     3086.82  3088.22  3088.55  3089.63  3094.71  3095.16
eigval :     3095.91  3096.23  3097.74
           -------------------------------------------------
          |                Property Printout                |
           -------------------------------------------------

    * Orbital Energies and Occupations

         #    Occupation            Energy/Eh            Energy/eV
      -------------------------------------------------------------
         1        2.0000           -0.7139749             -19.4282
       ...           ...                  ...                  ...
        61        2.0000           -0.4338595             -11.8059
        62        2.0000           -0.4280612             -11.6481
        63        2.0000           -0.4267955             -11.6137
        64        2.0000           -0.4209212             -11.4538
        65        2.0000           -0.4183160             -11.3830
        66        2.0000           -0.4178139             -11.3693
        67        2.0000           -0.4081226             -11.1056
        68        2.0000           -0.4071211             -11.0783
        69        2.0000           -0.4030570             -10.9677
        70        2.0000           -0.3981378             -10.8339
        71        2.0000           -0.3975882             -10.8189
        72        2.0000           -0.3922392             -10.6734
        73        2.0000           -0.3464545              -9.4275 (HOMO)
        74                         -0.2956608              -8.0453 (LUMO)
        75                         -0.2451516              -6.6709
        76                         -0.2438851              -6.6365
        77                         -0.2355723              -6.4102
        78                         -0.2238671              -6.0917
        79                         -0.2188306              -5.9547
        80                         -0.2178247              -5.9273
        81                         -0.1975763              -5.3763
        82                         -0.1897583              -5.1636
        83                         -0.1148286              -3.1246
        84                         -0.0938588              -2.5540
       ...                                ...                  ...
       143                          0.6783623              18.4592
      -------------------------------------------------------------
                  HL-Gap            0.0507937 Eh            1.3822 eV
             Fermi-level           -0.3210576 Eh           -8.7364 eV

     #   Z          covCN         q      C6AA      α(0)
     1   6 C        3.761    -0.103    22.523     6.765
     2   6 C        3.908     0.021    20.165     6.383
     3   6 C        3.761    -0.103    22.519     6.765
     4   6 C        2.978    -0.014    28.356     8.735
     5   6 C        2.928    -0.038    28.933     8.821
     6   6 C        2.917    -0.046    29.155     8.854
     7   6 C        2.919    -0.035    28.863     8.810
     8   6 C        2.924    -0.060    29.497     8.906
     9   6 C        2.928     0.058    26.690     8.472
    10   7 N        2.754    -0.074    22.678     7.073
    11   6 C        2.927     0.079    26.247     8.402
    12   6 C        2.919    -0.035    28.864     8.810
    13   6 C        2.924    -0.016    28.408     8.741
    14   6 C        2.972    -0.013    28.326     8.730
    15   6 C        2.829     0.229    23.208     7.894
    16   8 O        0.858    -0.416    21.994     6.288
    17   6 C        2.972    -0.013    28.343     8.733
    18   6 C        2.924    -0.017    28.424     8.743
    19   6 C        2.917    -0.025    28.635     8.775
    20   6 C        2.920    -0.021    28.520     8.758
    21   6 C        2.918    -0.026    28.641     8.776
    22   6 C        2.921    -0.025    28.632     8.775
    23   6 C        2.920    -0.024    28.606     8.771
    24   6 C        2.920    -0.035    28.877     8.812
    25   6 C        2.928     0.058    26.691     8.473
    26   6 C        2.924    -0.060    29.501     8.907
    27   6 C        2.919    -0.035    28.866     8.810
    28   6 C        2.917    -0.047    29.157     8.855
    29   6 C        2.928    -0.037    28.930     8.821
    30   6 C        2.978    -0.014    28.356     8.735
    31   1 H        0.925     0.041     2.431     2.438
    32   1 H        0.925     0.030     2.584     2.514
    33   1 H        0.925     0.042     2.428     2.437
    34   1 H        0.925     0.030     2.591     2.517
    35   1 H        0.925     0.041     2.431     2.438
    36   1 H        0.925     0.041     2.430     2.438
    37   1 H        0.926     0.032     2.551     2.498
    38   1 H        0.926     0.025     2.653     2.547
    39   1 H        0.926     0.026     2.645     2.543
    40   1 H        0.926     0.022     2.703     2.571
    41   1 H        0.926     0.053     2.282     2.362
    42   1 H        0.926     0.054     2.269     2.355
    43   1 H        0.926     0.045     2.380     2.412
    44   1 H        0.926     0.046     2.368     2.406
    45   1 H        0.926     0.048     2.339     2.392
    46   1 H        0.926     0.048     2.345     2.395
    47   1 H        0.926     0.044     2.397     2.421
    48   1 H        0.926     0.054     2.265     2.354
    49   1 H        0.926     0.055     2.259     2.350
    50   1 H        0.926     0.022     2.696     2.567
    51   1 H        0.926     0.027     2.633     2.538
    52   1 H        0.926     0.025     2.652     2.547
    53   1 H        0.926     0.032     2.555     2.499

 Mol. C6AA /au·bohr⁶  :      36972.981220
 Mol. C8AA /au·bohr⁸  :     917938.011931
 Mol. α(0) /au        :        307.732113


MOs/occ written to file <molden.input>


molecular dipole:
                 x           y           z       tot (Debye)
 q only:       -0.109      -1.021       1.182
   full:       -0.071      -1.027       1.195       4.008
molecular quadrupole (traceless):
                xx          xy          yy          xz          yz          zz
 q only:       11.350     -13.111      -7.238      18.438       4.369      -4.113
  q+dip:       15.471     -12.114      -5.480      19.483       3.872      -9.991
   full:       11.146     -13.416      -5.675      19.189       5.628      -5.472

           -------------------------------------------------
          |                Geometry Summary                 |
           -------------------------------------------------

      molecular mass/u    :      389.4893506
   center of mass at/Å    :        0.3527210       0.1088582      -0.1226454
  moments of inertia/u·Å² :        0.1578259E+04   0.6328527E+04   0.7279375E+04
rotational constants/cm⁻¹ :        0.1068115E-01   0.2663753E-02   0.2315808E-02

 * 53 selected distances

     #   Z          #   Z                                           value/Å
     1   6 C        2   6 C                                       1.5403245
     2   6 C        3   6 C                                       1.5403830 (max)
     4   6 C        5   6 C                                       1.3883403
     5   6 C        6   6 C                                       1.3831219
     6   6 C        7   6 C                                       1.3833455
     7   6 C        8   6 C                                       1.3793893
     4   6 C        9   6 C                                       1.3990152
     8   6 C        9   6 C                                       1.3980837
     9   6 C       10   7 N                                       1.3863487
    10   7 N       11   6 C                                       1.4222915
    11   6 C       12   6 C                                       1.3913439
    12   6 C       13   6 C                                       1.3805565
    13   6 C       14   6 C                                       1.3945504
    15   6 C       16   8 O                                       1.2215467
    17   6 C       18   6 C                                       1.3946671
    18   6 C       19   6 C                                       1.3817775
    19   6 C       20   6 C                                       1.3864506
    20   6 C       21   6 C                                       1.3863315
    17   6 C       22   6 C                                       1.3946863
    21   6 C       22   6 C                                       1.3828868
    14   6 C       23   6 C                                       1.3944832
    11   6 C       24   6 C                                       1.3912464
    23   6 C       24   6 C                                       1.3817823
    10   7 N       25   6 C                                       1.3860306
    25   6 C       26   6 C                                       1.3980605
    26   6 C       27   6 C                                       1.3793575
    27   6 C       28   6 C                                       1.3833482
    28   6 C       29   6 C                                       1.3831455
    25   6 C       30   6 C                                       1.3990222
    29   6 C       30   6 C                                       1.3883324
     1   6 C       31   1 H                                       1.0864382
     1   6 C       32   1 H                                       1.0888248
     1   6 C       33   1 H                                       1.0864901
     3   6 C       34   1 H                                       1.0888345
     3   6 C       35   1 H                                       1.0864793
     3   6 C       36   1 H                                       1.0865070
     5   6 C       37   1 H                                       1.0795495
     6   6 C       38   1 H                                       1.0797579
     7   6 C       39   1 H                                       1.0802855
     8   6 C       40   1 H                                       1.0795515
    12   6 C       41   1 H                                       1.0798047
    13   6 C       42   1 H                                       1.0801934
    18   6 C       43   1 H                                       1.0805501
    19   6 C       44   1 H                                       1.0798471
    20   6 C       45   1 H                                       1.0799430
    21   6 C       46   1 H                                       1.0799231
    22   6 C       47   1 H                                       1.0798576
    23   6 C       48   1 H                                       1.0794535
    24   6 C       49   1 H                                       1.0798815
    26   6 C       50   1 H                                       1.0794173 (min)
    27   6 C       51   1 H                                       1.0802868
    28   6 C       52   1 H                                       1.0797651
    29   6 C       53   1 H                                       1.0795556

 * 4 distinct bonds (by element types)

   Z      Z             #   av. dist./Å        max./Å        min./Å
   1 H    6 C          23     1.0817912     1.0888345     1.0794173
   6 C    6 C          26     1.4001551     1.5403830     1.3793575
   6 C    7 N           3     1.3982236     1.4222915     1.3860306
   6 C    8 O           1     1.2215467     1.2215467     1.2215467

           -------------------------------------------------
          |               Frequency Printout                |
           -------------------------------------------------
 projected vibrational frequencies (cm⁻¹)
eigval :       -0.00    -0.00    -0.00     0.00     0.00     0.00
eigval :      -18.15    16.37    17.30    32.60    43.66    56.92
eigval :       72.29    98.08   102.54   119.01   124.19   154.62
eigval :      170.62   186.62   189.50   220.96   221.62   233.89
eigval :      277.30   301.64   311.92   330.47   343.71   357.35
eigval :      362.18   373.73   375.80   380.91   397.61   409.34
eigval :      449.75   452.96   480.24   489.02   515.94   540.75
eigval :      547.60   558.46   580.83   585.82   592.34   606.78
eigval :      621.29   647.64   664.04   678.42   682.65   693.73
eigval :      706.20   721.74   756.51   774.61   776.09   777.67
eigval :      816.90   827.86   862.83   865.20   870.76   877.68
eigval :      896.14   911.19   911.89   912.82   915.77   920.72
eigval :      921.02   921.66   927.19   931.55   932.20   936.04
eigval :      940.87   954.94   993.37  1012.37  1022.94  1075.76
eigval :     1078.26  1084.51  1110.76  1117.40  1117.47  1126.76
eigval :     1138.45  1158.01  1166.75  1173.61  1177.47  1179.88
eigval :     1183.72  1186.46  1191.56  1207.64  1242.20  1246.90
eigval :     1256.64  1261.06  1265.64  1275.00  1292.56  1308.24
eigval :     1316.94  1320.85  1323.91  1333.62  1338.35  1397.12
eigval :     1399.01  1417.44  1426.24  1435.31  1440.23  1458.21
eigval :     1470.35  1476.99  1485.99  1487.40  1495.61  1497.18
eigval :     1502.01  1557.59  1573.73  1576.53  1581.68  1587.12
eigval :     1589.79  1590.29  1600.66  1655.64  3020.17  3022.67
eigval :     3037.89  3039.84  3046.47  3050.30  3070.96  3071.33
eigval :     3077.16  3077.99  3078.17  3078.97  3083.94  3084.99
eigval :     3086.82  3088.22  3088.55  3089.63  3094.71  3095.16
eigval :     3095.91  3096.23  3097.74
 reduced masses (amu)
   1: 11.04   2: 11.37   3: 11.64   4: 11.62   5: 11.59   6: 11.10   7: 10.70   8: 10.61
   9: 10.14  10: 11.23  11: 11.45  12: 10.60  13: 10.57  14:  9.37  15:  9.78  16: 12.49
  17:  2.92  18: 11.61  19: 10.90  20:  9.33  21:  3.23  22: 10.59  23:  9.06  24:  9.56
  25: 11.28  26:  9.87  27: 10.12  28:  8.95  29:  9.79  30: 11.31  31:  8.83  32: 10.70
  33:  9.10  34: 11.06  35: 10.96  36: 10.94  37:  9.56  38: 11.01  39: 10.76  40: 10.70
  41: 10.08  42: 10.96  43:  9.94  44: 10.91  45: 10.30  46: 11.20  47: 11.14  48: 11.39
  49: 11.03  50: 10.78  51: 11.03  52:  8.93  53: 11.53  54: 11.53  55: 10.02  56:  9.95
  57: 11.04  58:  7.18  59:  3.52  60:  3.33  61:  7.00  62:  7.88  63:  3.49  64:  3.50
  65:  3.32  66:  3.29  67: 11.30  68:  4.11  69:  3.81  70:  3.83  71:  9.61  72:  4.11
  73:  3.32  74:  3.02  75:  4.20  76:  4.11  77:  3.20  78:  9.21  79: 10.56  80:  4.61
  81: 10.77  82:  3.30  83:  8.44  84:  8.83  85:  6.82  86:  7.85  87:  6.85  88:  5.60
  89:  4.25  90:  2.89  91:  5.23  92: 10.10  93:  6.28  94:  5.40  95:  1.35  96:  3.13
  97:  1.45  98:  1.43  99:  3.11 100:  7.94 101:  8.82 102:  4.10 103:  3.70 104:  9.45
 105:  4.53 106:  3.63 107:  7.82 108: 11.66 109: 10.95 110: 11.95 111: 11.82 112: 11.88
 113: 10.05 114:  9.91 115:  3.16 116:  2.99 117:  8.94 118:  9.30 119:  9.91 120:  8.85
 121:  9.53 122:  8.92 123:  1.60 124:  1.60 125:  9.80 126:  1.72 127:  2.83 128: 11.71
 129: 11.59 130: 11.51 131: 11.55 132: 11.49 133: 11.70 134: 11.43 135: 11.52 136: 13.43
 137:  1.84 138:  1.78 139:  1.95 140:  1.94 141:  1.36 142:  1.41 143:  1.76 144:  1.76
 145:  1.75 146:  1.80 147:  1.81 148:  1.78 149:  1.83 150:  1.79 151:  1.79 152:  1.86
 153:  1.85 154:  1.88 155:  1.89 156:  1.88 157:  1.89 158:  1.92 159:  1.89
 IR intensities (km·mol⁻¹)
   1:  0.26   2:  0.02   3:  0.01   4:  0.01   5:  0.00   6:  0.24   7:  0.85   8:  0.07
   9:  0.39  10:  1.56  11:  1.51  12:  0.10  13:  0.24  14:  0.01  15:  0.05  16:  7.28
  17:  0.01  18:  0.04  19:  1.91  20:  1.01  21:  0.25  22:  1.94  23:  0.36  24:  0.13
  25:  3.02  26:  1.23  27:  2.23  28:  0.04  29:  0.10  30:  0.16  31:  1.15  32:  7.25
  33:  0.05  34:  2.11  35:  1.67  36:  2.46  37:  0.21  38:  2.22  39:  2.88  40:  0.52
  41:  0.02  42:  0.13  43:  0.86  44:  5.34  45:  1.26  46:  0.66  47:  3.60  48:  0.29
  49: 15.33  50:  6.96  51:  6.24  52: 24.88  53:  0.09  54:  7.08  55: 23.53  56:  9.47
  57:  2.21  58:  3.53  59: 39.87  60:  5.99  61:  1.29  62:  1.40  63:  0.14  64:  0.21
  65:  8.28  66:  2.64  67: 53.05  68:  0.46  69:  0.82  70:  0.16  71: 18.29  72:  2.57
  73:  0.86  74:  0.11  75:  6.23  76:  1.01  77:  0.74  78: 11.20  79: 27.12  80:  0.41
  81: 10.76  82:  0.01  83:  5.62  84:  0.11  85:  0.43  86: 21.60  87:  0.03  88:  1.01
  89:  0.78  90:  2.51  91: 15.48  92: 10.76  93:  6.41  94: 17.34  95:  0.24  96: 18.75
  97:  1.46  98:  2.66  99: 22.41 100:  9.60 101: 22.90 102:  1.24 103: 12.08 104:231.71
 105: 67.15 106:  9.22 107:  4.22 108:  9.75 109:318.32 110: 11.43 111:  0.50 112: 45.18
 113:542.98 114:  4.54 115:  2.13 116:  0.20 117:  6.10 118: 12.77 119:316.46 120: 46.64
 121:  3.86 122:394.86 123:  0.25 124:  1.10 125:103.85 126:  9.21 127: 47.12 128:  5.98
 129: 25.13 130:  2.24 131:258.50 132: 59.84 133:  1.26 134:150.45 135: 44.30 136:510.86
 137: 60.66 138: 22.28 139:  0.31 140: 89.48 141: 12.04 142: 78.45 143: 12.25 144:  6.92
 145:  1.94 146: 30.14 147: 72.84 148:  0.62 149: 40.20 150: 13.57 151: 90.76 152: 84.94
 153:221.54 154:131.91 155:123.16 156: 63.69 157: 32.36 158: 27.82 159: 13.27
 Raman intensities (Ä⁴*amu⁻¹)
   1:  0.00   2:  0.00   3:  0.00   4:  0.00   5:  0.00   6:  0.00   7:  0.00   8:  0.00
   9:  0.00  10:  0.00  11:  0.00  12:  0.00  13:  0.00  14:  0.00  15:  0.00  16:  0.00
  17:  0.00  18:  0.00  19:  0.00  20:  0.00  21:  0.00  22:  0.00  23:  0.00  24:  0.00
  25:  0.00  26:  0.00  27:  0.00  28:  0.00  29:  0.00  30:  0.00  31:  0.00  32:  0.00
  33:  0.00  34:  0.00  35:  0.00  36:  0.00  37:  0.00  38:  0.00  39:  0.00  40:  0.00
  41:  0.00  42:  0.00  43:  0.00  44:  0.00  45:  0.00  46:  0.00  47:  0.00  48:  0.00
  49:  0.00  50:  0.00  51:  0.00  52:  0.00  53:  0.00  54:  0.00  55:  0.00  56:  0.00
  57:  0.00  58:  0.00  59:  0.00  60:  0.00  61:  0.00  62:  0.00  63:  0.00  64:  0.00
  65:  0.00  66:  0.00  67:  0.00  68:  0.00  69:  0.00  70:  0.00  71:  0.00  72:  0.00
  73:  0.00  74:  0.00  75:  0.00  76:  0.00  77:  0.00  78:  0.00  79:  0.00  80:  0.00
  81:  0.00  82:  0.00  83:  0.00  84:  0.00  85:  0.00  86:  0.00  87:  0.00  88:  0.00
  89:  0.00  90:  0.00  91:  0.00  92:  0.00  93:  0.00  94:  0.00  95:  0.00  96:  0.00
  97:  0.00  98:  0.00  99:  0.00 100:  0.00 101:  0.00 102:  0.00 103:  0.00 104:  0.00
 105:  0.00 106:  0.00 107:  0.00 108:  0.00 109:  0.00 110:  0.00 111:  0.00 112:  0.00
 113:  0.00 114:  0.00 115:  0.00 116:  0.00 117:  0.00 118:  0.00 119:  0.00 120:  0.00
 121:  0.00 122:  0.00 123:  0.00 124:  0.00 125:  0.00 126:  0.00 127:  0.00 128:  0.00
 129:  0.00 130:  0.00 131:  0.00 132:  0.00 133:  0.00 134:  0.00 135:  0.00 136:  0.00
 137:  0.00 138:  0.00 139:  0.00 140:  0.00 141:  0.00 142:  0.00 143:  0.00 144:  0.00
 145:  0.00 146:  0.00 147:  0.00 148:  0.00 149:  0.00 150:  0.00 151:  0.00 152:  0.00
 153:  0.00 154:  0.00 155:  0.00 156:  0.00 157:  0.00 158:  0.00 159:  0.00
 output can be read by thermo (or use thermo option).
 writing <g98.out> molden fake output.
 recommended (thermochemical) frequency scaling factor: 1.0
           -------------------------------------------------
          |             Thermodynamic Functions             |
           -------------------------------------------------

Molecule has no symmetry elements
It seems to be the C1 point group
c1  symmetry found (for desy threshold:  0.10E+00) used in thermo
 inverting freq            1   18.1533468370376     

          ...................................................
          :                      SETUP                      :
          :.................................................:
          :  # frequencies                         153      :
          :  # imaginary freq.                       0      :
          :  linear?                             false      :
          :  only rotor calc.                    false      :
          :  symmetry                               c1      :
          :  rotational number                       1      :
          :  scaling factor                  1.0000000      :
          :  rotor cutoff                   50.0000000 cm⁻¹ :
          :  imag. cutoff                  -20.0000000 cm⁻¹ :
          :.................................................:

    mode    ω/cm⁻¹     T·S(HO)/kcal·mol⁻¹    T·S(FR)/kcal·mol⁻¹   T·S(vib)
   ------------------------------------------------------------------------
       1     18.15    -2.03534 (  1.71%)    -1.35664 ( 98.29%)    -1.36823
       2     16.37    -2.09672 (  1.13%)    -1.38734 ( 98.87%)    -1.39539
       3     17.30    -2.06370 (  1.41%)    -1.37083 ( 98.59%)    -1.38062
       4     32.60    -1.68886 ( 15.31%)    -1.18321 ( 84.69%)    -1.26062
       5     43.66    -1.51624 ( 36.77%)    -1.09667 ( 63.23%)    -1.25096
       6     56.92    -1.35990 ( 62.68%)    -1.01812 ( 37.32%)    -1.23236
       7     72.29    -1.21947 ( 81.37%)    -0.94734 ( 18.63%)    -1.16878
       8     98.08    -1.04117 ( 93.67%)    -0.85694 (  6.33%)    -1.02952
       9    102.54    -1.01531 ( 94.65%)    -0.84376 (  5.35%)    -1.00613
      10    119.01    -0.92917 ( 96.98%)    -0.79966 (  3.02%)    -0.92525
      11    124.19    -0.90463 ( 97.44%)    -0.78703 (  2.56%)    -0.90162
      12    154.62    -0.77953 ( 98.92%)    -0.72210 (  1.08%)    -0.77891
      13    170.62    -0.72411 ( 99.27%)    -0.69294 (  0.73%)    -0.72388
      14    186.62    -0.67417 ( 99.49%)    -0.66639 (  0.51%)    -0.67413
      15    189.50    -0.66569 ( 99.52%)    -0.66184 (  0.48%)    -0.66567
      16    220.96    -0.58174 ( 99.74%)    -0.61634 (  0.26%)    -0.58183
      17    221.62    -0.58014 ( 99.74%)    -0.61546 (  0.26%)    -0.58023
      18    233.89    -0.55124 ( 99.79%)    -0.59949 (  0.21%)    -0.55134
      19    277.30    -0.46221 ( 99.89%)    -0.54906 (  0.11%)    -0.46230
   ------------------------------------------------------------------------

   temp. (K)  partition function   enthalpy   heat capacity  entropy
                                   cal/mol     cal/K/mol   cal/K/mol   J/K/mol
 298.15  VIB  0.820E+11            14300.218     91.083     88.005
         ROT  0.206E+08              888.752      2.981     36.448
         INT  0.169E+19            15188.970     94.064    124.453
         TR   0.744E+28             1481.254      4.968     43.751
         TOT                       16670.2239    99.0319   168.2036   703.7638

       T/K    H(0)-H(T)+PV         H(T)/Eh          T*S/Eh         G(T)/Eh
   ------------------------------------------------------------------------
    298.15    0.265657E-01    0.445562E+00    0.799189E-01    0.365643E+00
   ------------------------------------------------------------------------

         :::::::::::::::::::::::::::::::::::::::::::::::::::::
         ::                  THERMODYNAMIC                  ::
         :::::::::::::::::::::::::::::::::::::::::::::::::::::
         :: total free energy         -78.347232187813 Eh   ::
         ::.................................................::
         :: total energy              -78.712875457207 Eh   ::
         :: zero point energy           0.418996524846 Eh   ::
         :: G(RRHO) w/o ZPVE           -0.053353255451 Eh   ::
         :: G(RRHO) contrib.            0.365643269395 Eh   ::
         :::::::::::::::::::::::::::::::::::::::::::::::::::::
imag cut-off (cm-1) :    5.00
 found            1  significant imaginary frequency
 writing imag mode distorted coords to xtbhess.xyz
 for further optimization.

optimized geometry written to: xtbopt.xyz


           -------------------------------------------------
          | TOTAL ENERGY              -78.712875457207 Eh   |
          | TOTAL ENTHALPY            -78.267313239593 Eh   |
          | TOTAL FREE ENERGY         -78.347232187813 Eh   |
          | GRADIENT NORM               0.000041039907 Eh/α |
          | HOMO-LUMO GAP               1.382166973697 eV   |
           -------------------------------------------------

------------------------------------------------------------------------
 * finished run on 2025/08/29 at 12:24:18.742     
------------------------------------------------------------------------
 total:
 * wall-time:     0 d,  0 h,  0 min,  2.544 sec
 *  cpu-time:     0 d,  0 h,  1 min, 38.659 sec
 * ratio c/w:    38.781 speedup
 SCF:
 * wall-time:     0 d,  0 h,  0 min,  0.117 sec
 *  cpu-time:     0 d,  0 h,  0 min,  4.434 sec
 * ratio c/w:    37.821 speedup
 ANC optimizer:
 * wall-time:     0 d,  0 h,  0 min,  1.232 sec
 *  cpu-time:     0 d,  0 h,  0 min, 49.203 sec
 * ratio c/w:    39.940 speedup
 analytical hessian:
 * wall-time:     0 d,  0 h,  0 min,  1.096 sec
 *  cpu-time:     0 d,  0 h,  0 min, 41.457 sec
 * ratio c/w:    37.835 speedup

