$hessian                                                                        
        0.6505340341   0.0311862662  -0.0001592579  -0.1611407516   0.0473028102
        0.0000451934   0.0563850091   0.0421812105   0.0000078709  -0.0465528138
        0.0138146563   0.0000241774   0.0071186124  -0.0023030604   0.0000059063
       -0.0022858073   0.0094487603   0.0000091678  -0.0013967679  -0.0150102008
        0.0000050649   0.0173725734   0.0159255628   0.0000058562  -0.0474632531
       -0.0834149746   0.0000096902  -0.3470150292   0.0193006566   0.0001206989
        0.0014252086   0.0013162551   0.0000323924  -0.0003399201  -0.0030244240
       -0.0000478775  -0.0025568032   0.0055395331  -0.0000011002   0.0037885920
       -0.0034754941  -0.0000962737  -0.0051439263  -0.0025061123   0.0000642388
       -0.0006895612   0.0053869195  -0.0000052544   0.0039827977  -0.0002373972
        0.0000003961  -0.0036418022  -0.0042749188   0.0000025179  -0.0062787948
        0.0040426443  -0.0000037051   0.0129230505  -0.0038522912   0.0000030984
        0.0029747262   0.0155586454  -0.0000340031   0.0004423477  -0.0097025541
        0.0000130267  -0.0045076992  -0.0003777337   0.0000124094   0.0005795764
        0.0027546703   0.0000768594   0.0042151748  -0.0016812225  -0.0000034796
       -0.0033926221  -0.0038176286  -0.0000097467  -0.0016821431   0.0045537578
       -0.0000207074   0.0029723924  -0.0049518108  -0.0000421299  -0.0028345686
        0.0036477918   0.0000249457  -0.0003020949  -0.0054945820  -0.0000014624
       -0.0879947203  -0.0989863750   0.0000193235  -0.0203638532   0.0231323998
        0.0000269268   0.0002497015  -0.0028270968   0.0000433389  -0.0194366989
        0.0009173018  -0.0000409817   0.0000547034  -0.0002106232  -0.0000926284
       -0.0000751599   0.0000112404  -0.0000124243  -0.0001072618   0.0000350433
        0.0000707539   0.0001515186   0.0000861258   0.0000613170   0.0001210056
        0.0000850315  -0.0000559169   0.0000171549  -0.0001080582   0.0000057082
       -0.0000075322  -0.0000597229   0.0000103390  -0.0000985945   0.0000889986
       -0.0000742688
        0.0311862662   0.6452150130   0.0000478143   0.1363967383  -0.2217956885
       -0.0000613614  -0.0160396758  -0.0685655938  -0.0000128797   0.0253542989
        0.0034287284  -0.0000036366  -0.0094449018  -0.0055493911  -0.0000012198
        0.0072040753  -0.0000071303  -0.0000038192  -0.0041394160   0.0019653775
        0.0000014862  -0.0066254549  -0.0084307562   0.0000000014  -0.0227268758
        0.0130380752   0.0000083614  -0.0630156366  -0.0968524631   0.0000078361
        0.0021471859  -0.0007527404  -0.0000123001  -0.0012814788   0.0010380113
        0.0000085185   0.0014014906  -0.0009994065  -0.0000014985  -0.0011438529
        0.0008338534   0.0000249683   0.0012984062   0.0005581080  -0.0000177382
       -0.0000535588  -0.0011935381   0.0000018779  -0.0005529399   0.0000563278
        0.0000012732   0.0000454467   0.0011157139   0.0000015283   0.0035509052
       -0.0009316240   0.0000034604  -0.0057031161   0.0005192856  -0.0000020359
       -0.0001549640  -0.0044094116   0.0000077307  -0.0002040347   0.0021281307
       -0.0000026218   0.0013972874   0.0012248806  -0.0000048382  -0.0003488666
       -0.0016730611  -0.0000187717  -0.0019537932   0.0009544607   0.0000040348
        0.0016022413   0.0014812212   0.0000003587   0.0007327713  -0.0017177031
        0.0000047593  -0.0012098636   0.0014330570   0.0000067093  -0.0000712020
        0.0006468047  -0.0000040335  -0.0000195336  -0.0020499542  -0.0000016963
       -0.0987272411  -0.2590689962   0.0000072217  -0.0000331665   0.0015853582
       -0.0000067632  -0.0023481303  -0.0044083799  -0.0000138414   0.0234424932
        0.0011500265   0.0000046604  -0.0000132972   0.0000100962   0.0000255644
        0.0000286366  -0.0000098814   0.0000034841   0.0000479768  -0.0000053881
       -0.0000189201  -0.0000194557  -0.0000127560  -0.0000165197  -0.0000332403
       -0.0000286034   0.0000156325  -0.0000034261   0.0000547763  -0.0000007966
        0.0000004695   0.0000506178  -0.0000023069   0.0000304332  -0.0000254572
        0.0000203171
       -0.0001592579   0.0000478143   0.1127253863   0.0000481394  -0.0000231477
       -0.0483812994  -0.0000215558  -0.0000378487   0.0014327807   0.0000152555
        0.0000517185  -0.0050498538   0.0000522310  -0.0000580176  -0.0004444506
       -0.0000670442   0.0000084538   0.0003242418   0.0000050378  -0.0000483609
        0.0007516151  -0.0000498311   0.0000457835   0.0055988970   0.0000659439
        0.0000131457  -0.0002527129   0.0000791576  -0.0000150038  -0.0421996172
       -0.0000040137   0.0000441603  -0.0007769096  -0.0000289888  -0.0000470033
        0.0001095285   0.0000417705   0.0000186714  -0.0000337357  -0.0000140126
       -0.0000007906   0.0000271607   0.0000107904   0.0000048720  -0.0000091440
        0.0000021860  -0.0000109043  -0.0000041939  -0.0000060372   0.0000103247
       -0.0000071011   0.0000092127  -0.0000413001  -0.0000599858   0.0000390237
        0.0000519692   0.0001794496  -0.0000588676  -0.0000164596  -0.0000823379
       -0.0000103164  -0.0000354329  -0.0000015338   0.0000225646   0.0000248204
       -0.0000659575  -0.0000087259   0.0000018736   0.0000146794   0.0000015752
        0.0000002190  -0.0000051915  -0.0000027097  -0.0000002202  -0.0000118868
        0.0000021565   0.0000029358   0.0000128362  -0.0000004295  -0.0000047708
       -0.0000122527   0.0000070151   0.0000119445   0.0000046007  -0.0000031826
       -0.0000199215   0.0000112035   0.0000066993   0.0000178064   0.0000024120
        0.0000070303   0.0000087976  -0.0344352425   0.0000040049  -0.0000055413
        0.0014662669   0.0000025745  -0.0000017323   0.0083094449   0.0000115910
        0.0000014096   0.0009036471   0.0000002151  -0.0000011351  -0.0000212089
       -0.0000000763   0.0000000984  -0.0000067878  -0.0000001065   0.0000000463
       -0.0000127121   0.0000008548   0.0000003963  -0.0000066235   0.0000003514
        0.0000001257   0.0000027578   0.0000000042  -0.0000000138  -0.0000028262
        0.0000000948  -0.0000000173   0.0000036521  -0.0000003245   0.0000002350
        0.0000030051
       -0.1611407516   0.1363967383   0.0000481394   0.6643270280   0.0267435525
       -0.0001102716  -0.1342699205  -0.1330449788  -0.0000042353  -0.0244200971
       -0.0301323598  -0.0000019028  -0.0030289038  -0.0000668229   0.0000015090
       -0.0042129719  -0.0031891791  -0.0000006167   0.0046948906   0.0046775499
       -0.0000029391  -0.0079318385  -0.0043012117   0.0000033620   0.0103945027
        0.0066018968  -0.0000053968  -0.0486134552   0.0185141736   0.0000179478
       -0.0034756005   0.0010475433   0.0000031700   0.0013209462  -0.0014450044
       -0.0000062998  -0.0002278022  -0.0001462438   0.0000039848  -0.0001553857
        0.0002251318  -0.0000005446   0.0003537585   0.0003707495  -0.0000009219
        0.0001886259  -0.0006335596   0.0000009920  -0.0007331138   0.0000901585
       -0.0000004206   0.0009636219  -0.0004248009  -0.0000035782  -0.0009173467
        0.0002961028  -0.0000011390   0.0008162322   0.0005361170   0.0000015047
       -0.0012316225  -0.0012472996   0.0000088447   0.0010211718   0.0012878018
       -0.0000039162  -0.0007406064  -0.0008816370   0.0000040026   0.0002363567
        0.0006631806  -0.0000030843   0.0004192871  -0.0004111226  -0.0000010837
       -0.0003379353  -0.0002560784  -0.0000004259  -0.0002697852   0.0001476617
        0.0000038772   0.0010279621   0.0003708802  -0.0000049515  -0.0005807305
       -0.0012884246  -0.0000005750   0.0006491189   0.0023715568  -0.0000003188
        0.0063382918  -0.0088165213  -0.0000023227  -0.3013565821  -0.0286443348
        0.0000449188   0.0063421150   0.0149885108   0.0000016434  -0.0054918746
       -0.0004487463   0.0000067815   0.0000117564  -0.0000025262   0.0000026317
        0.0000261861  -0.0000109418   0.0000010540   0.0000171967  -0.0000107279
       -0.0000010967   0.0000026565   0.0000062865  -0.0000009576   0.0000287940
        0.0000253044   0.0000011549   0.0000119760   0.0000094909  -0.0000000153
       -0.0000029592   0.0000046382  -0.0000004203  -0.0000531921   0.0000274958
        0.0000019159
        0.0473028102  -0.2217956885  -0.0000231477   0.0267435525   0.6319321534
        0.0001000743  -0.0506653213  -0.3096850919  -0.0000278862  -0.0909790439
       -0.0100774086   0.0000260793   0.0226954362   0.0121457839   0.0000065498
       -0.0141329686   0.0046852053   0.0000104016   0.0070964786  -0.0069563122
       -0.0000007798   0.0025532432   0.0093262835   0.0000088152  -0.0048429744
       -0.0533289760  -0.0000005098   0.0767423278   0.0364053492  -0.0000069969
       -0.0044089790   0.0011024651   0.0000392659   0.0022600232  -0.0035540281
       -0.0000490479  -0.0039053864   0.0046703540   0.0000018547   0.0040589040
       -0.0032554799  -0.0000964158  -0.0050746244  -0.0022619805   0.0000642751
       -0.0003585240   0.0049905339  -0.0000046838   0.0032030247  -0.0003620385
       -0.0000002513  -0.0022334483  -0.0041718939  -0.0000024856  -0.0092658980
        0.0035313976  -0.0000070418   0.0163406067  -0.0023273695   0.0000059302
        0.0007436658   0.0144691886  -0.0000258293   0.0017252327  -0.0079781150
        0.0000058060  -0.0053119165  -0.0018585534   0.0000180739   0.0010031053
        0.0038288282   0.0000714113   0.0050052297  -0.0023272859  -0.0000062610
       -0.0040652886  -0.0042038550  -0.0000087125  -0.0021443003   0.0048716364
       -0.0000164658   0.0043636063  -0.0044634588  -0.0000424702  -0.0030018421
        0.0010890871   0.0000226536   0.0016634437   0.0001320572   0.0000006330
        0.0143212166  -0.0250321212   0.0000031786  -0.0289058395  -0.0462469650
        0.0000236715  -0.0075719374  -0.0246896173   0.0000387970  -0.0009219283
        0.0013833057  -0.0000450494   0.0000477739  -0.0001391440  -0.0000911696
       -0.0000659740   0.0000142312  -0.0000113357  -0.0001116512   0.0000326221
        0.0000695419   0.0001283750   0.0000817900   0.0000614983   0.0001326369
        0.0001064911  -0.0000544130   0.0000137444  -0.0001247867   0.0000051595
       -0.0000157478  -0.0000835630   0.0000096738  -0.0001608434   0.0001249695
       -0.0000723916
        0.0000451934  -0.0000613614  -0.0483812994  -0.0001102716   0.0001000743
        0.1130970886   0.0000133690  -0.0000380045  -0.0429513173  -0.0000207139
        0.0000872429  -0.0002625163   0.0000904992  -0.0000877012   0.0055787360
       -0.0001063158   0.0000212004   0.0007512229   0.0000098529  -0.0000859573
        0.0003267536  -0.0000679369   0.0000841070  -0.0004337111   0.0000766869
       -0.0000381472  -0.0049469727   0.0000081885   0.0000038086   0.0014742203
       -0.0000087501   0.0000766425  -0.0000256582  -0.0000466059  -0.0000846625
       -0.0000124822   0.0000665111   0.0000375598   0.0000060274  -0.0000191349
       -0.0000051783  -0.0000049578   0.0000128462   0.0000059510  -0.0000195568
        0.0000028194  -0.0000126759  -0.0000051981  -0.0000062050   0.0000166572
       -0.0000198157   0.0000117469  -0.0000720972   0.0000397865   0.0000555072
        0.0000893490  -0.0000457576  -0.0000812651  -0.0000324697  -0.0000034396
       -0.0000058334  -0.0000318708  -0.0000821812   0.0000231590   0.0000266937
        0.0001706840  -0.0000099488  -0.0000011905  -0.0000775644   0.0000016821
        0.0000031395   0.0000145191   0.0000003172  -0.0000020812  -0.0000021407
       -0.0000001060   0.0000010552   0.0000306190  -0.0000013890  -0.0000026472
        0.0000258398   0.0000086672   0.0000094963  -0.0000259061  -0.0000006713
       -0.0000246629   0.0001289902   0.0000059548   0.0000231099  -0.0007486642
       -0.0000000323  -0.0000010613   0.0015134941   0.0000464915   0.0000042146
       -0.0343071447  -0.0000003856  -0.0000093819   0.0009048890   0.0000045679
        0.0000012887   0.0082976025   0.0000005128  -0.0000019731  -0.0000049436
       -0.0000002778   0.0000002126  -0.0000035832  -0.0000003308   0.0000000821
       -0.0000022892   0.0000016355   0.0000007647   0.0000057153   0.0000004510
        0.0000002355   0.0000046998  -0.0000000579  -0.0000000321   0.0000010484
        0.0000000577  -0.0000000869   0.0000078934  -0.0000004853   0.0000003575
       -0.0000127299
        0.0563850091  -0.0160396758  -0.0000215558  -0.1342699205  -0.0506653213
        0.0000133690   0.6047487656   0.0000030469  -0.0000938483  -0.2701015281
       -0.0118330557   0.0000384994  -0.0574842775  -0.0401653247  -0.0000054253
        0.0219551273  -0.0029930747  -0.0000054495  -0.0128631140  -0.0002120051
        0.0000103347   0.0048132903   0.0021190619  -0.0000008020  -0.0359028438
        0.0490626713   0.0000174740  -0.0328538420  -0.0248491102   0.0000022100
        0.0091111774  -0.0018583751  -0.0000192926  -0.0041774105   0.0047298729
        0.0000222983   0.0037692223  -0.0033965444  -0.0000096565  -0.0031745997
        0.0023706629   0.0000174969   0.0036576757   0.0013057865  -0.0000060435
       -0.0000601211  -0.0031358748  -0.0000006984  -0.0013997711   0.0001510752
       -0.0000010647   0.0001390188   0.0041185723   0.0000082491   0.0100619137
       -0.0032861455   0.0000060381  -0.0157736412   0.0013890462  -0.0000071490
        0.0016969566  -0.0112368109   0.0000005506  -0.0029020773   0.0054278121
       -0.0000007850   0.0051753543   0.0021163761  -0.0000135963  -0.0011866158
       -0.0035178595  -0.0000116274  -0.0043163066   0.0021835439   0.0000133916
        0.0035711619   0.0035790540  -0.0000061428   0.0021820172  -0.0040688052
       -0.0000080353  -0.0046537822   0.0033286207   0.0000230995   0.0030737264
        0.0008224536  -0.0000102536  -0.0043579929  -0.0040490678   0.0000005763
       -0.0011256825   0.0034603683  -0.0000008065  -0.0147194552  -0.0274874437
       -0.0000058154  -0.1288510786   0.1234512834   0.0000288773  -0.0000832047
       -0.0007873743   0.0000092755  -0.0000248754   0.0001091538   0.0000164791
        0.0000014396   0.0000320230   0.0000008240   0.0000343155  -0.0000105725
       -0.0000145399  -0.0001151426  -0.0000958982  -0.0000116158  -0.0001557360
       -0.0001260672   0.0000132457  -0.0000235620   0.0000765963  -0.0000004744
        0.0000231679   0.0000600977  -0.0000009182   0.0001772417  -0.0000827727
        0.0000133072
        0.0421812105  -0.0685655938  -0.0000378487  -0.1330449788  -0.3096850919
       -0.0000380045   0.0000030469   0.6952464733   0.0001044788   0.0256653336
       -0.0693005361  -0.0000228724  -0.0536355181  -0.0212530406  -0.0000052846
        0.0101558726  -0.0040645450  -0.0000202443  -0.0050119227   0.0004930810
       -0.0000045218   0.0070646460  -0.0029779955  -0.0000132488   0.0158018645
        0.0244446211  -0.0000088584  -0.0298883121  -0.0148186215  -0.0000046711
        0.0037696211   0.0019334125  -0.0000467103  -0.0013777077  -0.0008621446
        0.0000500024   0.0012569578  -0.0000551154   0.0000009468  -0.0009871189
        0.0002775827   0.0001306755   0.0009794192   0.0003959308  -0.0000979600
       -0.0000415500  -0.0010125365   0.0000094365  -0.0005283860   0.0003949467
        0.0000069930   0.0000080167   0.0002740937  -0.0000004682   0.0032240925
        0.0002337179   0.0000073944  -0.0048367752  -0.0011478517  -0.0000014905
       -0.0002957163  -0.0024363625   0.0000226407   0.0002961932   0.0002867253
       -0.0000008497   0.0005265532   0.0017002216  -0.0000134331  -0.0001602840
       -0.0017136456  -0.0000958531  -0.0016194508   0.0009095458  -0.0000100053
        0.0012698255   0.0010099848   0.0000259251   0.0003319985  -0.0011654859
        0.0000362358  -0.0005844675   0.0006055619   0.0000270082  -0.0022480842
        0.0024144591  -0.0000101363  -0.0006374735  -0.0047818369  -0.0000067494
        0.0032451686  -0.0034199817  -0.0000181422  -0.0039274965  -0.0047845756
       -0.0000240051   0.1237040524  -0.2190785672  -0.0001156358  -0.0007119312
        0.0004451597   0.0000590454  -0.0000262120  -0.0000421549   0.0001232297
        0.0000346836  -0.0000570014   0.0000166098   0.0000967418  -0.0000027186
       -0.0000918809   0.0000212400   0.0000427014  -0.0000819319   0.0000341816
        0.0000032580   0.0000701193  -0.0000071730   0.0000992193  -0.0000059621
       -0.0000519502   0.0000728301  -0.0000133963  -0.0000482110  -0.0000581238
        0.0000994234
        0.0000078709  -0.0000128797   0.0014327807  -0.0000042353  -0.0000278862
       -0.0429513173  -0.0000938483   0.0001044788   0.1074852637   0.0000408419
        0.0000714433  -0.0488627090   0.0000588331  -0.0000736309  -0.0024213388
       -0.0000830810   0.0000132583   0.0071497403   0.0000080029  -0.0000704840
        0.0000016226  -0.0000581739   0.0000670820   0.0041805388   0.0000861129
       -0.0000335119   0.0026140940  -0.0000162259   0.0000032033  -0.0027933351
       -0.0000070851   0.0000643554  -0.0018876957  -0.0000398621  -0.0000696432
        0.0002738041   0.0000561564   0.0000305795   0.0000235755  -0.0000162625
       -0.0000040576   0.0000230949   0.0000110095   0.0000050299  -0.0000108432
        0.0000023200  -0.0000108641  -0.0000164720  -0.0000050962   0.0000138451
       -0.0000214474   0.0000096863  -0.0000598462  -0.0000409599   0.0000478317
        0.0000744995   0.0003010889  -0.0000713489  -0.0000258983  -0.0001912908
       -0.0000041305  -0.0000304241  -0.0001076623   0.0000190391   0.0000228202
       -0.0002983124  -0.0000083870  -0.0000006015   0.0001145332   0.0000013622
        0.0000020355   0.0000122027  -0.0000004658  -0.0000014785  -0.0000230687
        0.0000005313   0.0000014132   0.0000295921  -0.0000011370  -0.0000028862
       -0.0000472030   0.0000070343   0.0000093171  -0.0001456290  -0.0000009014
       -0.0000210319   0.0002789881   0.0000045608   0.0000182133   0.0007324784
        0.0000023796  -0.0000018538   0.0062325609   0.0000025624   0.0000049255
        0.0010973160   0.0000427986  -0.0000614453  -0.0320257102   0.0000000151
        0.0000021033  -0.0000765815   0.0000004969  -0.0000016000  -0.0000342725
       -0.0000002305   0.0000001954  -0.0000006744  -0.0000002765   0.0000000889
       -0.0000115983   0.0000012986   0.0000006091   0.0000017377   0.0000004596
        0.0000001568   0.0000181362  -0.0000000883  -0.0000000251  -0.0000153104
        0.0000001007  -0.0000000412   0.0000070417  -0.0000004688   0.0000004367
       -0.0000267586
       -0.0465528138   0.0253542989   0.0000152555  -0.0244200971  -0.0909790439
       -0.0000207139  -0.2701015281   0.0256653336   0.0000408419   0.6286278412
        0.0458272055  -0.0000965590  -0.0701922093  -0.0714863910  -0.0000341209
       -0.0710980607  -0.0477036899  -0.0000094731   0.0288212207   0.0096858828
       -0.0000243096  -0.0743574609   0.0155635794   0.0000431957  -0.1083766154
        0.0565220172   0.0000357537   0.0377719040   0.0248012917  -0.0000046993
       -0.0168358160   0.0057684857   0.0000124913   0.0063253992  -0.0106427502
       -0.0000105722  -0.0045619691   0.0053860513   0.0000131220   0.0037456950
       -0.0029613443   0.0000197284  -0.0042840150  -0.0011757844  -0.0000231424
        0.0002141730   0.0031568116   0.0000043690   0.0009653276   0.0001251141
        0.0000031148   0.0006745981  -0.0066480916  -0.0000140965  -0.0126208355
        0.0059021407  -0.0000056683   0.0209118361  -0.0020923645   0.0000100035
       -0.0054039226   0.0101763514   0.0000116318   0.0046744524  -0.0062337397
       -0.0000036356  -0.0086100633  -0.0030367476   0.0000188312   0.0018431042
        0.0044951890  -0.0000226057   0.0051750000  -0.0029763758  -0.0000208403
       -0.0043794054  -0.0044455038   0.0000162967  -0.0030863100   0.0047185620
        0.0000273866   0.0074341625  -0.0021093467  -0.0000231532  -0.0039167343
       -0.0028495304   0.0000082189   0.0030971546   0.0138458517   0.0000034094
       -0.0005734108   0.0006121575  -0.0000022921   0.0003251141  -0.0019946671
       -0.0000008359  -0.0211941194   0.0014864903   0.0000005330  -0.0003248216
       -0.0021458656   0.0000112464   0.0000276221  -0.0002127937   0.0000203777
        0.0000648617  -0.0001062208   0.0000050709   0.0000567421  -0.0000041191
       -0.0000136106   0.0002127656   0.0001901458  -0.0000114315   0.0003016411
        0.0002004406   0.0000069674   0.0000479800  -0.0000030932  -0.0000014378
       -0.0000634567   0.0000359105  -0.0000041752  -0.0003649302   0.0002881521
        0.0000195276
        0.0138146563   0.0034287284   0.0000517185  -0.0301323598  -0.0100774086
        0.0000872429  -0.0118330557  -0.0693005361   0.0000714433   0.0458272055
        0.5636686617   0.0002276377  -0.0565727423  -0.2577431334  -0.0000645032
       -0.0863847422  -0.0235066843   0.0000724601   0.0090540143  -0.0207496973
        0.0000346953   0.0516391423   0.0041934791   0.0000020068   0.0518255480
       -0.1442190823   0.0000008432  -0.0083156837  -0.0493451784   0.0000304670
       -0.0081891937  -0.0086705766   0.0001827920   0.0051003751   0.0100808640
       -0.0001679317  -0.0015793077  -0.0076663027  -0.0000244607  -0.0012500368
        0.0031605474  -0.0005610713   0.0031550571   0.0017044679   0.0004373895
        0.0014024980  -0.0034881927  -0.0000453307  -0.0039431317  -0.0005692853
       -0.0000415517   0.0059716170   0.0041141115   0.0000281866  -0.0078761422
       -0.0059118071  -0.0000345745   0.0048494624   0.0048079305   0.0000004623
       -0.0040041953  -0.0054155747  -0.0001087993  -0.0035582151   0.0050396171
        0.0000039421   0.0036638811  -0.0033893955   0.0000368116  -0.0001331283
        0.0018898809   0.0004035780   0.0007000085  -0.0006877826   0.0000635732
       -0.0003397772   0.0009786524  -0.0001210887   0.0007611555  -0.0009425845
       -0.0001733957  -0.0028771501   0.0029639499  -0.0000683369   0.0137616244
       -0.0113851957   0.0000318492  -0.0034283261   0.0244135335   0.0000250725
        0.0001022266  -0.0000912571   0.0000673928  -0.0031345961  -0.0046006694
        0.0000877344   0.0240884450   0.0015497775   0.0002201978  -0.0014900004
       -0.0036015704  -0.0002493948  -0.0000023486   0.0005838642  -0.0005318141
       -0.0001865294   0.0003255551  -0.0000751624  -0.0004227054  -0.0000031642
        0.0003897133  -0.0003992840  -0.0003853652   0.0003503826  -0.0003809461
       -0.0002021450  -0.0002971077  -0.0000190247  -0.0004428538   0.0000250510
        0.0002656804  -0.0003987602   0.0000582093   0.0004700250  -0.0001094179
       -0.0004263297
        0.0000241774  -0.0000036366  -0.0050498538  -0.0000019028   0.0000260793
       -0.0002625163   0.0000384994  -0.0000228724  -0.0488627090  -0.0000965590
        0.0002276377   0.1286008021   0.0000339067  -0.0001517416  -0.0460234127
       -0.0000939952   0.0000071705  -0.0008428727   0.0000030028  -0.0000648821
       -0.0082603244   0.0000111799   0.0000454673   0.0139976887   0.0000807417
       -0.0000586803  -0.0598635816  -0.0000256988  -0.0000177940   0.0025069879
       -0.0000053523   0.0000421106  -0.0005568322  -0.0000313942  -0.0000461542
       -0.0006074310   0.0000462271   0.0000193041   0.0004386722  -0.0000152216
       -0.0000005186   0.0001376898   0.0000123790   0.0000058627  -0.0000735350
        0.0000024735  -0.0000120883   0.0000314209  -0.0000077554   0.0000106535
       -0.0000506105   0.0000122381  -0.0000450142  -0.0000939428   0.0000345505
        0.0000544328   0.0001540795  -0.0000553193  -0.0000165603   0.0002383825
       -0.0000148748  -0.0000358102   0.0009143185   0.0000134924   0.0000257972
       -0.0014235951  -0.0000027950  -0.0000017826   0.0004251116   0.0000005143
        0.0000023212   0.0000233763  -0.0000013843  -0.0000011333  -0.0000001676
        0.0000018327   0.0000030070  -0.0000241407   0.0000003780  -0.0000050686
       -0.0001488164   0.0000025349   0.0000136335  -0.0002542678   0.0000035389
       -0.0000231620  -0.0009704703   0.0000150195   0.0000272941   0.0096405054
       -0.0000001610  -0.0000005004  -0.0001111882   0.0000005937  -0.0000023238
        0.0088502013   0.0000116591  -0.0000009251   0.0016533500   0.0000022893
        0.0000007420   0.0057803928   0.0000002419  -0.0000009265   0.0000729309
       -0.0000002511   0.0000003359  -0.0000311291  -0.0000004661   0.0000000037
        0.0000239505   0.0000008585   0.0000003015  -0.0000472649   0.0000000123
       -0.0000000875  -0.0000241109   0.0000000612  -0.0000002476  -0.0000008230
        0.0000001754  -0.0000002433  -0.0000162526   0.0000005528  -0.0000000011
        0.0001099874
        0.0071186124  -0.0094449018   0.0000522310  -0.0030289038   0.0226954362
        0.0000904992  -0.0574842775  -0.0536355181   0.0000588331  -0.0701922093
       -0.0565727423   0.0000339067   0.5520751547   0.1165543185  -0.0000602406
       -0.3170189972   0.0136094496   0.0001360216  -0.0996706369   0.0373052323
        0.0001545993   0.0042219468  -0.0124888205   0.0000169690   0.0168588460
       -0.0146090569   0.0000230072   0.0005003266   0.0035146068   0.0000464241
        0.0255881924  -0.0042900726   0.0001150043  -0.0138603217   0.0100813004
       -0.0001556726   0.0008032158   0.0040730222  -0.0000813107   0.0020228796
       -0.0026262429  -0.0005034313  -0.0045562971  -0.0043611800   0.0003942217
       -0.0024665360   0.0079076959  -0.0000475592   0.0096819082  -0.0012845496
       -0.0000162087  -0.0127069633   0.0064514493   0.0000966581   0.0186242316
       -0.0035770212  -0.0000015610  -0.0167074810  -0.0019921579  -0.0000226875
        0.0223902245   0.0082393048  -0.0002000691  -0.0128726218  -0.0104718126
        0.0000489818   0.0112552130   0.0079405317  -0.0000060342  -0.0031439172
       -0.0053500361   0.0004265729  -0.0027331937   0.0038074957   0.0000663934
        0.0025841418   0.0014563990  -0.0001002362   0.0033428485   0.0010905949
       -0.0002045179  -0.0134602839  -0.0112903087  -0.0000768887   0.0046773412
        0.0287079741   0.0000730701  -0.0525915831  -0.0784762535  -0.0000025918
       -0.0001177106  -0.0005231748   0.0000654738  -0.0014546476  -0.0013822541
        0.0000903353   0.0025532480   0.0001302178   0.0002194530   0.0001549127
       -0.0001541077  -0.0002453084   0.0000686164  -0.0000134956  -0.0005098678
       -0.0004096585   0.0003237837  -0.0000785939  -0.0004504161   0.0001379707
        0.0003734500  -0.0000653147  -0.0002934482   0.0003312518  -0.0004045602
       -0.0002596212  -0.0002830395  -0.0000377761  -0.0001907076   0.0000307890
        0.0001519139  -0.0001245671   0.0000630109   0.0007605330  -0.0006147324
       -0.0004113379
       -0.0023030604  -0.0055493911  -0.0000580176  -0.0000668229   0.0121457839
       -0.0000877012  -0.0401653247  -0.0212530406  -0.0000736309  -0.0714863910
       -0.2577431334  -0.0001517416   0.1165543185   0.4228054333   0.0001203500
        0.0116352917  -0.0620110879  -0.0000760765   0.0105162484   0.0033277304
       -0.0000568618  -0.0244379728   0.0168666774  -0.0000050633   0.0216776543
       -0.0864603720  -0.0000900313   0.0083379174   0.0013869426  -0.0000491225
        0.0162527991   0.0067876195  -0.0002074720  -0.0051818108  -0.0099908594
        0.0001717399   0.0013097603   0.0089390328   0.0000239388   0.0024902556
       -0.0045604425   0.0005913775  -0.0048047327  -0.0026095947  -0.0004649179
       -0.0016240039   0.0052096846   0.0000483653   0.0052164967   0.0006626003
        0.0000456361  -0.0073756775  -0.0057668254  -0.0000218936   0.0059018149
        0.0073155536   0.0000372520  -0.0004194668  -0.0080454187   0.0000008153
        0.0007840692   0.0058799323   0.0001059722   0.0048721065  -0.0106909178
        0.0000033681  -0.0079551702   0.0045779861  -0.0000345783   0.0007813449
       -0.0019050325  -0.0004224689   0.0001232211   0.0003846756  -0.0000694346
       -0.0004020193  -0.0020184053   0.0001298020  -0.0018808363   0.0020519968
        0.0001861379   0.0051679280  -0.0018105903   0.0000596359  -0.0197125650
        0.0125807595  -0.0000295462  -0.0259340007  -0.0311110855  -0.0000224853
        0.0004049181   0.0008813429  -0.0000703652   0.0007558107   0.0000069147
       -0.0000947892   0.0013799565   0.0000129467  -0.0002342798  -0.0010584869
       -0.0011244341   0.0002607297   0.0000323530  -0.0006631367   0.0005593925
        0.0001874432  -0.0003290204   0.0000788039   0.0004134351   0.0000189011
       -0.0004087632   0.0004538769   0.0004409883  -0.0003690167   0.0005012765
        0.0002386864   0.0003105924   0.0000214268   0.0004543968  -0.0000246806
       -0.0003050743   0.0004307122  -0.0000605953  -0.0006583072   0.0002354907
        0.0004496239
        0.0000059063  -0.0000012198  -0.0004444506   0.0000015090   0.0000065498
        0.0055787360  -0.0000054253  -0.0000052846  -0.0024213388  -0.0000341209
       -0.0000645032  -0.0460234127  -0.0000602406   0.0001203500   0.0617158347
        0.0000361330  -0.0000199936  -0.0441337606   0.0000554384  -0.0000582802
        0.0183268055  -0.0000547384   0.0000524361  -0.0113167641   0.0000489150
       -0.0000503163   0.0139931985  -0.0000061445  -0.0000026848   0.0041570483
       -0.0000032562   0.0000509159   0.0048584417  -0.0000246726  -0.0000626581
        0.0010876103   0.0000447312   0.0000239416  -0.0014143271  -0.0000135282
       -0.0000025902  -0.0002830195   0.0000097260   0.0000051787   0.0001726606
        0.0000027406  -0.0000112915  -0.0000482702  -0.0000077091   0.0000119365
        0.0003005080   0.0000110426  -0.0000488518   0.0001581197   0.0000311540
        0.0000593469  -0.0003352778  -0.0000500879  -0.0000272641  -0.0007762777
        0.0000003049  -0.0000129453   0.0013634136   0.0000068677   0.0000123869
        0.0010977975  -0.0000063663  -0.0000036640  -0.0006047200   0.0000015654
        0.0000021601   0.0002872407  -0.0000001549  -0.0000025115   0.0000011615