42
 energy: -75.059029943167 gnorm: 0.000116794973 xtb: 6.7.1 (edcfbbe)
C           -4.41238399532544       -4.05593023475135        0.00001881452987
C           -5.23276070975650       -2.92196575916063        0.00040024536213
C           -4.68774582665016       -1.66032983368705        0.00051372730243
C           -3.29451234049950       -1.49752758511059        0.00029580812786
N           -2.73806061969397       -0.27702638083560        0.00077801607828
C           -1.42846314853295       -0.15340766053679        0.00038327764531
C           -0.59292036934720       -1.30844588772213       -0.00072278985672
N           -1.12012893633853       -2.51359140624845       -0.00096765062496
C           -2.45342630857477       -2.66018342668277       -0.00037383838640
C           -3.04359861223314       -3.93270205821028       -0.00041773864660
C            0.84690594366957       -1.16001442929971       -0.00110935642201
N            1.60897237826522       -2.23216237604732       -0.00114231075022
C            2.94408425305412       -2.10379490954060       -0.00036247675977
C            3.78139422052485       -3.22920206895476       -0.00005848409208
C            5.14651177146381       -3.07048269593635        0.00195670285114
C            5.71834107244232       -1.79298383149162        0.00360702549433
C            4.92745299944421       -0.66904831166231        0.00287341505855
C            3.53033890666672       -0.79402600509417        0.00069773764041
N            2.73657875599228        0.28725564854354       -0.00024736444962
C            1.42933342908995        0.14109290107466       -0.00120426686041
C            0.58091707535661        1.31381622152141       -0.00171540814110
N            1.12897946695248        2.50957754244803       -0.00394642964771
C            0.35024306560557        3.60176961156373       -0.00269529666862
C            0.90618952347671        4.88959770650890       -0.00541450679304
C            0.08651281556000        5.99268768821272       -0.00249486781392
C           -1.30575934295905        5.84939509576016        0.00329289049069
C           -1.88370618991466        4.60250400030954        0.00541918434528
C           -1.07716582082660        3.45485144129641        0.00212601583511
N           -1.61718771197686        2.22697279298802        0.00307050495706
C           -0.83711463165810        1.16777115743473        0.00068938411508
H           -4.86236429649164       -5.03687404346439        0.00006443998409
H           -6.30521399920272       -3.04250074376302        0.00058630986718
H           -5.30275321300546       -0.77408592251272        0.00079651487640
H           -2.39402458812727       -4.79397220651055       -0.00077897173864
H            3.32093327799338       -4.20472854493370       -0.00120981691309
H            5.78702856750669       -3.93911072392097        0.00231707876371
H            6.79281219128959       -1.69193848766158        0.00541170674615
H            5.34865040817333        0.32403275246585        0.00397468160855
H            1.98119048193315        4.97878203573601       -0.00957427813358
H            0.51886372964182        6.98152481018669       -0.00446718371282
H           -1.93025639486115        6.72960990480073        0.00599630261823
H           -2.95435104675323        4.47073785557620        0.00949064304776
