$hessian                                                                        
        0.4808247119   0.0317358796  -0.0222144424  -0.1238940231   0.0483664408
       -0.0383533822   0.0016081940   0.0003888526   0.0008494267  -0.0044577183
        0.0029699692  -0.0065550740  -0.0255998838   0.0139234474  -0.0086126188
       -0.0036345795  -0.0009515131   0.0023586413  -0.0013506117   0.0006696988
       -0.0003857926  -0.0000363386   0.0002127357  -0.0002010112   0.0000882174
        0.0006847755  -0.0007539425  -0.0008669288  -0.0001868852   0.0001851434
        0.0001051370  -0.0000232877  -0.0000127607  -0.0000672871   0.0000500734
       -0.0000489103  -0.0000330271   0.0000097473   0.0000026345  -0.0000326734
        0.0000147408  -0.0000049461   0.0000015034  -0.0000089361   0.0000131472
        0.0000090050  -0.0000109068  -0.0000016047   0.0000096176  -0.0000022129
        0.0000107798   0.0000347891  -0.0000415259   0.0000387057  -0.0000132602
        0.0000131137  -0.0000112613   0.0000006512  -0.0000344485   0.0000254362
       -0.0001997967   0.0000248796   0.0000329145   0.0000652828  -0.0000371041
        0.0000287217  -0.0000014956   0.0000425289   0.0000086742  -0.0000012806
        0.0000023146  -0.0000037470   0.0000188093  -0.0000463449  -0.0000038995
       -0.0000079946   0.0000249701   0.0000033798  -0.0000033829  -0.0000024281
        0.0000024703  -0.0000090945   0.0000027007   0.0000019028   0.0000013519
       -0.0000022551   0.0000003046  -0.0000009389  -0.0000021966   0.0000013823
        0.0000022193   0.0000048961  -0.0000041582   0.0000012454   0.0000073469
       -0.0000004372  -0.0000041519  -0.0000178927   0.0000004892   0.0000354032
        0.0000363221   0.0000000172  -0.0000424280  -0.0000270395  -0.0000032666
        0.0000319390  -0.0000102541  -0.0000134385  -0.0000055982   0.0000042465
        0.0000065653   0.0000072043   0.0000007322  -0.0000025365  -0.0000011124
       -0.0000048440  -0.0000025176   0.0000025797   0.0000006611  -0.0000004787
       -0.0000007069  -0.0000012433   0.0000013971  -0.0000016347   0.0000002109
       -0.0000001685  -0.0000008977   0.0000008295   0.0000014306  -0.0000023718
        0.0000016864   0.0000020787  -0.0000038112  -0.0000072990  -0.0000029078
       -0.0000118880  -0.0000011708   0.0000039835   0.0000018271  -0.0000038828
       -0.0000024479  -0.0000025937   0.0000015751   0.0000022533   0.0000002688
        0.0000051505   0.0000021804  -0.0000022064  -0.0000017366  -0.0000010069
       -0.0000012912  -0.0000020364   0.0000005784   0.0000015719  -0.0000016190
       -0.0000013793  -0.0000055837   0.0000022357   0.0000047502   0.0000109329
       -0.0000045783  -0.0000079317   0.0000000501   0.0000327221   0.0000148446
       -0.0000426223   0.0000037765  -0.0000039291  -0.0441221040  -0.0050167105
       -0.0173081794  -0.0538490130  -0.0508344501  -0.0047814512  -0.2242802538
       -0.0389185491   0.0935982962   0.0003328463  -0.0014432289   0.0001491144
        0.0001543248  -0.0004337106   0.0001643489   0.0007887263  -0.0012347301
        0.0001880905   0.0007415926  -0.0000991733   0.0011872088   0.0002745948
       -0.0001987179  -0.0006144428   0.0000451921   0.0002624511   0.0003535707
        0.0000325073  -0.0000467168   0.0000199088  -0.0003726878  -0.0000292688
        0.0001254722  -0.0022692173   0.0002148913   0.0005346453   0.0000089092
        0.0000181938  -0.0000101301  -0.0000020747   0.0000094662   0.0000001642
        0.0000019447  -0.0000041296   0.0000040487  -0.0000049039  -0.0000039659
       -0.0000085015   0.0000050939  -0.0000016675  -0.0000074150  -0.0000013643
        0.0000013616  -0.0000036082   0.0000002395  -0.0000042788   0.0000105585
       -0.0000017197  -0.0000099013   0.0000059598  -0.0000024685   0.0000009785
       -0.0000028671   0.0000068389   0.0000035724  -0.0000028916  -0.0000063514
       -0.0000029466   0.0000041658  -0.0000000871  -0.0000042589   0.0000066211
        0.0000030936  -0.0000323856  -0.0000108313   0.0000016317  -0.0000021485
       -0.0000002970  -0.0000024821   0.0000033068   0.0000004433  -0.0000029937
        0.0000013317   0.0000004321  -0.0000023543   0.0000000860   0.0000014201
       -0.0000057735  -0.0000003327  -0.0000035988   0.0000022428  -0.0000015990
       -0.0000027232  -0.0000011338   0.0000014880   0.0000017198  -0.0000023814
        0.0000002986   0.0000013959   0.0000007890  -0.0000010369  -0.0000003423
        0.0000009539  -0.0000001969   0.0000005261   0.0000005884  -0.0000007092
       -0.0000006870   0.0000010936  -0.0000004308   0.0000000330  -0.0000016074
       -0.0000001152   0.0000020717  -0.0000022064  -0.0000001450   0.0000014244
        0.0000010612  -0.0000001295   0.0000001459   0.0000009926  -0.0000004864
       -0.0000000414  -0.0000018676  -0.0000017427   0.0000001546  -0.0000020730
       -0.0000003463   0.0000005065   0.0000013984   0.0000022618  -0.0000000057
       -0.0000002248   0.0000008200   0.0000003669  -0.0000008951  -0.0000032650
       -0.0000010626   0.0000014686   0.0000016302   0.0000009651   0.0000010354
       -0.0000005282   0.0000013448  -0.0000016496  -0.0000022547  -0.0000023377
       -0.0000000359   0.0000009573   0.0000004710  -0.0000014733  -0.0000028864
       -0.0000013050   0.0000010934  -0.0000001285   0.0000011999   0.0000024164
       -0.0000007043  -0.0000017354   0.0000017096   0.0000052939   0.0000020773
        0.0000037193   0.0000039682   0.0000013463
        0.0317358796   0.5070617440   0.0191076360   0.0470208811  -0.1011997801
        0.0306110683   0.0188505817  -0.0271143183   0.0134335411  -0.0015278041
        0.0020755725  -0.0006411765   0.0006767642   0.0018502845  -0.0016506342
       -0.0006780329   0.0004101844   0.0006448407  -0.0001126590   0.0000314325
        0.0000738446   0.0001462327   0.0000661831  -0.0000063005  -0.0001387643
        0.0002577265  -0.0000579779  -0.0007589941  -0.0007422377   0.0000768375
        0.0000086085  -0.0000012227  -0.0000383432  -0.0000082974   0.0000074563
       -0.0000534174  -0.0000152731   0.0000157637  -0.0000037293  -0.0000075197
        0.0000068284   0.0000058333   0.0000097845   0.0000120944   0.0000145838
        0.0000055762  -0.0000060739  -0.0000014227   0.0000025347  -0.0000034790
        0.0000123337   0.0000090388  -0.0000131447   0.0000117034   0.0000157639
        0.0000124318  -0.0000216266  -0.0000282553   0.0000276003  -0.0000357836
       -0.0002301012  -0.0000287142   0.0000537235   0.0001405923  -0.0000667363
        0.0000420229  -0.0000274370   0.0000103698  -0.0000161781   0.0000343045
        0.0000346568  -0.0000028037  -0.0000045392  -0.0000520103   0.0000093269
        0.0000119903   0.0000233689  -0.0000042960  -0.0000040571   0.0000054799
        0.0000012112  -0.0000055955  -0.0000016232   0.0000032530   0.0000016633
       -0.0000019987   0.0000000750   0.0000030824  -0.0000015658  -0.0000009614
        0.0000016584   0.0000020923  -0.0000022982   0.0000006237   0.0000072622
       -0.0000005825  -0.0000300167  -0.0000253275  -0.0000047578   0.0000492569
        0.0000259834   0.0000095668  -0.0000428908  -0.0000369939  -0.0000098587
        0.0000212583  -0.0000085027  -0.0000068087  -0.0000045386   0.0000046253
        0.0000048863   0.0000027660   0.0000010990  -0.0000017839   0.0000003529
       -0.0000038158  -0.0000032598   0.0000017761   0.0000008952  -0.0000003436
       -0.0000004827   0.0000001985   0.0000000037  -0.0000006728   0.0000005086
       -0.0000002648  -0.0000009988   0.0000001978  -0.0000001391  -0.0000020547
        0.0000036040   0.0000021674  -0.0000009886  -0.0000070455  -0.0000046230
       -0.0000088719   0.0000010684   0.0000048763   0.0000013118  -0.0000024671
       -0.0000017269  -0.0000014183   0.0000023647   0.0000022957  -0.0000012277
        0.0000017623   0.0000011437  -0.0000012767  -0.0000023477   0.0000004488
       -0.0000023616  -0.0000019234  -0.0000004338   0.0000004441  -0.0000002220
       -0.0000004839  -0.0000003354   0.0000063330   0.0000072281  -0.0000010759
       -0.0000067306  -0.0000035237   0.0000033324   0.0000306430   0.0000109059
       -0.0000386763   0.0000126982  -0.0000013735  -0.0049597572  -0.0578549997
       -0.0562416919  -0.0503602170  -0.2690008650  -0.0230507963  -0.0392045479
       -0.0517100752   0.0187550756  -0.0005350970  -0.0068428138   0.0000500868
        0.0006413509   0.0006905638   0.0008336351   0.0012884574   0.0005358432
        0.0001529713  -0.0001467382   0.0001162022  -0.0002206188  -0.0003046131
        0.0003378217  -0.0013146171  -0.0005151192   0.0007009548  -0.0008774653
        0.0000018180  -0.0000171562  -0.0000994998  -0.0000798639  -0.0000166742
       -0.0000369719  -0.0008964187   0.0004072256   0.0004548686   0.0000161127
        0.0000148935   0.0000300834  -0.0000030953  -0.0000030266  -0.0000048082
        0.0000003881  -0.0000023877   0.0000030511  -0.0000002091  -0.0000114968
       -0.0000011973   0.0000006676   0.0000009269  -0.0000022533  -0.0000010648
       -0.0000042564  -0.0000054766   0.0000013878  -0.0000035738   0.0000070591
       -0.0000011698  -0.0000071442   0.0000055509  -0.0000039348  -0.0000059886
       -0.0000062525   0.0000022667   0.0000006351  -0.0000008085  -0.0000040124
       -0.0000014993   0.0000035926  -0.0000079472   0.0000025401   0.0000046019
       -0.0000008243  -0.0000063252   0.0000036931  -0.0000009697  -0.0000004372
        0.0000005921  -0.0000001532   0.0000009327  -0.0000003581   0.0000001391
        0.0000007515  -0.0000004284   0.0000010384  -0.0000001054  -0.0000006955
        0.0000011162   0.0000003778  -0.0000013565  -0.0000011215  -0.0000029197
       -0.0000014326   0.0000004082  -0.0000002696  -0.0000005397  -0.0000006393
        0.0000005453  -0.0000003265   0.0000001248  -0.0000003760  -0.0000006492
        0.0000002402   0.0000001413  -0.0000006533  -0.0000001967  -0.0000004561
       -0.0000009495   0.0000000103   0.0000007461  -0.0000006070  -0.0000007962
        0.0000003619   0.0000000597  -0.0000005430   0.0000002395  -0.0000003457
        0.0000001339   0.0000001148  -0.0000004389  -0.0000000223   0.0000007390
       -0.0000006370  -0.0000001836  -0.0000002442  -0.0000008125   0.0000002992
        0.0000002370   0.0000001593   0.0000005086   0.0000015581  -0.0000000389
       -0.0000002321   0.0000007954  -0.0000001097  -0.0000003324  -0.0000020692
       -0.0000004220   0.0000003026   0.0000015383  -0.0000002191   0.0000013683
       -0.0000009321   0.0000007607  -0.0000004496  -0.0000012228  -0.0000015173
        0.0000003864   0.0000008096  -0.0000007214  -0.0000004696  -0.0000011116
       -0.0000011705   0.0000011700  -0.0000000140   0.0000002035   0.0000020905
       -0.0000022354  -0.0000033907  -0.0000015905   0.0000024019   0.0000017887
       -0.0000002978  -0.0000014540   0.0000039998
       -0.0222144424   0.0191076360   0.5161226719  -0.0366838939   0.0302510113
       -0.0873381336  -0.0004013988   0.0017557079   0.0002388105  -0.0212459855
        0.0149563717  -0.0229506814   0.0064968963  -0.0053645140   0.0049022680
        0.0019555219   0.0007618612  -0.0006347690   0.0004725217  -0.0001760138
        0.0001467055  -0.0001538296  -0.0000791709   0.0001927800   0.0002154004
       -0.0002820816   0.0004194723   0.0007885281  -0.0001363508  -0.0008697441
       -0.0000128280  -0.0000313480  -0.0000030332   0.0000024508  -0.0000281396
       -0.0000192991   0.0000351995  -0.0000121197   0.0000104421   0.0000245679
       -0.0000122828   0.0000182693  -0.0000016099   0.0000198938   0.0000016772
        0.0000019295   0.0000175261   0.0000010453  -0.0000110071  -0.0000059974
       -0.0000081414  -0.0000221939  -0.0000048145   0.0000061033  -0.0000324757
        0.0000132755  -0.0000098049   0.0000527181   0.0000142336   0.0000096172
        0.0003511173   0.0000125100  -0.0001533870  -0.0001372731   0.0000720320
       -0.0000479456   0.0000185136  -0.0000316731   0.0000080805  -0.0000042477
       -0.0000325995   0.0000056727  -0.0000022154   0.0000797718  -0.0000081791
       -0.0000122135  -0.0000392453   0.0000020120   0.0000063755  -0.0000029500
       -0.0000014548   0.0000102043   0.0000007082  -0.0000036303  -0.0000035403
        0.0000026898   0.0000005480  -0.0000005847   0.0000029413  -0.0000003546
        0.0000009682  -0.0000052034   0.0000027416  -0.0000049094  -0.0000101868
       -0.0000007793   0.0000147604   0.0000220391  -0.0000000467  -0.0000544126
       -0.0000314344  -0.0000081672   0.0000523049   0.0000346993   0.0000048251
       -0.0000380272   0.0000106670   0.0000143239   0.0000046418  -0.0000005642
       -0.0000028349  -0.0000085759  -0.0000036260   0.0000022745  -0.0000009517
        0.0000052112   0.0000045948   0.0000018775  -0.0000007071  -0.0000005898
        0.0000024111  -0.0000003356   0.0000004083   0.0000027140   0.0000005481
       -0.0000009138   0.0000015699   0.0000003651   0.0000005789  -0.0000031824
       -0.0000000464   0.0000025103   0.0000029189   0.0000094504   0.0000052675
        0.0000116479   0.0000001849  -0.0000047110  -0.0000026357  -0.0000014474
       -0.0000000288   0.0000044843  -0.0000019890  -0.0000033619  -0.0000017091
       -0.0000001801  -0.0000004432   0.0000004848   0.0000017321   0.0000007714
        0.0000008279   0.0000015738   0.0000016210   0.0000007218   0.0000008738
        0.0000011929  -0.0000026701  -0.0000038714  -0.0000014509  -0.0000025585
        0.0000028342   0.0000061204   0.0000014180  -0.0000385637  -0.0000193126
        0.0000661835  -0.0000021663   0.0000030317  -0.0177147906  -0.0559210379
       -0.2674023621  -0.0049592092  -0.0232237822  -0.0463406172   0.0939242807
        0.0186883752  -0.0917491266   0.0000327182  -0.0002867885   0.0004428576
        0.0003673058  -0.0009110342   0.0005902487  -0.0002342746   0.0000441878
        0.0000478337  -0.0012837703   0.0006052849   0.0005380012  -0.0014286298
       -0.0007738711  -0.0066896179  -0.0001817960   0.0009321049   0.0006809865
       -0.0000190138  -0.0000946288   0.0000070780   0.0001886144  -0.0000402486
       -0.0000718413   0.0017737087   0.0001334825  -0.0000863110  -0.0000065087
        0.0000256558   0.0000200134  -0.0000054952  -0.0000052234  -0.0000102290
       -0.0000018960   0.0000033771  -0.0000032072   0.0000010829  -0.0000039090
       -0.0000012824  -0.0000036203  -0.0000006084   0.0000021956  -0.0000014454
       -0.0000104163  -0.0000055248  -0.0000002912   0.0000065860  -0.0000136814
       -0.0000006296   0.0000112859  -0.0000078811  -0.0000000019  -0.0000045326
       -0.0000010505  -0.0000032982  -0.0000032284   0.0000015570   0.0000093040
        0.0000058655  -0.0000027536   0.0000082910  -0.0000016780   0.0000023023
       -0.0000045667   0.0000110004   0.0000050081  -0.0000008284   0.0000009492
       -0.0000007551   0.0000011396  -0.0000023390   0.0000002119   0.0000014578
       -0.0000009579   0.0000002179   0.0000008534   0.0000002689   0.0000000196
        0.0000006788  -0.0000003300   0.0000036521  -0.0000005945   0.0000014976
        0.0000006192   0.0000019101  -0.0000011130  -0.0000009295   0.0000017521
       -0.0000005815   0.0000003209  -0.0000004490   0.0000006901   0.0000009763
       -0.0000007190   0.0000002215  -0.0000000598   0.0000000252   0.0000004374
        0.0000013561   0.0000002207  -0.0000009447   0.0000012837   0.0000016291
       -0.0000001409  -0.0000003695   0.0000015309  -0.0000003821   0.0000001280
       -0.0000007500  -0.0000002148  -0.0000000938  -0.0000002544  -0.0000011582
        0.0000011002   0.0000015174   0.0000003723   0.0000004245   0.0000008171
        0.0000010417   0.0000003256   0.0000012069  -0.0000007021  -0.0000018478
       -0.0000008897  -0.0000013793   0.0000011552  -0.0000002241   0.0000013936
        0.0000005499   0.0000005871  -0.0000001276  -0.0000017673  -0.0000009443
       -0.0000000775  -0.0000006163  -0.0000004304   0.0000007666   0.0000012659
       -0.0000009804  -0.0000012006   0.0000012364  -0.0000001419   0.0000009779
        0.0000009426  -0.0000009471  -0.0000002070  -0.0000003756  -0.0000004498
        0.0000008712  -0.0000003466   0.0000015856   0.0000000242  -0.0000044872
       -0.0000068851  -0.0000026008  -0.0000019736
       -0.1238940231   0.0470208811  -0.0366838939   0.4897316497  -0.0115733086
        0.0042601851  -0.0697867199  -0.0255395296  -0.0030110512  -0.0617977330
       -0.0008777027  -0.0083720109  -0.1591798828  -0.0134170109   0.0446884898
       -0.0300190087   0.0020898171   0.0057950158  -0.0010433262   0.0029634332
       -0.0017868365  -0.0010192914  -0.0000889215   0.0004637916   0.0015907883
        0.0007730232   0.0006810814  -0.0064445843  -0.0060085291   0.0088960940
       -0.0001160137   0.0001379106   0.0000071210   0.0001375006  -0.0001094329
        0.0000568067   0.0000799210  -0.0000225177  -0.0000168035   0.0000524143
        0.0000015508  -0.0000082695  -0.0000086949   0.0000264313  -0.0000364885
       -0.0000129057   0.0000347708  -0.0000232925  -0.0000301237   0.0000227259
       -0.0000272380  -0.0000500591   0.0000666444  -0.0000668925  -0.0001257877
       -0.0000875305   0.0001212451   0.0001336929  -0.0000076612  -0.0000542768
        0.0007332293  -0.0000158874  -0.0004197306  -0.0004494187   0.0002382825
       -0.0001556169   0.0000839092  -0.0000430763   0.0000768868  -0.0000879993
       -0.0001150494   0.0000107283  -0.0000362520   0.0001752282  -0.0000102807
       -0.0000166467  -0.0000807815  -0.0000086313   0.0000255749  -0.0000136521
       -0.0000098835   0.0000166035   0.0000026607  -0.0000059814  -0.0000140494
        0.0000097288   0.0000013744  -0.0000079870   0.0000095962  -0.0000000237
       -0.0000002309  -0.0000133857   0.0000078730  -0.0000089989  -0.0000332230
       -0.0000023718   0.0001034384   0.0000663478   0.0000161354  -0.0001757537
       -0.0000756457  -0.0000342949   0.0001656028   0.0001134351   0.0000200327
       -0.0001012202   0.0000234991   0.0000322704   0.0000187577  -0.0000119451
       -0.0000152573  -0.0000123561  -0.0000033687   0.0000090337  -0.0000059847
        0.0000098217   0.0000132293  -0.0000082110  -0.0000042686   0.0000046467
        0.0000031369  -0.0000008450   0.0000029073   0.0000059968  -0.0000013715
        0.0000040132   0.0000036270  -0.0000026853   0.0000024895   0.0000023904
       -0.0000123373  -0.0000033561   0.0000087308   0.0000328846   0.0000201126
        0.0000203221  -0.0000111591  -0.0000188769  -0.0000045243   0.0000117449
        0.0000100085   0.0000108689  -0.0000080778  -0.0000116631  -0.0000068957
       -0.0000048415  -0.0000013070  -0.0000011903   0.0000015197   0.0000029103
       -0.0000008701   0.0000046373   0.0000011592  -0.0000003016   0.0000011679
        0.0000035963  -0.0000149712  -0.0000247318  -0.0000159905  -0.0000061030
        0.0000153915   0.0000214840  -0.0000027264  -0.0000844351  -0.0000318255
        0.0001442197  -0.0000222900  -0.0000107628  -0.0028720854   0.0014642371
       -0.0042489507   0.0038133270  -0.0010092773   0.0020932710  -0.0259644395
        0.0149721115  -0.0098908145   0.0038448994   0.0183858643   0.0011710985
       -0.0005944036  -0.0019008180  -0.0013483018  -0.0113432032  -0.0273190044
       -0.0009397695  -0.0022804740   0.0065038775   0.0268716315  -0.0022373612
       -0.0036401218  -0.0194538848  -0.0003502076  -0.0026732493  -0.0079012693
        0.0004632389  -0.0010507457   0.0004726846  -0.0008069277  -0.0000297310
        0.0003252760  -0.0001682755   0.0007024271  -0.0014567639  -0.0000560802
        0.0000225974   0.0000003580   0.0000000107  -0.0000089211  -0.0000108206
       -0.0000118367   0.0000255303  -0.0000287916   0.0000106634   0.0000064553
       -0.0000016310  -0.0000110486  -0.0000036416   0.0000116123   0.0000039419
       -0.0000046516  -0.0000026168  -0.0000041490   0.0000219341  -0.0000373529
       -0.0000022441   0.0000324843  -0.0000285350   0.0000087677  -0.0000021940
       -0.0000030465  -0.0000150762  -0.0000141255   0.0000027167  -0.0000007761
        0.0000213611  -0.0000118138   0.0000351320  -0.0000135956  -0.0000111944
       -0.0000253256  -0.0000164114  -0.0000068895  -0.0000073547   0.0000026687
       -0.0000004976  -0.0000006214  -0.0000066709   0.0000042594   0.0000021881
       -0.0000039419   0.0000008559   0.0000014197   0.0000012643   0.0000005282
       -0.0000059636   0.0000015863   0.0000035359  -0.0000023219   0.0000046144
        0.0000024592   0.0000008245  -0.0000044660  -0.0000001818   0.0000064495
       -0.0000048692   0.0000033185  -0.0000039250  -0.0000011760   0.0000052534
       -0.0000035404  -0.0000016802   0.0000055657  -0.0000016905  -0.0000020823
        0.0000059639  -0.0000007675  -0.0000036361   0.0000050315   0.0000079782
       -0.0000024389  -0.0000008892   0.0000064424  -0.0000024186   0.0000024201
       -0.0000030148  -0.0000017671   0.0000050851  -0.0000017430  -0.0000042279
        0.0000055725   0.0000005762   0.0000018659   0.0000064303   0.0000035371
        0.0000017634  -0.0000014624   0.0000039875  -0.0000049791  -0.0000040871
       -0.0000019993  -0.0000030266  -0.0000002825  -0.0000010132   0.0000100321
        0.0000025012   0.0000013410  -0.0000031382  -0.0000042020  -0.0000046911
       -0.0000018507  -0.0000003896  -0.0000018483   0.0000072942   0.0000065594
       -0.0000019660  -0.0000033112   0.0000028910   0.0000001287   0.0000054084
        0.0000054509  -0.0000034485  -0.0000025194   0.0000006668  -0.0000065174
        0.0000002034   0.0000015715   0.0000062461   0.0000034796  -0.0000086739
       -0.0000062893   0.0000076956  -0.0000092706
        0.0483664408  -0.1011997801   0.0302510113  -0.0115733086   0.4674037718
       -0.0062387641  -0.0319294585  -0.1708577450  -0.0087905723   0.0011263549
       -0.0683572120  -0.0298858090  -0.0104393545  -0.0613891128   0.0099045768
        0.0106516101   0.0017327005  -0.0064366305   0.0034173440   0.0015960759
        0.0032248353   0.0002001287  -0.0002188179   0.0006084066   0.0006446327
        0.0019814077   0.0059673328  -0.0152419788  -0.0024867635   0.0082530889
       -0.0005231606   0.0003795497   0.0003017359  -0.0000945174  -0.0000529119
        0.0000313624   0.0000477596  -0.0000194356  -0.0000399074  -0.0000238078
        0.0000361446   0.0000068905   0.0000032622  -0.0000055567   0.0000158486
        0.0000114568  -0.0000082475  -0.0000038431   0.0000045002   0.0000060274
        0.0000091401  -0.0000140969   0.0000474190  -0.0000140282  -0.0000471081
       -0.0000532712   0.0000079585  -0.0002200068  -0.0002764803  -0.0001356995
       -0.0000998473  -0.0006382492  -0.0002475223  -0.0000333090  -0.0000039924
       -0.0000961048  -0.0000383716   0.0000225267   0.0000064644   0.0000375581
       -0.0000353086   0.0000257185   0.0000602810   0.0000743379  -0.0000104251
       -0.0000710997  -0.0000529713   0.0000029917  -0.0000082192   0.0000039290
        0.0000042356   0.0000019544   0.0000004775  -0.0000028126   0.0000020861
       -0.0000015375  -0.0000004556   0.0000013635  -0.0000035005   0.0000015528
        0.0000023579   0.0000063821  -0.0000006243  -0.0000052121  -0.0000082342
       -0.0000049952  -0.0000099923  -0.0000364913  -0.0000052877  -0.0000003938
        0.0000458688   0.0000112292  -0.0000224265  -0.0000342370  -0.0000163892
        0.0000041935  -0.0000093293  -0.0000019113   0.0000001645   0.0000059048
        0.0000039843   0.0000039065   0.0000010909  -0.0000006764  -0.0000013720
       -0.0000044688  -0.0000018786   0.0000013434   0.0000011121   0.0000005272
        0.0000014855  -0.0000000072   0.0000010940   0.0000009621   0.0000008767
        0.0000000375  -0.0000001661   0.0000000654   0.0000006697  -0.0000034207
        0.0000021502   0.0000029324   0.0000031422  -0.0000015451  -0.0000023254
       -0.0000139131  -0.0000076139   0.0000005106   0.0000027472   0.0000051241
        0.0000027239   0.0000009400   0.0000024162   0.0000015515  -0.0000028752
        0.0000021794   0.0000013677  -0.0000046625  -0.0000030900   0.0000006737
       -0.0000041745  -0.0000019527  -0.0000003193   0.0000012982  -0.0000001150
       -0.0000000475  -0.0000056917   0.0000003953   0.0000032906  -0.0000056970
       -0.0000038647  -0.0000015328   0.0000053002   0.0000362944   0.0000188867
       -0.0000103843   0.0000068079  -0.0000108369  -0.0038664921   0.0029589227
       -0.0013994445   0.0202572243  -0.0215082860   0.0124170590  -0.0010640541
        0.0018287802  -0.0018726048  -0.0017237770  -0.0213824687   0.0004373469
       -0.0031944865  -0.0110587870  -0.0045709839  -0.0053490227  -0.0086819010
        0.0009919444   0.0004471205   0.0008015244   0.0018205358   0.0012145983
        0.0030712033   0.0160496002  -0.0015247606  -0.0111133311  -0.0281483385
        0.0000589425  -0.0012952152  -0.0010401555   0.0008821138   0.0000819974
       -0.0000896111  -0.0002846757  -0.0012683038  -0.0013224586   0.0000083403
        0.0000012815   0.0000157112  -0.0000081020   0.0000071165   0.0000028133
        0.0000021437  -0.0000033378   0.0000032406  -0.0000002807  -0.0000087285
       -0.0000157458   0.0000063188   0.0000007312  -0.0000083783  -0.0000062374
        0.0000018934  -0.0000058275   0.0000022298  -0.0000045048   0.0000093463
       -0.0000000041  -0.0000073667   0.0000038648  -0.0000028967  -0.0000043583
       -0.0000118678   0.0000058341   0.0000040232  -0.0000027170  -0.0000053668
        0.0000034836   0.0000106141  -0.0000154245  -0.0000339463  -0.0000052540
        0.0000044220  -0.0000001423  -0.0000020037   0.0000011028  -0.0000004039
        0.0000024192   0.0000001461   0.0000000586   0.0000007905  -0.0000018940
        0.0000007091   0.0000013877  -0.0000016388  -0.0000006644   0.0000025179
       -0.0000035753   0.0000003771  -0.0000030982  -0.0000012540  -0.0000014313
       -0.0000010620   0.0000011072  -0.0000009633  -0.0000004968  -0.0000006191
       -0.0000002237   0.0000011483  -0.0000004208  -0.0000012636   0.0000003351
       -0.0000002598   0.0000000027   0.0000001750  -0.0000002429  -0.0000010171
        0.0000000257   0.0000007730  -0.0000009561   0.0000011426  -0.0000003470
       -0.0000000425   0.0000009935  -0.0000005632  -0.0000002851   0.0000009515
       -0.0000004127  -0.0000002735   0.0000001011   0.0000002087  -0.0000014448
        0.0000010044  -0.0000017316  -0.0000020339   0.0000001365   0.0000000362
       -0.0000002606   0.0000001754   0.0000038916   0.0000009025  -0.0000007370
       -0.0000006984   0.0000004219  -0.0000000865  -0.0000007669  -0.0000026086
       -0.0000006087   0.0000026282   0.0000012728  -0.0000012592   0.0000003709
       -0.0000014327   0.0000013761  -0.0000015642  -0.0000011130  -0.0000016220
       -0.0000000117   0.0000005198   0.0000000296  -0.0000012247  -0.0000021429
       -0.0000006333   0.0000009462  -0.0000004286   0.0000009796   0.0000031239
       -0.0000056865  -0.0000056731   0.0000024545   0.0000033493   0.0000008966
        0.0000001808  -0.0000024099   0.0000087745
       -0.0383533822   0.0306110683  -0.0873381336   0.0042601851  -0.0062387641
        0.4652889577  -0.0047950002  -0.0122322049  -0.0613428106  -0.0015319140
       -0.0277242436  -0.1716782982   0.0411037461   0.0107116950  -0.0792068404
       -0.0040330119  -0.0039530891   0.0045920679  -0.0021933417   0.0033343960
        0.0019755573   0.0002406451   0.0006516842  -0.0005430344   0.0009558488
        0.0059110106   0.0004601257   0.0195480449   0.0056405674  -0.0111618810
        0.0007688158   0.0001288122   0.0001174693   0.0000639863   0.0000091443
       -0.0000706657  -0.0000606892  -0.0000110635  -0.0000043064   0.0000221329
        0.0000023188   0.0000277822   0.0000008885   0.0000105270   0.0000053739
       -0.0000005005  -0.0000002384   0.0000120721  -0.0000019245  -0.0000074548
        0.0000014887   0.0000194511  -0.0000195070   0.0000543863   0.0000619304
       -0.0000066883  -0.0000725531   0.0001144887  -0.0001325475  -0.0003098192
       -0.0001828809  -0.0003556118  -0.0003711236  -0.0000533653  -0.0000260969
       -0.0000678115  -0.0000301520  -0.0000030621   0.0000365012   0.0000495227
        0.0000166409   0.0000139232   0.0000449015  -0.0000148158   0.0000063744
       -0.0000365312   0.0000016099  -0.0000041593  -0.0000084743   0.0000073588
        0.0000033845  -0.0000043828  -0.0000010314   0.0000010144   0.0000029024
       -0.0000021176  -0.0000001508   0.0000026433  -0.0000019685  -0.0000003279
       -0.0000019020   0.0000062253   0.0000006287  -0.0000009704   0.0000050851
       -0.0000057654  -0.0000358611  -0.0000643320  -0.0000133726   0.0000123774
        0.0000654700   0.0000112132  -0.0000424549  -0.0000514999  -0.0000172708
        0.0000097142  -0.0000098302  -0.0000008330  -0.0000056921   0.0000091606
        0.0000068693   0.0000014755  -0.0000001091  -0.0000036085  -0.0000010822
       -0.0000036913  -0.0000039307   0.0000039003   0.0000008230  -0.0000013231
        0.0000007784   0.0000009404  -0.0000012521   0.0000001627   0.0000013649
       -0.0000026242  -0.0000007664   0.0000009120  -0.0000008436  -0.0000079426
        0.0000060439   0.0000043314   0.0000018718  -0.0000050523  -0.0000054930
       -0.0000097239  -0.0000005405   0.0000047147   0.0000000827  -0.0000029299
       -0.0000030248   0.0000016067   0.0000013062   0.0000001597  -0.0000008120
        0.0000004020   0.0000042283  -0.0000018793  -0.0000019187   0.0000003523
       -0.0000036824  -0.0000032285  -0.0000011670   0.0000015724   0.0000007398
       -0.0000010254  -0.0000027123   0.0000086067   0.0000083644  -0.0000115212
       -0.0000116351  -0.0000059465   0.0000084293   0.0000399618   0.0000162783
        0.0000305539   0.0000435272  -0.0000156918  -0.0214983306   0.0152118926
       -0.0173279349   0.0012430424   0.0001871999   0.0004680993   0.0083551670
       -0.0062838005   0.0047754628   0.0026524990   0.0135901930   0.0002933669