$hessian                                                                        
        0.4949312312   0.0122732410   0.0000470161  -0.0934824410   0.0175100662
        0.0646356718  -0.0084115957   0.0009198918   0.0169621627   0.0038740469
       -0.0030370888   0.0037585411  -0.0002685476  -0.0000119598   0.0001189396
        0.0054799223  -0.0005714407   0.0029294859  -0.0000484041  -0.0001983832
       -0.0000700036  -0.0000427839   0.0000072405  -0.0000522222   0.0000175734
       -0.0000086431  -0.0000033558  -0.0000204197   0.0000018784   0.0000142784
        0.0000075951   0.0000076604   0.0000095760  -0.0000018079  -0.0000081332
       -0.0000059934   0.0000055946  -0.0000007569  -0.0000003000  -0.0000128453
       -0.0000194852  -0.0000332571   0.0000151537  -0.0000580604   0.0000025205
        0.0000070641   0.0000961042  -0.0000145274  -0.0000301410  -0.0000276055
       -0.0000088656   0.0000086873   0.0000447934   0.0000053920  -0.0000045522
       -0.0000450787  -0.0000076042   0.0000107467  -0.0000444377  -0.0000169206
       -0.0000280844  -0.0000508298  -0.0000010091  -0.0000315500   0.0002567923
       -0.0000146712   0.0000818997  -0.0002450578   0.0001548056   0.0000086141
        0.0000066019  -0.0000009823   0.0000278866   0.0002238568   0.0000612144
        0.0000639636  -0.0004419133   0.0001100402  -0.0001208551   0.0004365023
        0.0001661094  -0.0001496188  -0.0000642168  -0.0003495644   0.0001166022
       -0.0000093829   0.0001438996   0.0000537681  -0.0000109812  -0.0000091300
       -0.0000307547   0.0000277509   0.0000077187   0.0000126588   0.0000084649
        0.0000051719  -0.0000276401  -0.0000019924  -0.0000139338   0.0000083734
       -0.0000371144   0.0000029651   0.0000400211   0.0000231152   0.0000097571
       -0.0000171433   0.0000000145  -0.0000050984  -0.0000116282   0.0000069868
        0.0000040342   0.0000051338   0.0000047465   0.0000002406   0.0000040596
        0.0000033114  -0.0000010066   0.0000120227  -0.0000000081  -0.0000018789
        0.0000002268   0.0000082421  -0.0000014668  -0.0000048636  -0.0000119145
        0.0000062536   0.0000258440   0.0000078801  -0.0000141628  -0.0000210721
        0.0000113427   0.0000096857  -0.0000069181  -0.0000019666  -0.0000030034
        0.0000020941  -0.0000009588  -0.0000015021  -0.0000003880   0.0000002540
       -0.0000023308  -0.0000038671   0.0000012191   0.0000011559  -0.0000013604
        0.0000007718   0.0000030501  -0.0000021296   0.0000004573   0.0000027258
        0.0000027867  -0.0000001750  -0.0000015388  -0.0000226409   0.0000040578
        0.0000002985   0.0000077830   0.0000380092   0.0000168307   0.0000196118
       -0.0000135615  -0.0000057695  -0.0000090820  -0.0000101423  -0.0000014128
        0.0000297069  -0.0000266655  -0.0000097773   0.0000010550  -0.0000044038
       -0.0000002842  -0.0000200368   0.0000438198   0.0000115870   0.0000207201
       -0.0000683098  -0.0000168679  -0.0000302533  -0.0000048657   0.0000053175
        0.0000018284   0.0000028798  -0.0000034386  -0.0000048304  -0.0000023355
       -0.0000041394  -0.0000008922  -0.0000009144  -0.0000002246  -0.0000007820
       -0.0000007321  -0.0000007480  -0.0000007540  -0.0000000203   0.0000001486
       -0.0000013410  -0.0000019724   0.0000009019  -0.0000042881  -0.0000009745
        0.0000044051  -0.0000124247   0.0000567021   0.0000058787  -0.0000010763
       -0.0000699497  -0.0000262062   0.0000317377   0.0000453304   0.0000101401
       -0.0000296135   0.0000175249   0.0000057540   0.0000011187  -0.0000015415
        0.0000116243  -0.0000085561  -0.0000003463  -0.0000041702  -0.0000028764
       -0.0000004335  -0.0000002850  -0.0000037782  -0.0000020310   0.0000026854
        0.0000004353  -0.0000032794   0.0000031565  -0.0000018796   0.0000002652
       -0.0000002804   0.0000005061  -0.0000050024   0.0000083527  -0.0000030500
        0.0000036568  -0.0000129706   0.0000006215   0.0000038190   0.0000044227
        0.0000005599   0.0000034831  -0.0000017203  -0.0000015109   0.0000044905
        0.0000009128   0.0000020918  -0.0000005413  -0.0000038988  -0.0000013569
        0.0000007221  -0.0000001478  -0.0000017125   0.0000038227  -0.0000054455
       -0.0000003576   0.0000011887   0.0000126428  -0.0000389168   0.0000101513
        0.0000026638   0.0000303440  -0.0000466037  -0.0000091220   0.0000357578
        0.0000170395   0.0000035550  -0.0000109957  -0.0000882412   0.0000008437
       -0.0000166934   0.0000997445  -0.0000431453  -0.0000035472  -0.0000081703
       -0.0000265675  -0.0000293458  -0.0000791472  -0.0000648499   0.0000145501
        0.0000898222   0.0000058798   0.0000259620  -0.0000837991   0.0000672678
        0.0000053771   0.0001084564   0.0000141265   0.0000335730  -0.0000204155
        0.0000452957  -0.0006202768   0.0027137743   0.0045196340  -0.0841408882
        0.0882501656  -0.0068504429  -0.1638595868  -0.1149884522   0.0379561352
       -0.1494767083  -0.0041025104  -0.1209908638  -0.0010641286   0.0012265272
       -0.0012098019  -0.0004740309   0.0001581182   0.0006454160  -0.0010031382
        0.0002301865  -0.0006312351  -0.0000079433  -0.0000025773  -0.0000004438
       -0.0000015849   0.0000023727  -0.0000017404   0.0000016791   0.0000024898
        0.0000030122   0.0000031194  -0.0000017840   0.0000062192  -0.0000031104
        0.0000059695   0.0000014017   0.0000031209   0.0000010687  -0.0000023481
        0.0000113713   0.0000145284   0.0000116910   0.0000071698  -0.0000035114
       -0.0000062322   0.0000018932   0.0000571535   0.0000225640  -0.0000186759
       -0.0000239831  -0.0000450998  -0.0000088232  -0.0000006890  -0.0000093817
       -0.0000798199  -0.0001234295  -0.0002177770  -0.0000069299  -0.0000014954
       -0.0000026420  -0.0000028279   0.0000096033   0.0000042013  -0.0000020403
        0.0000037865  -0.0000020566  -0.0000008142  -0.0000007516  -0.0000005341
       -0.0000000955  -0.0000013637   0.0000001505  -0.0000005187  -0.0000004971
        0.0000007187  -0.0000005004  -0.0000003559  -0.0000003071   0.0000006912
       -0.0000010711  -0.0000007845  -0.0000006586  -0.0000017460   0.0000033234
        0.0000003158   0.0000010143   0.0000007270   0.0000009211   0.0000005866
        0.0000005640  -0.0000008035  -0.0000002093  -0.0000020823   0.0000010475
       -0.0000000107   0.0000003120   0.0000009345  -0.0000000956  -0.0000005026
       -0.0000016318   0.0000002778  -0.0000018138  -0.0000036301   0.0000023540
        0.0000000457   0.0000003377  -0.0000024135   0.0000002220  -0.0000012691
       -0.0000018178   0.0000000215  -0.0000010964  -0.0000016100  -0.0000005507
        0.0000003767   0.0000000932   0.0000001205  -0.0000002023  -0.0000013165
        0.0000000352   0.0000001437  -0.0000000147   0.0000015673   0.0000001028
       -0.0000000015   0.0000004488   0.0000004152  -0.0000000705  -0.0000000154
        0.0000007230   0.0000006370  -0.0000000681   0.0000008476   0.0000005334
       -0.0000005188   0.0000001020   0.0000006768  -0.0000008949   0.0000002791
        0.0000007336  -0.0000014649   0.0000001576  -0.0000000668   0.0000003242
        0.0000006305  -0.0000008347   0.0000022145   0.0000011389   0.0000000557
        0.0000002021   0.0000010371   0.0000009122  -0.0000010755   0.0000000730
        0.0000003115  -0.0000016751   0.0000005437   0.0000006418  -0.0000006193
        0.0000002099   0.0000011006  -0.0000012151  -0.0000011424   0.0000006327
       -0.0000027528   0.0000000280  -0.0000000109  -0.0000028571   0.0000001810
       -0.0000015518  -0.0000013680  -0.0000001161  -0.0000023242   0.0000004966
       -0.0000006136  -0.0000007396   0.0000003844  -0.0000003539  -0.0000008882
        0.0000019512  -0.0000001706  -0.0000009948   0.0000005203  -0.0000000794
        0.0000007987   0.0000032958   0.0000010460   0.0000002779  -0.0000028401
       -0.0000022693  -0.0000027746   0.0000001616  -0.0000018757  -0.0000029595
        0.0000011786  -0.0000029785  -0.0000003560  -0.0000014302  -0.0012922095
       -0.0004042908  -0.0017351273
        0.0122732410   0.5268652264  -0.0116703361   0.0155655067  -0.0751768180
       -0.0320384303  -0.0080098607   0.0042981477   0.0159027935  -0.0022570900
       -0.0024618916   0.0019282119   0.0002696012   0.0000060540  -0.0002842987
       -0.0019560774  -0.0038814846  -0.0011490234   0.0007583496  -0.0007516959
       -0.0011399204  -0.0002318307  -0.0002103473  -0.0000564420   0.0001078135
       -0.0001035742  -0.0000647027  -0.0000007144  -0.0000202145  -0.0000366641
        0.0000053231  -0.0000093879  -0.0000117314  -0.0000276198   0.0000172423
        0.0000051843   0.0000112234  -0.0000001640  -0.0000051016   0.0000350627
        0.0000466918  -0.0000006547   0.0003292358   0.0002744032  -0.0000547610
       -0.0000305506  -0.0000991471  -0.0000010011   0.0000682776   0.0000188827
       -0.0000069607  -0.0000433229  -0.0000421817   0.0000334513   0.0000855398
        0.0000374184  -0.0000363889  -0.0000673938   0.0000725102   0.0000435872
        0.0000210531   0.0000680184   0.0000634228  -0.0000049008  -0.0001768259
       -0.0000607205  -0.0000424445   0.0001341369  -0.0000993610   0.0000041401
        0.0000025617   0.0000149516  -0.0000189073  -0.0001704603  -0.0000779687
       -0.0000304909   0.0002172748   0.0000414985   0.0000377879  -0.0003213440
        0.0001561143  -0.0002273121   0.0002386696  -0.0005045675   0.0002800951
       -0.0001065377   0.0005791554  -0.0001057411  -0.0000489041  -0.0000262202
        0.0000591813  -0.0000196941   0.0000129626  -0.0000380581  -0.0000400685
       -0.0000138631   0.0000343836   0.0000138628   0.0000124519  -0.0000219097
        0.0000336041   0.0000038564   0.0000017626   0.0000091064   0.0000036312
       -0.0000069229  -0.0000096216  -0.0000176159   0.0000214464  -0.0000167270
        0.0000108598   0.0000110746   0.0000007086   0.0000003530   0.0000133757
       -0.0000111826  -0.0000036630  -0.0000338527  -0.0000008115   0.0000001444
       -0.0000022691  -0.0000043330   0.0000001079  -0.0000042764   0.0000298322
       -0.0000013636  -0.0000475021  -0.0000329378   0.0000073116   0.0000269507
        0.0000045304   0.0000032993   0.0000064274   0.0000078669  -0.0000087514
        0.0000052743   0.0000014283  -0.0000058744  -0.0000002357  -0.0000015023
       -0.0000050501  -0.0000063153   0.0000014500   0.0000018406  -0.0000002132
        0.0000016846  -0.0000012498   0.0000001867  -0.0000022220   0.0000025482
        0.0000034380  -0.0000068228   0.0000025745   0.0000169688   0.0000047430
       -0.0000032900  -0.0000094155  -0.0000341712  -0.0000128767  -0.0000203907
        0.0000074503   0.0000095519   0.0000034236   0.0000034215  -0.0000030264
       -0.0000094393   0.0000198188   0.0000021782  -0.0000016916  -0.0000002786
       -0.0000010465   0.0000157280  -0.0000246419  -0.0000015235   0.0000125682
        0.0000300113  -0.0000016492   0.0000114357   0.0000029420   0.0000050980
        0.0000018770  -0.0000033927  -0.0000006783   0.0000004181   0.0000021353
        0.0000035311   0.0000005471  -0.0000001140  -0.0000017866  -0.0000023257
       -0.0000011944   0.0000004618   0.0000005297   0.0000001087   0.0000006506
       -0.0000010258   0.0000010305  -0.0000004057   0.0000011467  -0.0000014529
       -0.0000033661   0.0000084036  -0.0000076632   0.0000042975   0.0000042240
        0.0000460541   0.0000154079  -0.0000083777  -0.0000330244  -0.0000026177
        0.0000172498  -0.0000135142   0.0000010443  -0.0000009231   0.0000100636
       -0.0000117884   0.0000022851   0.0000004688   0.0000055578   0.0000048912
        0.0000013748  -0.0000006236   0.0000029490   0.0000009032  -0.0000003541
       -0.0000006284   0.0000069499  -0.0000088721   0.0000009908  -0.0000002130
        0.0000024924  -0.0000047271   0.0000014053  -0.0000015541   0.0000042401
        0.0000034246   0.0000027966  -0.0000013540  -0.0000023486  -0.0000046958
        0.0000008254  -0.0000019534  -0.0000016354   0.0000016657  -0.0000051051
       -0.0000019174  -0.0000030273  -0.0000016457   0.0000064558  -0.0000008519
       -0.0000008556   0.0000006892   0.0000013031   0.0000022499   0.0000028163
       -0.0000085489   0.0000013034  -0.0000093737   0.0000096880  -0.0000210726
       -0.0000073230  -0.0000260000   0.0000299028   0.0000096278  -0.0000116781
       -0.0000016826   0.0000106337   0.0000015212   0.0000417168   0.0000022850
        0.0000024050  -0.0000521553   0.0000206893   0.0000112295   0.0000062120
        0.0000205668   0.0000126223   0.0000383815   0.0000322445  -0.0000065570
       -0.0000439334   0.0000080581  -0.0000078810   0.0000363614  -0.0000345749
       -0.0000327424  -0.0000238307  -0.0000813621   0.0000189063  -0.0000223074
        0.0000385653   0.0121474643  -0.0118545435  -0.0265333405   0.0881569660
       -0.2411644392   0.0177116014  -0.1149389329  -0.1565906356   0.0372430638
       -0.0027817075  -0.0415516965  -0.0010974480  -0.0004631383   0.0010296691
        0.0011600135  -0.0006568209   0.0001308535   0.0009624968   0.0002123835
        0.0000884472   0.0000807003   0.0000119444   0.0000158961   0.0000105961
        0.0000113103  -0.0000048798  -0.0000096891   0.0000034704  -0.0000051869
       -0.0000040884  -0.0000041023  -0.0000067635  -0.0000008883   0.0000009072
        0.0000026393  -0.0000003296   0.0000040737  -0.0000008662  -0.0000009993
       -0.0000599081  -0.0000298335  -0.0000092853  -0.0000124826   0.0000150174
       -0.0000029636   0.0000772907  -0.0000659070   0.0000022769   0.0000060166
        0.0000063185   0.0000102476   0.0000297780  -0.0000281427   0.0000389024
        0.0000897300   0.0003820020  -0.0000572305  -0.0000053506   0.0000064466
       -0.0000091021  -0.0000010192  -0.0000046604  -0.0000030140  -0.0000058664
       -0.0000025656   0.0000001734  -0.0000057989  -0.0000056810   0.0000019470
        0.0000023122   0.0000000929  -0.0000003950   0.0000002120  -0.0000022374
        0.0000031813   0.0000006004  -0.0000016411  -0.0000008696   0.0000022433
        0.0000002751  -0.0000017636   0.0000000459  -0.0000007624  -0.0000009497
        0.0000014637  -0.0000012044   0.0000011656   0.0000016127  -0.0000008310
       -0.0000000403   0.0000001510   0.0000019192   0.0000011310   0.0000010360
       -0.0000024458  -0.0000003118  -0.0000045812   0.0000019505   0.0000018165
        0.0000013439   0.0000017857   0.0000042393  -0.0000004488  -0.0000013881
       -0.0000003468  -0.0000045664   0.0000043111   0.0000002691  -0.0000001917
        0.0000016863  -0.0000015655   0.0000001530   0.0000010135   0.0000028631
        0.0000018255   0.0000002005  -0.0000000680   0.0000027310   0.0000010101
       -0.0000005145  -0.0000004299  -0.0000006463  -0.0000004072  -0.0000006887
       -0.0000005149   0.0000008062   0.0000013761   0.0000003207   0.0000000050
       -0.0000001715   0.0000002171   0.0000002284  -0.0000000767  -0.0000020066
       -0.0000001329  -0.0000002028  -0.0000003126  -0.0000001068  -0.0000006896
       -0.0000000161  -0.0000000473   0.0000085305   0.0000038220   0.0000003844
       -0.0000007171   0.0000000410  -0.0000025832  -0.0000026788  -0.0000003577
       -0.0000009130  -0.0000021138  -0.0000014343   0.0000007475  -0.0000005617
        0.0000002663   0.0000023611  -0.0000003978  -0.0000007696  -0.0000000432
        0.0000000032  -0.0000020680  -0.0000007553   0.0000033991  -0.0000012048
        0.0000003570  -0.0000010428  -0.0000004503   0.0000032064  -0.0000012684
        0.0000023042   0.0000013872  -0.0000005882   0.0000026294  -0.0000008906
       -0.0000005238   0.0000005068  -0.0000016045   0.0000009053   0.0000000098
       -0.0000018290   0.0000004140   0.0000006048  -0.0000007658   0.0000000801
       -0.0000042507  -0.0000029690  -0.0000015289  -0.0000052927   0.0000002691
        0.0000016076   0.0000029890   0.0000012306   0.0000023266  -0.0000072168
        0.0000025566  -0.0000009907   0.0000112349  -0.0000034647   0.0013414815
        0.0009600796  -0.0009554931
        0.0000470161  -0.0116703361   0.4670958140   0.0602663319  -0.0316696080
       -0.1751894489   0.0133451350  -0.0003848090  -0.0212190394   0.0034083209
        0.0022984431   0.0016297337   0.0002671967  -0.0004468848  -0.0005076308
        0.0027384025  -0.0011131262   0.0034532028   0.0001574070  -0.0007237293
       -0.0006467816  -0.0003594501   0.0000698581   0.0001075505   0.0000697333
       -0.0001320683  -0.0000546131  -0.0000436218  -0.0000131048  -0.0000094368
        0.0000206511  -0.0000114788  -0.0000092272  -0.0000734511   0.0000538762
        0.0000368617   0.0000062459  -0.0000044010   0.0000046993   0.0001032620
        0.0000503134   0.0000220887   0.0003680981   0.0002385435  -0.0000879293
       -0.0000438931  -0.0000419022  -0.0000469217   0.0000700161  -0.0000056883
       -0.0000195124  -0.0000185427   0.0000063806   0.0000184042   0.0000518709
        0.0000733454  -0.0000157447  -0.0001533759   0.0000968601   0.0000053427
        0.0000362531   0.0000463874  -0.0000106771   0.0000424972  -0.0000822328
        0.0000602507  -0.0000486416   0.0001065768  -0.0000942965   0.0000134697
        0.0000242133   0.0000184473  -0.0000118791  -0.0001043419  -0.0000800465
       -0.0000337064   0.0000571022  -0.0000234145  -0.0001527015  -0.0000325138
        0.0000378238   0.0001503770   0.0001441791   0.0000274948  -0.0001682655
       -0.0001553098   0.0001229220  -0.0000105499  -0.0000277533  -0.0000001558
        0.0000126437  -0.0000254117   0.0000092370   0.0000191137  -0.0000457285
       -0.0000068902   0.0000378256   0.0000092875   0.0000105071  -0.0000407250
        0.0000147796  -0.0000055502   0.0000441641   0.0000235698   0.0000018641
       -0.0000597981  -0.0000092189  -0.0000028425   0.0000426848  -0.0000359208
        0.0000181283   0.0000171738  -0.0000000052  -0.0000075665   0.0000311467
       -0.0000229675  -0.0000006123  -0.0000550123   0.0000143930  -0.0000006312
        0.0000000193  -0.0000126657   0.0000018716  -0.0000048052   0.0000386195
       -0.0000010320  -0.0000640805  -0.0000298545   0.0000155473   0.0000319377
        0.0000081885  -0.0000032885  -0.0000080558   0.0000104280  -0.0000084561
        0.0000082810   0.0000009347  -0.0000195330  -0.0000052792   0.0000016925
       -0.0000013053   0.0000017377  -0.0000005106  -0.0000016081  -0.0000034782
        0.0000034334  -0.0000051176   0.0000029280   0.0000027289   0.0000021363
        0.0000005714  -0.0000053968   0.0000083440   0.0000013549   0.0000038903
        0.0000011461  -0.0000312397  -0.0000177658  -0.0000018496  -0.0000049940
       -0.0000029379   0.0000062472  -0.0000083999  -0.0000104382  -0.0000035758
        0.0000306826   0.0000120308  -0.0000033160  -0.0000017255  -0.0000139464
       -0.0000041460   0.0000015557   0.0000181502   0.0000083506   0.0000508468
       -0.0000163380  -0.0000172807  -0.0000293087  -0.0000169591   0.0000082221
        0.0000155782   0.0000042110   0.0000005093  -0.0000055035  -0.0000003053
        0.0000051912   0.0000056579   0.0000005743  -0.0000041327  -0.0000047119
       -0.0000023697   0.0000037364   0.0000079417   0.0000029464  -0.0000033004
       -0.0000054763   0.0000004828   0.0000024248  -0.0000048768  -0.0000055011
       -0.0000076566  -0.0000063681   0.0000521917   0.0000130283   0.0000231475
        0.0000342051  -0.0000019638   0.0000398610  -0.0000572370  -0.0000158284
       -0.0000368084   0.0000228333   0.0000147274   0.0000113385   0.0000115502
       -0.0000062799   0.0000064958  -0.0000101171   0.0000071572   0.0000048983
        0.0000029224  -0.0000000604  -0.0000029874  -0.0000044853   0.0000072801
       -0.0000004763   0.0000118315  -0.0000206612   0.0000015457  -0.0000039190
        0.0000087608  -0.0000140066   0.0000102504   0.0000039951  -0.0000000975
       -0.0000032455  -0.0000062677   0.0000147971  -0.0000053024  -0.0000107957
        0.0000025754  -0.0000037542  -0.0000041040   0.0000029278   0.0000031832
       -0.0000040388  -0.0000036061  -0.0000051672   0.0000145293   0.0000003079
        0.0000006374  -0.0000064002  -0.0000138949   0.0000048454   0.0000059790
       -0.0000131711  -0.0000175590   0.0000047223  -0.0000356444  -0.0000245670
       -0.0000069453  -0.0000194008   0.0000126939   0.0000042799   0.0000080958
        0.0000440316   0.0000097561  -0.0000094325  -0.0000593772   0.0000036532
       -0.0000194069   0.0000550526  -0.0000207162   0.0000101486   0.0000093190
       -0.0000056903  -0.0000305877  -0.0000695728  -0.0000396077   0.0000092255
        0.0000578714   0.0000013454   0.0000157982  -0.0000693493   0.0000287198
       -0.0000038809   0.0000738342  -0.0000543798   0.0000289926  -0.0000216264
        0.0000791227   0.0073453192  -0.0104258309  -0.0136448003  -0.0065068142
        0.0187135872  -0.0414515981   0.0386675330   0.0370029190  -0.0530064067
       -0.1158036176  -0.0023418435  -0.1651181572  -0.0016649582  -0.0007982936
       -0.0000126645   0.0003212606  -0.0001734504  -0.0007601003  -0.0007637631
        0.0001432035  -0.0003987131   0.0000060667   0.0000126812  -0.0000042691
        0.0000090902  -0.0000052512  -0.0000182940   0.0000095571  -0.0000090938
       -0.0000121945  -0.0000069224  -0.0000007866  -0.0000142708   0.0000152490
       -0.0000122408   0.0000047783   0.0000008818   0.0000040327   0.0000016210
       -0.0000597739  -0.0000078540  -0.0000558915  -0.0000060440   0.0000011146
        0.0000002419   0.0000664826  -0.0000881603   0.0000306813  -0.0000041487
        0.0000037785  -0.0000093879  -0.0000103531   0.0000167551  -0.0000098855
       -0.0000190551  -0.0001213018  -0.0001573331   0.0000005507   0.0000048939
       -0.0000010707  -0.0000052877  -0.0000005277  -0.0000014161  -0.0000061615
       -0.0000004093  -0.0000017072  -0.0000055949  -0.0000061127   0.0000039260
        0.0000022252  -0.0000001816  -0.0000008582   0.0000003652  -0.0000042752
        0.0000042986   0.0000017975  -0.0000012739  -0.0000004102   0.0000046921
       -0.0000019356  -0.0000021541  -0.0000040044  -0.0000026517   0.0000036661
        0.0000064514  -0.0000040132   0.0000053389   0.0000021391  -0.0000004342
        0.0000018774   0.0000006480   0.0000027969   0.0000035480   0.0000029032
       -0.0000049129   0.0000003459  -0.0000068938   0.0000008218   0.0000013217
        0.0000022848   0.0000027447   0.0000072104  -0.0000038661   0.0000008136
        0.0000007802  -0.0000026655   0.0000010474  -0.0000010916  -0.0000011892
       -0.0000013604  -0.0000010778  -0.0000016219  -0.0000008215   0.0000019335
        0.0000013270   0.0000006573  -0.0000004255   0.0000000057  -0.0000005229
       -0.0000006144   0.0000005276  -0.0000000553   0.0000014534  -0.0000023195
       -0.0000003565   0.0000000076  -0.0000005409   0.0000002509   0.0000003148
       -0.0000015447  -0.0000013714   0.0000003841   0.0000010888   0.0000005180
        0.0000003402   0.0000007725   0.0000000292  -0.0000000829   0.0000000846
        0.0000017644  -0.0000005652   0.0000026106   0.0000022901   0.0000020981
       -0.0000002543   0.0000020804   0.0000002160  -0.0000044959  -0.0000006071
       -0.0000000285  -0.0000033895  -0.0000024962   0.0000012858   0.0000006635
        0.0000008153   0.0000047253  -0.0000011708  -0.0000023397   0.0000002123
       -0.0000005433  -0.0000014636  -0.0000022880   0.0000026871  -0.0000031874
       -0.0000044101  -0.0000051539  -0.0000008992   0.0000021454  -0.0000038564
        0.0000063033   0.0000024601  -0.0000004366   0.0000047917  -0.0000012639
       -0.0000012898   0.0000000900  -0.0000028783   0.0000000971   0.0000018091
        0.0000027230   0.0000033650   0.0000019368  -0.0000003830   0.0000019556
       -0.0000001483   0.0000034989   0.0000025080   0.0000010827  -0.0000025562
        0.0000018442   0.0000028775   0.0000053359  -0.0000014459  -0.0000023577
        0.0000000334  -0.0000025869   0.0000044474  -0.0000009929  -0.0016142373
        0.0014910240  -0.0000214116
       -0.0934824410   0.0155655067   0.0602663319   0.2814056094   0.0697464436
       -0.2057891763  -0.1084069474  -0.0968600620   0.0670124968  -0.0191809722
        0.0056823825   0.0338976236  -0.0061967130  -0.0159814843  -0.0019541352
        0.0054614325   0.0152002872  -0.0093290315   0.0031705554   0.0017480134
        0.0053027396   0.0000546371  -0.0002152403   0.0009793485  -0.0002196490
        0.0000149762  -0.0000065263   0.0000120046   0.0001062490  -0.0000941643
       -0.0000360505  -0.0000769901  -0.0000948605  -0.0000564368   0.0001542213
        0.0001544563  -0.0000105715  -0.0000016637   0.0000144686   0.0003371813
       -0.0001236174  -0.0000647514   0.0001977050   0.0000504297   0.0005678727
       -0.0001111919  -0.0001354345  -0.0000756091   0.0003761910  -0.0000132401
       -0.0000836940  -0.0001320457  -0.0001433350   0.0000883161   0.0002286584
        0.0003132393  -0.0001190037  -0.0005423931   0.0000700349  -0.0000760805
        0.0000687270   0.0002627968   0.0000106822   0.0000538842  -0.0003424829
        0.0000100293  -0.0000845864   0.0002666228  -0.0002046093   0.0000104975
        0.0000348329   0.0000606072  -0.0000411544  -0.0002583178  -0.0000993890
       -0.0000278549   0.0003500413  -0.0000818920   0.0001910549  -0.0004022685
       -0.0000071189  -0.0002409478   0.0002086732  -0.0002676490   0.0002337435
       -0.0000383554   0.0004136440  -0.0002972308  -0.0000764328  -0.0000475414
        0.0002367675  -0.0000602714   0.0000346693  -0.0000920104  -0.0001780564
       -0.0000490192   0.0001260361   0.0000527385   0.0000658581  -0.0001303376
        0.0000814009  -0.0000436628   0.0000739274   0.0000453698   0.0000067749
       -0.0000385157   0.0000780249  -0.0000049193   0.0001073094  -0.0001486842
        0.0000407154   0.0000434232   0.0000703334  -0.0000441791   0.0001080632
       -0.0000948053   0.0000062951  -0.0001602464   0.0000233475   0.0000140000
       -0.0000022030  -0.0000121995   0.0000012203  -0.0000010644   0.0001177741
       -0.0000115090  -0.0002468086  -0.0001410536   0.0000685629   0.0001120026
        0.0001183016  -0.0000643631  -0.0000371543   0.0000220278   0.0000046260
        0.0000186729   0.0000039181  -0.0000097458  -0.0000030736   0.0000000069
       -0.0000039413  -0.0000000960   0.0000030559  -0.0000018501  -0.0000099165
        0.0000008439   0.0000118566   0.0000064860   0.0000027063  -0.0000054318
        0.0000139656  -0.0000023049   0.0000078644   0.0000519602   0.0000174846
        0.0000217385  -0.0000849021  -0.0001518405  -0.0000602524  -0.0000570396
        0.0000149191   0.0000253565  -0.0000005088   0.0000023149   0.0000017102
       -0.0000193561   0.0000854147   0.0000269076  -0.0000004714   0.0000002401
       -0.0000001436   0.0000643381  -0.0000844807  -0.0000294369   0.0001001340
        0.0000933476   0.0000109450   0.0000034431   0.0000253350   0.0000177321
       -0.0000116078   0.0000002047   0.0000081963  -0.0000033446   0.0000039052
        0.0000081698  -0.0000017820  -0.0000018435   0.0000049276   0.0000083467
        0.0000015508   0.0000009112   0.0000001419   0.0000010008  -0.0000056332
       -0.0000033658   0.0000003709  -0.0000000981  -0.0000016797  -0.0000096667
       -0.0000077052   0.0000433961  -0.0000368661  -0.0000097422   0.0000100962
        0.0001934272   0.0000365463   0.0000402913  -0.0001982169  -0.0000574212
        0.0000398565  -0.0000203683   0.0000001936  -0.0000489262  -0.0000387259
        0.0000166745   0.0000355486  -0.0000203038   0.0000036233   0.0000013874
       -0.0000157259   0.0000265224   0.0000102381   0.0000068879  -0.0000081691
       -0.0000244267   0.0000099221  -0.0000135797   0.0000000383  -0.0000019272
        0.0000037960  -0.0000142757   0.0000425573  -0.0000099748   0.0000069029
        0.0000573507  -0.0000090067   0.0000327534  -0.0000204357  -0.0000170275
        0.0000108638   0.0000053018  -0.0000233767   0.0000039899  -0.0000140275
        0.0000007314  -0.0000159742   0.0000223789   0.0000225199   0.0000018919
        0.0000021792  -0.0000021106  -0.0000317006  -0.0000101466   0.0000212103
       -0.0000391234  -0.0000051293   0.0000009633   0.0000438585  -0.0000751879
       -0.0000194228  -0.0001032906   0.0001278946   0.0000212791  -0.0000507436
       -0.0000155426   0.0000065339   0.0000038343   0.0000659586   0.0000070023
       -0.0000000556  -0.0000888246   0.0000019445   0.0000256828   0.0000333554
        0.0000440755   0.0000211677   0.0000535185   0.0000307652  -0.0000060987
       -0.0000521389  -0.0000020429  -0.0000072387   0.0000408685  -0.0000379701
       -0.0000474738  -0.0000751100  -0.0000742547   0.0000143349   0.0000114569
        0.0000291115  -0.0594260883   0.0152587857   0.0255739957  -0.0060381914
        0.0061441008   0.0126106486  -0.0114341453   0.0024389623   0.0211243910
        0.0098097671  -0.0038588739  -0.0129202475  -0.0000157828  -0.0009641324
        0.0001284864   0.0044410959  -0.0001441567   0.0055692078   0.0000951743
       -0.0002177206  -0.0003159155  -0.0000042216  -0.0000011624  -0.0000082384
       -0.0000111646   0.0000052490   0.0000223414  -0.0000020832  -0.0000119006
        0.0000025368  -0.0000099801  -0.0000031030  -0.0000084378   0.0000053949
       -0.0000082673  -0.0000002560  -0.0000072922  -0.0000030993  -0.0000024716
       -0.0000643506  -0.0000026412   0.0000150250  -0.0000026719  -0.0000235814
        0.0000436149   0.0000189788  -0.0000651354  -0.0001205907   0.0000182223
        0.0000136245   0.0000346534   0.0000165685   0.0000128918   0.0000065551
       -0.0002115448   0.0001809877   0.0002178808   0.0000028939   0.0000067171
       -0.0000032986   0.0000102513  -0.0000035317  -0.0000155417  -0.0000029101
       -0.0000004227   0.0000003125  -0.0000024863  -0.0000021868   0.0000056367
        0.0000045793  -0.0000004999  -0.0000006625   0.0000015335  -0.0000031332
        0.0000039509   0.0000020577  -0.0000030539  -0.0000013119   0.0000044017