$hessian                                                                        
        0.4609099034  -0.0502716287   0.0121327194  -0.1376464216  -0.0595393957
        0.0356649873  -0.0391067700  -0.0101306684   0.0129345508  -0.0037821010
        0.0029265502   0.0015439861  -0.0014807009  -0.0015026550   0.0010935772
       -0.0010265419   0.0004837181   0.0002813080  -0.0003452659  -0.0001247555
        0.0004275964   0.0013093497  -0.0005044170  -0.0010140517   0.0000270454
        0.0000550484  -0.0000279646   0.0001983453  -0.0000481837  -0.0001081189
        0.0003817012   0.0004830371  -0.0001584788  -0.0002744869  -0.0005091126
        0.0001002033  -0.0000377403   0.0001124509   0.0000324764  -0.0001795769
       -0.0000655136   0.0000545615  -0.0001064905   0.0001045616   0.0000357367
        0.0002204534   0.0000567959   0.0000465781   0.0014098760  -0.0004250938
       -0.0004626071  -0.0011737382  -0.0004928597   0.0001998671   0.0002818380
        0.0004347676  -0.0001676092  -0.0004841287  -0.0001111624   0.0000908624
        0.0003146585  -0.0000880250  -0.0000228698  -0.0007182290   0.0000239541
        0.0000139152   0.0004814980  -0.0001653711   0.0001172595  -0.0001851563
       -0.0001194738   0.0000073112   0.0000095854   0.0000207995   0.0000036332
        0.0000097305  -0.0000210850  -0.0000061184  -0.0001698400  -0.0001572984
       -0.0000522788   0.0001981727   0.0000934128   0.0000648662  -0.0000445511
        0.0000242645  -0.0000107504   0.0000277127   0.0000853802   0.0000016061
       -0.0000160577  -0.0001008889  -0.0000059251   0.0000467028   0.0000931027
        0.0000109815  -0.0000321704  -0.0000880347  -0.0000151446  -0.0000378704
        0.0002304885   0.0000012495   0.0001013719  -0.0001989982   0.0000208651
       -0.0000532819   0.0000107347  -0.0000176495   0.0000204098   0.0000140292
        0.0000067087  -0.0000111510  -0.0000325043  -0.0000217013  -0.0000403662
        0.0001959624  -0.0000574317   0.0006832145  -0.0001096666   0.0000712556
       -0.0000021416   0.0001652121  -0.0001479525   0.0000140002  -0.0000846360
        0.0000981587  -0.1635629688   0.1192052761   0.0319187772  -0.0578427949
        0.0323252201  -0.0507025325  -0.0564508347  -0.0327153340  -0.0444952806
       -0.0000817916   0.0002366810   0.0000244473  -0.0004572452   0.0002293296
        0.0000712292  -0.0013946305   0.0000827549   0.0003862324  -0.0000286632
       -0.0000409538   0.0000417880   0.0000213342   0.0000025581  -0.0000087900
       -0.0000115666  -0.0000337019   0.0000084298   0.0000247323   0.0000006172
       -0.0000163079   0.0000092781  -0.0000161966   0.0000010754   0.0000229866
        0.0000081934  -0.0000110058   0.0000063771   0.0000126915  -0.0000121977
       -0.0000065580  -0.0000154896   0.0000041889   0.0000013936   0.0000084927
        0.0000025195   0.0000009257  -0.0000089186  -0.0000032000  -0.0000003942
       -0.0000082088   0.0000019907   0.0000079975   0.0000041859   0.0000028868
        0.0000102405  -0.0000067076   0.0000017833   0.0000118569  -0.0000002250
        0.0000075156   0.0000049656   0.0000066129   0.0000028930   0.0000092672
        0.0000082186  -0.0000031641   0.0000045475  -0.0000081167  -0.0000001104
       -0.0000049603  -0.0000034102   0.0000009154   0.0000157134   0.0000035882
        0.0000157476
       -0.0502716287   0.4924319991   0.0168214444  -0.0758166374  -0.1421196813
        0.0334492408   0.0062180342   0.0164696594  -0.0037062487   0.0010992804
       -0.0012359627  -0.0001786503   0.0010359621  -0.0008244219  -0.0002127195
       -0.0006078350   0.0011430392   0.0000573924  -0.0002316552   0.0008222138
        0.0000830021   0.0031507489   0.0004823878  -0.0012549742  -0.0000157193
        0.0001219826  -0.0000110096   0.0001760977   0.0000168985  -0.0000844831
        0.0003531361   0.0004395414  -0.0001576671  -0.0002847932  -0.0004291560
        0.0001123999  -0.0000099313   0.0000579096   0.0000115936  -0.0001514303
       -0.0000708819   0.0000498305  -0.0000732100   0.0001214250   0.0000289751
        0.0001228048   0.0001722830   0.0000315848   0.0011346012  -0.0003883330
       -0.0003203196  -0.0008563234  -0.0002806858   0.0001140316   0.0002681230
        0.0001733642  -0.0001091488  -0.0003966302  -0.0000687411   0.0000612898
        0.0002351892  -0.0000956506   0.0000084395  -0.0005298712   0.0000304384
        0.0000105687   0.0003599763  -0.0001335792   0.0000851082  -0.0001236708
       -0.0000817326   0.0000067666   0.0000094417   0.0000192844   0.0000029866
       -0.0000027923  -0.0000135198  -0.0000063316  -0.0001074842  -0.0001050194
       -0.0000334865   0.0001263846   0.0000560034   0.0000426048  -0.0000261671
        0.0000187804  -0.0000077286   0.0000237543   0.0000612251   0.0000032203
       -0.0000168813  -0.0000685613  -0.0000059107   0.0000294208   0.0000720957
        0.0000068494  -0.0000212985  -0.0000685323  -0.0000083781  -0.0000255447
        0.0001638328  -0.0000026339   0.0000643448  -0.0001378093   0.0000162612
       -0.0000302624   0.0000070144  -0.0000132631   0.0000122247   0.0000155439
        0.0000074332  -0.0000017148  -0.0000178126  -0.0000085923  -0.0000375868
        0.0001404350  -0.0000461912   0.0004761671  -0.0001055873   0.0000992503
        0.0000144025   0.0002150752  -0.0002236870  -0.0000173797  -0.0000971466
        0.0001200338   0.1132201993  -0.1482599964  -0.0311954072   0.0323477139
       -0.0945669432   0.0865289084  -0.0322415333  -0.1234741189  -0.0997521604
       -0.0000980244   0.0000996585   0.0000317757   0.0000075315   0.0000270509
       -0.0000090568   0.0015143430  -0.0006331989  -0.0004907517  -0.0000652189
       -0.0000704744   0.0000373255   0.0000091431   0.0000024334  -0.0000097847
       -0.0000100332  -0.0000213745   0.0000061384   0.0000143946   0.0000020608
       -0.0000044230  -0.0000004682  -0.0000046383   0.0000046337   0.0000039693
        0.0000013685  -0.0000024345   0.0000045327   0.0000001321  -0.0000056546
       -0.0000003166  -0.0000134980   0.0000037582  -0.0000002248   0.0000014966
        0.0000012577  -0.0000000777  -0.0000041771  -0.0000006621  -0.0000003707
       -0.0000043874   0.0000010028   0.0000028666   0.0000015441   0.0000011630
        0.0000060782  -0.0000029917  -0.0000000955   0.0000058965   0.0000004583
        0.0000034029   0.0000038946   0.0000055874   0.0000015670   0.0000054734
        0.0000051136   0.0000000222   0.0000032157  -0.0000035085  -0.0000001575
       -0.0000010336  -0.0000015784  -0.0000001828   0.0000144023   0.0000043642
        0.0000109319
        0.0121327194   0.0168214444   0.4796468862   0.0369646026   0.0277431728
       -0.0628468901   0.0116203024   0.0019874053  -0.0082587237   0.0017446632
       -0.0008129345   0.0007792841   0.0008398394   0.0007282561   0.0010449213
        0.0005482325  -0.0002120286   0.0001856287   0.0004081693   0.0000404241
        0.0007446611  -0.0012597937   0.0000012289  -0.0012495824  -0.0000228246
       -0.0000454663  -0.0000258425  -0.0001105241   0.0000062399  -0.0000240587
       -0.0001368313  -0.0002188112   0.0001232275   0.0001025518   0.0002287981
       -0.0001056800   0.0000259969  -0.0000413433   0.0000201533   0.0000619628
        0.0000352079  -0.0000321363   0.0000473138  -0.0000688749  -0.0000165733
       -0.0000949481  -0.0000538620   0.0000050239  -0.0006712489   0.0001591680
       -0.0001755386   0.0004922909   0.0001236138  -0.0000612893  -0.0002296866
       -0.0001256702  -0.0000020016   0.0002867906   0.0000460017   0.0000105573
       -0.0001759663   0.0000862833  -0.0000538972   0.0002776358  -0.0000404838
        0.0000433983  -0.0002045216   0.0000691808  -0.0000614357   0.0000789193
        0.0000496777   0.0000046678  -0.0000061015  -0.0000131003  -0.0000063892
       -0.0000014108   0.0000098804  -0.0000013438   0.0000593649   0.0000571263
        0.0000240359  -0.0000670845  -0.0000331585  -0.0000297877   0.0000156189
       -0.0000104900   0.0000085769  -0.0000144809  -0.0000387165  -0.0000065126
        0.0000073013   0.0000427457   0.0000022242  -0.0000131956  -0.0000399512
       -0.0000037116   0.0000111505   0.0000409115   0.0000003985   0.0000120486
       -0.0000931548   0.0000034292  -0.0000400810   0.0000780001  -0.0000175818
        0.0000193063  -0.0000020318   0.0000117332  -0.0000022201  -0.0000095759
       -0.0000060629   0.0000118445   0.0000138199   0.0000070160   0.0000141869
       -0.0000747032   0.0000274476  -0.0002683059   0.0000939392  -0.0000447437
       -0.0000061772  -0.0001368700   0.0001891274   0.0000128086   0.0000549551
       -0.0001228397   0.0323734418  -0.0332804963  -0.0534067461  -0.0513183705
        0.0871301732  -0.1916777581  -0.0439329953  -0.1001739971  -0.1640959963
        0.0000489480  -0.0000857455   0.0000212981   0.0001266945  -0.0000932673
       -0.0002366310   0.0002435015   0.0000061220  -0.0003974243   0.0000406729
        0.0000256549   0.0000515766  -0.0000201921  -0.0000021519  -0.0000012932
        0.0000072725   0.0000137978   0.0000027819  -0.0000051326  -0.0000004674
       -0.0000053460   0.0000007768   0.0000080906   0.0000071635  -0.0000069907
        0.0000013654   0.0000129891  -0.0000012819   0.0000005915   0.0000092484
        0.0000015398   0.0000074544   0.0000038059  -0.0000009229  -0.0000038572
        0.0000021389   0.0000002819   0.0000022207  -0.0000007425   0.0000013671
        0.0000036106  -0.0000031267  -0.0000023910  -0.0000020799  -0.0000012256
       -0.0000038471   0.0000026556   0.0000007888  -0.0000059892  -0.0000005996
       -0.0000023157  -0.0000017555  -0.0000043711  -0.0000051927  -0.0000027152
       -0.0000025511  -0.0000016459  -0.0000018493   0.0000019401  -0.0000015370
        0.0000006087  -0.0000002278   0.0000010780  -0.0000108906  -0.0000001188
       -0.0000056640
       -0.1376464216  -0.0758166374   0.0369646026   0.4493146866   0.0037892147
       -0.1345867578  -0.1937694567   0.0939496326   0.0478864984  -0.0468111633
        0.0068047038   0.0169371209  -0.0008611808  -0.0027061637   0.0019352212
        0.0056208136  -0.0003977477  -0.0011575300  -0.0017174501   0.0011755376
        0.0029520019  -0.0150454084   0.0166830222   0.0055515322  -0.0002938339
       -0.0014190433   0.0003326571  -0.0006622070   0.0004066973   0.0003032559
       -0.0013405754  -0.0023744739   0.0005219152   0.0011268249   0.0024353810
       -0.0004057657   0.0002362263  -0.0004312363  -0.0000818075   0.0004885046
        0.0002273649  -0.0001107010   0.0002453613  -0.0003190939  -0.0000931472
       -0.0013224435  -0.0011061406  -0.0002416232  -0.0077905628   0.0023218580
        0.0016409958   0.0060980627   0.0025484991  -0.0011022589  -0.0016126304
       -0.0022121347   0.0010004887   0.0025913177   0.0006418361  -0.0004320368
       -0.0018118449   0.0003261534   0.0000561226   0.0035461643   0.0001017113
       -0.0001339374  -0.0023967454   0.0007339340  -0.0005344324   0.0009234423
        0.0005792520  -0.0000102971  -0.0000669170  -0.0001352964  -0.0000355365
       -0.0000249505   0.0001107433   0.0000159962   0.0007329226   0.0006883817
        0.0002262426  -0.0008462560  -0.0004198133  -0.0002855608   0.0002064534
       -0.0001238852   0.0000667506  -0.0001622770  -0.0004215434  -0.0000170574
        0.0000713554   0.0004644655   0.0000186154  -0.0001503504  -0.0004473569
       -0.0000387936   0.0001194224   0.0004463738   0.0000521401   0.0001413218
       -0.0009931876  -0.0000080892  -0.0004557687   0.0008489392  -0.0001055936
        0.0002412597  -0.0000482035   0.0000947156  -0.0000497513  -0.0001188149
       -0.0000306325   0.0000687779   0.0001645902   0.0000964314   0.0001960726
       -0.0008899899   0.0002585444  -0.0034602894   0.0006423124  -0.0004424829
        0.0000768911  -0.0011374130   0.0012002085  -0.0001421924   0.0005781280
       -0.0007119562  -0.0308809310  -0.0138107419   0.0121124599  -0.0010759370
       -0.0100208526   0.0116631885  -0.0210393514  -0.0217480789   0.0002500789
        0.0009955216   0.0005795819  -0.0013342079  -0.0006320206   0.0003641947
        0.0001293174  -0.0005744774  -0.0007276600  -0.0003286519   0.0000820726
       -0.0000021691  -0.0000605661  -0.0000894906  -0.0000130570   0.0000376055
        0.0000193914   0.0000882643  -0.0000158544  -0.0000943767   0.0000002151
        0.0000596761  -0.0000703908   0.0001149750  -0.0000238342  -0.0000853778
        0.0000129246   0.0000236661  -0.0000489082  -0.0000203989   0.0000812138
        0.0000637904   0.0000796772  -0.0000022943  -0.0000012654  -0.0000436992
       -0.0000071976   0.0000092047   0.0000396147   0.0000130391   0.0000134645
        0.0000402170  -0.0000090238  -0.0000234371  -0.0000245710  -0.0000092841
       -0.0000405252   0.0000235357  -0.0000033249  -0.0000564072   0.0000008592
       -0.0000301044  -0.0000181357  -0.0000431641  -0.0000152241  -0.0000361018
       -0.0000453366   0.0000070946  -0.0000160527   0.0000333227  -0.0000014078
        0.0000297034   0.0000051178  -0.0000023395  -0.0000351665  -0.0000333272
       -0.0000800849
       -0.0595393957  -0.1421196813   0.0277431728   0.0037892147   0.3313667771
       -0.0216047543   0.0683226519  -0.1373700186  -0.0159504737  -0.0144741318
        0.0127414232   0.0043822400  -0.0027167458  -0.0035108860   0.0014334351
       -0.0021744747   0.0009406309   0.0002718218  -0.0003394938  -0.0068905045
        0.0011598707   0.0405181268  -0.0271097734  -0.0116816770   0.0016044533
       -0.0000966944  -0.0005107341   0.0002808746   0.0000213117  -0.0001285966
        0.0005464946   0.0008500370  -0.0002090874  -0.0003580558  -0.0009894135
        0.0001304381  -0.0001348640   0.0001975054   0.0000363620  -0.0002580681
       -0.0001289236   0.0000719558  -0.0000086827   0.0002503048  -0.0000021751
        0.0005774488  -0.0000734695   0.0000521392   0.0038210366  -0.0008055471
       -0.0008985686  -0.0030941982  -0.0015740998   0.0006557429   0.0006098007
        0.0014706040  -0.0004117018  -0.0011539809  -0.0003604528   0.0001949099
        0.0008596965  -0.0000231596  -0.0000933354  -0.0016625414  -0.0001893610
        0.0001087649   0.0010938614  -0.0002852435   0.0002467253  -0.0004416867
       -0.0002713958  -0.0000046030   0.0000274824   0.0000434808   0.0000228387
        0.0000180829  -0.0000470351  -0.0000018421  -0.0003460806  -0.0003208456
       -0.0001099407   0.0003939788   0.0002124735   0.0001365456  -0.0000902983
        0.0000504745  -0.0000334782   0.0000638863   0.0001848550   0.0000054435
       -0.0000182478  -0.0002089034  -0.0000035655   0.0000546672   0.0002041374
        0.0000144887  -0.0000443224  -0.0001989300  -0.0000200571  -0.0000527522
        0.0004135397   0.0000094315   0.0001977539  -0.0003519074   0.0000434964
       -0.0001114673   0.0000202637  -0.0000428791   0.0000134313   0.0000584752
        0.0000083373  -0.0000425889  -0.0000778604  -0.0000504776  -0.0000755445
        0.0003852196  -0.0001096431   0.0017294229  -0.0003429125   0.0001644366
       -0.0000669907   0.0005269851  -0.0005977048   0.0001035835  -0.0002580704
        0.0003597547   0.0119270529   0.0117750225  -0.0049584396  -0.0206604435
       -0.0193723566   0.0153422758  -0.0277825702  -0.0226063850   0.0050410557
        0.0003707658   0.0014558910  -0.0004496575  -0.0009908979   0.0001966415
        0.0003685136  -0.0006236754   0.0022586677  -0.0000590306   0.0000238625
        0.0000761699  -0.0000052407   0.0000552300   0.0000034045  -0.0000112211
       -0.0000038067  -0.0000332737   0.0000035922   0.0000476737  -0.0000044693
       -0.0000333173   0.0000498100  -0.0000699786   0.0000054986   0.0000855670
       -0.0000366970  -0.0000393632   0.0000370805   0.0000289310  -0.0000527992
       -0.0000333290  -0.0000328033  -0.0000057149   0.0000057485   0.0000260593
        0.0000024703  -0.0000065102  -0.0000178293  -0.0000046871  -0.0000072732
       -0.0000195107   0.0000029668   0.0000109414   0.0000128379   0.0000037052
        0.0000179255  -0.0000088373   0.0000007799   0.0000295508  -0.0000013130
        0.0000144198   0.0000082730   0.0000200764   0.0000097386   0.0000185928
        0.0000224961  -0.0000057292   0.0000062785  -0.0000171945   0.0000008349
       -0.0000164724  -0.0000007094   0.0000016109   0.0000092889   0.0000117501
        0.0000406817
        0.0356649873   0.0334492408  -0.0628468901  -0.1345867578  -0.0216047543
        0.1110844053   0.0499158964  -0.0248001711  -0.0507649346   0.0186734528
       -0.0030723565  -0.0025617384   0.0018322958   0.0015510957   0.0031432744
       -0.0017474268   0.0000797083   0.0003783579   0.0029544199   0.0006581741
        0.0057754075   0.0037563260  -0.0034830823   0.0035726389   0.0000073514
        0.0004939863   0.0003374062   0.0002335224  -0.0001555954  -0.0000767711
        0.0003800440   0.0006876772  -0.0002337620  -0.0003002996  -0.0006917593
        0.0001633522  -0.0000802529   0.0001438875   0.0000118870  -0.0001437336
       -0.0000437647   0.0000771443  -0.0001140032   0.0000251566   0.0000040283
        0.0003465113   0.0003340555  -0.0003784753   0.0022674539  -0.0007146447
       -0.0011277458  -0.0019991750  -0.0007913462   0.0001648403   0.0005039716
        0.0006443575  -0.0002343051  -0.0008040091  -0.0001655932   0.0001270463
        0.0005431531  -0.0001495777   0.0000109734  -0.0010644908   0.0000388498
       -0.0000107284   0.0007265407  -0.0002225046   0.0001721410  -0.0002838849
       -0.0001778182  -0.0000005611   0.0000136357   0.0000364841   0.0000134652
        0.0000116274  -0.0000337416   0.0000011122  -0.0002364708  -0.0002234289
       -0.0000802434   0.0002713923   0.0001388310   0.0000988478  -0.0000625565
        0.0000389521  -0.0000272092   0.0000382761   0.0001301985   0.0000058016
       -0.0000176030  -0.0001441535  -0.0000036630   0.0000535380   0.0001352128
        0.0000151335  -0.0000463798  -0.0001342132  -0.0000144326  -0.0000400801
        0.0003029447  -0.0000012425   0.0001377111  -0.0002519350   0.0000407868
       -0.0000771651   0.0000157446  -0.0000340988   0.0000198674   0.0000332882
        0.0000163339  -0.0000268678  -0.0000644263  -0.0000329543  -0.0000460895
        0.0002659798  -0.0000808862   0.0010878611  -0.0002030207   0.0001730559
       -0.0000104754   0.0002784441  -0.0003097328   0.0000238592  -0.0001425748
        0.0002280396   0.0101538943   0.0039533089  -0.0027505860   0.0257423745
        0.0221123338  -0.0117570141  -0.0125188743  -0.0075018912   0.0113921844
       -0.0013179227  -0.0005316928  -0.0022160116   0.0003687819  -0.0001361568
        0.0000632205  -0.0003021743  -0.0000616716  -0.0014687746  -0.0000378084
        0.0000036678  -0.0000171129   0.0000370335   0.0000023806  -0.0000073777
       -0.0000099155  -0.0000321939   0.0000027861   0.0000252294   0.0000007590
       -0.0000095934   0.0000213258  -0.0000296268   0.0000022999   0.0000114615
        0.0000123408  -0.0000423363   0.0000087997  -0.0000017051  -0.0000208389
       -0.0000199727  -0.0000252591  -0.0000061408   0.0000013595   0.0000142430
       -0.0000017561  -0.0000037261  -0.0000101242  -0.0000017109  -0.0000047385
       -0.0000133116   0.0000037918   0.0000075937   0.0000084714   0.0000016162
        0.0000131901  -0.0000064707  -0.0000007973   0.0000189541   0.0000007814
        0.0000084701   0.0000064827   0.0000149641   0.0000074903   0.0000106691
        0.0000131073   0.0000001361   0.0000055830  -0.0000104620   0.0000011000
       -0.0000094076   0.0000016613  -0.0000008978   0.0000158342   0.0000107395
        0.0000227485
       -0.0391067700   0.0062180342   0.0116203024  -0.1937694567   0.0683226519
        0.0499158964   0.5537504447  -0.0131433821  -0.1472605198  -0.1790549597
       -0.1228909333   0.0537496884  -0.0530971091   0.0086664902   0.0174195413
       -0.0074650766  -0.0202770623   0.0014368201   0.0069554076   0.0291149503
       -0.0056094624  -0.0903267335   0.0593027620   0.0108348741  -0.0043844193
        0.0049361898   0.0034491543   0.0003927146  -0.0015568876  -0.0001172154
        0.0006489953   0.0027616245  -0.0004676917  -0.0009681865  -0.0023231040
        0.0003431474  -0.0002724646   0.0004785549   0.0001019150   0.0001540164
       -0.0002156290  -0.0001515962  -0.0006058950   0.0000683838   0.0000763277
        0.0015453638   0.0016053588   0.0001819302   0.0046279026  -0.0012172792
       -0.0009929647  -0.0049398807  -0.0023855342   0.0009097333   0.0012467449
        0.0021569728  -0.0008373698  -0.0022185840  -0.0004510541   0.0003347241
        0.0014788864  -0.0002256752  -0.0001381367  -0.0029978877  -0.0001728691
        0.0001892594   0.0020115078  -0.0005781851   0.0004445417  -0.0007756467
       -0.0004749677   0.0000010683   0.0000492430   0.0000827639   0.0000306213
        0.0000315297  -0.0000873189  -0.0000109200  -0.0006471327  -0.0005969288
       -0.0001997775   0.0007527549   0.0003773077   0.0002536994  -0.0001792501
        0.0001070291  -0.0000647650   0.0001181110   0.0003441961   0.0000076461
       -0.0000482826  -0.0003936096  -0.0000115707   0.0001194468   0.0003786045
        0.0000323596  -0.0000967692  -0.0003652337  -0.0000422666  -0.0001221427
        0.0008286529   0.0000131742   0.0004022022  -0.0007159604   0.0000922766
       -0.0002223253   0.0000422439  -0.0000826746   0.0000331104   0.0000977757
        0.0000181573  -0.0000653963  -0.0001344179  -0.0000894945  -0.0001414857
        0.0007100662  -0.0002061998   0.0029956018  -0.0004598321   0.0003732559
       -0.0001085307   0.0008559854  -0.0009205457   0.0001815735  -0.0004225516
        0.0005920723  -0.0050569375  -0.0026967894   0.0021729030   0.0021320371
        0.0008907230  -0.0023194473   0.0022793186   0.0012876857   0.0010054917
        0.0041660536   0.0024535189  -0.0009231231  -0.0024418039   0.0021885523
        0.0037537162   0.0025888205  -0.0225604447   0.0009933734  -0.0000461075
        0.0002124780   0.0001205809   0.0000944866   0.0000021005  -0.0000294143
       -0.0000146261  -0.0000808360   0.0000137457   0.0000932093  -0.0000096163
       -0.0000668509   0.0000978865  -0.0001116285   0.0000214216   0.0000974863
        0.0000164534  -0.0000245872   0.0000417784   0.0000706016  -0.0000681633
       -0.0000540229  -0.0000487807  -0.0000009097   0.0000034611   0.0000409534
        0.0000044985  -0.0000059829  -0.0000365654  -0.0000119244  -0.0000115701
       -0.0000371386   0.0000092098   0.0000242381   0.0000212691   0.0000078948
        0.0000343273  -0.0000206727   0.0000048834   0.0000500193  -0.0000007471
        0.0000300782   0.0000138423   0.0000354365   0.0000175383   0.0000312260
        0.0000376189  -0.0000073674   0.0000116160  -0.0000286769   0.0000027347
       -0.0000328415  -0.0000043038   0.0000052777   0.0000229126   0.0000106262
        0.0000694242
       -0.0101306684   0.0164696594   0.0019874053   0.0939496326  -0.1373700186
       -0.0248001711  -0.0131433821   0.6622247171  -0.0362779776  -0.0532303463
       -0.1709975314   0.0273741916  -0.0419379332   0.0545071866   0.0110880898
       -0.0117107041  -0.0514125149   0.0083312743   0.0799237638  -0.0285379237
       -0.0261268741  -0.0130307124  -0.3125091764   0.0251009929  -0.0032731645
        0.0122266942   0.0006999427  -0.0006654767  -0.0050154720   0.0005171940
       -0.0036950420   0.0009980471   0.0014217507   0.0006190674   0.0011429328
       -0.0002585242   0.0001448073  -0.0001921380  -0.0000517452   0.0026001518
        0.0014035615  -0.0009830811   0.0002339266  -0.0020349824  -0.0001185734
        0.0035450495   0.0018729332  -0.0013345889  -0.0098797833  -0.0012636563
        0.0023365754   0.0058238055   0.0027902160  -0.0012305154  -0.0010513742
       -0.0026969397   0.0005906624   0.0023183047   0.0006759325  -0.0003679940
       -0.0016810226   0.0002062402   0.0000641989   0.0030175653   0.0002121707
       -0.0001408227  -0.0019409776   0.0006082576  -0.0004702694   0.0007357861
        0.0004802493  -0.0000210238  -0.0000530784  -0.0001186836  -0.0000368600
       -0.0000106209   0.0000937736   0.0000165809   0.0005490465   0.0005412999
        0.0001708941  -0.0006504678  -0.0003223604  -0.0002232122   0.0001547753
       -0.0000970845   0.0000538322  -0.0001342537  -0.0003239888  -0.0000170964
        0.0000600634   0.0003709586   0.0000181265  -0.0001497446  -0.0003422040
       -0.0000374265   0.0001053493   0.0003407458   0.0000420224   0.0000953934
       -0.0007770302  -0.0000049687  -0.0003404812   0.0006773756  -0.0000823484
        0.0001741180  -0.0000400412   0.0000745758  -0.0000394182  -0.0000832456
       -0.0000299829   0.0000140686   0.0001352004   0.0000439535   0.0001903718
       -0.0007767354   0.0002248817  -0.0033879485   0.0010268731  -0.0003748351
       -0.0001629522  -0.0013904471   0.0013957663   0.0000681514   0.0007337215
       -0.0008008572  -0.0023538956  -0.0015214689   0.0009826248  -0.0008579993
        0.0004162053   0.0009816397  -0.0014817100   0.0003712370  -0.0001542337
       -0.0210313857  -0.0234479801   0.0092114107   0.0030167593   0.0003919751
       -0.0004033094  -0.0010574010  -0.0196138785   0.0016785960  -0.0000123231
       -0.0000250058  -0.0000378368  -0.0000490834  -0.0000308673   0.0000212412
        0.0000054093   0.0000387523  -0.0000028714  -0.0000458783  -0.0000222636
        0.0000216956  -0.0000329734   0.0000704610  -0.0000307174   0.0000326954
       -0.0001101468  -0.0000579396  -0.0000381631   0.0000059108   0.0000974327
        0.0000535549   0.0000677373   0.0000054508  -0.0000046519  -0.0000362050
       -0.0000047714   0.0000054194   0.0000301700   0.0000090865   0.0000093997
        0.0000320660  -0.0000095132  -0.0000190791  -0.0000184807  -0.0000077655
       -0.0000361192   0.0000190372  -0.0000032125  -0.0000406730   0.0000044799
       -0.0000220685  -0.0000153299  -0.0000328942  -0.0000103992  -0.0000268957
       -0.0000330443   0.0000045570  -0.0000146390   0.0000265938   0.0000001444
        0.0000132956   0.0000250888   0.0000041651  -0.0000419783  -0.0000440517
       -0.0000365685
        0.0129345508  -0.0037062487  -0.0082587237   0.0478864984  -0.0159504737
       -0.0507649346  -0.1472605198  -0.0362779776   0.1814334619   0.0480840899
        0.0518701602  -0.0721227037   0.0213864879  -0.0077258219  -0.0086512575
        0.0014090029   0.0107694259  -0.0069205389  -0.0092768921  -0.0084024258
        0.0018207146   0.0164365049  -0.0001846346  -0.0521401309   0.0043014631
       -0.0020871729   0.0052767856  -0.0000841531   0.0009710734   0.0000251866
       -0.0001616413  -0.0009287716  -0.0004262333   0.0002199667   0.0006527989
       -0.0001570048   0.0000966860  -0.0001602159  -0.0000082906  -0.0002133000
       -0.0000314756   0.0000842370   0.0001126078   0.0001787466  -0.0003827407
       -0.0008813121  -0.0007039527   0.0004727763  -0.0005938043   0.0004131991
        0.0002331153   0.0010650897   0.0005465725  -0.0001263890  -0.0004568691
       -0.0004249508   0.0001176384   0.0005911387   0.0001031582  -0.0000646871
       -0.0003651624   0.0001097389  -0.0000061934   0.0007164883  -0.0000139951
        0.0000201434  -0.0005132839   0.0001409084  -0.0001235167   0.0002070365
        0.0001235208   0.0000070754  -0.0000100484  -0.0000155872  -0.0000118795
       -0.0000141756   0.0000230241  -0.0000036780   0.0001731448   0.0001598557
        0.0000597644  -0.0002002644  -0.0001038288  -0.0000747014   0.0000484434
       -0.0000288487   0.0000237814  -0.0000231783  -0.0000925965  -0.0000030292
        0.0000065904   0.0001040346   0.0000008357  -0.0000316246  -0.0000954578
       -0.0000095935   0.0000311652   0.0000955240   0.0000095846   0.0000306248
       -0.0002184693  -0.0000010530  -0.0001091183   0.0001833132  -0.0000319645
        0.0000655356  -0.0000108082   0.0000284377  -0.0000100775  -0.0000256810
       -0.0000083158   0.0000261249   0.0000458261   0.0000297118   0.0000219435
       -0.0001712162   0.0000530053  -0.0007388327   0.0000929083  -0.0001045846
        0.0000429722  -0.0001223585   0.0001848061  -0.0000519760   0.0000621514
       -0.0001751573   0.0021307915   0.0010965066  -0.0002015487   0.0009856690
       -0.0005793403   0.0007722095  -0.0019767808  -0.0001538172   0.0006887402
        0.0008531325   0.0011145170   0.0016292491   0.0038017635  -0.0001084279
        0.0074929139  -0.0006877272   0.0095227208  -0.0000402892   0.0000885080
       -0.0000753599   0.0002167170  -0.0000378466   0.0000044110   0.0000043783
        0.0000086314   0.0000298259  -0.0000007777  -0.0000251951   0.0000036193
        0.0000135606  -0.0000046156   0.0000280174   0.0000626984  -0.0000069592
       -0.0000290208   0.0000776120   0.0000010795  -0.0000171785   0.0000089164
        0.0000149556   0.0000101916   0.0000068974  -0.0000018880  -0.0000132181
        0.0000020462   0.0000019072   0.0000095300   0.0000026635   0.0000036186
        0.0000116097  -0.0000040660  -0.0000074991  -0.0000069386  -0.0000014922
       -0.0000095011   0.0000059203   0.0000001774  -0.0000162915  -0.0000011363
       -0.0000077486  -0.0000043205  -0.0000107841  -0.0000084218  -0.0000088562
       -0.0000102856   0.0000015766  -0.0000032336   0.0000084989  -0.0000013327
        0.0000105979  -0.0000027819  -0.0000001050  -0.0000078625  -0.0000000509
       -0.0000183341
       -0.0037821010   0.0010992804   0.0017446632  -0.0468111633  -0.0144741318
        0.0186734528  -0.1790549597  -0.0532303463   0.0480840899   0.6113742180
       -0.0485722638  -0.1716159363  -0.2948605747   0.0458226980   0.0851931847
       -0.0018562846   0.0831195552  -0.0055426922  -0.0490252041  -0.0041366737
        0.0164875432   0.0338921345  -0.0579573193  -0.0072913112   0.0013545885
       -0.0055927201   0.0000606676  -0.0002739519   0.0027426912  -0.0000355476
        0.0016948211  -0.0020748412  -0.0006878588   0.0001377931   0.0006649441