      -----------------------------------------------------------      
     |                   =====================                   |     
     |                           x T B                           |     
     |                   =====================                   |     
     |                         S. Grimme                         |     
     |          Mulliken Center for Theoretical Chemistry        |     
     |                    University of Bonn                     |     
      -----------------------------------------------------------      

   * xtb version 6.7.1 (edcfbbe) compiled by 'albert@albert-system' on 2024-07-22

   xtb is free software: you can redistribute it and/or modify it under
   the terms of the GNU Lesser General Public License as published by
   the Free Software Foundation, either version 3 of the License, or
   (at your option) any later version.
   
   xtb is distributed in the hope that it will be useful,
   but WITHOUT ANY WARRANTY; without even the implied warranty of
   MERCHANTABILITY or FITNESS FOR A PARTICULAR PURPOSE.  See the
   GNU Lesser General Public License for more details.
   
   Cite this work as:
   * C. Bannwarth, E. Caldeweyher, S. Ehlert, A. Hansen, P. Pracht,
     J. Seibert, S. Spicher, S. Grimme, WIREs Comput. Mol. Sci., 2020, 11,
     e01493. DOI: 10.1002/wcms.1493
   
   for GFN2-xTB:
   * C. Bannwarth, S. Ehlert and S. Grimme., J. Chem. Theory Comput., 2019,
     15, 1652-1671. DOI: 10.1021/acs.jctc.8b01176
   for GFN1-xTB:
   * S. Grimme, C. Bannwarth, P. Shushkov, J. Chem. Theory Comput., 2017,
     13, 1989-2009. DOI: 10.1021/acs.jctc.7b00118
   for GFN0-xTB:
   * P. Pracht, E. Caldeweyher, S. Ehlert, S. Grimme, ChemRxiv, 2019, preprint.
     DOI: 10.26434/chemrxiv.8326202.v1
   for GFN-FF:
   * S. Spicher and S. Grimme, Angew. Chem. Int. Ed., 2020, 59, 15665-15673.
     DOI: 10.1002/anie.202004239
   
   for ALPB and GBSA implicit solvation:
   * S. Ehlert, M. Stahn, S. Spicher, S. Grimme, J. Chem. Theory Comput.,
     2021, 17, 4250-4261. DOI: 10.1021/acs.jctc.1c00471
   
   for ddCOSMO and CPCM-X implicit solvation:
   * M. Stahn, S. Ehlert, S. Grimme, J. Phys. Chem. A,
     2023, XX, XXXX-XXXX. DOI: 10.1021/acs.jpca.3c04382
   
   for DFT-D4:
   * E. Caldeweyher, C. Bannwarth and S. Grimme, J. Chem. Phys., 2017,
     147, 034112. DOI: 10.1063/1.4993215
   * E. Caldeweyher, S. Ehlert, A. Hansen, H. Neugebauer, S. Spicher,
     C. Bannwarth and S. Grimme, J. Chem. Phys., 2019, 150, 154122.
     DOI: 10.1063/1.5090222
   * E. Caldeweyher, J.-M. Mewes, S. Ehlert and S. Grimme, Phys. Chem. Chem. Phys.
     2020, 22, 8499-8512. DOI: 10.1039/D0CP00502A
   
   for sTDA-xTB:
   * S. Grimme and C. Bannwarth, J. Chem. Phys., 2016, 145, 054103.
     DOI: 10.1063/1.4959605
   
   in the mass-spec context:
   * V. Asgeirsson, C. Bauer and S. Grimme, Chem. Sci., 2017, 8, 4879.
     DOI: 10.1039/c7sc00601b
   * J. Koopman and S. Grimme, ACS Omega 2019, 4, 12, 15120-15133.
     DOI: 10.1021/acsomega.9b02011
   
   for metadynamics refer to:
   * S. Grimme, J. Chem. Theory Comput., 2019, 155, 2847-2862
     DOI: 10.1021/acs.jctc.9b00143
   
   for SPH calculations refer to:
   * S. Spicher and S. Grimme, J. Chem. Theory Comput., 2021, 17, 1701-1714
     DOI: 10.1021/acs.jctc.0c01306
   
   for ONIOM refer to:
   * C. Plett, A. Katbashev, S. Ehlert, S. Grimme, M. Bursch,
     Phys. Chem. Chem. Phys., 2023, 25, 17860-17868. DOI: 10.1039/D3CP02178E
   
   for DIPRO refer to:
   * J. Kohn, N. Gildemeister, S. Grimme, D. Fazzi, A. Hansen,
     J. Chem. Phys., 2023, just accepted.
   
   for PTB refer to:
   * S. Grimme, M. Mueller, A. Hansen, J. Chem. Phys., 2023, 158, 124111.
     DOI: 10.1063/5.0137838
   
   with help from (in alphabetical order)
   P. Atkinson, C. Bannwarth, F. Bohle, G. Brandenburg, E. Caldeweyher
   M. Checinski, S. Dohm, S. Ehlert, S. Ehrlich, I. Gerasimov, C. Hölzer
   A. Katbashev, J. Kohn, J. Koopman, C. Lavigne, S. Lehtola, F. März, M. Müller,
   F. Musil, H. Neugebauer, J. Pisarek, C. Plett, P. Pracht, F. Pultar,
   J. Seibert, P. Shushkov, S. Spicher, M. Stahn, M. Steiner, T. Strunk,
   J. Stückrath, T. Rose, and J. Unsleber
   
 * started run on 2025/09/10 at 21:11:52.275     
   ID    Z sym.   atoms
    1    6 C      1, 3-11, 13-16, 18, 20, 22, 24-27, 29-34, 36-41
    2    8 O      2, 12, 28, 35
    3    7 N      17, 19, 21, 23, 42
    4    1 H      43-67

           -------------------------------------------------
          |                Calculation Setup                |
           -------------------------------------------------

          program call               : xtb data2507/gas/MeOCzPCN/MeOCzPCN.xyz --gfn 2 --ohess vtight --parallel 40 --molden --ceasefiles --namespace data2507/gas/MeOCzPCN/MeOCzPCN_gas_S0_preOpt
          calculation namespace      : data2507/gas/MeOCzPCN/MeOCzPCN_gas_S0_preOpt
          coordinate file            : data2507/gas/MeOCzPCN/MeOCzPCN.xyz
          omp threads                :                    40


           -------------------------------------------------
          |                 G F N 2 - x T B                 |
           -------------------------------------------------

        Reference                      10.1021/acs.jctc.8b01176
      * Hamiltonian:
        H0-scaling (s, p, d)           1.850000    2.230000    2.230000
        zeta-weighting                 0.500000
      * Dispersion:
        s8                             2.700000
        a1                             0.520000
        a2                             5.000000
        s9                             5.000000
      * Repulsion:
        kExp                           1.500000    1.000000
        rExp                           1.000000
      * Coulomb:
        alpha                          2.000000
        third order                    shell-resolved
        anisotropic                    true
        a3                             3.000000
        a5                             4.000000
        cn-shift                       1.200000
        cn-exp                         4.000000
        max-rad                        5.000000


          ...................................................
          :                      SETUP                      :
          :.................................................:
          :  # basis functions                 193          :
          :  # atomic orbitals                 193          :
          :  # shells                          109          :
          :  # electrons                       206          :
          :  max. iterations                   250          :
          :  Hamiltonian                  GFN2-xTB          :
          :  restarted?                      false          :
          :  GBSA solvation                  false          :
          :  PC potential                    false          :
          :  electronic temp.          300.0000000     K    :
          :  accuracy                    1.0000000          :
          :  -> integral cutoff          0.2500000E+02      :
          :  -> integral neglect         0.1000000E-07      :
          :  -> SCF convergence          0.1000000E-05 Eh   :
          :  -> wf. convergence          0.1000000E-03 e    :
          :  Broyden damping             0.4000000          :
          :  net charge                          0          :
          :  unpaired electrons                  0          :
          ...................................................

 iter      E             dE          RMSdq      gap      omega  full diag
   1   -115.8310771 -0.115831E+03  0.464E+00    2.35       0.0  T
   2   -115.9527722 -0.121695E+00  0.285E+00    2.30       1.0  T
   3   -115.8841123  0.686599E-01  0.160E+00    1.71       1.0  T
   4   -115.9734857 -0.893734E-01  0.652E-01    1.76       1.0  T
   5   -115.9951048 -0.216191E-01  0.162E-01    1.77       1.0  T
   6   -115.9960061 -0.901323E-03  0.862E-02    1.81       1.0  T
   7   -115.9962577 -0.251589E-03  0.355E-02    1.80       1.0  T
   8   -115.9963011 -0.433853E-04  0.147E-02    1.82       1.0  T
   9   -115.9963040 -0.296932E-05  0.490E-03    1.82       2.5  T
  10   -115.9963044 -0.314513E-06  0.207E-03    1.81       5.9  T
  11   -115.9963045 -0.149839E-06  0.748E-04    1.81      16.3  T
  12   -115.9963045 -0.656415E-08  0.378E-04    1.81      32.3  T

   *** convergence criteria satisfied after 12 iterations ***

         #    Occupation            Energy/Eh            Energy/eV
      -------------------------------------------------------------
         1        2.0000           -0.7134037             -19.4127
       ...           ...                  ...                  ...
        97        2.0000           -0.3926932             -10.6857
        98        2.0000           -0.3916710             -10.6579
        99        2.0000           -0.3913136             -10.6482
       100        2.0000           -0.3798081             -10.3351
       101        2.0000           -0.3797212             -10.3327
       102        2.0000           -0.3635831              -9.8936
       103        2.0000           -0.3618252              -9.8458 (HOMO)
       104                         -0.2951680              -8.0319 (LUMO)
       105                         -0.2886696              -7.8551
       106                         -0.2560633              -6.9678
       107                         -0.2556259              -6.9559
       108                         -0.2264826              -6.1629
       ...                                ...                  ...
       193                          1.0798941              29.3854
      -------------------------------------------------------------
                  HL-Gap            0.0666572 Eh            1.8138 eV
             Fermi-level           -0.3284966 Eh           -8.9388 eV

 SCC (total)                   0 d,  0 h,  0 min,  0.150 sec
 SCC setup                      ...        0 min,  0.001 sec (  0.448%)
 Dispersion                     ...        0 min,  0.003 sec (  1.711%)
 classical contributions        ...        0 min,  0.000 sec (  0.156%)
 integral evaluation            ...        0 min,  0.007 sec (  4.413%)
 iterations                     ...        0 min,  0.129 sec ( 85.652%)
 molecular gradient             ...        0 min,  0.010 sec (  6.954%)
 printout                       ...        0 min,  0.001 sec (  0.609%)

         :::::::::::::::::::::::::::::::::::::::::::::::::::::
         ::                     SUMMARY                     ::
         :::::::::::::::::::::::::::::::::::::::::::::::::::::
         :: total energy            -114.326807088754 Eh    ::
         :: gradient norm              0.154705218587 Eh/a0 ::
         :: HOMO-LUMO gap              1.813835007868 eV    ::
         ::.................................................::
         :: SCC energy              -115.996577049700 Eh    ::
         :: -> isotropic ES            0.088658933619 Eh    ::
         :: -> anisotropic ES          0.017286895348 Eh    ::
         :: -> anisotropic XC          0.059985913843 Eh    ::
         :: -> dispersion             -0.088227602386 Eh    ::
         :: repulsion energy           1.669769960947 Eh    ::
         :: add. restraining           0.000000000000 Eh    ::
         :: total charge              -0.000000000000 e     ::
         :::::::::::::::::::::::::::::::::::::::::::::::::::::

      ----------------------------------------------------------- 
     |                   =====================                   |
     |                        A N C O P T                        |
     |                   =====================                   |
     |               Approximate Normal Coordinate               |
     |                Rational Function Optimizer                |
      ----------------------------------------------------------- 

Optimization log is written to '/dev/null'
      ----------------------------------------------------------- 
     |                   =====================                   |
     |                        A N C O P T                        |
     |                   =====================                   |
     |               Approximate Normal Coordinate               |
     |                Rational Function Optimizer                |
      ----------------------------------------------------------- 

          ...................................................
          :                      SETUP                      :
          :.................................................:
          :   optimization level         verytight          :
          :   max. optcycles                  1340          :
          :   ANC micro-cycles                  20          :
          :   degrees of freedom               195          :
          :.................................................:
          :   RF solver                   davidson          :
          :   write xtbopt.log                true          :
          :   linear?                        false          :
          :   energy convergence         0.1000000E-06 Eh   :
          :   grad. convergence          0.2000000E-03 Eh/α :
          :   maxmium RF displ.          1.0000000          :
          :   Hlow (freq-cutoff)         0.1000000E-01      :
          :   Hmax (freq-cutoff)         5.0000000          :
          :   S6 in model hess.         20.0000000          :
          ...................................................

generating ANC from exact Hessian ...
Using Lindh-Hessian (1995)
 Shifting diagonal of input Hessian by   9.924502687787249E-003
 Lowest  eigenvalues of input Hessian
    0.000000    0.000000    0.000000    0.000000    0.000000    0.000000
    0.010000    0.010042    0.010120    0.010516    0.010812    0.010920
    0.011452    0.011544    0.011829    0.011864    0.012146    0.012665
 Highest eigenvalues
    2.123095    2.126225    2.129984    2.137632    2.167172    2.551117
 

........................................................................
.............................. CYCLE    1 ..............................
........................................................................

 iter      E             dE          RMSdq      gap      omega  full diag
   1   -115.9963045 -0.115996E+03  0.159E-04    1.81       0.0  T
   2   -115.9963045 -0.221348E-09  0.110E-04    1.81     111.4  T
   3   -115.9963045 -0.142933E-09  0.790E-05    1.81     154.6  T
     SCC iter.                  ...        0 min,  0.024 sec
     gradient                   ...        0 min,  0.009 sec
 * total energy  :  -114.3268071 Eh     change       -0.3502919E-08 Eh
   gradient norm :     0.1547104 Eh/α   predicted     0.0000000E+00 (-100.00%)
   displ. norm   :     0.3456652 α      lambda       -0.2561709E-01
   maximum displ.:     0.1802013 α      in ANC's #48, #38, #43, ...

........................................................................
.............................. CYCLE    2 ..............................
........................................................................

 iter      E             dE          RMSdq      gap      omega  full diag
   1   -116.0745436 -0.116075E+03  0.199E-01    1.83       0.0  T
   2   -116.0747391 -0.195532E-03  0.121E-01    1.87       1.0  T
   3   -116.0747316  0.749892E-05  0.667E-02    1.88       1.0  T
   4   -116.0748284 -0.967772E-04  0.148E-02    1.87       1.0  T
   5   -116.0748384 -0.100071E-04  0.581E-03    1.88       2.1  T
   6   -116.0748398 -0.140907E-05  0.263E-03    1.88       4.6  T
   7   -116.0748399 -0.137913E-06  0.974E-04    1.87      12.5  T
   8   -116.0748400 -0.313064E-07  0.369E-04    1.87      33.1  T
     SCC iter.                  ...        0 min,  0.060 sec
     gradient                   ...        0 min,  0.009 sec
 * total energy  :  -114.3446942 Eh     change       -0.1788711E-01 Eh
   gradient norm :     0.0636066 Eh/α   predicted    -0.1435111E-01 ( -19.77%)
   displ. norm   :     0.3513505 α      lambda       -0.8590472E-02
   maximum displ.:     0.1609029 α      in ANC's #48, #11, #38, ...

........................................................................
.............................. CYCLE    3 ..............................
........................................................................

 iter      E             dE          RMSdq      gap      omega  full diag
   1   -116.1138333 -0.116114E+03  0.162E-01    1.86       0.0  T
   2   -116.1140327 -0.199421E-03  0.962E-02    1.91       1.0  T
   3   -116.1140409 -0.817302E-05  0.522E-02    1.92       1.0  T
   4   -116.1140956 -0.547067E-04  0.111E-02    1.92       1.1  T
   5   -116.1141007 -0.512810E-05  0.374E-03    1.92       3.3  T
   6   -116.1141012 -0.497526E-06  0.166E-03    1.92       7.3  T
   7   -116.1141013 -0.115755E-06  0.762E-04    1.92      16.0  T
   8   -116.1141013 -0.503826E-08  0.427E-04    1.92      28.6  T
     SCC iter.                  ...        0 min,  0.060 sec
     gradient                   ...        0 min,  0.009 sec
 * total energy  :  -114.3496617 Eh     change       -0.4967464E-02 Eh
   gradient norm :     0.0149102 Eh/α   predicted    -0.4830136E-02 (  -2.76%)
   displ. norm   :     0.2960268 α      lambda       -0.1490689E-02
   maximum displ.:     0.2225140 α      in ANC's #11, #13, #19, ...

........................................................................
.............................. CYCLE    4 ..............................
........................................................................

 iter      E             dE          RMSdq      gap      omega  full diag
   1   -116.1206970 -0.116121E+03  0.926E-02    1.92       0.0  T
   2   -116.1207461 -0.491757E-04  0.528E-02    1.96       1.0  T
   3   -116.1207412  0.498663E-05  0.204E-02    1.95       1.0  T
   4   -116.1207506 -0.942493E-05  0.580E-03    1.96       2.1  T
   5   -116.1207524 -0.186802E-05  0.154E-03    1.96       7.9  T
   6   -116.1207525 -0.449377E-07  0.899E-04    1.96      13.6  T
   7   -116.1207525 -0.286264E-07  0.327E-04    1.96      37.3  T
     SCC iter.                  ...        0 min,  0.052 sec
     gradient                   ...        0 min,  0.009 sec
 * total energy  :  -114.3508296 Eh     change       -0.1167908E-02 Eh
   gradient norm :     0.0113024 Eh/α   predicted    -0.8107343E-03 ( -30.58%)
   displ. norm   :     0.4169394 α      lambda       -0.1353294E-02
   maximum displ.:     0.3366495 α      in ANC's #11, #13, #19, ...

........................................................................
.............................. CYCLE    5 ..............................
........................................................................

 iter      E             dE          RMSdq      gap      omega  full diag
   1   -116.1215607 -0.116122E+03  0.129E-01    1.97       0.0  T
   2   -116.1216183 -0.576069E-04  0.736E-02    2.00       1.0  T
   3   -116.1216104  0.793798E-05  0.209E-02    2.00       1.0  T
   4   -116.1216240 -0.135969E-04  0.553E-03    2.00       2.2  T
   5   -116.1216254 -0.143413E-05  0.189E-03    2.00       6.5  T
   6   -116.1216254 -0.110916E-07  0.841E-04    2.00      14.5  T
   7   -116.1216254 -0.317027E-07  0.293E-04    2.00      41.8  T
     SCC iter.                  ...        0 min,  0.053 sec
     gradient                   ...        0 min,  0.009 sec
 * total energy  :  -114.3517645 Eh     change       -0.9348826E-03 Eh
   gradient norm :     0.0072006 Eh/α   predicted    -0.7942853E-03 ( -15.04%)
   displ. norm   :     0.2436577 α      lambda       -0.4559459E-03
   maximum displ.:     0.2074633 α      in ANC's #11, #8, #13, ...

........................................................................
.............................. CYCLE    6 ..............................
........................................................................

 iter      E             dE          RMSdq      gap      omega  full diag
   1   -116.1219237 -0.116122E+03  0.728E-02    2.01       0.0  T
   2   -116.1219325 -0.888341E-05  0.416E-02    2.03       1.0  T
   3   -116.1219291  0.348680E-05  0.980E-03    2.02       1.2  T
   4   -116.1219334 -0.431186E-05  0.368E-03    2.03       3.3  T
   5   -116.1219341 -0.733115E-06  0.125E-03    2.03       9.7  T
   6   -116.1219341 -0.252787E-07  0.738E-04    2.03      16.5  T
   7   -116.1219341 -0.194500E-07  0.152E-04    2.03      80.1  T
     SCC iter.                  ...        0 min,  0.053 sec
     gradient                   ...        0 min,  0.009 sec
 * total energy  :  -114.3521138 Eh     change       -0.3493496E-03 Eh
   gradient norm :     0.0062447 Eh/α   predicted    -0.2415088E-03 ( -30.87%)
   displ. norm   :     0.2060528 α      lambda       -0.3348776E-03
   maximum displ.:     0.1669290 α      in ANC's #11, #8, #18, ...

........................................................................
.............................. CYCLE    7 ..............................
........................................................................

 iter      E             dE          RMSdq      gap      omega  full diag
   1   -116.1227623 -0.116123E+03  0.624E-02    2.04       0.0  T
   2   -116.1227641 -0.179688E-05  0.363E-02    2.04       1.0  T
   3   -116.1227580  0.604869E-05  0.972E-03    2.04       1.3  T
   4   -116.1227649 -0.683276E-05  0.228E-03    2.04       5.4  T
   5   -116.1227651 -0.212425E-06  0.101E-03    2.04      12.1  T
   6   -116.1227651 -0.104579E-07  0.435E-04    2.04      28.1  T
   7   -116.1227651 -0.100951E-07  0.113E-04    2.04     107.8  T
     SCC iter.                  ...        0 min,  0.053 sec
     gradient                   ...        0 min,  0.009 sec
 * total energy  :  -114.3523784 Eh     change       -0.2646057E-03 Eh
   gradient norm :     0.0046413 Eh/α   predicted    -0.1745488E-03 ( -34.03%)
   displ. norm   :     0.2440268 α      lambda       -0.2900212E-03
   maximum displ.:     0.1849187 α      in ANC's #11, #8, #18, ...

........................................................................
.............................. CYCLE    8 ..............................
........................................................................

 iter      E             dE          RMSdq      gap      omega  full diag
   1   -116.1225277 -0.116123E+03  0.683E-02    2.05       0.0  T
   2   -116.1225300 -0.223495E-05  0.395E-02    2.05       1.0  T
   3   -116.1225290  0.100204E-05  0.515E-03    2.05       2.4  T
   4   -116.1225306 -0.163484E-05  0.190E-03    2.05       6.4  T
   5   -116.1225307 -0.832247E-07  0.102E-03    2.05      11.9  T
   6   -116.1225307 -0.230226E-07  0.443E-04    2.05      27.6  T
   7   -116.1225307 -0.103474E-07  0.137E-04    2.05      89.1  T
     SCC iter.                  ...        0 min,  0.053 sec
     gradient                   ...        0 min,  0.009 sec
 * total energy  :  -114.3525964 Eh     change       -0.2179895E-03 Eh
   gradient norm :     0.0039611 Eh/α   predicted    -0.1536477E-03 ( -29.52%)
   displ. norm   :     0.2405658 α      lambda       -0.1944336E-03
   maximum displ.:     0.1760931 α      in ANC's #11, #8, #18, ...

........................................................................
.............................. CYCLE    9 ..............................
........................................................................

 iter      E             dE          RMSdq      gap      omega  full diag
   1   -116.1223287 -0.116122E+03  0.696E-02    2.05       0.0  T
   2   -116.1223309 -0.228154E-05  0.405E-02    2.06       1.0  T
   3   -116.1223294  0.157420E-05  0.601E-03    2.06       2.0  T
   4   -116.1223315 -0.214069E-05  0.207E-03    2.06       5.9  T
   5   -116.1223317 -0.146044E-06  0.121E-03    2.06      10.1  T
   6   -116.1223317 -0.298314E-07  0.516E-04    2.06      23.7  T
   7   -116.1223317 -0.110498E-07  0.106E-04    2.06     114.9  T
     SCC iter.                  ...        0 min,  0.053 sec
     gradient                   ...        0 min,  0.009 sec
 * total energy  :  -114.3527360 Eh     change       -0.1396144E-03 Eh
   gradient norm :     0.0036052 Eh/α   predicted    -0.1028436E-03 ( -26.34%)
   displ. norm   :     0.2018189 α      lambda       -0.1141743E-03
   maximum displ.:     0.1422508 α      in ANC's #11, #8, #2, ...

........................................................................
.............................. CYCLE   10 ..............................
........................................................................

 iter      E             dE          RMSdq      gap      omega  full diag
   1   -116.1222359 -0.116122E+03  0.532E-02    2.06       0.0  T
   2   -116.1222381 -0.217595E-05  0.309E-02    2.06       1.0  T
   3   -116.1222340  0.409045E-05  0.802E-03    2.06       1.5  T
   4   -116.1222387 -0.463042E-05  0.243E-03    2.06       5.0  T
   5   -116.1222390 -0.308319E-06  0.106E-03    2.06      11.5  T
   6   -116.1222390 -0.151480E-07  0.444E-04    2.06      27.5  T
   7   -116.1222390 -0.447181E-08  0.120E-04    2.06     102.1  T
     SCC iter.                  ...        0 min,  0.053 sec
     gradient                   ...        0 min,  0.009 sec
 * total energy  :  -114.3528120 Eh     change       -0.7601398E-04 Eh
   gradient norm :     0.0025036 Eh/α   predicted    -0.5941910E-04 ( -21.83%)
   displ. norm   :     0.1226526 α      lambda       -0.4979265E-04
   maximum displ.:     0.0763758 α      in ANC's #11, #2, #18, ...

........................................................................
.............................. CYCLE   11 ..............................
........................................................................

 iter      E             dE          RMSdq      gap      omega  full diag
   1   -116.1228483 -0.116123E+03  0.335E-02    2.06       0.0  T
   2   -116.1228490 -0.771980E-06  0.196E-02    2.07       1.0  T
   3   -116.1228467  0.230169E-05  0.597E-03    2.07       2.0  T
   4   -116.1228493 -0.257063E-05  0.152E-03    2.07       8.0  T
   5   -116.1228494 -0.125555E-06  0.681E-04    2.07      17.9  T
   6   -116.1228494 -0.926084E-08  0.250E-04    2.07      48.9  T
     SCC iter.                  ...        0 min,  0.045 sec
     gradient                   ...        0 min,  0.009 sec
 * total energy  :  -114.3528455 Eh     change       -0.3346080E-04 Eh
   gradient norm :     0.0016221 Eh/α   predicted    -0.2527160E-04 ( -24.47%)
   displ. norm   :     0.1164759 α      lambda       -0.2629529E-04
   maximum displ.:     0.0732045 α      in ANC's #2, #13, #11, ...

........................................................................
.............................. CYCLE   12 ..............................
........................................................................

 iter      E             dE          RMSdq      gap      omega  full diag
   1   -116.1234811 -0.116123E+03  0.245E-02    2.07       0.0  T
   2   -116.1234816 -0.541068E-06  0.144E-02    2.07       1.0  T
   3   -116.1234796  0.197755E-05  0.543E-03    2.07       2.2  T
   4   -116.1234818 -0.219511E-05  0.125E-03    2.07       9.8  T
   5   -116.1234819 -0.875673E-07  0.500E-04    2.07      24.4  T
   6   -116.1234819 -0.538840E-08  0.182E-04    2.07      67.1  T
     SCC iter.                  ...        0 min,  0.039 sec
     gradient                   ...        0 min,  0.009 sec
 * total energy  :  -114.3528687 Eh     change       -0.2325162E-04 Eh
   gradient norm :     0.0015854 Eh/α   predicted    -0.1322706E-04 ( -43.11%)
   displ. norm   :     0.0700280 α      lambda       -0.1480876E-04
   maximum displ.:     0.0476320 α      in ANC's #2, #9, #13, ...

........................................................................
.............................. CYCLE   13 ..............................
........................................................................

 iter      E             dE          RMSdq      gap      omega  full diag
   1   -116.1231503 -0.116123E+03  0.122E-02    2.07       0.0  T
   2   -116.1231504 -0.461553E-07  0.718E-03    2.07       1.7  T
   3   -116.1231503  0.940680E-07  0.130E-03    2.07       9.4  T
   4   -116.1231504 -0.116551E-06  0.308E-04    2.07      39.7  T
   5   -116.1231504 -0.106643E-08  0.200E-04    2.07      60.9  T
     SCC iter.                  ...        0 min,  0.034 sec
     gradient                   ...        0 min,  0.009 sec
 * total energy  :  -114.3528863 Eh     change       -0.1760672E-04 Eh
   gradient norm :     0.0012725 Eh/α   predicted    -0.7420881E-05 ( -57.85%)
   displ. norm   :     0.1081206 α      lambda       -0.2033121E-04
   maximum displ.:     0.0667656 α      in ANC's #2, #9, #8, ...

........................................................................
.............................. CYCLE   14 ..............................
........................................................................

 iter      E             dE          RMSdq      gap      omega  full diag
   1   -116.1227547 -0.116123E+03  0.216E-02    2.07       0.0  T
   2   -116.1227549 -0.185073E-06  0.127E-02    2.07       1.0  T
   3   -116.1227547  0.253627E-06  0.219E-03    2.07       5.6  T
   4   -116.1227550 -0.318619E-06  0.663E-04    2.07      18.4  T
   5   -116.1227550 -0.110768E-07  0.415E-04    2.07      29.4  T
     SCC iter.                  ...        0 min,  0.033 sec
     gradient                   ...        0 min,  0.009 sec
 * total energy  :  -114.3529073 Eh     change       -0.2097372E-04 Eh
   gradient norm :     0.0012541 Eh/α   predicted    -0.1021948E-04 ( -51.27%)
   displ. norm   :     0.0842858 α      lambda       -0.1123935E-04
   maximum displ.:     0.0654051 α      in ANC's #2, #9, #11, ...

........................................................................
.............................. CYCLE   15 ..............................
........................................................................

 iter      E             dE          RMSdq      gap      omega  full diag
   1   -116.1223860 -0.116122E+03  0.133E-02    2.07       0.0  T
   2   -116.1223861 -0.102471E-06  0.768E-03    2.07       1.6  T
   3   -116.1223860  0.609879E-07  0.126E-03    2.07       9.7  T
   4   -116.1223861 -0.883403E-07  0.451E-04    2.07      27.1  T
   5   -116.1223861 -0.499840E-08  0.240E-04    2.07      51.0  T
     SCC iter.                  ...        0 min,  0.033 sec
     gradient                   ...        0 min,  0.009 sec
 * total energy  :  -114.3529205 Eh     change       -0.1318752E-04 Eh
   gradient norm :     0.0007715 Eh/α   predicted    -0.5641092E-05 ( -57.22%)
   displ. norm   :     0.0628284 α      lambda       -0.7007143E-05
   maximum displ.:     0.0513174 α      in ANC's #2, #11, #9, ...

........................................................................
.............................. CYCLE   16 ..............................
........................................................................

 iter      E             dE          RMSdq      gap      omega  full diag
   1   -116.1226125 -0.116123E+03  0.886E-03    2.07       0.0  T
   2   -116.1226125 -0.494627E-07  0.514E-03    2.07       2.4  T
   3   -116.1226124  0.954010E-07  0.140E-03    2.07       8.7  T
   4   -116.1226126 -0.119479E-06  0.232E-04    2.07      52.7  T
   5   -116.1226126 -0.813841E-09  0.125E-04    2.07      97.6  T
     SCC iter.                  ...        0 min,  0.032 sec
     gradient                   ...        0 min,  0.009 sec
 * total energy  :  -114.3529296 Eh     change       -0.9074707E-05 Eh
   gradient norm :     0.0005624 Eh/α   predicted    -0.3512137E-05 ( -61.30%)
   displ. norm   :     0.0493331 α      lambda       -0.5378447E-05
   maximum displ.:     0.0416247 α      in ANC's #2, #11, #3, ...

........................................................................
.............................. CYCLE   17 ..............................
........................................................................

 iter      E             dE          RMSdq      gap      omega  full diag
   1   -116.1227456 -0.116123E+03  0.656E-03    2.07       0.0  T
   2   -116.1227456 -0.398877E-07  0.383E-03    2.07       3.2  T
   3   -116.1227456  0.535873E-07  0.104E-03    2.07      11.8  T
   4   -116.1227456 -0.667543E-07  0.186E-04    2.07      65.8  T
   5   -116.1227456 -0.121763E-08  0.925E-05    2.07     132.0  T
     SCC iter.                  ...        0 min,  0.033 sec
     gradient                   ...        0 min,  0.009 sec
 * total energy  :  -114.3529369 Eh     change       -0.7279191E-05 Eh
   gradient norm :     0.0004573 Eh/α   predicted    -0.2695343E-05 ( -62.97%)
   displ. norm   :     0.0437811 α      lambda       -0.5071988E-05
   maximum displ.:     0.0377910 α      in ANC's #2, #3, #19, ...

........................................................................
.............................. CYCLE   18 ..............................
........................................................................

 iter      E             dE          RMSdq      gap      omega  full diag
   1   -116.1229861 -0.116123E+03  0.602E-03    2.07       0.0  T
   2   -116.1229861 -0.285067E-07  0.351E-03    2.07       3.5  T
   3   -116.1229861  0.592138E-07  0.103E-03    2.07      11.9  T
   4   -116.1229861 -0.739318E-07  0.184E-04    2.07      66.4  T
   5   -116.1229861 -0.143231E-09  0.122E-04    2.07      99.7  T
     SCC iter.                  ...        0 min,  0.032 sec
     gradient                   ...        0 min,  0.009 sec
 * total energy  :  -114.3529439 Eh     change       -0.6997292E-05 Eh
   gradient norm :     0.0005103 Eh/α   predicted    -0.2539736E-05 ( -63.70%)
   displ. norm   :     0.0493145 α      lambda       -0.5638547E-05
   maximum displ.:     0.0407587 α      in ANC's #2, #3, #22, ...

........................................................................
.............................. CYCLE   19 ..............................
........................................................................

 iter      E             dE          RMSdq      gap      omega  full diag
   1   -116.1230431 -0.116123E+03  0.905E-03    2.07       0.0  T
   2   -116.1230431 -0.473292E-07  0.516E-03    2.08       2.4  T
   3   -116.1230431  0.205377E-07  0.783E-04    2.07      15.6  T
   4   -116.1230431 -0.394360E-07  0.270E-04    2.08      45.3  T
     SCC iter.                  ...        0 min,  0.026 sec
     gradient                   ...        0 min,  0.009 sec
 * total energy  :  -114.3529516 Eh     change       -0.7750360E-05 Eh
   gradient norm :     0.0004956 Eh/α   predicted    -0.2823903E-05 ( -63.56%)
   displ. norm   :     0.0577193 α      lambda       -0.6227475E-05
   maximum displ.:     0.0464617 α      in ANC's #2, #3, #9, ...

........................................................................
.............................. CYCLE   20 ..............................
........................................................................

 iter      E             dE          RMSdq      gap      omega  full diag
   1   -116.1229889 -0.116123E+03  0.972E-03    2.07       0.0  T
   2   -116.1229889 -0.598577E-07  0.554E-03    2.07       2.2  T
   3   -116.1229889  0.192104E-07  0.775E-04    2.07      15.8  T
   4   -116.1229890 -0.406750E-07  0.305E-04    2.07      40.0  T
     SCC iter.                  ...        0 min,  0.026 sec
     gradient                   ...        0 min,  0.009 sec
 * total energy  :  -114.3529600 Eh     change       -0.8357211E-05 Eh
   gradient norm :     0.0005476 Eh/α   predicted    -0.3119094E-05 ( -62.68%)
   displ. norm   :     0.0628854 α      lambda       -0.6282453E-05
   maximum displ.:     0.0498433 α      in ANC's #2, #3, #9, ...
 * RMSD in coord.:     0.2787297 α      energy gain  -0.2615288E-01 Eh

generating ANC from exact Hessian ...
Using Lindh-Hessian (1995)
 Shifting diagonal of input Hessian by   9.923654745930982E-003
 Lowest  eigenvalues of input Hessian
    0.000000    0.000000    0.000000    0.000000    0.000000    0.000000
    0.010000    0.010061    0.010154    0.010575    0.010898    0.011002
    0.011570    0.011608    0.011961    0.012038    0.012269    0.012786
 Highest eigenvalues
    2.192191    2.205095    2.209240    2.260610    2.336828    2.639790
 

........................................................................
.............................. CYCLE   21 ..............................
........................................................................

 iter      E             dE          RMSdq      gap      omega  full diag
   1   -116.1230552 -0.116123E+03  0.111E-02    2.07       0.0  T
   2   -116.1230553 -0.850281E-07  0.628E-03    2.07       1.9  T
   3   -116.1230553  0.366660E-07  0.973E-04    2.07      12.6  T
   4   -116.1230554 -0.710972E-07  0.327E-04    2.07      37.3  T
     SCC iter.                  ...        0 min,  0.026 sec
     gradient                   ...        0 min,  0.009 sec
 * total energy  :  -114.3529681 Eh     change       -0.8175283E-05 Eh
   gradient norm :     0.0004472 Eh/α   predicted     0.0000000E+00 (-100.00%)
   displ. norm   :     0.0257016 α      lambda       -0.2023680E-06
   maximum displ.:     0.0225312 α      in ANC's #2, #3, #18, ...

........................................................................
.............................. CYCLE   22 ..............................
........................................................................

 iter      E             dE          RMSdq      gap      omega  full diag
   1   -116.1229329 -0.116123E+03  0.765E-03    2.07       0.0  T
   2   -116.1229330 -0.617683E-07  0.429E-03    2.07       2.8  T
   3   -116.1229329  0.722578E-07  0.104E-03    2.07      11.8  T
   4   -116.1229330 -0.102744E-06  0.221E-04    2.07      55.2  T
   5   -116.1229330 -0.699686E-09  0.136E-04    2.07      90.1  T
     SCC iter.                  ...        0 min,  0.032 sec
     gradient                   ...        0 min,  0.009 sec
 * total energy  :  -114.3529724 Eh     change       -0.4286876E-05 Eh
   gradient norm :     0.0003450 Eh/α   predicted    -0.1822042E-05 ( -57.50%)
   displ. norm   :     0.0382570 α      lambda       -0.4450366E-05
   maximum displ.:     0.0312576 α      in ANC's #2, #3, #18, ...

........................................................................
.............................. CYCLE   23 ..............................
........................................................................

 iter      E             dE          RMSdq      gap      omega  full diag
   1   -116.1227996 -0.116123E+03  0.712E-03    2.07       0.0  T
   2   -116.1227997 -0.318209E-07  0.408E-03    2.07       3.0  T
   3   -116.1227996  0.338316E-07  0.786E-04    2.07      15.6  T
   4   -116.1227997 -0.478518E-07  0.248E-04    2.07      49.2  T
     SCC iter.                  ...        0 min,  0.026 sec
     gradient                   ...        0 min,  0.009 sec
 * total energy  :  -114.3529784 Eh     change       -0.5989898E-05 Eh
   gradient norm :     0.0004322 Eh/α   predicted    -0.2247677E-05 ( -62.48%)
   displ. norm   :     0.0512102 α      lambda       -0.5146236E-05
   maximum displ.:     0.0406640 α      in ANC's #2, #3, #18, ...

........................................................................
.............................. CYCLE   24 ..............................
........................................................................

 iter      E             dE          RMSdq      gap      omega  full diag
   1   -116.1227975 -0.116123E+03  0.745E-03    2.07       0.0  T
   2   -116.1227975 -0.241707E-07  0.430E-03    2.07       2.8  T
   3   -116.1227975  0.949213E-08  0.565E-04    2.07      21.6  T
   4   -116.1227975 -0.202025E-07  0.241E-04    2.07      50.8  T
     SCC iter.                  ...        0 min,  0.026 sec
     gradient                   ...        0 min,  0.009 sec
 * total energy  :  -114.3529854 Eh     change       -0.7000801E-05 Eh
   gradient norm :     0.0003393 Eh/α   predicted    -0.2576352E-05 ( -63.20%)
   displ. norm   :     0.0569457 α      lambda       -0.5032972E-05
   maximum displ.:     0.0449808 α      in ANC's #2, #3, #17, ...

........................................................................
.............................. CYCLE   25 ..............................
........................................................................

 iter      E             dE          RMSdq      gap      omega  full diag
   1   -116.1228525 -0.116123E+03  0.621E-03    2.07       0.0  T
   2   -116.1228525 -0.152794E-07  0.360E-03    2.07       3.4  T
   3   -116.1228525  0.427450E-08  0.448E-04    2.07      27.3  T
   4   -116.1228525 -0.108677E-07  0.194E-04    2.07      63.1  T
     SCC iter.                  ...        0 min,  0.026 sec
     gradient                   ...        0 min,  0.009 sec
 * total energy  :  -114.3529924 Eh     change       -0.6991443E-05 Eh
   gradient norm :     0.0002666 Eh/α   predicted    -0.2523033E-05 ( -63.91%)
   displ. norm   :     0.0612339 α      lambda       -0.5156592E-05
   maximum displ.:     0.0477045 α      in ANC's #2, #3, #5, ...

........................................................................
.............................. CYCLE   26 ..............................
........................................................................

 iter      E             dE          RMSdq      gap      omega  full diag
   1   -116.1228703 -0.116123E+03  0.567E-03    2.07       0.0  T
   2   -116.1228703 -0.875508E-08  0.333E-03    2.07       3.7  T
   3   -116.1228703  0.897194E-08  0.442E-04    2.07      27.7  T
   4   -116.1228703 -0.134146E-07  0.146E-04    2.07      83.9  T
     SCC iter.                  ...        0 min,  0.026 sec
     gradient                   ...        0 min,  0.009 sec
 * total energy  :  -114.3529998 Eh     change       -0.7352025E-05 Eh
   gradient norm :     0.0002669 Eh/α   predicted    -0.2584977E-05 ( -64.84%)
   displ. norm   :     0.0718411 α      lambda       -0.6055549E-05
   maximum displ.:     0.0548101 α      in ANC's #2, #3, #5, ...

........................................................................
.............................. CYCLE   27 ..............................
........................................................................

 iter      E             dE          RMSdq      gap      omega  full diag
   1   -116.1229235 -0.116123E+03  0.601E-03    2.07       0.0  T
   2   -116.1229235 -0.116772E-07  0.353E-03    2.07       3.5  T
   3   -116.1229235  0.310517E-07  0.672E-04    2.07      18.2  T
   4   -116.1229235 -0.378123E-07  0.169E-04    2.07      72.3  T
     SCC iter.                  ...        0 min,  0.026 sec
     gradient                   ...        0 min,  0.009 sec
 * total energy  :  -114.3530085 Eh     change       -0.8728501E-05 Eh
   gradient norm :     0.0002940 Eh/α   predicted    -0.3035182E-05 ( -65.23%)
   displ. norm   :     0.0924976 α      lambda       -0.7694081E-05
   maximum displ.:     0.0691877 α      in ANC's #2, #3, #5, ...

........................................................................
.............................. CYCLE   28 ..............................
........................................................................

 iter      E             dE          RMSdq      gap      omega  full diag
   1   -116.1229681 -0.116123E+03  0.849E-03    2.07       0.0  T
   2   -116.1229681 -0.185677E-07  0.501E-03    2.07       2.4  T
   3   -116.1229680  0.463072E-07  0.834E-04    2.07      14.6  T
   4   -116.1229681 -0.568377E-07  0.209E-04    2.07      58.3  T
     SCC iter.                  ...        0 min,  0.028 sec
     gradient                   ...        0 min,  0.008 sec
 * total energy  :  -114.3530195 Eh     change       -0.1101736E-04 Eh
   gradient norm :     0.0002895 Eh/α   predicted    -0.3862846E-05 ( -64.94%)
   displ. norm   :     0.1194018 α      lambda       -0.9313023E-05
   maximum displ.:     0.0884610 α      in ANC's #2, #3, #5, ...

........................................................................
.............................. CYCLE   29 ..............................
........................................................................

 iter      E             dE          RMSdq      gap      omega  full diag
   1   -116.1229412 -0.116123E+03  0.109E-02    2.07       0.0  T
   2   -116.1229412 -0.408318E-07  0.642E-03    2.08       1.9  T
   3   -116.1229411  0.952998E-07  0.119E-03    2.08      10.3  T
   4   -116.1229412 -0.115633E-06  0.307E-04    2.08      39.8  T
   5   -116.1229413 -0.132012E-08  0.212E-04    2.08      57.7  T
     SCC iter.                  ...        0 min,  0.033 sec
     gradient                   ...        0 min,  0.009 sec
 * total energy  :  -114.3530326 Eh     change       -0.1304654E-04 Eh
   gradient norm :     0.0002597 Eh/α   predicted    -0.4687106E-05 ( -64.07%)
   displ. norm   :     0.1351556 α      lambda       -0.9373581E-05
   maximum displ.:     0.1000075 α      in ANC's #2, #3, #5, ...

........................................................................
.............................. CYCLE   30 ..............................
........................................................................

 iter      E             dE          RMSdq      gap      omega  full diag
   1   -116.1230271 -0.116123E+03  0.124E-02    2.08       0.0  T
   2   -116.1230271 -0.559374E-07  0.730E-03    2.08       1.7  T
   3   -116.1230270  0.120609E-06  0.159E-03    2.08       7.7  T
   4   -116.1230271 -0.148895E-06  0.357E-04    2.08      34.3  T
   5   -116.1230271 -0.805912E-09  0.217E-04    2.08      56.3  T
     SCC iter.                  ...        0 min,  0.032 sec
     gradient                   ...        0 min,  0.009 sec
 * total energy  :  -114.3530454 Eh     change       -0.1280974E-04 Eh
   gradient norm :     0.0003027 Eh/α   predicted    -0.4725758E-05 ( -63.11%)
   displ. norm   :     0.1272541 α      lambda       -0.7588164E-05
   maximum displ.:     0.0947752 α      in ANC's #2, #3, #5, ...

........................................................................
.............................. CYCLE   31 ..............................
........................................................................

 iter      E             dE          RMSdq      gap      omega  full diag
   1   -116.1229134 -0.116123E+03  0.111E-02    2.08       0.0  T
   2   -116.1229134 -0.487454E-07  0.652E-03    2.08       1.9  T
   3   -116.1229133  0.110252E-06  0.129E-03    2.08       9.5  T
   4   -116.1229134 -0.134509E-06  0.324E-04    2.08      37.7  T
   5   -116.1229134 -0.117412E-08  0.224E-04    2.08      54.5  T
     SCC iter.                  ...        0 min,  0.032 sec
     gradient                   ...        0 min,  0.009 sec
 * total energy  :  -114.3530557 Eh     change       -0.1037661E-04 Eh
   gradient norm :     0.0003497 Eh/α   predicted    -0.3823381E-05 ( -63.15%)
   displ. norm   :     0.1009189 α      lambda       -0.5334368E-05
   maximum displ.:     0.0761993 α      in ANC's #2, #3, #5, ...

........................................................................
.............................. CYCLE   32 ..............................
........................................................................

 iter      E             dE          RMSdq      gap      omega  full diag
   1   -116.1230451 -0.116123E+03  0.841E-03    2.08       0.0  T
   2   -116.1230452 -0.286043E-07  0.496E-03    2.08       2.5  T
   3   -116.1230451  0.741190E-07  0.126E-03    2.08       9.7  T
   4   -116.1230452 -0.889287E-07  0.270E-04    2.08      45.3  T
   5   -116.1230452 -0.102969E-08  0.165E-04    2.08      74.2  T
     SCC iter.                  ...        0 min,  0.033 sec
     gradient                   ...        0 min,  0.009 sec
 * total energy  :  -114.3530632 Eh     change       -0.7461561E-05 Eh
   gradient norm :     0.0002857 Eh/α   predicted    -0.2683107E-05 ( -64.04%)
   displ. norm   :     0.0732624 α      lambda       -0.3690197E-05
   maximum displ.:     0.0562024 α      in ANC's #2, #3, #11, ...

........................................................................
.............................. CYCLE   33 ..............................
........................................................................

 iter      E             dE          RMSdq      gap      omega  full diag
   1   -116.1229795 -0.116123E+03  0.590E-03    2.08       0.0  T
   2   -116.1229796 -0.120981E-07  0.348E-03    2.08       3.5  T
   3   -116.1229795  0.384003E-07  0.727E-04    2.08      16.8  T
   4   -116.1229796 -0.452835E-07  0.187E-04    2.08      65.3  T
     SCC iter.                  ...        0 min,  0.026 sec
     gradient                   ...        0 min,  0.008 sec
 * total energy  :  -114.3530685 Eh     change       -0.5263374E-05 Eh
   gradient norm :     0.0002178 Eh/α   predicted    -0.1853682E-05 ( -64.78%)
   displ. norm   :     0.0570013 α      lambda       -0.2883269E-05
   maximum displ.:     0.0446260 α      in ANC's #2, #3, #11, ...

........................................................................
.............................. CYCLE   34 ..............................
........................................................................

 iter      E             dE          RMSdq      gap      omega  full diag
   1   -116.1230390 -0.116123E+03  0.483E-03    2.08       0.0  T
   2   -116.1230390 -0.707946E-08  0.285E-03    2.08       4.3  T
   3   -116.1230390  0.123832E-07  0.439E-04    2.08      27.8  T
   4   -116.1230390 -0.155914E-07  0.142E-04    2.08      85.8  T
     SCC iter.                  ...        0 min,  0.026 sec
     gradient                   ...        0 min,  0.009 sec
 * total energy  :  -114.3530726 Eh     change       -0.4127142E-05 Eh
   gradient norm :     0.0001614 Eh/α   predicted    -0.1445857E-05 ( -64.97%)
   displ. norm   :     0.0461680 α      lambda       -0.2338068E-05
   maximum displ.:     0.0369276 α      in ANC's #2, #3, #8, ...

........................................................................
.............................. CYCLE   35 ..............................
........................................................................

 iter      E             dE          RMSdq      gap      omega  full diag
   1   -116.1230048 -0.116123E+03  0.445E-03    2.08       0.0  T
   2   -116.1230048 -0.460757E-08  0.262E-03    2.08       4.7  T
   3   -116.1230047  0.162695E-07  0.483E-04    2.08      25.3  T
   4   -116.1230048 -0.192798E-07  0.131E-04    2.08      93.2  T
     SCC iter.                  ...        0 min,  0.026 sec
     gradient                   ...        0 min,  0.009 sec
 * total energy  :  -114.3530759 Eh     change       -0.3330014E-05 Eh
   gradient norm :     0.0001343 Eh/α   predicted    -0.1171381E-05 ( -64.82%)
   displ. norm   :     0.0383342 α      lambda       -0.1893262E-05
   maximum displ.:     0.0314945 α      in ANC's #2, #3, #8, ...

........................................................................
.............................. CYCLE   36 ..............................
........................................................................

 iter      E             dE          RMSdq      gap      omega  full diag
   1   -116.1230251 -0.116123E+03  0.404E-03    2.08       0.0  T
   2   -116.1230251 -0.378594E-08  0.238E-03    2.08       5.1  T
   3   -116.1230251  0.451459E-08  0.294E-04    2.08      41.6  T
   4   -116.1230251 -0.618193E-08  0.116E-04    2.08     105.5  T
     SCC iter.                  ...        0 min,  0.031 sec
     gradient                   ...        0 min,  0.010 sec
 * total energy  :  -114.3530786 Eh     change       -0.2694983E-05 Eh
   gradient norm :     0.0001047 Eh/α   predicted    -0.9481875E-06 ( -64.82%)
   displ. norm   :     0.0303107 α      lambda       -0.1458546E-05
   maximum displ.:     0.0258142 α      in ANC's #2, #3, #8, ...

........................................................................
.............................. CYCLE   37 ..............................
........................................................................

 iter      E             dE          RMSdq      gap      omega  full diag
   1   -116.1230143 -0.116123E+03  0.344E-03    2.08       0.0  T
   2   -116.1230143 -0.246547E-08  0.203E-03    2.08       6.0  T
   3   -116.1230143  0.396440E-08  0.273E-04    2.08      44.7  T
   4   -116.1230143 -0.521148E-08  0.961E-05    2.08     127.2  T
     SCC iter.                  ...        0 min,  0.026 sec
     gradient                   ...        0 min,  0.009 sec
 * total energy  :  -114.3530807 Eh     change       -0.2089646E-05 Eh
   gradient norm :     0.0000937 Eh/α   predicted    -0.7306349E-06 ( -65.04%)
   displ. norm   :     0.0236487 α      lambda       -0.1131526E-05
   maximum displ.:     0.0209525 α      in ANC's #2, #8, #3, ...

........................................................................
.............................. CYCLE   38 ..............................
........................................................................

 iter      E             dE          RMSdq      gap      omega  full diag
   1   -116.1230238 -0.116123E+03  0.273E-03    2.08       0.0  T
   2   -116.1230238 -0.129452E-08  0.162E-03    2.08       7.5  T
   3   -116.1230238  0.264973E-08  0.211E-04    2.08      58.0  T
   4   -116.1230238 -0.337141E-08  0.695E-05    2.08     175.8  T
     SCC iter.                  ...        0 min,  0.026 sec
     gradient                   ...        0 min,  0.009 sec
 * total energy  :  -114.3530824 Eh     change       -0.1643083E-05 Eh
   gradient norm :     0.0000916 Eh/α   predicted    -0.5668854E-06 ( -65.50%)
   displ. norm   :     0.0188549 α      lambda       -0.9255122E-06
   maximum displ.:     0.0172256 α      in ANC's #2, #8, #11, ...

........................................................................
.............................. CYCLE   39 ..............................
........................................................................

 iter      E             dE          RMSdq      gap      omega  full diag
   1   -116.1230189 -0.116123E+03  0.223E-03    2.08       0.0  T
   2   -116.1230189 -0.733863E-09  0.133E-03    2.08       9.2  T
   3   -116.1230189  0.126532E-08  0.154E-04    2.08      79.5  T
   4   -116.1230189 -0.164346E-08  0.510E-05    2.08     239.6  T
     SCC iter.                  ...        0 min,  0.026 sec
     gradient                   ...        0 min,  0.009 sec
 * total energy  :  -114.3530837 Eh     change       -0.1355026E-05 Eh
   gradient norm :     0.0000930 Eh/α   predicted    -0.4635885E-06 ( -65.79%)
   displ. norm   :     0.0163679 α      lambda       -0.8324364E-06
   maximum displ.:     0.0151548 α      in ANC's #2, #8, #5, ...

........................................................................
.............................. CYCLE   40 ..............................
........................................................................

 iter      E             dE          RMSdq      gap      omega  full diag
   1   -116.1230244 -0.116123E+03  0.198E-03    2.08       0.0  T
   2   -116.1230244 -0.491085E-09  0.118E-03    2.08      10.3  T
   3   -116.1230244  0.973131E-09  0.124E-04    2.08      98.9  T
   4   -116.1230244 -0.124760E-08  0.401E-05    2.08     304.8  T
     SCC iter.                  ...        0 min,  0.026 sec
     gradient                   ...        0 min,  0.009 sec
 * total energy  :  -114.3530849 Eh     change       -0.1222842E-05 Eh
   gradient norm :     0.0000934 Eh/α   predicted    -0.4188877E-06 ( -65.74%)
   displ. norm   :     0.0158303 α      lambda       -0.8198052E-06
   maximum displ.:     0.0144383 α      in ANC's #2, #3, #5, ...

........................................................................
.............................. CYCLE   41 ..............................
........................................................................

 iter      E             dE          RMSdq      gap      omega  full diag
   1   -116.1230253 -0.116123E+03  0.204E-03    2.08       0.0  T
   2   -116.1230253 -0.588940E-09  0.121E-03    2.08      10.1  T
   3   -116.1230253  0.107084E-08  0.135E-04    2.08      90.6  T
   4   -116.1230253 -0.135459E-08  0.427E-05    2.08     285.8  T
     SCC iter.                  ...        0 min,  0.026 sec
     gradient                   ...        0 min,  0.009 sec
 * total energy  :  -114.3530861 Eh     change       -0.1207190E-05 Eh
   gradient norm :     0.0000916 Eh/α   predicted    -0.4131549E-06 ( -65.78%)
   displ. norm   :     0.0175527 α      lambda       -0.8981592E-06
   maximum displ.:     0.0154461 α      in ANC's #2, #3, #5, ...

........................................................................
.............................. CYCLE   42 ..............................
........................................................................

 iter      E             dE          RMSdq      gap      omega  full diag
   1   -116.1230276 -0.116123E+03  0.242E-03    2.08       0.0  T
   2   -116.1230276 -0.895582E-09  0.143E-03    2.08       8.5  T
   3   -116.1230276  0.917439E-09  0.135E-04    2.08      90.3  T
   4   -116.1230276 -0.129286E-08  0.507E-05    2.08     241.0  T
     SCC iter.                  ...        0 min,  0.026 sec
     gradient                   ...        0 min,  0.009 sec
 * total energy  :  -114.3530875 Eh     change       -0.1331504E-05 Eh
   gradient norm :     0.0000887 Eh/α   predicted    -0.4509023E-06 ( -66.14%)
   displ. norm   :     0.0209075 α      lambda       -0.1048927E-05
   maximum displ.:     0.0175546 α      in ANC's #2, #3, #5, ...
 * RMSD in coord.:     0.1423101 α      energy gain  -0.1275014E-03 Eh

generating ANC from exact Hessian ...
Using Lindh-Hessian (1995)
 Shifting diagonal of input Hessian by   9.925096044048762E-003
 Lowest  eigenvalues of input Hessian
    0.000000    0.000000    0.000000    0.000000    0.000000    0.000000
    0.010000    0.010066    0.010155    0.010573    0.010906    0.010997
    0.011570    0.011599    0.011958    0.012034    0.012269    0.012785
 Highest eigenvalues
    2.191946    2.205324    2.209307    2.260322    2.336114    2.639659
 

........................................................................
.............................. CYCLE   43 ..............................
........................................................................

 iter      E             dE          RMSdq      gap      omega  full diag
   1   -116.1230306 -0.116123E+03  0.302E-03    2.08       0.0  T
   2   -116.1230306 -0.139232E-08  0.177E-03    2.08       6.9  T
   3   -116.1230306  0.145720E-08  0.170E-04    2.08      71.8  T
   4   -116.1230306 -0.204138E-08  0.596E-05    2.08     204.9  T
     SCC iter.                  ...        0 min,  0.026 sec
     gradient                   ...        0 min,  0.009 sec
 * total energy  :  -114.3530890 Eh     change       -0.1545944E-05 Eh
   gradient norm :     0.0000853 Eh/α   predicted     0.0000000E+00 (-100.00%)
   displ. norm   :     0.0118580 α      lambda       -0.1399852E-07
   maximum displ.:     0.0114068 α      in ANC's #2, #3, #8, ...

........................................................................
.............................. CYCLE   44 ..............................
........................................................................

 iter      E             dE          RMSdq      gap      omega  full diag
   1   -116.1230223 -0.116123E+03  0.147E-03    2.08       0.0  T
   2   -116.1230223 -0.292729E-09  0.862E-04    2.08      14.2  T
   3   -116.1230223  0.919798E-09  0.120E-04    2.08     102.0  T
     SCC iter.                  ...        0 min,  0.020 sec
     gradient                   ...        0 min,  0.009 sec
 * total energy  :  -114.3530900 Eh     change       -0.9455061E-06 Eh
   gradient norm :     0.0000839 Eh/α   predicted    -0.3178895E-06 ( -66.38%)
   displ. norm   :     0.0151648 α      lambda       -0.7913350E-06
   maximum displ.:     0.0133915 α      in ANC's #2, #3, #8, ...

........................................................................
.............................. CYCLE   45 ..............................
........................................................................

 iter      E             dE          RMSdq      gap      omega  full diag
   1   -116.1230226 -0.116123E+03  0.228E-03    2.08       0.0  T
   2   -116.1230226 -0.981004E-09  0.134E-03    2.08       9.1  T
   3   -116.1230226  0.122920E-08  0.144E-04    2.08      85.0  T
   4   -116.1230226 -0.171373E-08  0.374E-05    2.08     326.9  T
     SCC iter.                  ...        0 min,  0.026 sec
     gradient                   ...        0 min,  0.009 sec
 * total energy  :  -114.3530911 Eh     change       -0.1173166E-05 Eh
   gradient norm :     0.0000842 Eh/α   predicted    -0.3966668E-06 ( -66.19%)
   displ. norm   :     0.0214462 α      lambda       -0.1051535E-05
   maximum displ.:     0.0175960 α      in ANC's #2, #3, #8, ...

........................................................................
.............................. CYCLE   46 ..............................
........................................................................

 iter      E             dE          RMSdq      gap      omega  full diag
   1   -116.1230249 -0.116123E+03  0.345E-03    2.08       0.0  T
   2   -116.1230249 -0.213180E-08  0.202E-03    2.08       6.0  T
   3   -116.1230249  0.236683E-08  0.202E-04    2.08      60.4  T
   4   -116.1230249 -0.338990E-08  0.560E-05    2.08     218.1  T
     SCC iter.                  ...        0 min,  0.026 sec
     gradient                   ...        0 min,  0.009 sec
 * total energy  :  -114.3530927 Eh     change       -0.1568893E-05 Eh
   gradient norm :     0.0000834 Eh/α   predicted    -0.5325518E-06 ( -66.06%)
   displ. norm   :     0.0298709 α      lambda       -0.1408651E-05
   maximum displ.:     0.0233550 α      in ANC's #2, #3, #8, ...

........................................................................
.............................. CYCLE   47 ..............................
........................................................................

 iter      E             dE          RMSdq      gap      omega  full diag
   1   -116.1230136 -0.116123E+03  0.476E-03    2.08       0.0  T
   2   -116.1230136 -0.329229E-08  0.280E-03    2.08       4.4  T
   3   -116.1230136  0.356120E-08  0.252E-04    2.08      48.5  T
   4   -116.1230136 -0.511986E-08  0.720E-05    2.08     169.7  T
     SCC iter.                  ...        0 min,  0.026 sec
     gradient                   ...        0 min,  0.009 sec
 * total energy  :  -114.3530948 Eh     change       -0.2058737E-05 Eh
   gradient norm :     0.0000825 Eh/α   predicted    -0.7049762E-06 ( -65.76%)
   displ. norm   :     0.0402217 α      lambda       -0.1785296E-05
   maximum displ.:     0.0305762 α      in ANC's #2, #3, #8, ...

........................................................................
.............................. CYCLE   48 ..............................
........................................................................

 iter      E             dE          RMSdq      gap      omega  full diag
   1   -116.1230212 -0.116123E+03  0.640E-03    2.08       0.0  T
   2   -116.1230212 -0.524682E-08  0.376E-03    2.08       3.2  T
   3   -116.1230212  0.900357E-08  0.387E-04    2.08      31.6  T
   4   -116.1230212 -0.117434E-07  0.102E-04    2.08     120.0  T
     SCC iter.                  ...        0 min,  0.026 sec
     gradient                   ...        0 min,  0.009 sec
 * total energy  :  -114.3530974 Eh     change       -0.2590961E-05 Eh
   gradient norm :     0.0000880 Eh/α   predicted    -0.8938962E-06 ( -65.50%)
   displ. norm   :     0.0497931 α      lambda       -0.2082573E-05
   maximum displ.:     0.0373416 α      in ANC's #2, #3, #8, ...

........................................................................
.............................. CYCLE   49 ..............................
........................................................................

 iter      E             dE          RMSdq      gap      omega  full diag
   1   -116.1229964 -0.116123E+03  0.779E-03    2.08       0.0  T
   2   -116.1229964 -0.811552E-08  0.458E-03    2.08       2.7  T
   3   -116.1229963  0.171487E-07  0.528E-04    2.08      23.1  T
   4   -116.1229964 -0.213338E-07  0.126E-04    2.08      96.7  T
     SCC iter.                  ...        0 min,  0.025 sec
     gradient                   ...        0 min,  0.009 sec
 * total energy  :  -114.3531003 Eh     change       -0.2991267E-05 Eh
   gradient norm :     0.0001065 Eh/α   predicted    -0.1046505E-05 ( -65.01%)
   displ. norm   :     0.0565084 α      lambda       -0.2223996E-05
   maximum displ.:     0.0421606 α      in ANC's #2, #3, #8, ...

........................................................................
.............................. CYCLE   50 ..............................
........................................................................

 iter      E             dE          RMSdq      gap      omega  full diag
   1   -116.1230229 -0.116123E+03  0.866E-03    2.08       0.0  T
   2   -116.1230229 -0.896429E-08  0.509E-03    2.08       2.4  T
   3   -116.1230229  0.105428E-07  0.444E-04    2.08      27.5  T
   4   -116.1230229 -0.148806E-07  0.132E-04    2.08      92.4  T
     SCC iter.                  ...        0 min,  0.026 sec
     gradient                   ...        0 min,  0.009 sec
 * total energy  :  -114.3531035 Eh     change       -0.3169970E-05 Eh
   gradient norm :     0.0001184 Eh/α   predicted    -0.1115985E-05 ( -64.80%)
   displ. norm   :     0.0597755 α      lambda       -0.2204808E-05
   maximum displ.:     0.0445591 α      in ANC's #2, #3, #8, ...

........................................................................
.............................. CYCLE   51 ..............................
........................................................................

 iter      E             dE          RMSdq      gap      omega  full diag
   1   -116.1229848 -0.116123E+03  0.890E-03    2.08       0.0  T
   2   -116.1229848 -0.102710E-07  0.524E-03    2.08       2.3  T
   3   -116.1229848  0.356582E-07  0.743E-04    2.08      16.4  T
   4   -116.1229848 -0.417834E-07  0.143E-04    2.08      85.3  T
     SCC iter.                  ...        0 min,  0.026 sec
     gradient                   ...        0 min,  0.009 sec
 * total energy  :  -114.3531067 Eh     change       -0.3147676E-05 Eh
   gradient norm :     0.0001212 Eh/α   predicted    -0.1105736E-05 ( -64.87%)
   displ. norm   :     0.0596891 α      lambda       -0.2073442E-05
   maximum displ.:     0.0445592 α      in ANC's #2, #3, #8, ...

........................................................................
.............................. CYCLE   52 ..............................
........................................................................

 iter      E             dE          RMSdq      gap      omega  full diag
   1   -116.1230202 -0.116123E+03  0.863E-03    2.08       0.0  T
   2   -116.1230202 -0.822331E-08  0.508E-03    2.08       2.4  T
   3   -116.1230202  0.113491E-07  0.452E-04    2.08      27.0  T
   4   -116.1230202 -0.153373E-07  0.129E-04    2.08      94.4  T
     SCC iter.                  ...        0 min,  0.026 sec
     gradient                   ...        0 min,  0.009 sec
 * total energy  :  -114.3531096 Eh     change       -0.2981373E-05 Eh
   gradient norm :     0.0001046 Eh/α   predicted    -0.1039937E-05 ( -65.12%)
   displ. norm   :     0.0576088 α      lambda       -0.1918269E-05
   maximum displ.:     0.0431117 α      in ANC's #2, #3, #8, ...

........................................................................
.............................. CYCLE   53 ..............................
........................................................................

 iter      E             dE          RMSdq      gap      omega  full diag
   1   -116.1229991 -0.116123E+03  0.807E-03    2.08       0.0  T
   2   -116.1229991 -0.789956E-08  0.476E-03    2.08       2.6  T
   3   -116.1229991  0.266456E-07  0.641E-04    2.08      19.1  T
   4   -116.1229991 -0.311650E-07  0.126E-04    2.08      96.7  T
     SCC iter.                  ...        0 min,  0.026 sec
     gradient                   ...        0 min,  0.009 sec
 * total energy  :  -114.3531124 Eh     change       -0.2759940E-05 Eh
   gradient norm :     0.0000907 Eh/α   predicted    -0.9625740E-06 ( -65.12%)
   displ. norm   :     0.0547196 α      lambda       -0.1757770E-05
   maximum displ.:     0.0410478 α      in ANC's #2, #3, #8, ...

........................................................................
.............................. CYCLE   54 ..............................
........................................................................

 iter      E             dE          RMSdq      gap      omega  full diag
   1   -116.1230018 -0.116123E+03  0.747E-03    2.08       0.0  T
   2   -116.1230018 -0.551226E-08  0.441E-03    2.08       2.8  T
   3   -116.1230018  0.150969E-07  0.493E-04    2.08      24.8  T
   4   -116.1230018 -0.181751E-07  0.108E-04    2.08     112.8  T
     SCC iter.                  ...        0 min,  0.026 sec
     gradient                   ...        0 min,  0.009 sec
 * total energy  :  -114.3531149 Eh     change       -0.2535609E-05 Eh
   gradient norm :     0.0000887 Eh/α   predicted    -0.8838806E-06 ( -65.14%)
   displ. norm   :     0.0513887 α      lambda       -0.1598180E-05
   maximum displ.:     0.0385792 α      in ANC's #2, #3, #5, ...

........................................................................
.............................. CYCLE   55 ..............................
........................................................................

 iter      E             dE          RMSdq      gap      omega  full diag
   1   -116.1230311 -0.116123E+03  0.683E-03    2.08       0.0  T
   2   -116.1230311 -0.481548E-08  0.403E-03    2.08       3.0  T
   3   -116.1230311  0.880988E-08  0.381E-04    2.08      32.1  T
   4   -116.1230311 -0.110484E-07  0.102E-04    2.08     119.4  T
     SCC iter.                  ...        0 min,  0.026 sec
     gradient                   ...        0 min,  0.009 sec
 * total energy  :  -114.3531172 Eh     change       -0.2296636E-05 Eh
   gradient norm :     0.0001160 Eh/α   predicted    -0.8001705E-06 ( -65.16%)
   displ. norm   :     0.0499752 α      lambda       -0.1488197E-05
   maximum displ.:     0.0376453 α      in ANC's #2, #3, #5, ...

........................................................................
.............................. CYCLE   56 ..............................
........................................................................

 iter      E             dE          RMSdq      gap      omega  full diag
   1   -116.1229843 -0.116123E+03  0.657E-03    2.08       0.0  T
   2   -116.1229843 -0.426994E-08  0.389E-03    2.08       3.1  T
   3   -116.1229842  0.215057E-07  0.574E-04    2.08      21.3  T
   4   -116.1229843 -0.244021E-07  0.947E-05    2.08     129.1  T
     SCC iter.                  ...        0 min,  0.026 sec
     gradient                   ...        0 min,  0.009 sec
 * total energy  :  -114.3531194 Eh     change       -0.2128394E-05 Eh
   gradient norm :     0.0001295 Eh/α   predicted    -0.7480849E-06 ( -64.85%)
   displ. norm   :     0.0461471 α      lambda       -0.1297208E-05
   maximum displ.:     0.0350295 α      in ANC's #2, #3, #5, ...

........................................................................
.............................. CYCLE   57 ..............................
........................................................................

 iter      E             dE          RMSdq      gap      omega  full diag
   1   -116.1230288 -0.116123E+03  0.602E-03    2.08       0.0  T
   2   -116.1230288 -0.325234E-08  0.356E-03    2.08       3.4  T
   3   -116.1230288  0.341596E-08  0.258E-04    2.08      47.4  T
   4   -116.1230288 -0.481947E-08  0.855E-05    2.08     142.9  T
     SCC iter.                  ...        0 min,  0.026 sec
     gradient                   ...        0 min,  0.009 sec
 * total energy  :  -114.3531212 Eh     change       -0.1856620E-05 Eh
   gradient norm :     0.0000947 Eh/α   predicted    -0.6513822E-06 ( -64.92%)
   displ. norm   :     0.0394512 α      lambda       -0.1035868E-05
   maximum displ.:     0.0303435 α      in ANC's #2, #3, #5, ...

........................................................................
.............................. CYCLE   58 ..............................
........................................................................

 iter      E             dE          RMSdq      gap      omega  full diag
   1   -116.1230033 -0.116123E+03  0.514E-03    2.08       0.0  T
   2   -116.1230033 -0.245471E-08  0.305E-03    2.08       4.0  T
   3   -116.1230033  0.108646E-07  0.409E-04    2.08      29.9  T
   4   -116.1230033 -0.124704E-07  0.756E-05    2.08     161.7  T
     SCC iter.                  ...        0 min,  0.026 sec
     gradient                   ...        0 min,  0.009 sec
 * total energy  :  -114.3531227 Eh     change       -0.1490264E-05 Eh
   gradient norm :     0.0000623 Eh/α   predicted    -0.5205268E-06 ( -65.07%)
   displ. norm   :     0.0312538 α      lambda       -0.7724679E-06
   maximum displ.:     0.0245349 α      in ANC's #2, #3, #5, ...

........................................................................
.............................. CYCLE   59 ..............................
........................................................................

 iter      E             dE          RMSdq      gap      omega  full diag
   1   -116.1230163 -0.116123E+03  0.408E-03    2.08       0.0  T
   2   -116.1230163 -0.148430E-08  0.242E-03    2.08       5.0  T
   3   -116.1230163  0.282733E-08  0.220E-04    2.08      55.7  T
   4   -116.1230163 -0.355803E-08  0.623E-05    2.08     196.0  T
     SCC iter.                  ...        0 min,  0.026 sec
     gradient                   ...        0 min,  0.009 sec
 * total energy  :  -114.3531238 Eh     change       -0.1118064E-05 Eh
   gradient norm :     0.0000522 Eh/α   predicted    -0.3887272E-06 ( -65.23%)
   displ. norm   :     0.0234752 α      lambda       -0.5568652E-06
   maximum displ.:     0.0189780 α      in ANC's #2, #3, #5, ...

........................................................................
.............................. CYCLE   60 ..............................
........................................................................

 iter      E             dE          RMSdq      gap      omega  full diag
   1   -116.1230131 -0.116123E+03  0.305E-03    2.08       0.0  T
   2   -116.1230131 -0.853575E-09  0.181E-03    2.08       6.7  T
   3   -116.1230131  0.249949E-08  0.201E-04    2.08      60.8  T
   4   -116.1230131 -0.298886E-08  0.467E-05    2.08     261.7  T
     SCC iter.                  ...        0 min,  0.031 sec
     gradient                   ...        0 min,  0.009 sec
 * total energy  :  -114.3531246 Eh     change       -0.8147769E-06 Eh
   gradient norm :     0.0000490 Eh/α   predicted    -0.2809444E-06 ( -65.52%)
   displ. norm   :     0.0170241 α      lambda       -0.4001114E-06
   maximum displ.:     0.0143391 α      in ANC's #2, #3, #5, ...

........................................................................
.............................. CYCLE   61 ..............................
........................................................................

 iter      E             dE          RMSdq      gap      omega  full diag
   1   -116.1230181 -0.116123E+03  0.221E-03    2.08       0.0  T
   2   -116.1230181 -0.455984E-09  0.131E-03    2.08       9.3  T
   3   -116.1230181  0.812122E-09  0.119E-04    2.08     102.8  T
   4   -116.1230181 -0.103893E-08  0.352E-05    2.08     346.8  T
     SCC iter.                  ...        0 min,  0.031 sec
     gradient                   ...        0 min,  0.009 sec
 * total energy  :  -114.3531252 Eh     change       -0.5934357E-06 Eh
   gradient norm :     0.0000472 Eh/α   predicted    -0.2026440E-06 ( -65.85%)
   displ. norm   :     0.0121866 α      lambda       -0.2956308E-06
   maximum displ.:     0.0108349 α      in ANC's #2, #3, #5, ...

........................................................................
.............................. CYCLE   62 ..............................
........................................................................

 iter      E             dE          RMSdq      gap      omega  full diag
   1   -116.1230185 -0.116123E+03  0.154E-03    2.08       0.0  T
   2   -116.1230185 -0.240817E-09  0.916E-04    2.08      13.3  T
   3   -116.1230185  0.594383E-09  0.982E-05    2.08     124.5  T
     SCC iter.                  ...        0 min,  0.021 sec
     gradient                   ...        0 min,  0.009 sec
 * total energy  :  -114.3531257 Eh     change       -0.4433562E-06 Eh
   gradient norm :     0.0000468 Eh/α   predicted    -0.1503662E-06 ( -66.08%)
   displ. norm   :     0.0090053 α      lambda       -0.2339709E-06
   maximum displ.:     0.0084991 α      in ANC's #2, #3, #5, ...

........................................................................
.............................. CYCLE   63 ..............................
........................................................................

 iter      E             dE          RMSdq      gap      omega  full diag
   1   -116.1230216 -0.116123E+03  0.110E-03    2.08       0.0  T
   2   -116.1230216 -0.170331E-09  0.652E-04    2.08      18.7  T
   3   -116.1230216  0.276160E-09  0.717E-05    2.08     170.3  T
     SCC iter.                  ...        0 min,  0.020 sec
     gradient                   ...        0 min,  0.009 sec
 * total energy  :  -114.3531260 Eh     change       -0.3540904E-06 Eh
   gradient norm :     0.0000465 Eh/α   predicted    -0.1190650E-06 ( -66.37%)
   displ. norm   :     0.0073130 α      lambda       -0.2050746E-06
   maximum displ.:     0.0071989 α      in ANC's #2, #5, #3, ...

........................................................................
.............................. CYCLE   64 ..............................
........................................................................

 iter      E             dE          RMSdq      gap      omega  full diag
   1   -116.1230222 -0.116123E+03  0.816E-04    2.08       0.0  T
   2   -116.1230222 -0.103000E-09  0.483E-04    2.08      25.3  T
   3   -116.1230222  0.978275E-10  0.435E-05    2.08     280.7  T
     SCC iter.                  ...        0 min,  0.020 sec
     gradient                   ...        0 min,  0.009 sec
 * total energy  :  -114.3531263 Eh     change       -0.3091841E-06 Eh
   gradient norm :     0.0000457 Eh/α   predicted    -0.1036448E-06 ( -66.48%)
   displ. norm   :     0.0067785 α      lambda       -0.1989118E-06
   maximum displ.:     0.0067027 α      in ANC's #2, #3, #5, ...

........................................................................
.............................. CYCLE   65 ..............................
........................................................................

 iter      E             dE          RMSdq      gap      omega  full diag
   1   -116.1230239 -0.116123E+03  0.683E-04    2.08       0.0  T
   2   -116.1230239 -0.840856E-10  0.403E-04    2.08      30.3  T
   3   -116.1230239  0.793534E-10  0.450E-05    2.08     271.5  T
[...]
    23   7 N       24   6 C                                       1.3951937
    24   6 C       25   6 C                                       1.3865795
    25   6 C       26   6 C                                       1.3776514
    26   6 C       27   6 C                                       1.4021397
    27   6 C       28   8 O                                       1.3619788
    28   8 O       29   6 C                                       1.4064779
    27   6 C       30   6 C                                       1.3872301
    24   6 C       31   6 C                                       1.4071566
    30   6 C       31   6 C                                       1.3882161
    31   6 C       32   6 C                                       1.4397865 (max)
    32   6 C       33   6 C                                       1.3826071
    33   6 C       34   6 C                                       1.3927277
    34   6 C       35   8 O                                       1.3647367
    35   8 O       36   6 C                                       1.4060468
    34   6 C       37   6 C                                       1.3966814
    37   6 C       38   6 C                                       1.3851274
    23   7 N       39   6 C                                       1.3968149
    32   6 C       39   6 C                                       1.4103202
    38   6 C       39   6 C                                       1.3809823
    18   6 C       40   6 C                                       1.4154845
    22   6 C       40   6 C                                       1.4154848
    41   6 C       42   7 N                                       1.1484466
     1   6 C       43   1 H                                       1.0947370
     1   6 C       44   1 H                                       1.0951087
     1   6 C       45   1 H                                       1.0888344
     4   6 C       46   1 H                                       1.0778070
     5   6 C       47   1 H                                       1.0777908
     8   6 C       48   1 H                                       1.0774935
    10   6 C       49   1 H                                       1.0776296
    13   6 C       50   1 H                                       1.0889940
    13   6 C       51   1 H                                       1.0949628
    13   6 C       52   1 H                                       1.0949920
    14   6 C       53   1 H                                       1.0780947
    15   6 C       54   1 H                                       1.0774349 (min)
    20   6 C       55   1 H                                       1.0824195
    25   6 C       56   1 H                                       1.0777910
    26   6 C       57   1 H                                       1.0778071
    29   6 C       58   1 H                                       1.0951086
    29   6 C       59   1 H                                       1.0947370
    29   6 C       60   1 H                                       1.0888345
    30   6 C       61   1 H                                       1.0774935
    33   6 C       62   1 H                                       1.0776297
    36   6 C       63   1 H                                       1.0949627
    36   6 C       64   1 H                                       1.0949920
    36   6 C       65   1 H                                       1.0889940
    37   6 C       66   1 H                                       1.0780948
    38   6 C       67   1 H                                       1.0774350

 * 4 distinct bonds (by element types)

   Z      Z             #   av. dist./Å        max./Å        min./Å
   1 H    6 C          25     1.0852072     1.0951087     1.0774349
   6 C    6 C          28     1.3966208     1.4397865     1.3776514
   6 C    7 N          11     1.3425201     1.3968151     1.1484466
   6 C    8 O           8     1.3848101     1.4064780     1.3619787

           -------------------------------------------------
          |               Frequency Printout                |
           -------------------------------------------------
 projected vibrational frequencies (cm⁻¹)
eigval :       -0.00    -0.00    -0.00     0.00     0.00     0.00
eigval :       13.17    16.22    21.05    34.67    51.18    55.32
eigval :       64.16    71.17    75.41    77.44    93.43   100.57
eigval :      102.30   108.80   109.66   116.68   134.51   146.99
eigval :      161.91   181.83   182.00   208.31   211.78   211.97
eigval :      220.75   225.04   229.98   238.79   245.83   253.60
eigval :      256.97   265.64   272.46   287.75   304.74   341.95
eigval :      352.22   353.16   375.62   385.19   389.35   396.80
eigval :      397.71   407.38   415.98   425.17   429.71   437.84
eigval :      449.17   471.70   477.06   505.04   520.36   531.38
eigval :      539.06   551.04   554.21   559.16   574.99   585.63
eigval :      594.81   602.39   609.93   610.13   622.55   643.11
eigval :      650.30   671.82   671.87   691.32   702.50   702.60
eigval :      719.14   726.68   760.43   785.46   795.75   802.24
eigval :      804.95   805.15   809.32   821.60   843.75   852.05
eigval :      861.16   861.30   893.66   894.09   894.43   897.34
eigval :      905.67   917.12   922.51   924.65   936.73   947.72
eigval :     1027.58  1028.34  1042.38  1062.51  1063.28  1065.40
eigval :     1066.29  1122.14  1122.15  1122.34  1122.34  1124.45
eigval :     1135.77  1141.80  1145.57  1156.49  1158.06  1162.52
eigval :     1168.83  1177.82  1178.37  1188.96  1190.12  1192.99
eigval :     1201.16  1204.44  1231.00  1241.78  1248.10  1251.53
eigval :     1255.43  1286.86  1289.93  1296.79  1299.90  1323.02
eigval :     1348.80  1354.94  1358.67  1366.96  1367.11  1400.49
eigval :     1400.88  1401.88  1401.95  1414.78  1416.24  1423.22
eigval :     1426.51  1428.90  1465.45  1466.92  1471.40  1471.43
eigval :     1472.88  1472.88  1473.59  1481.82  1482.26  1485.39
eigval :     1485.65  1487.52  1489.39  1490.28  1531.42  1573.73
eigval :     1574.17  1584.41  1585.46  1606.48  1607.00  1618.63
eigval :     1618.90  2344.90  2928.57  2928.59  2929.52  2929.58
eigval :     2942.61  2942.70  2944.68  2944.79  3025.76  3025.79
eigval :     3027.81  3027.86  3058.59  3099.68  3102.49  3107.27
eigval :     3107.36  3113.18  3113.20  3116.21  3116.30  3118.76
eigval :     3119.18  3119.43  3119.52
 reduced masses (amu)
   1: 12.22   2: 12.09   3: 12.12   4: 12.10   5: 12.21   6: 11.99   7: 11.81   8: 11.95
   9: 11.82  10: 11.42  11: 11.43  12: 10.74  13: 10.11  14: 10.39  15: 10.70  16: 10.40
  17: 11.51  18: 11.20  19: 11.40  20: 12.04  21: 11.29  22: 12.37  23: 11.82  24: 12.18
  25: 11.76  26: 10.96  27: 11.42  28:  9.22  29:  8.65  30:  6.33  31: 10.34  32:  7.97
  33:  4.98  34: 10.79  35:  6.41  36:  8.27  37:  8.28  38:  9.06  39:  8.95  40: 11.08
  41: 12.32  42: 12.13  43: 10.98  44: 10.96  45: 11.58  46: 11.24  47: 11.32  48:  9.73
  49:  9.41  50: 11.84  51: 11.40  52:  9.21  53:  9.44  54: 12.15  55: 12.22  56: 11.42
  57: 11.17  58: 12.01  59: 11.67  60: 11.23  61: 11.41  62: 11.38  63: 10.56  64: 10.96
  65: 11.66  66: 11.64  67: 12.20  68: 11.74  69: 10.93  70: 10.97  71: 12.09  72: 11.42
  73: 11.37  74: 11.81  75: 11.80  76: 12.16  77: 11.79  78: 11.79  79: 12.22  80: 11.70
  81: 11.49  82: 11.97  83: 11.97  84:  4.82  85:  4.49  86:  4.52  87:  4.64  88: 12.77
  89:  3.17  90:  3.33  91:  3.38  92:  3.38  93:  3.34  94:  3.44  95:  3.41  96:  4.70
  97:  3.36  98: 11.15  99: 11.79 100: 11.02 101: 10.09 102: 11.16 103:  8.02 104:  8.07
 105: 11.09 106: 10.18 107: 10.45 108: 11.04 109: 10.56 110:  3.74 111:  3.74 112:  3.75
 113:  3.75 114:  7.97 115:  4.19 116:  5.42 117:  5.46 118:  5.38 119:  5.00 120:  6.03
 121:  7.03 122:  6.81 123:  7.40 124:  6.51 125:  6.89 126:  9.53 127:  8.61 128:  6.39
 129:  6.02 130:  4.68 131:  6.72 132:  6.35 133:  9.60 134:  9.76 135: 11.25 136: 10.69
 137: 11.32 138:  9.80 139: 12.13 140: 11.47 141: 11.50 142: 11.92 143: 11.80 144:  3.06
 145:  2.88 146:  2.99 147:  2.96 148: 10.06 149: 10.06 150: 10.00 151:  9.94 152: 12.07
 153: 10.62 154: 10.04 155:  1.56 156:  1.56 157:  1.57 158:  1.55 159: 11.81 160:  5.22
 161:  4.37 162:  2.50 163:  2.70 164: 12.51 165:  7.34 166:  8.41 167: 11.98 168: 11.78
 169: 11.78 170: 11.70 171: 11.70 172: 11.76 173: 11.75 174: 11.74 175: 11.73 176: 12.79
 177:  1.95 178:  1.95 179:  1.93 180:  1.93 181:  1.45 182:  1.45 183:  1.46 184:  1.46
 185:  1.69 186:  1.69 187:  1.69 188:  1.69 189:  1.79 190:  1.81 191:  1.79 192:  1.79
 193:  1.79 194:  1.83 195:  1.83 196:  1.83 197:  1.83 198:  1.86 199:  1.86 200:  1.87
 201:  1.87
 IR intensities (km·mol⁻¹)
   1:  0.02   2:  0.05   3:  0.04   4:  0.03   5:  0.02   6:  0.06   7:  0.37   8:  0.23
   9:  0.40  10:  0.79  11:  0.75  12:  0.21  13:  3.64  14:  0.49  15:  4.32  16:  1.51
  17:  1.86  18:  1.41  19:  0.24  20:  6.38  21:  1.42  22:  6.52  23:  1.00  24:  0.51
  25:  7.21  26:  4.39  27:  3.47  28:  0.06  29:  5.24  30:  0.38  31:  0.68  32:  2.50
  33:  2.85  34:  1.39  35:  1.25  36:  3.28  37:  0.37  38:  5.83  39: 10.93  40:  1.09
  41:  2.12  42:  1.23  43: 15.36  44:  0.29  45:  0.69  46:  1.28  47:  0.57  48:  0.34
  49:  0.21  50:  0.55  51:  5.45  52:  8.87  53:  0.06  54:  0.93  55:  2.38  56:  1.16
  57:  0.88  58: 11.49  59:  0.23  60:  1.53  61:  1.35  62:  1.13  63:  0.15  64:  0.72
  65:  8.13  66: 51.15  67: 15.12  68:  2.05  69:  0.13  70:  0.27  71: 25.82  72: 16.29
  73:  0.17  74:  0.28  75:  0.90  76:  6.19  77: 12.48  78:  1.16  79: 17.12  80:  0.43
  81:  0.02  82: 86.68  83: 37.08  84:  2.84  85: 19.90  86: 49.59  87: 98.16  88: 21.11
  89:  0.74  90:  3.03  91:  0.22  92:  3.46  93:  0.01  94:  1.08  95:  0.11  96:  2.45
  97:  1.34  98: 24.54  99: 12.52 100: 27.74 101: 48.70 102:  6.24 103:  6.27 104:  5.88
 105:  5.31 106: 65.86 107:  5.27 108: 11.65 109: 58.77 110:  0.32 111:  4.36 112:  3.20
 113:  0.22 114:  3.29 115: 30.88 116: 41.40 117: 23.71 118: 70.10 119:  1.14 120:  6.49
 121:301.61 122:377.65 123:107.57 124: 79.88 125:277.84 126:210.10 127: 10.00 128: 20.56
 129:  5.10 130:  3.66 131: 62.05 132:251.73 133: 91.08 134:201.71 135:  3.67 136: 51.47
 137: 62.53 138:142.60 139:  0.25 140:170.71 141:  2.58 142: 87.31 143:  0.93 144: 33.89
 145:  3.81 146: 13.07 147:  1.60 148: 98.84 149: 46.71 150:****** 151: 36.34 152:******
 153:204.17 154:  0.34 155:  1.71 156:  9.86 157: 11.54 158:  1.27 159:358.21 160:  3.97
 161: 15.55 162: 16.85 163:  6.42 164:367.70 165:  1.01 166: 27.52 167:850.43 168: 12.43
 169:  7.64 170:113.29 171: 12.20 172:  0.57 173:121.18 174: 74.28 175: 14.91 176:134.29
 177:  5.75 178: 73.46 179: 22.98 180: 58.38 181:  2.26 182: 72.78 183: 50.25 184: 15.67
 185: 34.14 186: 11.92 187:  6.99 188: 28.40 189: 17.58 190: 35.89 191:  5.66 192: 10.42
 193: 26.50 194:  0.89 195:  0.10 196: 56.31 197:  5.68 198:  2.94 199: 28.49 200:  0.20
 201: 15.24
 Raman intensities (Ä⁴*amu⁻¹)
   1:  0.00   2:  0.00   3:  0.00   4:  0.00   5:  0.00   6:  0.00   7:  0.00   8:  0.00
   9:  0.00  10:  0.00  11:  0.00  12:  0.00  13:  0.00  14:  0.00  15:  0.00  16:  0.00
  17:  0.00  18:  0.00  19:  0.00  20:  0.00  21:  0.00  22:  0.00  23:  0.00  24:  0.00
  25:  0.00  26:  0.00  27:  0.00  28:  0.00  29:  0.00  30:  0.00  31:  0.00  32:  0.00
  33:  0.00  34:  0.00  35:  0.00  36:  0.00  37:  0.00  38:  0.00  39:  0.00  40:  0.00
  41:  0.00  42:  0.00  43:  0.00  44:  0.00  45:  0.00  46:  0.00  47:  0.00  48:  0.00
  49:  0.00  50:  0.00  51:  0.00  52:  0.00  53:  0.00  54:  0.00  55:  0.00  56:  0.00
  57:  0.00  58:  0.00  59:  0.00  60:  0.00  61:  0.00  62:  0.00  63:  0.00  64:  0.00
  65:  0.00  66:  0.00  67:  0.00  68:  0.00  69:  0.00  70:  0.00  71:  0.00  72:  0.00
  73:  0.00  74:  0.00  75:  0.00  76:  0.00  77:  0.00  78:  0.00  79:  0.00  80:  0.00
  81:  0.00  82:  0.00  83:  0.00  84:  0.00  85:  0.00  86:  0.00  87:  0.00  88:  0.00
  89:  0.00  90:  0.00  91:  0.00  92:  0.00  93:  0.00  94:  0.00  95:  0.00  96:  0.00
  97:  0.00  98:  0.00  99:  0.00 100:  0.00 101:  0.00 102:  0.00 103:  0.00 104:  0.00
 105:  0.00 106:  0.00 107:  0.00 108:  0.00 109:  0.00 110:  0.00 111:  0.00 112:  0.00
 113:  0.00 114:  0.00 115:  0.00 116:  0.00 117:  0.00 118:  0.00 119:  0.00 120:  0.00
 121:  0.00 122:  0.00 123:  0.00 124:  0.00 125:  0.00 126:  0.00 127:  0.00 128:  0.00
 129:  0.00 130:  0.00 131:  0.00 132:  0.00 133:  0.00 134:  0.00 135:  0.00 136:  0.00
 137:  0.00 138:  0.00 139:  0.00 140:  0.00 141:  0.00 142:  0.00 143:  0.00 144:  0.00
 145:  0.00 146:  0.00 147:  0.00 148:  0.00 149:  0.00 150:  0.00 151:  0.00 152:  0.00
 153:  0.00 154:  0.00 155:  0.00 156:  0.00 157:  0.00 158:  0.00 159:  0.00 160:  0.00
 161:  0.00 162:  0.00 163:  0.00 164:  0.00 165:  0.00 166:  0.00 167:  0.00 168:  0.00
 169:  0.00 170:  0.00 171:  0.00 172:  0.00 173:  0.00 174:  0.00 175:  0.00 176:  0.00
 177:  0.00 178:  0.00 179:  0.00 180:  0.00 181:  0.00 182:  0.00 183:  0.00 184:  0.00
 185:  0.00 186:  0.00 187:  0.00 188:  0.00 189:  0.00 190:  0.00 191:  0.00 192:  0.00
 193:  0.00 194:  0.00 195:  0.00 196:  0.00 197:  0.00 198:  0.00 199:  0.00 200:  0.00
 201:  0.00
 output can be read by thermo (or use thermo option).
 writing <g98.out> molden fake output.
 recommended (thermochemical) frequency scaling factor: 1.0
           -------------------------------------------------
          |             Thermodynamic Functions             |
           -------------------------------------------------

Molecule has the following symmetry elements: (sigma) 
It seems to be the Cs point group
cs  symmetry found (for desy threshold:  0.10E+00) used in thermo

          ...................................................
          :                      SETUP                      :
          :.................................................:
          :  # frequencies                         195      :
          :  # imaginary freq.                       0      :
          :  linear?                             false      :
          :  only rotor calc.                    false      :
          :  symmetry                               cs      :
          :  rotational number                       1      :
          :  scaling factor                  1.0000000      :
          :  rotor cutoff                   50.0000000 cm⁻¹ :
          :  imag. cutoff                  -20.0000000 cm⁻¹ :
          :.................................................:

    mode    ω/cm⁻¹     T·S(HO)/kcal·mol⁻¹    T·S(FR)/kcal·mol⁻¹   T·S(vib)
   ------------------------------------------------------------------------
       1     13.17    -2.22545 (  0.48%)    -1.45175 ( 99.52%)    -1.45546
       2     16.22    -2.10208 (  1.09%)    -1.39005 ( 98.91%)    -1.39785
       3     21.05    -1.94768 (  3.05%)    -1.31281 ( 96.95%)    -1.33215
       4     34.67    -1.65253 ( 18.77%)    -1.16502 ( 81.23%)    -1.25654
       5     51.18    -1.42251 ( 52.34%)    -1.04961 ( 47.66%)    -1.24478
       6     55.32    -1.37668 ( 59.98%)    -1.02657 ( 40.02%)    -1.23657
       7     64.16    -1.28945 ( 73.06%)    -0.98265 ( 26.94%)    -1.20680
       8     71.17    -1.22859 ( 80.41%)    -0.95195 ( 19.59%)    -1.17440
       9     75.41    -1.19468 ( 83.80%)    -0.93482 ( 16.20%)    -1.15259
      10     77.44    -1.17909 ( 85.20%)    -0.92694 ( 14.80%)    -1.14176
      11     93.43    -1.06946 ( 92.42%)    -0.87134 (  7.58%)    -1.05444
      12    100.57    -1.02658 ( 94.24%)    -0.84951 (  5.76%)    -1.01639
      13    102.30    -1.01671 ( 94.60%)    -0.84448 (  5.40%)    -1.00741
      14    108.80    -0.98099 ( 95.73%)    -0.82623 (  4.27%)    -0.97438
      15    109.66    -0.97639 ( 95.86%)    -0.82388 (  4.14%)    -0.97008
      16    116.68    -0.94055 ( 96.74%)    -0.80551 (  3.26%)    -0.93615
      17    134.51    -0.85884 ( 98.13%)    -0.76339 (  1.87%)    -0.85705
      18    146.99    -0.80823 ( 98.68%)    -0.73709 (  1.32%)    -0.80729
      19    161.91    -0.75351 ( 99.10%)    -0.70845 (  0.90%)    -0.75311
      20    181.83    -0.68860 ( 99.43%)    -0.67409 (  0.57%)    -0.68851
      21    182.00    -0.68807 ( 99.43%)    -0.67381 (  0.57%)    -0.68799
      22    208.31    -0.61372 ( 99.67%)    -0.63381 (  0.33%)    -0.61379
      23    211.78    -0.60473 ( 99.69%)    -0.62891 (  0.31%)    -0.60480
      24    211.97    -0.60423 ( 99.69%)    -0.62864 (  0.31%)    -0.60431
      25    220.75    -0.58228 ( 99.74%)    -0.61663 (  0.26%)    -0.58237
      26    225.04    -0.57190 ( 99.76%)    -0.61093 (  0.24%)    -0.57200
      27    229.98    -0.56026 ( 99.78%)    -0.60449 (  0.22%)    -0.56036
      28    238.79    -0.54022 ( 99.81%)    -0.59336 (  0.19%)    -0.54032
      29    245.83    -0.52483 ( 99.83%)    -0.58475 (  0.17%)    -0.52493
      30    253.60    -0.50847 ( 99.85%)    -0.57553 (  0.15%)    -0.50857
      31    256.97    -0.50158 ( 99.86%)    -0.57162 (  0.14%)    -0.50168
      32    265.64    -0.48432 ( 99.87%)    -0.56179 (  0.13%)    -0.48442
      33    272.46    -0.47125 ( 99.89%)    -0.55428 (  0.11%)    -0.47134
      34    287.75    -0.44340 ( 99.91%)    -0.53811 (  0.09%)    -0.44349
   ------------------------------------------------------------------------

   temp. (K)  partition function   enthalpy   heat capacity  entropy
                                   cal/mol     cal/K/mol   cal/K/mol   J/K/mol
 298.15  VIB  0.289E+16            21074.111    130.129    131.122
         ROT  0.627E+08              888.752      2.981     38.659
         INT  0.181E+24            21962.863    133.110    169.782
         TR   0.127E+29             1481.254      4.968     44.809
         TOT                       23444.1173   138.0784   214.5909   897.8484

       T/K    H(0)-H(T)+PV         H(T)/Eh          T*S/Eh         G(T)/Eh
   ------------------------------------------------------------------------
    298.15    0.373606E-01    0.538317E+00    0.101959E+00    0.436358E+00
   ------------------------------------------------------------------------

         :::::::::::::::::::::::::::::::::::::::::::::::::::::
         ::                  THERMODYNAMIC                  ::
         :::::::::::::::::::::::::::::::::::::::::::::::::::::
         :: total free energy        -113.916769544274 Eh   ::
         ::.................................................::
         :: total energy             -114.353127308336 Eh   ::
         :: zero point energy           0.500956251195 Eh   ::
         :: G(RRHO) w/o ZPVE           -0.064598487133 Eh   ::
         :: G(RRHO) contrib.            0.436357764063 Eh   ::
         :::::::::::::::::::::::::::::::::::::::::::::::::::::

optimized geometry written to: xtbopt.xyz


           -------------------------------------------------
          | TOTAL ENERGY             -114.353127308336 Eh   |
          | TOTAL ENTHALPY           -113.814810478128 Eh   |
          | TOTAL FREE ENERGY        -113.916769544274 Eh   |
          | GRADIENT NORM               0.000046792686 Eh/α |
          | HOMO-LUMO GAP               2.084853379647 eV   |
           -------------------------------------------------

------------------------------------------------------------------------
 * finished run on 2025/09/10 at 21:11:58.003     
------------------------------------------------------------------------
 total:
 * wall-time:     0 d,  0 h,  0 min,  5.727 sec
 *  cpu-time:     0 d,  0 h,  3 min, 41.738 sec
 * ratio c/w:    38.720 speedup
 SCF:
 * wall-time:     0 d,  0 h,  0 min,  0.151 sec
 *  cpu-time:     0 d,  0 h,  0 min,  5.633 sec
 * ratio c/w:    37.422 speedup
 ANC optimizer:
 * wall-time:     0 d,  0 h,  0 min,  3.198 sec
 *  cpu-time:     0 d,  0 h,  2 min,  7.837 sec
 * ratio c/w:    39.980 speedup
 analytical hessian:
 * wall-time:     0 d,  0 h,  0 min,  2.234 sec
 *  cpu-time:     0 d,  0 h,  1 min, 23.330 sec
 * ratio c/w:    37.309 speedup

