$hessian                                                                        
        0.0706529910  -0.0578496950   0.0006502400  -0.0290996619   0.0278627561
        0.0000318354  -0.0012808040   0.0103356524  -0.0000202516   0.0039012872
       -0.0008864043   0.0000371158  -0.0015943121  -0.0003800637  -0.0000543161
       -0.0023345877  -0.0017458583  -0.0001295266  -0.0007989540   0.0015714167
       -0.0000020568  -0.0002418668  -0.0000986122  -0.0000566868   0.0002819810
        0.0000918735   0.0000275768  -0.0002480535  -0.0000014904  -0.0000072263
        0.0003950795  -0.0001841662  -0.0000206194  -0.0004883485  -0.0000787758
        0.0000054718   0.0003120088   0.0005283193   0.0000159454  -0.0003722075
       -0.0005189358   0.0000184370   0.0004367374   0.0000686028  -0.0000135608
        0.0000418981   0.0002163511   0.0000155554  -0.0003874260   0.0001802726
       -0.0000150228   0.0001829112  -0.0000746995   0.0000095190   0.0000676359
       -0.0001009292   0.0000008474   0.0000442224  -0.0000480032  -0.0000189859
        0.0002185224   0.0000310392  -0.0000205444  -0.0001299480  -0.0001536658
        0.0000542195   0.0003873533  -0.0002173193  -0.0000316674  -0.0407982510
        0.0216707588  -0.0005023664   0.0009042667  -0.0009595146  -0.0000290958
       -0.0002264682   0.0004357656   0.0000062222   0.0001590699   0.0001627435
        0.0000421544   0.0000453047   0.0000480573   0.0000209578   0.0000550648
        0.0000483320  -0.0000037044   0.0000372339  -0.0000044503   0.0000107072
       -0.0000117706   0.0000208020  -0.0000082650   0.0000461263  -0.0000002310
       -0.0000054657   0.0000395177  -0.0000692022   0.0000039662  -0.0001965523
        0.0000992743  -0.0000114091
       -0.0578496950   0.0993628785  -0.0001530844   0.0177900184  -0.0605969719
       -0.0003913897   0.0203109096  -0.0375799949  -0.0001069313  -0.0076177367
       -0.0030857801  -0.0001269344   0.0020187441   0.0007345730   0.0001899200
       -0.0000217406   0.0003316694   0.0000232366  -0.0008723641  -0.0010618143
       -0.0000622107   0.0001025888  -0.0002552403   0.0001081940  -0.0005944024
        0.0000818844  -0.0000894192   0.0003487959   0.0001600222   0.0000160912
       -0.0002574979   0.0000631840   0.0000229331   0.0002878765   0.0000419902
        0.0000439115  -0.0004732075  -0.0004451186  -0.0000659282   0.0005846117
        0.0007614490   0.0000130747  -0.0004798379  -0.0004312573   0.0000658174
       -0.0003482062   0.0000891035  -0.0000170565   0.0007639960  -0.0004603982
        0.0000394660  -0.0004911391   0.0002385826  -0.0000367717   0.0000012483
        0.0000662671   0.0000810127  -0.0000726281   0.0001483156   0.0000407747
        0.0000474405  -0.0001715666  -0.0000187885   0.0004628144   0.0000146467
       -0.0001264759  -0.0003967850   0.0006275871   0.0000604684   0.0254331850
        0.0028554978   0.0005375638   0.0000807428   0.0004354973   0.0001314888
        0.0011859413  -0.0017450140   0.0000090097  -0.0000277324  -0.0000954880
       -0.0000922096  -0.0000320586  -0.0000655948  -0.0000508200  -0.0000908639
       -0.0000809447   0.0000238381  -0.0000443536   0.0000142325  -0.0000202865
        0.0000283899  -0.0000341185  -0.0000230029  -0.0000689314   0.0000174509
       -0.0000041793  -0.0000431623   0.0000839853  -0.0000443812   0.0003350397
       -0.0000195146   0.0000230696
        0.0006502400  -0.0001530844   0.0077814591  -0.0000523966  -0.0003513580
       -0.0160981879   0.0001882009  -0.0001482692   0.0032853657  -0.0003438720
       -0.0000841505   0.0041222904   0.0002862954   0.0001173050  -0.0002131838
       -0.0004627074  -0.0006044602   0.0054031618  -0.0000735156   0.0001328689
        0.0001590642   0.0001730552  -0.0001016122  -0.0000468148  -0.0000947385
       -0.0002309298  -0.0000131718   0.0000521668  -0.0000892756  -0.0000063348
       -0.0000768398   0.0000636353  -0.0000101097   0.0001165772   0.0000670282
        0.0000019081   0.0000693840  -0.0000699671   0.0000011723  -0.0002770296
       -0.0001177309  -0.0000082437   0.0001492906   0.0000272682  -0.0000015350
        0.0001231447   0.0000714257  -0.0000194510  -0.0001212113  -0.0000709690
        0.0000051321   0.0000851295   0.0000223000  -0.0000060256  -0.0000851620
        0.0000019649  -0.0000289793   0.0000060952   0.0000606737  -0.0000030854
       -0.0001052659  -0.0000871477  -0.0000187846  -0.0000416647   0.0003311280
       -0.0000628087   0.0000489404   0.0002180361   0.0003925238  -0.0001387086
        0.0011062341  -0.0016874489  -0.0000006681  -0.0000124399  -0.0013833278
        0.0000174034  -0.0000238987  -0.0004509692  -0.0000579341  -0.0000511435
       -0.0009704170  -0.0000013715   0.0000087273   0.0000124677   0.0000181986
        0.0000173387  -0.0000037976  -0.0000000967  -0.0000076444  -0.0000000123
       -0.0000036595   0.0000044237   0.0000054237   0.0000043626  -0.0000076971
       -0.0000114504  -0.0000026564  -0.0000077611  -0.0000054310  -0.0000489862
       -0.0000308184  -0.0001203986
       -0.0290996619   0.0177900184  -0.0000523966   0.5551812477   0.1136159657
        0.0073186984  -0.1015300509  -0.0482573292  -0.0011790094   0.0393151756
       -0.0099775302   0.0002747021  -0.0146177342  -0.0047675351   0.0000083040
       -0.0977717431   0.0323966681  -0.0008762990   0.0185117166   0.0042001686
        0.0005119945  -0.0104250741   0.0043185318  -0.0006754589   0.0043192457
        0.0039384720   0.0002632439  -0.0009116745  -0.0041127519   0.0002263029
       -0.0045703632   0.0035396168   0.0000094354   0.0062627651   0.0012498691
       -0.0006288019   0.0010863705  -0.0037873504   0.0005665301  -0.0012038981
       -0.0027191817  -0.0005684942  -0.0021126379   0.0081591724  -0.0000851886
        0.0052151506  -0.0078743034  -0.0000091213  -0.0035871216   0.0057343979
        0.0000108101   0.0051197994  -0.0033414274  -0.0000179587  -0.0027118305
        0.0008206182  -0.0004283844   0.0013910223  -0.0016140977  -0.0002723819
       -0.0065301766   0.0025082229   0.0005760232   0.0012378157  -0.0011266632
        0.0004229907  -0.0006248533  -0.0046383230  -0.0009576935  -0.3474300983
       -0.0801950158  -0.0049522663  -0.0127251545  -0.0250803360   0.0001624643
       -0.0012659225   0.0031974749  -0.0000511625   0.0001433458  -0.0019614432
       -0.0003247927  -0.0000271508   0.0000914716   0.0003558665   0.0004451815
        0.0003564010  -0.0001273717  -0.0000538874  -0.0002899536   0.0001136912
       -0.0000976898   0.0001283432   0.0001014466   0.0004075766  -0.0000705995
        0.0001565559   0.0001057727  -0.0001927449   0.0001669235  -0.0014454626
       -0.0020388267  -0.0000392016
        0.0278627561  -0.0605969719  -0.0003513580   0.1136159657   0.4711790050
        0.0048963771  -0.1102857462  -0.2428810849  -0.0018337922   0.0469112762
       -0.0652396940   0.0005529336  -0.0175166807   0.0001215125  -0.0013538715
        0.0069090400   0.0100568132  -0.0002135375   0.0171827483  -0.0017904129
        0.0006384090  -0.0043289728   0.0031063680  -0.0004780867   0.0036340953
        0.0022269239   0.0004200197  -0.0017240288  -0.0022658989  -0.0000938626
       -0.0004518589   0.0014448203  -0.0001216341   0.0009287703   0.0003710987
       -0.0003352887   0.0025934250   0.0010964523   0.0004223898  -0.0038098201
       -0.0052660270  -0.0002088650   0.0012194918   0.0052705268  -0.0003167894
        0.0038225478  -0.0038412163   0.0002048727  -0.0060728549   0.0044231124
       -0.0001725089   0.0046151940  -0.0023358052   0.0001127538  -0.0013263426
       -0.0001193493  -0.0004594651   0.0010612353  -0.0007657848  -0.0003424346
       -0.0030562178   0.0015368938   0.0002207299  -0.0001465615  -0.0014589724
        0.0007275852  -0.0013172944  -0.0045098701  -0.0005464135  -0.0803957300
       -0.1028665862  -0.0019754615  -0.0022298280  -0.0048363803  -0.0006515116
        0.0027247056  -0.0018434219   0.0001665760  -0.0005032263   0.0000551948
        0.0003510600  -0.0000239356   0.0002104593   0.0003211287   0.0004080837
        0.0004810539  -0.0001498893  -0.0000503312  -0.0002749120   0.0000868285
       -0.0001832000   0.0001384003   0.0001525785   0.0005069422  -0.0002190794
        0.0001076992   0.0003009300  -0.0002238751   0.0002572401  -0.0008745775
       -0.0003832927  -0.0000344119
        0.0000318354  -0.0003913897  -0.0160981879   0.0073186984   0.0048963771
        0.0980326412  -0.0015604563  -0.0007278472  -0.0477898894   0.0027362223
       -0.0004571574   0.0017004130  -0.0016836605  -0.0007898432  -0.0041480779
        0.0002170516   0.0020738828   0.0047835902   0.0006218160  -0.0004987921
        0.0053144366  -0.0009374220   0.0003823905  -0.0002184249   0.0006173426
        0.0012588732  -0.0000261187  -0.0004004187   0.0002599210   0.0003872711
        0.0006745366  -0.0002740370  -0.0000783812  -0.0008678661  -0.0003016763
       -0.0002809334  -0.0001163748   0.0007525236   0.0002224016   0.0004134323
       -0.0000844029  -0.0004188955   0.0001030336  -0.0002951285   0.0001486593
       -0.0006292257   0.0003224639  -0.0001895103   0.0001979911  -0.0000188819
        0.0001689103  -0.0004413570   0.0001346722  -0.0000318742   0.0004428205
       -0.0000537394   0.0002103372  -0.0000369343  -0.0002281137  -0.0000044643
        0.0007258621   0.0002963591   0.0000209253   0.0004164909  -0.0016430750
        0.0002429328  -0.0004882093  -0.0008385260  -0.0018248976  -0.0076233391
       -0.0041547658  -0.0465290029  -0.0001099960  -0.0000652269   0.0000594914
       -0.0001022091   0.0000812746   0.0074326205   0.0002957439   0.0002057592
       -0.0014502520   0.0000200177  -0.0000163679   0.0001440442  -0.0000517897
       -0.0000562657  -0.0000259731   0.0000066313   0.0000211534   0.0001550887
        0.0000113599  -0.0000085124  -0.0001423979  -0.0000295629   0.0000282361
       -0.0000180784   0.0000146397   0.0000419104  -0.0000500897   0.0002132958
        0.0001479523   0.0003016859
       -0.0012808040   0.0203109096   0.0001882009  -0.1015300509  -0.1102857462
       -0.0015604563   0.6705075657   0.0234471088   0.0085697847  -0.1651001120
        0.1317980695  -0.0015086274  -0.0587357054   0.0098598334  -0.0005416507
        0.0194694651   0.0083160505   0.0002676559  -0.0120675979   0.0001738576
       -0.0003388341   0.0049079878  -0.0024862788   0.0005298232  -0.0019773189
       -0.0013439613  -0.0002782898  -0.0002631608   0.0042024451  -0.0000086877
        0.0055444396  -0.0036167124  -0.0001155676  -0.0071725597  -0.0013824245
        0.0006210811  -0.0005934832   0.0048255906  -0.0006118177   0.0002811748
        0.0012807121   0.0003797533   0.0027022086  -0.0075849580   0.0002079641
       -0.0057030175   0.0077737533   0.0002373898   0.0023753693  -0.0048856103
       -0.0000853515  -0.0048486568   0.0032222499  -0.0000050710   0.0034569773
       -0.0008589947   0.0006504994  -0.0013437742   0.0006723020   0.0002295130
        0.0077731527  -0.0012197971  -0.0007993255  -0.0026220128  -0.0018196493
       -0.0004706804   0.0015461455   0.0012470481   0.0007116639  -0.0510148189
       -0.0352518847  -0.0014506842  -0.3045646899  -0.0393530179  -0.0035572329
        0.0061615323  -0.0057999219  -0.0001308457  -0.0052619373  -0.0011771487
       -0.0003003984  -0.0000942178  -0.0001316405  -0.0003037227  -0.0003004867
       -0.0002392809   0.0001154520  -0.0000467411   0.0003386027  -0.0000720774
        0.0001022576  -0.0001380853  -0.0001843737  -0.0003753949   0.0000010291
       -0.0001729239  -0.0000101546   0.0000451694  -0.0001975305   0.0000784190
        0.0000603808  -0.0000146321
        0.0103356524  -0.0375799949  -0.0001482692  -0.0482573292  -0.2428810849
       -0.0007278472   0.0234471088   0.5705347608   0.0024271836   0.0573351763
       -0.1994970659   0.0005630530   0.0548197850   0.0152222836   0.0007619252
        0.0115006589  -0.0182437010   0.0001923497  -0.0034308324  -0.0004969714
       -0.0002544703   0.0021544368  -0.0008654776   0.0002959047  -0.0023279376
       -0.0019298328  -0.0000986973   0.0017642158  -0.0018404006  -0.0001326057
       -0.0041155749   0.0019256768   0.0001919038   0.0049118529   0.0008064987
       -0.0001656081  -0.0013679229  -0.0044938455   0.0001407312   0.0027165322
        0.0027334585  -0.0000685134  -0.0031315514   0.0023331225   0.0000292386
        0.0017914344  -0.0035918287  -0.0003196658   0.0029960440   0.0004251260
        0.0002078847   0.0004412117  -0.0007311273  -0.0000877760  -0.0019531397
        0.0007709691  -0.0001971777   0.0002894887   0.0002562286   0.0000481121
       -0.0042971220  -0.0005275675   0.0004203704   0.0018479600   0.0034710071
       -0.0001523589  -0.0002452255   0.0040269096   0.0002194784  -0.0836814757
       -0.0195109209  -0.0026380155  -0.0399198900  -0.0471279004  -0.0008448812
        0.0170998197  -0.0250350524   0.0002408510  -0.0017409943   0.0011679332
        0.0000483528   0.0001444796  -0.0000368141  -0.0000272165  -0.0000510550
       -0.0001427366   0.0000089779   0.0000949314  -0.0000734802  -0.0000472905
        0.0000579298  -0.0000074810   0.0000486529  -0.0000788466   0.0001383734
        0.0000687654  -0.0002249551   0.0001202477  -0.0000248296   0.0010751338
        0.0006806883   0.0000214873
       -0.0000202516  -0.0001069313   0.0032853657  -0.0011790094  -0.0018337922
       -0.0477898894   0.0085697847   0.0024271836   0.0909667816  -0.0013717066
        0.0018036655  -0.0411703673  -0.0013583497  -0.0001493865   0.0010896589
        0.0012967355   0.0014485195  -0.0062442453  -0.0000249377  -0.0002768186
        0.0000558520  -0.0004021633   0.0000915082  -0.0003701268   0.0002773010
        0.0007613608   0.0000044209  -0.0001774976   0.0002651428   0.0002210290
        0.0004954309  -0.0002444304  -0.0000556102  -0.0006485140  -0.0001816242
       -0.0000873263  -0.0000934809   0.0005447825   0.0000013078   0.0003058894
       -0.0000253112  -0.0001214427   0.0000205522  -0.0002637247   0.0000816056
       -0.0005133761   0.0002540823  -0.0000480191   0.0002592678  -0.0001204459
        0.0000765365  -0.0003721508   0.0001524604  -0.0000191544   0.0003122154
       -0.0000534014   0.0001776423  -0.0000522077  -0.0000942184   0.0000442172
        0.0006051123   0.0001216752   0.0000109019   0.0002815541  -0.0009993715
        0.0000686308  -0.0003006482  -0.0004490003  -0.0007398146  -0.0024354619
       -0.0025094577   0.0162722328  -0.0037040256  -0.0005378382  -0.0262813457
        0.0001408695  -0.0001679386   0.0024734089  -0.0000148680   0.0000493754
        0.0080347900   0.0000073799  -0.0000185635   0.0000040613  -0.0000341006
       -0.0000378201  -0.0000346420   0.0000012934   0.0000174765   0.0000236514
        0.0000075916  -0.0000106896  -0.0000550684  -0.0000258422   0.0000182758
        0.0000201584   0.0000047059   0.0000267971  -0.0000247677   0.0001429082
        0.0000984588   0.0001295670
        0.0039012872  -0.0076177367  -0.0003438720   0.0393151756   0.0469112762
        0.0027362223  -0.1651001120   0.0573351763  -0.0013717066   0.6412681494
        0.0497626902   0.0084126842  -0.3514763723  -0.0200576190  -0.0058068810
       -0.0377974779  -0.0678204116  -0.0008786507   0.0209006730  -0.0008235051
        0.0001092864  -0.0072589173   0.0035518040  -0.0002032255   0.0019261791
        0.0014992728   0.0002997329   0.0014904351  -0.0059764364  -0.0001241931
       -0.0094873836   0.0055224984   0.0002614172   0.0121545961   0.0023463585
       -0.0008416216  -0.0000894950  -0.0092998709   0.0008325530   0.0010998185
        0.0005082297  -0.0005780308  -0.0055047983   0.0103336650  -0.0002329987
        0.0075393384  -0.0116749227  -0.0003622623  -0.0012135338   0.0063196270
        0.0001552564   0.0060446197  -0.0043518753  -0.0000153825  -0.0050097923
        0.0016798846  -0.0010098797   0.0016050437  -0.0012012057  -0.0002374298
       -0.0114616864   0.0019551664   0.0011739483   0.0037766413   0.0033950289
        0.0002866440  -0.0029850229  -0.0013088094  -0.0002412315  -0.0313847592
        0.0028307084  -0.0015948116  -0.0192306894   0.0209848030  -0.0008734881
       -0.0726227714  -0.0835405516  -0.0005030303  -0.0216501799  -0.0019687093
       -0.0001190667   0.0002090088   0.0000924213   0.0003523704   0.0003638966
        0.0002515175  -0.0001497978   0.0000624488  -0.0004248405   0.0000470143
       -0.0001029948   0.0001513271   0.0003047636   0.0003762574   0.0000265705
        0.0002499684  -0.0000873270   0.0000824841   0.0002709192   0.0004297449
        0.0005259841  -0.0000052204
       -0.0008864043  -0.0030857801  -0.0000841505  -0.0099775302  -0.0652396940
       -0.0004571574   0.1317980695  -0.1994970659   0.0018036655   0.0497626902
        0.6389548771   0.0028339219  -0.0898769144  -0.0983840279  -0.0016954057
       -0.0267640207  -0.0119262239  -0.0012313032  -0.0058908332  -0.0053918391
       -0.0003866307   0.0026166926  -0.0010400905   0.0004102946  -0.0007715861
       -0.0009502776  -0.0001205490   0.0000003732   0.0035463295   0.0000044056
        0.0040170096  -0.0030416775  -0.0000766174  -0.0050640409  -0.0008493067
        0.0004338211  -0.0004820561   0.0030954892  -0.0004183347  -0.0001248001
        0.0014879839   0.0002262430   0.0022476123  -0.0064529441   0.0001457414
       -0.0048167027   0.0064903533   0.0001524403   0.0021365576  -0.0040783865
       -0.0000691361  -0.0040389953   0.0026310840   0.0000349689   0.0028973781
       -0.0005578475   0.0004305720  -0.0012424091   0.0003977668   0.0001876285
        0.0063295655  -0.0006732198  -0.0006836709  -0.0026680702  -0.0016976092
       -0.0003760194  -0.0006403506  -0.0012534889   0.0009024454   0.0161074615
        0.0147179050   0.0005778846  -0.0014464235   0.0029853625  -0.0000584416
       -0.0829161811  -0.2730045004  -0.0023434025   0.0208703286   0.0032036758
        0.0004549316  -0.0001096127  -0.0000625815  -0.0002075784  -0.0002135956
       -0.0001764311   0.0000815077  -0.0000390116   0.0002790549  -0.0000326221
        0.0000987336  -0.0001087037  -0.0001148226  -0.0003308007   0.0000018548
       -0.0001557808  -0.0000158279   0.0000270888  -0.0001263002  -0.0005663053
       -0.0003471297  -0.0000425488
        0.0000371158  -0.0001269344   0.0041222904   0.0002747021   0.0005529336
        0.0017004130  -0.0015086274   0.0005630530  -0.0411703673   0.0084126842
        0.0028339219   0.1084033729  -0.0051063592  -0.0012018843  -0.0421822842
       -0.0008855329  -0.0008206482   0.0028404056   0.0004144951  -0.0002004481
        0.0043096739   0.0000381657  -0.0000367385  -0.0004069607  -0.0000715171
        0.0001222329  -0.0001216727   0.0000295898  -0.0000460298   0.0001254721
        0.0000456409   0.0000156760  -0.0000054068  -0.0000315250   0.0000198163
       -0.0000324244   0.0000152502   0.0000228028   0.0000555511  -0.0002198050
       -0.0000614135  -0.0000606393   0.0001655722  -0.0001149070   0.0000046288
        0.0002049939   0.0001370108  -0.0000222758  -0.0003541786  -0.0000848138
       -0.0000651852   0.0000612477   0.0000156935   0.0000015518  -0.0000393713
       -0.0000026117  -0.0000830569   0.0000578050   0.0000288856  -0.0000149450
       -0.0000869608   0.0000125162   0.0001839566   0.0003015024  -0.0000013221
       -0.0001929814  -0.0002646969   0.0000732215   0.0001269150  -0.0002388439
        0.0002475900  -0.0046975844  -0.0002644514   0.0003120291   0.0007691026
       -0.0007735779  -0.0022600627  -0.0346596324  -0.0002339420  -0.0000500686
        0.0009636138   0.0000089140  -0.0000003065   0.0000437655   0.0000071631
       -0.0000037150   0.0000117632   0.0000054381  -0.0000039627   0.0000421652
       -0.0000050535   0.0000087976   0.0000197146   0.0000038302   0.0000084829
       -0.0000164181   0.0000045134   0.0000186616   0.0000105712  -0.0000041808
        0.0000225418  -0.0000030928
       -0.0015943121   0.0020187441   0.0002862954  -0.0146177342  -0.0175166807
       -0.0016836605  -0.0587357054   0.0548197850  -0.0013583497  -0.3514763723
       -0.0898769144  -0.0051063592   0.6989040214  -0.0383775496   0.0083627493
       -0.0717657930  -0.0232540090  -0.0000024002  -0.0395019239  -0.0306646811
       -0.0003917080   0.0099390756  -0.0060480619   0.0004167342  -0.0028513341
       -0.0025121581  -0.0003812129  -0.0009335468   0.0048543442   0.0000114422
        0.0080715652  -0.0044862709  -0.0001995267  -0.0104224256  -0.0020892858
        0.0008065706  -0.0002861192   0.0080882143  -0.0008158808  -0.0001639695
       -0.0001747886   0.0006053939   0.0043099678  -0.0086536581   0.0002753307
       -0.0061678357   0.0096590308   0.0002651805   0.0015223684  -0.0057003763
       -0.0000547119  -0.0051462314   0.0037770268  -0.0000584644   0.0036971985
       -0.0016558188   0.0010725483  -0.0012029992   0.0017958246   0.0002060815
        0.0087485401  -0.0027081227  -0.0011293917  -0.0031218822  -0.0033615331
       -0.0001883044  -0.0029109200   0.0029883570   0.0001363731   0.0187945234
        0.0172204279   0.0008579612  -0.0017957199   0.0033547887   0.0003443388
       -0.0122935169  -0.0053051416  -0.0003827901  -0.1678051103   0.1341876937
       -0.0007725096  -0.0002339636  -0.0001277438  -0.0003722572  -0.0003822908
       -0.0002890165   0.0001631686  -0.0000368158   0.0003681190  -0.0000806000
        0.0000894161  -0.0001451699  -0.0003361860  -0.0003487327   0.0000089918
       -0.0002046216  -0.0000134726  -0.0000043382  -0.0003274215  -0.0002679491
       -0.0001900286   0.0000361884
       -0.0003800637   0.0007345730   0.0001173050  -0.0047675351   0.0001215125
       -0.0007898432   0.0098598334   0.0152222836  -0.0001493865  -0.0200576190
       -0.0983840279  -0.0012018843  -0.0383775496   0.5776788692   0.0029597210
       -0.0386949260  -0.2282631434  -0.0008766993  -0.0540365273  -0.0144931707
       -0.0007893187   0.0183081177  -0.0080053924   0.0008079886  -0.0066768010
       -0.0067217179  -0.0005854604   0.0001319345   0.0060017025   0.0001153427
        0.0084524978  -0.0051882561  -0.0001482847  -0.0112910278  -0.0025644252
        0.0009449358  -0.0017264268   0.0078245454  -0.0010005757   0.0020847774
        0.0027027997   0.0006724088   0.0038499297  -0.0117051961   0.0002658948
       -0.0081602697   0.0119997853   0.0001717901   0.0050482355  -0.0085285450
       -0.0000820194  -0.0079094004   0.0052553702  -0.0000190747   0.0045596612
       -0.0014765040   0.0010467810  -0.0019129918   0.0022360144   0.0003714975
        0.0106407423  -0.0038891163  -0.0009957780  -0.0048043284   0.0002147691
       -0.0006766106   0.0042855538   0.0092511241   0.0004854730   0.0241416606
       -0.0551065955   0.0005761151   0.0035284729  -0.0032044849   0.0003606995
       -0.0286485293  -0.0076980353  -0.0004692305   0.1332929267  -0.1831277798
        0.0001777417  -0.0000605544  -0.0002633782  -0.0005054617  -0.0005679312
       -0.0005433466   0.0002163614  -0.0000095196   0.0005596086  -0.0001071933
        0.0002075601  -0.0002228477  -0.0002991417  -0.0006636116   0.0001097174
       -0.0002854633  -0.0001761498   0.0000493181  -0.0003438239   0.0005298591
       -0.0005760299   0.0000351942
       -0.0000543161   0.0001899200  -0.0002131838   0.0000083040  -0.0013538715
       -0.0041480779  -0.0005416507   0.0007619252   0.0010896589  -0.0058068810
       -0.0016954057  -0.0421822842   0.0083627493   0.0029597210   0.1042186472
       -0.0020126555  -0.0024583437  -0.0505488734  -0.0004958693   0.0002490226
       -0.0005516555   0.0007459477  -0.0002203270   0.0006320241  -0.0003814995
       -0.0011236906  -0.0000316271   0.0001827611  -0.0001971789  -0.0002307890
       -0.0004686304   0.0001702056   0.0000129156   0.0006151085   0.0001595040
        0.0000659323   0.0001074580  -0.0005591182   0.0000035338  -0.0003830972
        0.0001140880   0.0000234245   0.0001322178   0.0000354520  -0.0000452382
        0.0002948407   0.0000711966  -0.0000997488  -0.0000007213  -0.0001030969
       -0.0000540671   0.0002437605  -0.0000364843   0.0000216296  -0.0002893782
        0.0000310279  -0.0000877774  -0.0000303373   0.0002385373  -0.0000498161
       -0.0004298301  -0.0003857463   0.0000067588  -0.0005762396   0.0014072807
        0.0003803391   0.0005280662   0.0005185666   0.0043534599   0.0014686527
        0.0012650292   0.0110488313  -0.0001236485  -0.0000918848   0.0056472590
       -0.0003687836  -0.0001462232   0.0015961707  -0.0005950225   0.0003148365
       -0.0310122702  -0.0000108986   0.0000199594  -0.0000457364   0.0000225666
        0.0000374591  -0.0000140132  -0.0000079861  -0.0000126745  -0.0000206517
        0.0000015983  -0.0000011220   0.0000642131   0.0000134196  -0.0000244271
        0.0000225389  -0.0000126833  -0.0000371101   0.0000373250  -0.0001373220
       -0.0000970270   0.0001111482
       -0.0023345877  -0.0000217406  -0.0004627074  -0.0977717431   0.0069090400
        0.0002170516   0.0194694651   0.0115006589   0.0012967355  -0.0377974779
       -0.0267640207  -0.0008855329  -0.0717657930  -0.0386949260  -0.0020126555
        0.6040678817   0.0205988114   0.0026158608  -0.2216402245  -0.0646591240
        0.0003598023  -0.0786694452   0.0182171859  -0.0021431532   0.0151632836
        0.0221696493   0.0011354042  -0.0012092651  -0.0141016603  -0.0001183153
       -0.0202534578   0.0122240255   0.0003388730   0.0269842846   0.0059819203
       -0.0020886273   0.0029813353  -0.0193471817   0.0020788142  -0.0028154419
       -0.0049582096  -0.0015809238  -0.0104583926   0.0276635134  -0.0001622276
        0.0165459471  -0.0288144472  -0.0004619725  -0.0082291237   0.0197030256
        0.0004220991   0.0164494484  -0.0118814171  -0.0001376151  -0.0094406501
        0.0041233504  -0.0018330433   0.0040664004  -0.0072105065  -0.0006260505
       -0.0232127944   0.0114755940   0.0018841949   0.0089056192  -0.0053399761
        0.0009902485  -0.0245350697  -0.0364001078  -0.0004703761  -0.1084747958
        0.0774672287  -0.0010881624   0.0014587148   0.0007614807  -0.0005812274
       -0.0058608667  -0.0019155961  -0.0000562643   0.0048522430   0.0181471917
        0.0011324746   0.0004299470   0.0003623562   0.0010322290   0.0013286614
        0.0010891520  -0.0004148596   0.0000801328  -0.0012686049   0.0001888110
       -0.0003537684   0.0004981068   0.0004148084   0.0013351493  -0.0000831014
        0.0006450971   0.0001689618   0.0000152543   0.0005277364   0.0005354221
        0.0025530746  -0.0001565264
       -0.0017458583   0.0003316694  -0.0006044602   0.0323966681   0.0100568132
        0.0020738828   0.0083160505  -0.0182437010   0.0014485195  -0.0678204116
       -0.0119262239  -0.0008206482  -0.0232540090  -0.2282631434  -0.0024583437
        0.0205988114   0.5702033682  -0.0000120812  -0.0389505521  -0.0790686989
       -0.0001086802   0.0057059312   0.0126450266  -0.0002007349   0.0093750525
       -0.0005805778   0.0007790806   0.0008546734  -0.0003168840   0.0000148668
       -0.0030988173   0.0010104964   0.0000341253   0.0049213650   0.0016636221
       -0.0005238097   0.0013104473  -0.0046524718   0.0006451349  -0.0033825510
       -0.0000122084  -0.0005404019   0.0001700615   0.0018160803  -0.0003656386
        0.0021037360  -0.0022776583  -0.0000020254  -0.0027472348   0.0017962544
       -0.0000977700   0.0026029092  -0.0011668384   0.0002108567  -0.0011090003
        0.0004912147  -0.0008612066   0.0002058050  -0.0004326333  -0.0002264778
       -0.0042788117   0.0013604363   0.0001533145  -0.0015247243  -0.0055605029
        0.0004904140  -0.0376402313  -0.0259741748   0.0006473400   0.1019362148
       -0.2027367060  -0.0001613958  -0.0000447636  -0.0006513445  -0.0006486794
       -0.0001612934   0.0017084394  -0.0003269086  -0.0030672757  -0.0207363795
        0.0006016708   0.0000145893   0.0002601103   0.0003432121   0.0003411708
        0.0003238760  -0.0001838640  -0.0000612453  -0.0001845443   0.0001119829
       -0.0000751727   0.0000735519   0.0003319255   0.0002238661  -0.0001245288
        0.0000594286   0.0001577326  -0.0000274277   0.0003542135  -0.0022731322
       -0.0008043115  -0.0001568426
       -0.0001295266   0.0000232366   0.0054031618  -0.0008762990  -0.0002135375
        0.0047835902   0.0002676559   0.0001923497  -0.0062442453  -0.0008786507
       -0.0012313032   0.0028404056  -0.0000024002  -0.0008766993  -0.0505488734
        0.0026158608  -0.0000120812   0.1171229773   0.0004337481   0.0005203897
       -0.0384636689  -0.0005512191  -0.0004720726  -0.0024661811  -0.0008244287
        0.0002016930   0.0032246639   0.0006043089  -0.0006929801   0.0000015500
       -0.0013189930   0.0005642148   0.0001080294   0.0016039616   0.0003625032
        0.0006923749   0.0000333325  -0.0011341049  -0.0007207556   0.0005680952
       -0.0000292036   0.0010010341  -0.0014864693   0.0018685880  -0.0001169006
        0.0000748172  -0.0022185080   0.0005767751   0.0009301554   0.0010368791
       -0.0002668071   0.0004675914  -0.0005726951  -0.0001048700  -0.0004099393
        0.0002859144  -0.0001496913  -0.0000606343  -0.0003162731   0.0000308223
       -0.0006545735   0.0005264524   0.0001905558  -0.0008177284   0.0005746396
        0.0011601071   0.0007097815   0.0000651170   0.0018291582   0.0002967160
        0.0018446392  -0.0483891315  -0.0000109287  -0.0000879036  -0.0015945805
       -0.0003341885  -0.0000488051   0.0092763680  -0.0001978797  -0.0000547974
        0.0013831190  -0.0000106065  -0.0000056640  -0.0003213906   0.0000827005
        0.0000709246   0.0001889979  -0.0000130271  -0.0000594561  -0.0003499420
       -0.0000195317   0.0000025188   0.0001073000   0.0000380467  -0.0000110424
        0.0000274949  -0.0000490007  -0.0000107391  -0.0000104573  -0.0000807468
       -0.0000921937  -0.0002009902
       -0.0007989540  -0.0008723641  -0.0000735156   0.0185117166   0.0171827483