$hessian                                                                        
        0.0593937786   0.0050648150  -0.0955768359  -0.0689223415  -0.0057776285
        0.0843978396   0.0064291008   0.0011287092  -0.0051225690   0.0004954576
       -0.0000923818  -0.0003148455  -0.0006323374  -0.0004496761  -0.0000114223
       -0.0000273903  -0.0000957936  -0.0002564429  -0.0009530771   0.0004909082
        0.0001643750   0.0004518139   0.0005157532   0.0003533719   0.0004393764
       -0.0008980783   0.0214123760  -0.0047756760   0.0012336957  -0.0006947830
       -0.0011535499  -0.0005966520   0.0006404206   0.0003642473  -0.0001820198
        0.0003692907   0.0013471258  -0.0007741584   0.0006036721   0.0017527385
       -0.0005024780   0.0018425215   0.0059572762   0.0016931274  -0.0077039872
       -0.0008408630  -0.0003797355  -0.0004271392   0.0000073861  -0.0005578867
        0.0000733980   0.0001618432  -0.0001813173  -0.0001101281   0.0011347042
        0.0001648183   0.0002811711  -0.0000132919   0.0000992549   0.0000075705
        0.0000562946   0.0001023244   0.0000019730  -0.0000380519   0.0000103812
       -0.0000071724  -0.0000232052  -0.0000188859   0.0000043311   0.0000103263
        0.0000183244  -0.0000171452   0.0000432325   0.0000301376  -0.0000233726
       -0.0000116062  -0.0000355826   0.0000097910   0.0000073234   0.0000278920
       -0.0000130987   0.0000090285  -0.0000404246   0.0000039998  -0.0000437456
        0.0000127828  -0.0000095764   0.0000293351  -0.0000145738   0.0000043552
       -0.0000851930  -0.0000174372   0.0000085956   0.0000032986  -0.0000565454
       -0.0000865561   0.0000485477  -0.0000066714  -0.0000255912   0.0000320323
        0.0000136086   0.0000038191  -0.0000137943   0.0000133713  -0.0000001208
        0.0003888057   0.0012078107   0.0001604975  -0.0001353850   0.0001229602
       -0.0003526670   0.0000260548  -0.0000325492   0.0000065112   0.0001540719
        0.0000475139  -0.0000513550  -0.0001037786   0.0000131150  -0.0000220352
        0.0002315757   0.0000502266  -0.0002501623  -0.0001394870   0.0002082438
        0.0001166705  -0.0005656278  -0.0000493276   0.0002986462  -0.0002077387
        0.0000924986   0.0001326501   0.0000049255   0.0000557065  -0.0000929991
       -0.0010610123  -0.0002108513   0.0012596407   0.0000121801  -0.0002399201
       -0.0003745619  -0.0000454353  -0.0001497799  -0.0000624629  -0.0000030448
       -0.0000386954  -0.0000841556   0.0000158820  -0.0000075764   0.0000076233
       -0.0000051933  -0.0000129098   0.0000089667  -0.0000012377  -0.0000171615
        0.0000049091  -0.0000204782   0.0000006099   0.0000065200  -0.0000143905
       -0.0000011872   0.0000038857  -0.0000072427   0.0000154949   0.0000056621
        0.0000158796  -0.0000022496   0.0000053611   0.0000241347  -0.0000081060
        0.0000269116   0.0000692706  -0.0000552627   0.0001014991   0.0007271272
       -0.0009305808  -0.0006376411
        0.0050648150   0.0415474008  -0.0318099210  -0.0044309685  -0.0539280948
        0.0261283120  -0.0041099746   0.0035021343   0.0177398646  -0.0007218079
        0.0018611208   0.0009058207   0.0001875171   0.0014393945   0.0004050894
        0.0000221880   0.0003175505   0.0002631324   0.0009283734  -0.0003701896
        0.0006794924   0.0009704973  -0.0039192266   0.0002898253  -0.0001314095
        0.0053299286  -0.0003478602   0.0004539436   0.0009322140  -0.0001684990
       -0.0002369566  -0.0005148194  -0.0003606183   0.0000661106   0.0000155497
        0.0000274006  -0.0002185031  -0.0004232273  -0.0003674327  -0.0003000931
        0.0002409505   0.0002587333   0.0026290342   0.0056208488  -0.0154734907
       -0.0021114304   0.0006458306   0.0004383082  -0.0001366365  -0.0012348354
        0.0008942266  -0.0001007950   0.0002859541   0.0002432204   0.0009355569
       -0.0011071695   0.0007656526  -0.0001422922  -0.0001562490  -0.0000137041
        0.0000536176   0.0001832661   0.0000010777  -0.0000359449  -0.0000556437
        0.0000029957  -0.0000740855   0.0000098105   0.0000156189   0.0000987989
       -0.0000604339  -0.0000306257   0.0000463589   0.0001961282  -0.0000344722
       -0.0000261565  -0.0001155933   0.0000040030  -0.0000297242   0.0001038485
        0.0000017983   0.0000591596  -0.0000437153  -0.0000130765  -0.0000655084
        0.0000518996   0.0000352138   0.0000911381  -0.0000108009  -0.0000606040
       -0.0001512980  -0.0000022652   0.0000992531  -0.0000119042  -0.0000277321
       -0.0000180594   0.0000558434  -0.0000194865  -0.0000788059   0.0000093325
        0.0000343240  -0.0000002274  -0.0000116368   0.0000306604   0.0000141741
        0.0012109150   0.0002990564  -0.0008962454   0.0002576704  -0.0003466517
        0.0015171869  -0.0000436280   0.0000210650  -0.0000869931  -0.0000571167
       -0.0001866086   0.0001666500   0.0001650166  -0.0003674813   0.0003449214
       -0.0001658410  -0.0002118123   0.0002807826   0.0001504229   0.0002791320
       -0.0000082087   0.0000013832  -0.0001186441  -0.0000310522   0.0000275758
        0.0001229559   0.0000172806  -0.0000771567   0.0000345993   0.0000094506
        0.0000698838  -0.0000271002  -0.0005315969   0.0001004495   0.0002442974
       -0.0003154612  -0.0000398945  -0.0001992645  -0.0001203910  -0.0000604343
        0.0001354614  -0.0003110039   0.0000425373   0.0000154549  -0.0000002170
       -0.0000117712  -0.0000186444   0.0000124362   0.0000042188  -0.0000215953
        0.0000064776  -0.0000311977   0.0000000893   0.0000073699  -0.0000183155
       -0.0000052828   0.0000079390  -0.0000271927   0.0000243917   0.0000033656
       -0.0000199643   0.0000284644  -0.0000090047  -0.0000636385   0.0000533921
       -0.0000093575   0.0000064450  -0.0001975575   0.0000003098  -0.0000455263
        0.0000829511  -0.0004904546
       -0.0955768359  -0.0318099210   0.5731350772   0.0873329191   0.0311365239
       -0.5279509405   0.0018640838   0.0019536741  -0.0155536501  -0.0005719829
       -0.0024800107  -0.0023393024  -0.0003595542  -0.0004990431   0.0005088238
        0.0002632194  -0.0004996496   0.0004612185  -0.0008628104  -0.0003757606
       -0.0006301977  -0.0002318890   0.0057030276   0.0000371246   0.0035146338
        0.0013053410  -0.0118098900   0.0047185184  -0.0014079945   0.0006456353
       -0.0001292169   0.0005131281  -0.0006827101  -0.0005674262  -0.0000708488
        0.0004124226  -0.0003264147   0.0001366553   0.0005297942  -0.0016630871
        0.0014426143  -0.0021510400   0.0031797415  -0.0036392080  -0.0172256381
       -0.0049513504  -0.0004155812  -0.0014426577   0.0005201594  -0.0013937649
        0.0005330676  -0.0001062075   0.0007111053   0.0006271975   0.0004594391
       -0.0005598662   0.0005510888  -0.0000519295  -0.0003288870  -0.0000789598
       -0.0000825053   0.0003282926   0.0001485286   0.0000158061  -0.0001050297
        0.0000337246  -0.0001137114  -0.0000230947   0.0000120182   0.0001199681
       -0.0000070919  -0.0000122224   0.0001184301   0.0001785162  -0.0000358456
       -0.0000608123  -0.0001348270   0.0000075403  -0.0000055146   0.0000871806
        0.0000003698   0.0000695727  -0.0001152181  -0.0000174498  -0.0001111025
        0.0000628507   0.0000683460   0.0001180952  -0.0000316643  -0.0000763211
       -0.0002536163   0.0000198284   0.0001214112   0.0000834236  -0.0001648640
        0.0000047962  -0.0000038825  -0.0000140890  -0.0000505441  -0.0000596861
        0.0000460338   0.0000246266  -0.0000605246   0.0000181939   0.0000385548
        0.0031456043  -0.0011707040  -0.0005524773   0.0004666734   0.0006369748
        0.0011390035  -0.0000518044   0.0004348032   0.0000718887   0.0001325450
        0.0002481211  -0.0000587670  -0.0002766366   0.0004925211  -0.0003945557
        0.0004725838   0.0000437364   0.0007532008  -0.0003212922  -0.0003327017
        0.0008966519   0.0005009979   0.0000010330  -0.0002309104   0.0001524428
       -0.0001037429   0.0000500992   0.0003694055  -0.0001032491   0.0001333683
        0.0001540757  -0.0007004797   0.0015134452  -0.0003961038   0.0006524291
       -0.0002027226  -0.0001603689  -0.0005443138  -0.0003021263  -0.0001598982
        0.0001190033  -0.0003680245   0.0000679344  -0.0000598424  -0.0000613830
       -0.0000591072  -0.0000548610  -0.0000046085  -0.0000178247  -0.0000561893
        0.0000096274  -0.0000671549   0.0000047082   0.0000066327  -0.0000458008
        0.0000038458   0.0000166709  -0.0000357046   0.0000580073  -0.0000102921
        0.0000295168   0.0000459023  -0.0000474486   0.0000905585   0.0000587373
       -0.0000531446   0.0001334414   0.0000222036  -0.0000574648  -0.0003520332
        0.0007375061  -0.0000906599
       -0.0689223415  -0.0044309685   0.0873329191   0.3825796496   0.0034891645
       -0.0602522287  -0.0499439336   0.0292592206  -0.0101720420  -0.0014763297
        0.0059101315   0.0027937621   0.0061588263   0.0009948526   0.0000632871
       -0.0001545925   0.0003686114  -0.0001949828   0.0059043000  -0.0001156253
       -0.0024877415  -0.0030208186   0.0038405998  -0.0055262119  -0.1503309929
        0.0106570869   0.0165045751  -0.0106019778  -0.0023504279   0.0151966206
        0.0044902691  -0.0003195503   0.0029420263  -0.0019078263   0.0006965140
       -0.0011388003  -0.0010509831   0.0024042184  -0.0031862032  -0.0262910880
        0.0072620214  -0.0094428291  -0.0630286771  -0.0461387906  -0.0260589483
        0.0078936643   0.0012520539  -0.0005710210   0.0004122218   0.0019819481
        0.0013068511  -0.0002914299  -0.0001383892  -0.0002105411  -0.0058426394
        0.0005752615   0.0010442743  -0.0003874113  -0.0005455431  -0.0002947592
       -0.0002887293  -0.0005356144  -0.0001549222   0.0000119176   0.0000472936
        0.0000563550   0.0001620584   0.0000277304  -0.0000320602  -0.0001637853
        0.0000713808   0.0000651946  -0.0001141052  -0.0002829343   0.0000712095
        0.0000418402   0.0002201276  -0.0000232891   0.0000260833  -0.0001727310
        0.0000228253  -0.0001425210   0.0001603497   0.0000208416   0.0002351953
       -0.0001009113  -0.0000397070  -0.0002832718   0.0000378451   0.0001030569
        0.0004903567   0.0000824298  -0.0001300683  -0.0001863644   0.0002656116
        0.0003235655  -0.0000376040  -0.0000740278   0.0001603050  -0.0000429113
       -0.0000251933  -0.0000342102   0.0000922533  -0.0000410519  -0.0000350766
       -0.0197006987  -0.0156982196  -0.0108008681  -0.0020570715  -0.0005137535
        0.0004240922   0.0000596433  -0.0001721866  -0.0001305932  -0.0014038253
       -0.0005082383   0.0003834408   0.0001086023   0.0001227648   0.0000915677
       -0.0015954720  -0.0004679848   0.0008811882   0.0011105646  -0.0001679272
       -0.0013339008   0.0004525199   0.0000812517  -0.0007390208   0.0006332173
       -0.0003606149  -0.0002117508  -0.0000134149  -0.0001561839   0.0004759557
        0.0006246195  -0.0008008504  -0.0002868910  -0.0006584875   0.0013211567
        0.0010623314   0.0001717874   0.0007330657   0.0006166344   0.0000217710
        0.0001867292   0.0002976045  -0.0000708222   0.0001188547   0.0000034688
        0.0000529802   0.0000756526  -0.0000021922   0.0000212485   0.0000711328
       -0.0000234984   0.0000795966  -0.0000013114  -0.0000245058   0.0000672069
        0.0000072019  -0.0000295097   0.0000576029  -0.0000758757  -0.0000165339
       -0.0000453200  -0.0000275805   0.0000087162  -0.0000750472  -0.0000139648
       -0.0000599310  -0.0001158672   0.0001471702  -0.0003017105  -0.0017136356
        0.0017670170   0.0016938800
       -0.0057776285  -0.0539280948   0.0311365239   0.0034891645   0.3578615720
       -0.0205269495   0.0359298915  -0.1278237180   0.0346765521   0.0061748755
       -0.0283676337  -0.0020197774   0.0004609187  -0.0027785941  -0.0036599251
        0.0001054872  -0.0018531782  -0.0008231463  -0.0002890101   0.0041055233
        0.0006019660   0.0020091581  -0.0017957103   0.0130837951   0.0087674586
       -0.0385723891  -0.0020377455  -0.0033300603  -0.0010055651  -0.0014490465
       -0.0003326320   0.0054504035   0.0023486738   0.0002681324  -0.0003610097
        0.0007671892   0.0023390657   0.0050738647   0.0025956858   0.0076601258
       -0.0013371970  -0.0005611286  -0.0441360268  -0.0975775497  -0.0362450191
       -0.0009259456  -0.0148569690  -0.0113999570   0.0014495636   0.0012839335
       -0.0046791981   0.0013064368  -0.0014938014  -0.0015414736  -0.0014209266
        0.0055491730  -0.0007602562   0.0001505692   0.0005217381   0.0000498138
        0.0000977006  -0.0006554563  -0.0002063101   0.0000001194   0.0001807546
        0.0000227345   0.0002148325   0.0000294381  -0.0000369900  -0.0003010970
        0.0000760275   0.0000902952  -0.0002590993  -0.0005296160   0.0001197840
        0.0001059036   0.0003390896  -0.0000347737   0.0000556695  -0.0002953898
        0.0000264631  -0.0002261881   0.0002169514   0.0000489490   0.0002178267
       -0.0001475783  -0.0000914527  -0.0003403978   0.0000322124   0.0001726748
        0.0004956782   0.0000294139  -0.0002846455   0.0001543215   0.0001848137
        0.0000184867  -0.0001373369   0.0000614878   0.0002453403   0.0000163063
       -0.0001299641  -0.0000441164   0.0000681377  -0.0000862587  -0.0000469848
       -0.0135980761  -0.0029412730   0.0004611722  -0.0001348979   0.0002617488
       -0.0008446764   0.0001563893  -0.0002021542   0.0004789446  -0.0002268491
        0.0005401265  -0.0002608916  -0.0001335665   0.0004675637  -0.0009058419
       -0.0005595066   0.0005573815  -0.0016912622  -0.0003178682  -0.0018635085
       -0.0000280385  -0.0002955481   0.0001586067   0.0002190056  -0.0002537645
       -0.0013855771  -0.0003886296   0.0004324036  -0.0000237235  -0.0000380786
       -0.0002975107  -0.0020079203   0.0000162043   0.0000762553   0.0000391440
        0.0014255639  -0.0003718010  -0.0000908292   0.0000401766   0.0002878571
       -0.0004424997   0.0010992712  -0.0001408955   0.0000432710   0.0000329497
        0.0000687335   0.0000932924  -0.0000216580  -0.0000074338   0.0001015980
       -0.0000283857   0.0001184930   0.0000086314  -0.0000255063   0.0000763847
        0.0000213397  -0.0000464484   0.0000901637  -0.0000929592  -0.0000170740
        0.0000359001  -0.0001026360   0.0000295752   0.0001379352  -0.0002095673
        0.0000190171  -0.0000979383   0.0004729837   0.0000760217   0.0008941464
       -0.0008037635   0.0008425581
        0.0843978396   0.0261283120  -0.5279509405  -0.0602522287  -0.0205269495
        0.7128538733  -0.0121218338   0.0416092203  -0.0516418939   0.0037033737
       -0.0017461372   0.0094010496  -0.0005227170  -0.0036009822  -0.0003347798
       -0.0004281858   0.0002414389  -0.0017203349  -0.0022135557   0.0004526395
       -0.0035489403  -0.0070892900   0.0146755429  -0.0118974684   0.0258261589
       -0.0048429980  -0.0415757355   0.0162119551  -0.0003078498  -0.0059664378
        0.0028388436   0.0022305932  -0.0026468482   0.0002960237   0.0005047077
       -0.0017617897  -0.0029853089   0.0027723779  -0.0014816476  -0.0093846096
       -0.0011903150   0.0068589930  -0.0297657292  -0.0406025746  -0.0662058401
       -0.0005259573  -0.0105114182  -0.0074394760   0.0009690738  -0.0038147019
        0.0021900545   0.0007974501  -0.0009704166  -0.0011528194   0.0016296415
       -0.0014991291   0.0045233397  -0.0005043869   0.0004282737   0.0004027843
        0.0004093961  -0.0004257890  -0.0004967234  -0.0002214016   0.0001744116
       -0.0000147139   0.0001884289   0.0000559952  -0.0000147435  -0.0001231448
       -0.0001155189   0.0000136744  -0.0002678468  -0.0001231960   0.0000683052
        0.0001264703   0.0000563618  -0.0000068246  -0.0000585239  -0.0000417395
        0.0000207238  -0.0001499118   0.0001954934   0.0000537566   0.0001560019
       -0.0000168228  -0.0000992385  -0.0001357850  -0.0000710701   0.0000753794
        0.0003579709   0.0000554267  -0.0001521098  -0.0003430284   0.0001951032
        0.0000843386   0.0001404803  -0.0000470379   0.0000298722   0.0000627278
       -0.0000657871  -0.0000485106   0.0001283898  -0.0000319405  -0.0000758251
       -0.0110328847   0.0020994831   0.0005287631   0.0001692674  -0.0019734231
       -0.0023814568   0.0002451881  -0.0014114457   0.0000541954   0.0003115381
       -0.0002877839  -0.0000602864  -0.0000779462   0.0005620755  -0.0001885183
        0.0003539245  -0.0004820464  -0.0010260586  -0.0003240011  -0.0001865462
       -0.0014537859   0.0007433916  -0.0000568458  -0.0002016291  -0.0002755695
       -0.0003502805  -0.0002729914  -0.0013884367   0.0002835982  -0.0001139464
       -0.0018531864   0.0005332158  -0.0028440317   0.0006631533   0.0009107930
       -0.0007319186  -0.0002077129   0.0000702476   0.0000337508   0.0001645794
        0.0006433133  -0.0004778950  -0.0001088502   0.0001351624   0.0000990369
        0.0001297734   0.0001062782   0.0000312684   0.0000431126   0.0001105106
       -0.0000283604   0.0001346697  -0.0000030714  -0.0000086424   0.0000907428
       -0.0000040032  -0.0000403765   0.0000728790  -0.0001053776   0.0000107306
       -0.0000430271  -0.0000799121   0.0000677335  -0.0000975888  -0.0000709807
        0.0000673321  -0.0001365768  -0.0000060523  -0.0000104063   0.0012767796
        0.0003395671  -0.0013950104
        0.0064291008  -0.0041099746   0.0018640838  -0.0499439336   0.0359298915
       -0.0121218338   0.1483014746  -0.0813147101   0.0978216760  -0.0487784674
        0.0209237647   0.0022502220   0.0043617308   0.0059074836   0.0078771399
       -0.0066397477  -0.0056540510  -0.0046669384  -0.0025175556   0.0168066612
       -0.0119173271  -0.0619249045   0.0067006979  -0.0687008551  -0.0028319805
        0.0122996945  -0.0046464667  -0.0004938186   0.0008333457  -0.0013907300
        0.0001530042  -0.0006809438  -0.0004917041   0.0002733203   0.0000663553
       -0.0002152841  -0.0008390084  -0.0009152147  -0.0005678465  -0.0020101434
        0.0004489579   0.0026331800   0.0042062703  -0.0060477775   0.0010119455
       -0.0018763193  -0.0010482357  -0.0001030133   0.0001066858  -0.0001689239
       -0.0006238236   0.0001131562   0.0000426701   0.0001012960   0.0003911110
        0.0003918574  -0.0000953935   0.0000010572  -0.0000847873  -0.0000484043
       -0.0000269703   0.0001263577   0.0000765220   0.0000076255  -0.0000338485
       -0.0000011316  -0.0000484712  -0.0000044628   0.0000093812   0.0000465122
        0.0000132513  -0.0000144012   0.0000612922   0.0000691821  -0.0000241864
       -0.0000252551  -0.0000463703   0.0000097494   0.0000051781   0.0000351814
       -0.0000071203   0.0000243070  -0.0000499942  -0.0000031548  -0.0000367545
        0.0000210541   0.0000138099   0.0000452548  -0.0000036554  -0.0000122652
       -0.0000692933  -0.0000103538   0.0000336775  -0.0000756810  -0.0001199614
       -0.0000479150   0.0000127415   0.0000057613  -0.0000361843   0.0000101792
        0.0000244492   0.0000046643  -0.0000121042   0.0000154136   0.0000114423
        0.0009629351  -0.0004333806  -0.0004866210   0.0003807631  -0.0055413427
       -0.0041075230   0.0067804578   0.0033217653  -0.0019694252  -0.0005504047
       -0.0003823549   0.0001599169   0.0068697949   0.0032516884  -0.0023410263
       -0.0004220255  -0.0008732358   0.0004110249   0.0000275858   0.0003024623
        0.0002729124  -0.0001022373  -0.0000172286   0.0001166161  -0.0000749704
        0.0002175481   0.0000766549  -0.0004163770  -0.0000028381  -0.0000677011
        0.0002501566   0.0004935433   0.0001797814  -0.0000224721  -0.0002231664
        0.0000454865  -0.0001073851  -0.0001767968  -0.0002153122  -0.0000347170
       -0.0000542519  -0.0000094267   0.0000291295  -0.0000170782  -0.0000101160
       -0.0000184100  -0.0000171060  -0.0000039427  -0.0000014930  -0.0000213815
        0.0000079017  -0.0000252364   0.0000027568   0.0000057054  -0.0000144414
        0.0000016244   0.0000109346  -0.0000077133   0.0000211055   0.0000032137
        0.0000112317   0.0000172327  -0.0000039045   0.0000154065   0.0000504076
       -0.0000020362  -0.0001146364  -0.0001319778  -0.0000582217   0.0001854652
       -0.0001567607   0.0000022972
        0.0011287092   0.0035021343   0.0019536741   0.0292592206  -0.1278237180
        0.0416092203  -0.0813147101   0.5130054184   0.0601643646   0.0105012226
       -0.2299096283  -0.1401932628   0.0182772574  -0.0631483938   0.0121188266
       -0.0052325377  -0.0066792383  -0.0241841110   0.0051331276   0.0122963182
        0.0284157891   0.0190167024  -0.0871240154   0.0405760407   0.0025353293
        0.0006378400   0.0002013296  -0.0001823750  -0.0001531482   0.0007935399
        0.0001605337  -0.0002596063  -0.0000472751  -0.0001245043   0.0000179658
       -0.0000500210   0.0000063321  -0.0000931861  -0.0000522999  -0.0004331465
       -0.0001520594  -0.0001198001   0.0042002465  -0.0086965374   0.0007552553
       -0.0023222472  -0.0012119128   0.0005311164  -0.0000652162   0.0000332515
       -0.0009377447   0.0001872490   0.0001662786   0.0002022815   0.0001781837
        0.0003054407  -0.0004708820   0.0000747200  -0.0000235888  -0.0000157190
       -0.0000214608   0.0000900492   0.0000553525   0.0000155127  -0.0000035540
       -0.0000063361  -0.0000166398   0.0000060812   0.0000028588   0.0000143361
        0.0000086720  -0.0000036384   0.0000324403   0.0000463492  -0.0000148828
       -0.0000145936  -0.0000212892   0.0000043366   0.0000002777   0.0000352128
       -0.0000045121   0.0000444076  -0.0000156800  -0.0000127749  -0.0000283789
        0.0000177229   0.0000085421   0.0000661883  -0.0000051533  -0.0000199269
       -0.0000681296   0.0000228671   0.0000145370  -0.0000663546  -0.0000782217
       -0.0000350670   0.0000133201   0.0000267961  -0.0000177620  -0.0000195654
        0.0000068491   0.0000146386  -0.0000134229   0.0000105727   0.0000130855
        0.0014243885  -0.0005267845  -0.0003673045  -0.0012047446   0.0026045178
       -0.0017792433   0.0031488579  -0.0045831068   0.0017542855  -0.0005448549
        0.0005159800  -0.0005031277   0.0031958010  -0.0040992924   0.0024196904
       -0.0060472386   0.0015848855  -0.0227400716  -0.0003514877   0.0002917753
       -0.0005250167  -0.0001040325  -0.0000046354   0.0000096508  -0.0000474496
        0.0000687698   0.0000075872  -0.0000867643   0.0000253551  -0.0000181967
        0.0000121663   0.0000347437  -0.0001449800   0.0000208301  -0.0001677874
        0.0002816410  -0.0000847171  -0.0001430944  -0.0002064110  -0.0000226822
       -0.0000961262   0.0000855029   0.0000326296  -0.0000229968  -0.0000068554
       -0.0000079427  -0.0000188475   0.0000026323  -0.0000021290  -0.0000152548
        0.0000076628  -0.0000183386  -0.0000002523   0.0000073585  -0.0000108647
       -0.0000025719   0.0000109493  -0.0000169092   0.0000144374   0.0000066348
       -0.0000079392  -0.0000023900   0.0000026859   0.0000007364  -0.0000510483
        0.0000274585   0.0000137978  -0.0000451684  -0.0001158106  -0.0002131471
       -0.0001979961   0.0005345044
       -0.0051225690   0.0177398646  -0.0155536501  -0.0101720420   0.0346765521
       -0.0516418939   0.0978216760   0.0601643646   0.6056844957  -0.0085949826
       -0.0895671714  -0.1779773113   0.0200536977  -0.0416345838   0.0504509794
       -0.0049089582  -0.0248742958  -0.0525326595  -0.0242046582   0.0844377976
       -0.0192420448  -0.0573933778  -0.0124648822  -0.3041948936  -0.0010595993
       -0.0003771234   0.0029480495  -0.0003297634  -0.0000559665   0.0002471439
       -0.0003640205  -0.0001023886  -0.0000293506   0.0000297798  -0.0000336782
        0.0000771326   0.0000289672  -0.0000961077   0.0002263772   0.0003971705
       -0.0000551812  -0.0000950681   0.0017491921  -0.0068392221   0.0037157031
       -0.0008332409  -0.0004721228  -0.0006401014  -0.0000715253   0.0002480575
       -0.0006317742   0.0000127233  -0.0000102404   0.0000353240  -0.0000723159
        0.0002429494  -0.0004023381   0.0000325729  -0.0000283711  -0.0000422707
       -0.0000434973   0.0000189555   0.0000491913   0.0000242374  -0.0000096818
       -0.0000012043  -0.0000038241  -0.0000111035   0.0000029621   0.0000122381
        0.0000184011  -0.0000003259   0.0000278831   0.0000069655  -0.0000048177
       -0.0000146082   0.0000014412   0.0000051597   0.0000020357  -0.0000026644
        0.0000003102   0.0000077480  -0.0000231538  -0.0000008129   0.0000058633
       -0.0000005456   0.0000085335   0.0000037593  -0.0000046030   0.0000032893
        0.0000243585   0.0000166817  -0.0000060853  -0.0000926270   0.0000292579
        0.0000563532   0.0000419927  -0.0000370918  -0.0000306634   0.0000098618
        0.0000340246  -0.0000058779  -0.0000008658   0.0000138996   0.0000029071
        0.0001081899  -0.0003851537  -0.0003018885   0.0004995405  -0.0222966648
       -0.0209012391  -0.0020531369   0.0019270701   0.0008085996   0.0001898238
       -0.0005124632  -0.0004795150  -0.0021703851   0.0020650503   0.0005026929
       -0.0041717414  -0.0010874516  -0.0203991761   0.0006230668  -0.0003572866
       -0.0000932034  -0.0000230780  -0.0000050042   0.0000097360  -0.0000041008
        0.0000306658  -0.0000035523   0.0000940201  -0.0000073331  -0.0000244978
        0.0002945818   0.0000175022   0.0000729126  -0.0001444565  -0.0001163511
        0.0002094103  -0.0000393161  -0.0000737349  -0.0000312365  -0.0000132325
       -0.0000604386   0.0000830964   0.0000112798   0.0000063294  -0.0000104951
       -0.0000086448  -0.0000003946  -0.0000070277  -0.0000002995  -0.0000027453
        0.0000035308  -0.0000061669   0.0000036118   0.0000033501  -0.0000009370
        0.0000037632   0.0000080637  -0.0000000075   0.0000079192   0.0000028419
        0.0000066247   0.0000098548  -0.0000059109  -0.0000140631   0.0000684637
       -0.0000216111  -0.0001926719  -0.0002255761  -0.0001181679   0.0000118284
        0.0000413338   0.0002125187
        0.0004954576  -0.0007218079  -0.0005719829  -0.0014763297   0.0061748755
        0.0037033737  -0.0487784674   0.0105012226  -0.0085949826   0.1647394429
       -0.1112885871   0.1112208405  -0.0711278567   0.0772633779  -0.0246394945
       -0.0046997550   0.0034676356  -0.0236776701  -0.0080271476   0.0102378191
        0.0039163505   0.0040023179  -0.0111525469   0.0045726632  -0.0003859700
        0.0008967781  -0.0002761545  -0.0001199730   0.0000500830  -0.0001406998
        0.0001264095  -0.0000170117   0.0000241694  -0.0000125030   0.0000187314
       -0.0000447058  -0.0000062566  -0.0000347445  -0.0000229815  -0.0001679122
       -0.0000557148   0.0000156736  -0.0003935088   0.0002389083  -0.0004133859
        0.0002843721   0.0001427550   0.0000433940  -0.0000621241  -0.0000387785
        0.0000767492   0.0000538482  -0.0000497491  -0.0000715568   0.0000427502
       -0.0000028073   0.0001215236  -0.0000280046   0.0000197004   0.0000274408
        0.0000169057  -0.0000161235  -0.0000201336  -0.0000117285   0.0000081537
       -0.0000021134   0.0000155977  -0.0000017724  -0.0000038730  -0.0000091694
       -0.0000047008  -0.0000002067  -0.0000117303  -0.0000118465   0.0000012429
        0.0000071524   0.0000051150  -0.0000022034  -0.0000025972  -0.0000050895
       -0.0000027868  -0.0000108153   0.0000073048   0.0000019856   0.0000113847
       -0.0000049559  -0.0000081927  -0.0000060714  -0.0000038983   0.0000091021
        0.0000302732   0.0000028751   0.0000070543  -0.0000330335   0.0000180614
        0.0000115289   0.0000212787  -0.0000154600   0.0000040248   0.0000060534
        0.0000041676  -0.0000052948   0.0000093615  -0.0000021492  -0.0000085925
       -0.0002415741  -0.0000567973   0.0000881398  -0.0486284180   0.0090250306
       -0.0588662700   0.0003165820   0.0023734662  -0.0004476309   0.0071054926
        0.0016490158  -0.0030270382  -0.0001106131   0.0000394880   0.0002619449
        0.0071827876   0.0013882988  -0.0032292350  -0.0000804061   0.0000018288
        0.0000110062  -0.0000118798   0.0000001643   0.0000131536  -0.0000088512
       -0.0000027323   0.0000119618  -0.0000286079   0.0000083200   0.0000024620
       -0.0000093821   0.0000023132   0.0000422543  -0.0000075588   0.0000100907
       -0.0000286695   0.0000141596   0.0000325748   0.0000223274   0.0000086927
        0.0000163681  -0.0000096791  -0.0000044809   0.0000041396   0.0000011683
        0.0000061411   0.0000036217  -0.0000006944   0.0000029748   0.0000037316
       -0.0000052157   0.0000051278  -0.0000029840  -0.0000046495   0.0000034878
       -0.0000013835  -0.0000063010   0.0000050059  -0.0000082026  -0.0000027547
       -0.0000035154  -0.0000046276   0.0000005729  -0.0000009715   0.0000028861
       -0.0000086350   0.0000378240   0.0000016425   0.0000042741  -0.0000436681
       -0.0001160740  -0.0000725981
       -0.0000923818   0.0018611208  -0.0024800107   0.0059101315  -0.0283676337
       -0.0017461372   0.0209237647  -0.2299096283  -0.0895671714  -0.1112885871
        0.6212782891   0.0089064267   0.0605273194  -0.2812797068   0.0361194409
        0.0160625022   0.0156602576   0.0867371587   0.0104891963  -0.0620126797
       -0.0089590899  -0.0220899000   0.0349496422  -0.0661226244  -0.0006883022
       -0.0000992013   0.0004457626  -0.0001945313   0.0002133216  -0.0001793996
        0.0000481348   0.0000899134  -0.0000062888  -0.0000333240   0.0000324012
       -0.0001223275  -0.0001031388   0.0000389490   0.0001548148   0.0001587664
       -0.0001555972   0.0001029894   0.0011251955  -0.0022717227   0.0005330298
       -0.0005044549  -0.0004924429  -0.0003800027   0.0001079798   0.0000906004
       -0.0001753799  -0.0000465395   0.0000515498   0.0000883832  -0.0000121140
        0.0000528145  -0.0001144413   0.0000371040  -0.0000247949  -0.0000266900
       -0.0000130445   0.0000224188   0.0000293055   0.0000297559  -0.0000123946
       -0.0000029288  -0.0000230434  -0.0000027441   0.0000018492   0.0000202531