$hessian                                                                        
        0.3919601141   0.1281041031  -0.2358840223  -0.1921915519  -0.0492584920
        0.1315096499  -0.0128045944  -0.0635145055  -0.0148632192  -0.0293734745
        0.0072784316   0.0306341342  -0.0001795947  -0.0005544786  -0.0017507560
       -0.0002649445   0.0003154342   0.0004066676  -0.0000270830   0.0003480274
       -0.0000912059   0.0001383428  -0.0001223800  -0.0001549964   0.0001078924
        0.0001040986   0.0001663805  -0.0001743364   0.0000947172  -0.0000040229
        0.0000783277  -0.0002172154  -0.0001469297  -0.0003641566   0.0000100942
       -0.0000199790  -0.0004231397  -0.0003350293  -0.0001314359   0.0002500039
        0.0001023192  -0.0001697504   0.0000239123  -0.0002278053   0.0000946795
        0.0000684155   0.0000515938   0.0000326047   0.0000076797  -0.0000181770
        0.0000097660  -0.0000341416   0.0000140873  -0.0000217831   0.0000080410
       -0.0000302784   0.0000152099  -0.0000119121   0.0000099138   0.0000011945
        0.0000127506   0.0000113215  -0.0000145473   0.0000032777  -0.0000161966
       -0.0000158386  -0.0000128514  -0.0000285883   0.0000143262   0.0000093320
        0.0000489318   0.0000013650  -0.0000239678  -0.0000448369  -0.0000036994
       -0.0000037399   0.0000013212   0.0000017757   0.0000069798  -0.0000149892
       -0.0000000082  -0.0000096580  -0.0000047634  -0.0000035317   0.0000023595
        0.0000069116  -0.0000060316   0.0000098326  -0.0000064293  -0.0000015869
       -0.0000034299  -0.0000042072  -0.0000009417  -0.0000062699   0.0000031510
       -0.0000032853   0.0000125106   0.0000057441  -0.0000005545  -0.0000044392
        0.0000011410   0.0000060704  -0.0000091289   0.0000045795  -0.0000039406
       -0.0002403034   0.0000823025  -0.0000318046   0.0002130776   0.0002199949
       -0.0000874971   0.0304722818   0.0372955788  -0.0119691567  -0.1116699014
        0.0178454428   0.0769757883  -0.0631381608  -0.0773627869  -0.0062354054
       -0.0099116022  -0.0038217566   0.0092387721   0.0040069695  -0.0033538038
        0.0026273580  -0.0000130126   0.0000171380   0.0000500970   0.0000204140
        0.0000028970  -0.0000070362  -0.0000010795  -0.0000121702   0.0000238623
        0.0000014889  -0.0000008909   0.0000008637  -0.0000076915  -0.0000009319
        0.0000144830  -0.0001180003  -0.0001345989   0.0000632491  -0.0000075746
       -0.0000181687  -0.0000231094   0.0000015685   0.0000082041   0.0000046743
       -0.0000012992   0.0000000071  -0.0000038006  -0.0000020903  -0.0000000923
       -0.0000059536  -0.0000033630  -0.0000006151  -0.0000044218  -0.0000026613
       -0.0000016944  -0.0000019735  -0.0000030293  -0.0000023602   0.0000004102
       -0.0000007850  -0.0000027692   0.0000021427  -0.0000048468   0.0000013907
        0.0000082994  -0.0000162089   0.0000138667  -0.0000189337   0.0038445361
       -0.0037846341   0.0025106475  -0.0101960842   0.0108929007   0.0172666877
        0.1281041031   0.6188745090   0.1143346944  -0.1000565571  -0.1240505432
        0.0700381405  -0.0251677611  -0.0224465900   0.0164812178   0.0075777318
        0.0047336163  -0.0030669400  -0.0008604805  -0.0025651438  -0.0000485526
       -0.0000507757   0.0000941853   0.0004844700   0.0000755359  -0.0002320606
       -0.0000769891  -0.0000351559   0.0000517601   0.0000069003  -0.0000663465
        0.0000198536  -0.0000130429   0.0000982600   0.0000336212   0.0000845524
        0.0000289979   0.0000801495   0.0000556892   0.0004360477   0.0003107021
       -0.0005160072  -0.0001116375  -0.0000712828   0.0000501164  -0.0000132579
       -0.0000094812   0.0000064832   0.0000198071   0.0000353502  -0.0000096502
        0.0000759360   0.0000719360  -0.0000255771   0.0000594747  -0.0000347107
       -0.0000044353  -0.0000921366   0.0000844972  -0.0000067011   0.0000071486
       -0.0001159888   0.0000197549  -0.0000196242   0.0000988737  -0.0000281424
        0.0000226949  -0.0000376524   0.0000167525   0.0000094773   0.0000273695
        0.0000092164  -0.0000267786  -0.0001090975   0.0000196704  -0.0000144446
        0.0001078190  -0.0000474698  -0.0000150117  -0.0000771059   0.0000458811
       -0.0000005065  -0.0000135625  -0.0000016024   0.0000108193  -0.0000228266
        0.0000079056  -0.0000106629   0.0000022724   0.0000027924  -0.0000057890
        0.0000151190  -0.0000023730   0.0000165703  -0.0000063315   0.0000031418
       -0.0000124293  -0.0000025885   0.0000026804  -0.0000159040   0.0000026301
       -0.0000010206   0.0000262759   0.0000023759  -0.0000029911  -0.0000099119
        0.0000111496  -0.0000125656  -0.0000033038   0.0000025820   0.0000040963
       -0.0000097798   0.0000818629  -0.0000177763  -0.0000342800  -0.0000089438
       -0.0000110958  -0.0007805678  -0.0427047196  -0.0228262735   0.0685156503
       -0.1633805513  -0.1318722718  -0.0773171942  -0.2713809388  -0.0358961234
        0.0112590876   0.0057210992  -0.0101121543  -0.0036343307  -0.0043444575
       -0.0021610051   0.0000669453  -0.0001670251  -0.0000258846   0.0000294347
       -0.0000367433   0.0000115509   0.0000235736  -0.0000125554   0.0000033145
        0.0000105901  -0.0000114260  -0.0000139700   0.0000274136  -0.0000030750
        0.0000622911  -0.0001554450  -0.0001248227  -0.0000101402  -0.0000276683
       -0.0000061965  -0.0000052680   0.0000027703   0.0000117581  -0.0000097985
       -0.0000021469   0.0000052121   0.0000005717  -0.0000042119   0.0000030410
        0.0000015993   0.0000003557   0.0000010510   0.0000015128  -0.0000005337
       -0.0000010239   0.0000004830  -0.0000026608   0.0000018273  -0.0000012074
       -0.0000046327  -0.0000012517  -0.0000004789  -0.0000041673   0.0000010420
        0.0000035070  -0.0000115145   0.0000500686  -0.0000520968  -0.0035730280
       -0.0042655115  -0.0024414802  -0.0043540647   0.0057068743   0.0075620986
       -0.2358840223   0.1143346944   0.4267703056   0.1061419072   0.0142562920
       -0.1547002804   0.0028829222   0.0572843560   0.0255820306   0.0287289268
       -0.0024535698  -0.0408317241  -0.0005984372  -0.0005521765   0.0018053852
        0.0003161853  -0.0003758468  -0.0001822751   0.0000567693  -0.0006346201
        0.0000327247  -0.0001984243   0.0001761767   0.0002196290  -0.0001798150
       -0.0001122050  -0.0001906723   0.0002907388  -0.0001099295   0.0000730414
       -0.0000803707   0.0003434460   0.0002456285   0.0006790645   0.0001694942
       -0.0002114787   0.0004634840   0.0004091392   0.0001963664  -0.0003029798
       -0.0001137444   0.0002320150  -0.0000378619   0.0002835054  -0.0001157193
       -0.0000311561  -0.0000182177  -0.0000719505   0.0000098518   0.0000008978
        0.0000003688   0.0000013166   0.0000337990   0.0000227829  -0.0000081701
       -0.0000273678   0.0000032435   0.0000171651   0.0000287308  -0.0000187304
       -0.0000117175  -0.0000228377   0.0000381199   0.0000167641   0.0000362744
        0.0000066789  -0.0000141918  -0.0000390432  -0.0000028111   0.0000024261
        0.0000092016  -0.0000452936   0.0000033236   0.0000003381   0.0000396655
        0.0000001476  -0.0000035614   0.0000053097   0.0000036448   0.0000034927
       -0.0000052987   0.0000010699   0.0000022259  -0.0000040609  -0.0000031695
       -0.0000015889   0.0000046870  -0.0000084483  -0.0000000755  -0.0000028526
        0.0000008977   0.0000015700  -0.0000157486   0.0000016099  -0.0000023790
        0.0000070326  -0.0000063313  -0.0000056629   0.0000021874   0.0000020408
        0.0000023448  -0.0000139612   0.0000089498  -0.0000092905  -0.0000185949
        0.0003071638  -0.0000559487   0.0000537059  -0.0003016353  -0.0002990108
        0.0001200505  -0.0319160282  -0.0628835278   0.0025108598   0.1030654915
       -0.0763698102  -0.1969203375  -0.0064461381  -0.0358249649  -0.0444484402
        0.0174439402   0.0066388759  -0.0142210468   0.0026752779  -0.0026758316
        0.0040853104   0.0000480866  -0.0001453927  -0.0000606026  -0.0000026145
       -0.0000282617   0.0000200125   0.0000151547   0.0000112051  -0.0000210107
        0.0000057507  -0.0000084819   0.0000059228   0.0000302828  -0.0000037490
        0.0000198512   0.0000980223   0.0001564360  -0.0000541070   0.0000012990
        0.0000230802   0.0000221001  -0.0000011717  -0.0000044065  -0.0000065403
       -0.0000011736  -0.0000001081  -0.0000019381   0.0000009598  -0.0000012158
        0.0000021462   0.0000022356  -0.0000026424  -0.0000021315   0.0000029515
        0.0000000288  -0.0000056223   0.0000017439  -0.0000010360  -0.0000012701
        0.0000001905  -0.0000004592  -0.0000051468   0.0000020479  -0.0000012032
       -0.0000047800   0.0000118304   0.0000103789  -0.0000001436   0.0028532506
       -0.0020540585   0.0041527845   0.0098389717  -0.0093737584  -0.0140953766
       -0.1921915519  -0.1000565571   0.1061419072   0.3946379069   0.1159610009
       -0.2443614051  -0.0939982782  -0.0572065051   0.0236761212   0.0275293904
       -0.0016343674  -0.0338587221   0.0037889294   0.0033600202   0.0060696283
       -0.0000116611  -0.0003325945   0.0001789265   0.0001381575  -0.0004836121
        0.0000225404  -0.0001349835   0.0002168378   0.0002085124  -0.0000728211
       -0.0001383792  -0.0001760622   0.0001217233  -0.0000212708  -0.0000573024
       -0.0001326823   0.0002176420   0.0001050454  -0.0004796211   0.0002915202
        0.0006662507   0.0002784184   0.0001891678  -0.0000139081  -0.0000625954
        0.0000349414   0.0000274345   0.0000537467   0.0000717790  -0.0000400785
       -0.0000707105  -0.0001016892   0.0000186362  -0.0000632009   0.0000493305
        0.0000022919   0.0001159772  -0.0001469235   0.0000300305  -0.0000165840
        0.0001795110  -0.0000416988   0.0000167528  -0.0001786397   0.0000523811
       -0.0000365160   0.0001007963  -0.0000371659   0.0000132024  -0.0000668917
       -0.0000006872  -0.0000243820   0.0001911989  -0.0000350017   0.0000283580
       -0.0001798128   0.0000622328   0.0000179244   0.0001164428  -0.0000505827
       -0.0000119566   0.0000287075  -0.0000043015  -0.0000081956   0.0000003478
       -0.0000023142   0.0000031318  -0.0000046607  -0.0000018239   0.0000085273
       -0.0000114497   0.0000005019  -0.0000047924   0.0000039386  -0.0000021089
        0.0000042994  -0.0000014331   0.0000008684   0.0000102864  -0.0000019594
        0.0000011658  -0.0000197360  -0.0000001173   0.0000040739   0.0000203194
       -0.0000199216   0.0000160511  -0.0000039368   0.0000120235  -0.0000048021
        0.0000491610  -0.0000869305  -0.0000493016   0.0000938524   0.0000731329
       -0.0000772390  -0.0237547077  -0.0286964950   0.0058179601  -0.0220228471
        0.0399916543   0.0461682472  -0.0077483533  -0.0055611136   0.0057052918
       -0.0814889834   0.0553630299   0.0801774005  -0.0077657422  -0.0211525321
       -0.0010339691   0.0000244211  -0.0000009753  -0.0000202161  -0.0000014670
       -0.0000064843   0.0000144488   0.0000018143   0.0000125908  -0.0000070067
        0.0000061081   0.0000010990   0.0000188612   0.0000236420   0.0000024693
       -0.0000039073   0.0000151459  -0.0000270806  -0.0001216466   0.0000014167
       -0.0000136055   0.0000095162  -0.0000049471  -0.0000135966   0.0000096707
       -0.0000006726  -0.0000059253  -0.0000033658  -0.0000006764  -0.0000021465
       -0.0000047856  -0.0000042885  -0.0000015768  -0.0000025465  -0.0000029562
       -0.0000012127   0.0000007019  -0.0000006821  -0.0000029818   0.0000029434
        0.0000032742   0.0000001180   0.0000033522   0.0000016179   0.0000087695
       -0.0000005071  -0.0000149566  -0.0000289622   0.0000425865  -0.0000839058
       -0.0003678921  -0.0002430093   0.0032318863   0.0000782260   0.0049998853
       -0.0492584920  -0.1240505432   0.0142562920   0.1159610009   0.6039134816
        0.1204684667  -0.1079322851  -0.3047101592  -0.0154903830   0.0351602224
       -0.0437423931  -0.0620009334   0.0008701540   0.0026058699  -0.0003019769
        0.0006110452  -0.0010614557  -0.0015306606  -0.0002001261  -0.0004149515
        0.0001219485  -0.0001513774   0.0001213769   0.0002853114  -0.0001608874
       -0.0001057694  -0.0002146132   0.0002188220  -0.0002514146  -0.0000227006
       -0.0000234712   0.0002407899   0.0002334823  -0.0001076159  -0.0004234043
        0.0001381981   0.0010575862   0.0004241715   0.0005161545  -0.0004696951
       -0.0001054823   0.0002019335   0.0001294898   0.0004464370  -0.0002066782
       -0.0001954614  -0.0000669117  -0.0000492743  -0.0001035928  -0.0000244345
       -0.0000021379   0.0002158232  -0.0000373722   0.0000352083  -0.0000793070
        0.0000364687  -0.0000210365   0.0000371906  -0.0000493124   0.0000028558
       -0.0000949051  -0.0000475538   0.0000289625   0.0000901951   0.0001051526
        0.0000125974  -0.0001201000   0.0000911134  -0.0000502111   0.0000663878
       -0.0000777580   0.0000068378   0.0000538377   0.0000441969  -0.0000017685
       -0.0000238577   0.0000064693  -0.0000148600  -0.0000099588   0.0000272448
       -0.0000047633   0.0000295600   0.0000069056   0.0000009867   0.0000000586
       -0.0000280707   0.0000073661  -0.0000266121   0.0000185897  -0.0000027897
        0.0000056888   0.0000176616   0.0000001478   0.0000220399  -0.0000222221
        0.0000066949  -0.0000400115  -0.0000259691   0.0000019790   0.0000340000
        0.0000004722  -0.0000155182   0.0000355832   0.0000036727   0.0000086661
        0.0003454425  -0.0001636053   0.0000947588  -0.0001388937  -0.0001935607
        0.0002079346  -0.0277179405  -0.0364841557   0.0136510424   0.0027521300
        0.0521389031   0.0232692902  -0.0211751219  -0.0134694149   0.0157555077
        0.0559282468  -0.1213427359  -0.1048739346  -0.0057504179  -0.0129269250
       -0.0002539352   0.0000956246  -0.0001834016  -0.0001107849  -0.0000325547
       -0.0000107511  -0.0000007562   0.0000053991   0.0000411224  -0.0000248941
        0.0000253793   0.0000043154   0.0000131248   0.0000889462   0.0000282683
        0.0000114618  -0.0000606410   0.0000456028  -0.0003680973   0.0000051292
        0.0000173304   0.0000515883  -0.0000168250  -0.0000081275  -0.0000083114
       -0.0000040106   0.0000002024   0.0000030480   0.0000025667  -0.0000023023
        0.0000030615   0.0000019826   0.0000009743   0.0000025496   0.0000014733
        0.0000011372   0.0000015267   0.0000033185   0.0000033933  -0.0000010987
       -0.0000022777   0.0000056915  -0.0000009862   0.0000103583   0.0000356154
       -0.0000480792  -0.0000433008   0.0000435003  -0.0000057202  -0.0003226863
       -0.0001313152   0.0006187319   0.0003977441  -0.0003146581  -0.0043908123
        0.1315096499   0.0700381405  -0.1547002804  -0.2443614051   0.1204684667
        0.4438057771  -0.0006530566  -0.0690238092  -0.0792865465  -0.0147448666
       -0.0212032307   0.0044189174   0.0061213302  -0.0025673324  -0.0005909378
       -0.0001871521  -0.0016740248  -0.0003718506  -0.0002639979   0.0001205240
       -0.0001161238   0.0001176293  -0.0000960374  -0.0001505181  -0.0000092971
        0.0000975215   0.0001091078   0.0000228284   0.0000238895  -0.0000913319
        0.0002655750  -0.0002404002  -0.0000501208  -0.0008561639   0.0001843176
        0.0007022708  -0.0000437423  -0.0002347991  -0.0003028530  -0.0001034150
       -0.0001047992  -0.0000893917   0.0002880324  -0.0000675082   0.0000687072
       -0.0002105825   0.0000678604  -0.0000053933  -0.0000289826  -0.0000446881
        0.0000093513   0.0000604050   0.0001282020  -0.0000253911  -0.0000671922
       -0.0001550651   0.0000483541   0.0000325005   0.0001871558  -0.0000551716
       -0.0000463859  -0.0002000639   0.0000734887   0.0001530856   0.0001946758
       -0.0000472880  -0.0001515322  -0.0001858432   0.0000338386   0.0000293155
        0.0001569808  -0.0000569818   0.0000592565  -0.0001687112   0.0000561473
       -0.0000209590  -0.0000142309   0.0000125169   0.0000202607   0.0000172744
       -0.0000085154   0.0000126461   0.0000118701  -0.0000051471  -0.0000119807
       -0.0000104072   0.0000084280  -0.0000237362   0.0000072141  -0.0000021092
       -0.0000031445   0.0000168794  -0.0000151095   0.0000077382  -0.0000229038
        0.0000130285  -0.0000148515  -0.0000275481   0.0000110513   0.0000175261
        0.0000238876  -0.0000102738   0.0000501803  -0.0000154340  -0.0000120244
       -0.0003955539   0.0000786480  -0.0000629924   0.0003730948   0.0002911511
       -0.0000318707   0.0073741404   0.0158370725  -0.0041773336   0.0269176215
       -0.0186819648  -0.0374589118  -0.0019227899  -0.0009427967   0.0021111572
        0.0798283050  -0.1049680643  -0.1758880527   0.0060943874   0.0164057181
        0.0017261668   0.0000102895  -0.0000450780   0.0000323378   0.0000043506
        0.0000035257  -0.0000079870  -0.0000059989  -0.0000111452   0.0000327553
        0.0000171797  -0.0000160025  -0.0000035656   0.0000280839   0.0000017894
        0.0000514826  -0.0002217193  -0.0001282056   0.0000152099   0.0000375919
        0.0000097112   0.0000078078  -0.0000040445   0.0000057189  -0.0000052284
       -0.0000058944   0.0000014482   0.0000020677   0.0000029544  -0.0000054564
        0.0000057534   0.0000052583  -0.0000030544   0.0000016900   0.0000063193
       -0.0000000989  -0.0000007423   0.0000048804   0.0000025732   0.0000020162
       -0.0000040831   0.0000026205  -0.0000015248   0.0000220069   0.0000177354
       -0.0000080101   0.0000057804   0.0000415096  -0.0000307511  -0.0003383386
        0.0004645207   0.0003290477   0.0052006628  -0.0040498992  -0.0000181471
       -0.0128045944  -0.0251677611   0.0028829222  -0.0939982782  -0.1079322851
       -0.0006530566   0.3957181536   0.1376208804  -0.2395052895  -0.1101094287
        0.0598410227   0.0965485002   0.0074136634  -0.0010940967  -0.0039316536
       -0.0007842618  -0.0005735256  -0.0006217884   0.0001990956  -0.0000101936
        0.0001467756  -0.0000599542   0.0000861775   0.0000547213   0.0000004554
       -0.0000540769  -0.0000578919  -0.0000111453  -0.0000679176  -0.0001210839
        0.0002082442  -0.0004391908  -0.0001182636  -0.0004979347  -0.0014282426
       -0.0011496027  -0.0021224937  -0.0009146131  -0.0009114480   0.0008067661
        0.0004067719  -0.0003893047  -0.0004509994  -0.0006376568   0.0002799597
        0.0003550175  -0.0001978302   0.0001378814  -0.0000817492   0.0001449556
        0.0000155572   0.0000995344  -0.0003608475   0.0000026255   0.0000347235
        0.0004270472  -0.0000931519   0.0000549587  -0.0004691009   0.0001508364
        0.0000059288   0.0004535488  -0.0001841200  -0.0001819220  -0.0003900390
       -0.0000030480   0.0001329261   0.0004552140  -0.0000436906   0.0000768561
       -0.0003865351   0.0001563426  -0.0001477124   0.0003579916  -0.0001554838
       -0.0000034292   0.0000738714   0.0000074298  -0.0000082439  -0.0000489826
        0.0000143894  -0.0000352448  -0.0000140923   0.0000027597   0.0000248314
        0.0000229285  -0.0000055790   0.0000419281  -0.0000118079  -0.0000030805
       -0.0000040672  -0.0000272004   0.0000056830  -0.0000143261   0.0000391256
       -0.0000184955   0.0000149849   0.0000515889  -0.0000091509   0.0000029051
       -0.0000466511   0.0000538488  -0.0000726838   0.0000400304  -0.0000142125
       -0.0002886951   0.0000666699   0.0001110540   0.0003422818   0.0000724470
       -0.0000214219  -0.0197154724   0.0032077934   0.0241746417  -0.0008503724
        0.0044827305  -0.0018768768   0.0006738221  -0.0034920893   0.0057152682
        0.0033690266   0.0104919488   0.0021491471  -0.1672956980  -0.0712158663
        0.1126191460  -0.0002144985   0.0001713997   0.0000326399  -0.0000053091
       -0.0000062665  -0.0000006568  -0.0000028276  -0.0000201537  -0.0000013300
        0.0000154949  -0.0000260568  -0.0000081085   0.0000084389   0.0000118073
       -0.0000188825  -0.0005738638  -0.0005188082  -0.0004158557   0.0000189597
       -0.0000492957  -0.0000729674  -0.0000052176  -0.0000508767   0.0000204525
        0.0000060719   0.0000017799  -0.0000005548  -0.0000031875   0.0000122193
       -0.0000034764  -0.0000091515   0.0000073472  -0.0000016849  -0.0000099400
        0.0000051683  -0.0000010831  -0.0000125470  -0.0000032545  -0.0000027060
        0.0000032197  -0.0000042005  -0.0000007315  -0.0000017224  -0.0000174884
       -0.0000022443   0.0000457720  -0.0000844253  -0.0000181272   0.0003192614
       -0.0030667315   0.0056899492   0.0003836501   0.0002756942  -0.0005364277
       -0.0635145055  -0.0224465900   0.0572843560  -0.0572065051  -0.3047101592
       -0.0690238092   0.1376208804   0.6099371093   0.1007800448   0.0202239111
       -0.1371975689  -0.0640870926   0.0051844083  -0.0424236204  -0.0267987561
       -0.0038453956  -0.0025843538  -0.0010610291  -0.0005308479   0.0009138339
       -0.0003763974   0.0001215620  -0.0000636438  -0.0003667382   0.0002181164
        0.0001783324   0.0003138468  -0.0003744684   0.0000657762  -0.0002962699
        0.0014439033  -0.0017680294  -0.0004302424   0.0043057742   0.0000278820
       -0.0027730770  -0.0016282884  -0.0007153054  -0.0005362015   0.0007366884
        0.0003497574  -0.0001975299  -0.0005774741  -0.0004510013   0.0001845617
        0.0005987205   0.0002329394  -0.0000442876   0.0002220335  -0.0001152179
        0.0000000677  -0.0004298150   0.0002178183  -0.0000301249   0.0001944240
       -0.0002721807   0.0000469508  -0.0001854321   0.0001522151  -0.0000493683
        0.0002037675   0.0000574912   0.0000040007  -0.0002590190  -0.0001387507
        0.0000706925   0.0002868104  -0.0002104382   0.0000440002  -0.0001307603
        0.0002617219  -0.0001164871  -0.0001289172  -0.0000729983   0.0000788123
        0.0000685406  -0.0000468715   0.0000014676  -0.0000068911  -0.0000390377
        0.0000142672  -0.0000359275  -0.0000235340   0.0000080726   0.0000069982
        0.0000466450  -0.0000127921   0.0000497678  -0.0000348236   0.0000102660
        0.0000097746  -0.0000322005   0.0000123757  -0.0000302532   0.0000471725
       -0.0000122628   0.0000785125   0.0000573338  -0.0000191731  -0.0000905231
        0.0000023616  -0.0000161758  -0.0000933723  -0.0000088686   0.0000090193
        0.0001759239   0.0002853368   0.0000015319   0.0001293700   0.0001515655
       -0.0000428243   0.0342417779   0.0456668212  -0.0153460298   0.0055811239
       -0.0473295437  -0.0283389526  -0.0031329289   0.0005355082   0.0003565901
       -0.0046550764  -0.0187944540  -0.0052405719  -0.0710570960  -0.0799775151
        0.0562394354   0.0002618269  -0.0000148744   0.0001435585   0.0000986014
       -0.0000136174   0.0000016874   0.0000230970  -0.0000670456   0.0000289765
        0.0000908544  -0.0001360576  -0.0001097101  -0.0000054150   0.0000176829
        0.0001337293  -0.0009198931   0.0001115931  -0.0003731004  -0.0000335015
        0.0000217158  -0.0000690932   0.0000233321   0.0000407995  -0.0000113473
        0.0000075359   0.0000054303  -0.0000008615  -0.0000050159   0.0000111070
       -0.0000018213  -0.0000061647   0.0000038964  -0.0000001379  -0.0000096637
        0.0000006213  -0.0000003799  -0.0000093188  -0.0000059501  -0.0000003765
        0.0000022361  -0.0000103749   0.0000009262  -0.0000257079  -0.0000205458
        0.0000253623  -0.0000106256   0.0001573655  -0.0001321155  -0.0036271772
        0.0005789206   0.0004665984   0.0003557075  -0.0004115814  -0.0003460606
       -0.0148632192   0.0164812178   0.0255820306   0.0236761212  -0.0154903830
       -0.0792865465  -0.2395052895   0.1007800448   0.4285403030   0.0767199803
       -0.1145967232  -0.1872600488  -0.0018489449  -0.0156549229  -0.0052220908
       -0.0007029187   0.0006417777   0.0010547412  -0.0003915661   0.0004019162
       -0.0003000119   0.0002432854  -0.0000867236  -0.0001731405   0.0001305112
        0.0001239367   0.0002276299  -0.0001899043   0.0001577303  -0.0000010709
        0.0002019096  -0.0002045390  -0.0001312128   0.0002335154   0.0007079990
       -0.0006907277  -0.0007370275  -0.0008062813  -0.0005300434   0.0004292548
        0.0000747824  -0.0003405878   0.0000253995  -0.0001585498   0.0001005289
        0.0001258079   0.0001947880   0.0000296820   0.0000095003  -0.0001229102
        0.0000120344  -0.0001255192   0.0001735392  -0.0000435046   0.0000486938
       -0.0002243689   0.0000712501  -0.0000819771   0.0001707295  -0.0000543982
        0.0000569691  -0.0001157020   0.0000459525  -0.0000664628   0.0000624410
       -0.0000210278   0.0000798040  -0.0001754712   0.0000395796  -0.0000235679
        0.0002317839  -0.0000562510  -0.0000008770  -0.0002041684   0.0000404151
        0.0000344209  -0.0000338956   0.0000137127  -0.0000095437   0.0000287349
       -0.0000100430   0.0000085822  -0.0000085712  -0.0000035162  -0.0000011512
       -0.0000013451   0.0000001471  -0.0000164069  -0.0000038494  -0.0000033169
        0.0000212350   0.0000022637  -0.0000086177   0.0000066739   0.0000063914
        0.0000018521  -0.0000007218   0.0000074278  -0.0000006832  -0.0000310176
        0.0000117138  -0.0000040392  -0.0000196329  -0.0000211802  -0.0000064028
       -0.0001271404   0.0001203075  -0.0001150901   0.0003922689   0.0004852525
       -0.0001354706   0.0402009724   0.0196801797  -0.0343762454  -0.0015200674
       -0.0257675472  -0.0161975845   0.0058040209   0.0003118884   0.0014338943
       -0.0054783836  -0.0219221202  -0.0044562750   0.1132545743   0.0559197438
       -0.1294197509   0.0003172793  -0.0000085288   0.0002640415   0.0000335947
        0.0000138680  -0.0000142729  -0.0000131424   0.0000061139   0.0000480384
        0.0000012461  -0.0000012973   0.0000195542   0.0000167921   0.0000217690
        0.0000887350  -0.0014980627  -0.0006629704  -0.0003654753  -0.0000089645
       -0.0000257932  -0.0000067388   0.0000091699   0.0000431156  -0.0000033809
        0.0000018759  -0.0000045039  -0.0000013214   0.0000016943   0.0000005850
       -0.0000025849  -0.0000011134   0.0000001676  -0.0000032525  -0.0000030320
        0.0000025309  -0.0000032370  -0.0000011887  -0.0000023612   0.0000008617
        0.0000021750  -0.0000004114  -0.0000007047   0.0000123368  -0.0000093174
        0.0000241341  -0.0000231526  -0.0000437308  -0.0000243878   0.0055357281
       -0.0000067694   0.0013044858  -0.0003453971  -0.0004998036   0.0003294507
       -0.0293734745   0.0075777318   0.0287289268   0.0275293904   0.0351602224
       -0.0147448666  -0.1101094287   0.0202239111   0.0767199803   0.4222132652
        0.0934582358  -0.2320343420  -0.0870082149  -0.0444926796   0.0014309357
        0.0099308761   0.0140650581  -0.0010132974  -0.0017236251   0.0026102408
        0.0009939823  -0.0001765659  -0.0004917742   0.0006220449  -0.0001574902
       -0.0000210899  -0.0001073343   0.0000500479  -0.0002623008   0.0009025659
       -0.0027667900   0.0034934279   0.0007267499  -0.0155008480  -0.0293099930
       -0.0008462121  -0.0008967646  -0.0021191967  -0.0003092789  -0.0001396771
       -0.0001136303   0.0003813437   0.0004669993  -0.0000104419   0.0001114208
       -0.0003400533  -0.0003353941  -0.0000041330  -0.0001008152   0.0000710310
       -0.0000059456   0.0003221235  -0.0002044938   0.0000020020  -0.0002455402
        0.0002139407  -0.0000351418   0.0001308726  -0.0000068700   0.0000114332
       -0.0000955498  -0.0001314837   0.0000007659   0.0001549569   0.0001114914
       -0.0000821361  -0.0001320088   0.0001119355   0.0000013496  -0.0000966711
       -0.0001623045   0.0001137424   0.0001608219   0.0002355713  -0.0001390131
       -0.0000198738   0.0000124225   0.0000112279  -0.0000144604   0.0000501376
       -0.0000095226   0.0000371462   0.0000183527  -0.0000036163  -0.0000066958
       -0.0000444226   0.0000133548  -0.0000468134   0.0000283353  -0.0000091052
        0.0000064267   0.0000259094  -0.0000061020   0.0000285053  -0.0000336832
        0.0000051107  -0.0000597902  -0.0000342972   0.0000110206   0.0000630810
        0.0000048071   0.0000231813   0.0000504731  -0.0000077391   0.0000020561
       -0.0007632276  -0.0010262058   0.0011319915  -0.0039950113  -0.0005964360
       -0.0005061134  -0.1798945888  -0.0390622744   0.1240032556  -0.0132051849
       -0.0608081136  -0.0177852371   0.0000069870   0.0003240766   0.0006630554
        0.0041375627  -0.0038864721   0.0029762234  -0.0108909767   0.0100561262
        0.0177354718  -0.0004631543   0.0011941457  -0.0009129524  -0.0002059337
        0.0000801242  -0.0000370665  -0.0000154709   0.0001956792  -0.0001395406
       -0.0001894995   0.0002496765   0.0001809749   0.0000233755  -0.0000485326
       -0.0003540869  -0.0012873928  -0.0002711558  -0.0012698671   0.0001483932
       -0.0000067924   0.0000302671  -0.0000181001   0.0000011722   0.0000098039
       -0.0000063497  -0.0000011926   0.0000034381   0.0000057075  -0.0000073583
        0.0000050403   0.0000034325   0.0000016337   0.0000038211   0.0000018663
        0.0000027276   0.0000029115   0.0000052741   0.0000035700  -0.0000020252
       -0.0000028351   0.0000067343  -0.0000024085  -0.0002883114  -0.0000095201
       -0.0000058557  -0.0000920931   0.0001325379  -0.0001277625  -0.0095490527
       -0.0032813966   0.0100937310   0.0044007492  -0.0029337215   0.0028397818
        0.0072784316   0.0047336163  -0.0024535698  -0.0016343674  -0.0437423931
       -0.0212032307   0.0598410227  -0.1371975689  -0.1145967232   0.0934582358
        0.5619626163   0.1035579569  -0.0410040208  -0.2119452897  -0.0277928171
        0.0066061984  -0.0323734603  -0.0135584530  -0.0020864642  -0.0005855157
        0.0006308891   0.0000517103  -0.0000391350   0.0002051210  -0.0004923944
       -0.0001121606  -0.0004288643   0.0006922155  -0.0010229460  -0.0014705342
        0.0004605860  -0.0003441878   0.0008920313  -0.0269638759  -0.0151823023
        0.0081121519   0.0040957930  -0.0009899167  -0.0010074173  -0.0006560595
       -0.0005880914  -0.0006570378   0.0021714656  -0.0001042835   0.0001721617