$hessian                                                                        
        0.5670611077   0.1358511824  -0.1613149178  -0.2526992627   0.0310902941
        0.1411634348  -0.0532229311  -0.0508316751  -0.0040494790  -0.0184201589
        0.0218698653   0.0245392162  -0.0010859383  -0.0012751385  -0.0014864061
       -0.0000847576   0.0004815316   0.0005201703   0.0001358755   0.0001769367
       -0.0001349012   0.0000565505  -0.0001450636  -0.0001046422   0.0000921630
        0.0000750466   0.0001484325  -0.0000552769   0.0001317271   0.0000089576
       -0.0000081754  -0.0001824952  -0.0000880274  -0.0000579736   0.0001916642
       -0.0002915264  -0.0005569857  -0.0001093765  -0.0001333997   0.0002743931
       -0.0000551642  -0.0001373395  -0.0001329377  -0.0001598542   0.0000907801
        0.0001377771  -0.0000682426   0.0000617783  -0.0000355135   0.0000262014
       -0.0000117257   0.0000031027   0.0000268192  -0.0000066130  -0.0000097181
       -0.0000227075   0.0000009386  -0.0000244956  -0.0000037992  -0.0000049230
        0.0000254617  -0.0000162701   0.0000057729   0.0000103575   0.0000388511
       -0.0000064675  -0.0000195537  -0.0000118659  -0.0000091957   0.0000236594
        0.0000101159  -0.0000135800  -0.0000239248   0.0000041968  -0.0000144117
       -0.0000148642  -0.0000099163   0.0000017116   0.0000042037   0.0000146304
       -0.0000010320  -0.0000090154   0.0000024031   0.0000013703   0.0000004927
       -0.0000013479   0.0000012353   0.0000020158   0.0000004115  -0.0000014375
       -0.0000015796   0.0000050400  -0.0000033351  -0.0000065214  -0.0000106307
       -0.0000028102   0.0000147905  -0.0000149135  -0.0000011288  -0.0000177369
        0.0000002979  -0.0000054436  -0.0000032986   0.0000020549  -0.0000016599
       -0.0001199512   0.0001786954  -0.0000736656   0.0002554766   0.0000762767
       -0.0000782015   0.0336847982  -0.0015931683  -0.0197121427  -0.0909085663
       -0.0156566531   0.0126317021  -0.1723097872  -0.1302942329  -0.0154468840
       -0.0044217222   0.0015783686   0.0037007216  -0.0009380633  -0.0049071471
        0.0015629486  -0.0000365078  -0.0000452542   0.0000365238   0.0000257729
       -0.0000113319   0.0000065859  -0.0000106664  -0.0000140433   0.0000253371
       -0.0000053868  -0.0000028616  -0.0000004424   0.0000065079   0.0000101823
        0.0000408140  -0.0002516455  -0.0000733336   0.0000468600  -0.0000303195
       -0.0000025876  -0.0000285165  -0.0000028615  -0.0000019689  -0.0000027508
        0.0000002805  -0.0000008626   0.0000033980  -0.0000022605  -0.0000022187
        0.0000044359  -0.0000031543  -0.0000017561   0.0000014881  -0.0000034366
       -0.0000010303  -0.0000025816  -0.0000045032  -0.0000005046  -0.0000054479
       -0.0000017670   0.0000016774  -0.0000056070  -0.0000032345  -0.0000006268
        0.0000128843  -0.0000108990   0.0000367518  -0.0000391017  -0.0011941852
       -0.0052052979   0.0013549929  -0.0050652493   0.0188521181   0.0172472539
        0.1358511824   0.5084996443   0.2107279304  -0.0267939534  -0.0822415360
       -0.0098632166  -0.0073776015   0.0245444691   0.0214070403   0.0220608099
       -0.0131552406  -0.0190869502  -0.0015664020  -0.0013122639   0.0009988395
        0.0000166756  -0.0001104430   0.0002230677  -0.0001145561  -0.0004055904
        0.0000177670  -0.0000558429   0.0001656736   0.0000698905  -0.0001134254
        0.0000052303  -0.0001147104   0.0001455709  -0.0001056111   0.0000975900
        0.0000514029   0.0002019513   0.0001198912   0.0007004534  -0.0001032309
       -0.0004049684   0.0002270740   0.0000667558   0.0001382742  -0.0001756121
        0.0000155842   0.0001260172   0.0000864740   0.0001411229  -0.0000993399
        0.0000062859  -0.0000542413  -0.0000257476  -0.0000015283  -0.0000185439
        0.0000093518  -0.0000321070   0.0000061276   0.0000053688   0.0000297829
       -0.0000069977   0.0000034985  -0.0000473416  -0.0000154611   0.0000084894
        0.0000123622   0.0000374236  -0.0000030569   0.0000177853  -0.0000179108
       -0.0000012494  -0.0000142815   0.0000098005  -0.0000018970   0.0000000494
        0.0000050660   0.0000062091   0.0000343562   0.0000491124  -0.0000119371
        0.0000014144   0.0000039770   0.0000003383   0.0000034604  -0.0000006115
       -0.0000025092  -0.0000031265  -0.0000028985  -0.0000016394  -0.0000037370
        0.0000003704  -0.0000026214  -0.0000022324   0.0000023998   0.0000011952
        0.0000005714  -0.0000009265   0.0000010397  -0.0000010123   0.0000031198
        0.0000025588   0.0000044654  -0.0000030191   0.0000045133  -0.0000021539
       -0.0000000279   0.0000021810   0.0000056194   0.0000071972  -0.0000013379
        0.0001429096  -0.0000646701   0.0000198655  -0.0001947811  -0.0000407506
        0.0000367040  -0.0448690864  -0.0471003558  -0.0114513221   0.0422152205
       -0.2177452860  -0.1480446576  -0.1302389631  -0.1657336723  -0.0224448368
        0.0188241790  -0.0027114772  -0.0135444010  -0.0052457311  -0.0002849329
       -0.0029567223  -0.0000292581  -0.0001793925  -0.0000214665   0.0000005459
       -0.0000245450   0.0000162508   0.0000063887  -0.0000134041  -0.0000100008
       -0.0000042841  -0.0000063723  -0.0000098769   0.0000311991   0.0000027414
        0.0000560911  -0.0000729729  -0.0000021357  -0.0000552805  -0.0000243465
        0.0000269207   0.0000066154  -0.0000004428   0.0000087097   0.0000029077
       -0.0000023911  -0.0000021487  -0.0000027608  -0.0000015228   0.0000010450
       -0.0000033436   0.0000009774   0.0000011561  -0.0000019588  -0.0000000495
        0.0000018413   0.0000014768  -0.0000015626   0.0000013228   0.0000033033
       -0.0000021896   0.0000038936   0.0000034882   0.0000038690  -0.0000073290
        0.0000017172   0.0000097691   0.0000322461  -0.0000357660  -0.0049332707
       -0.0001003717  -0.0031538597   0.0014349120  -0.0022735042  -0.0027620371
       -0.1613149178   0.2107279304   0.3618746004   0.0983762457  -0.0438619518
       -0.1356966171   0.0263797999   0.0467065932   0.0192199066   0.0231187213
       -0.0177103618  -0.0342796378  -0.0007150096   0.0000294300   0.0014892149
        0.0000696864  -0.0004422981  -0.0001144900  -0.0002226973  -0.0005079492
        0.0000795185  -0.0000976706   0.0002374175   0.0001593728  -0.0001590871
       -0.0000292076  -0.0001703203   0.0001685542  -0.0001903859   0.0001108483
        0.0000597051   0.0003231300   0.0001771480   0.0005882655  -0.0002036729
       -0.0000976309   0.0005741326   0.0001471764   0.0002108142  -0.0003241024
        0.0000500644   0.0001969013   0.0001410258   0.0002164846  -0.0001380247
       -0.0000801036  -0.0000079024  -0.0000767004   0.0000162220  -0.0000252307
        0.0000063719  -0.0000203571  -0.0000197931   0.0000001718   0.0000251988
        0.0000070829  -0.0000148734  -0.0000219534  -0.0000169582  -0.0000025279
        0.0000011787   0.0000370858  -0.0000149404   0.0000047615  -0.0000351768
       -0.0000129772  -0.0000010241   0.0000149109   0.0000113255  -0.0000162248
       -0.0000030992   0.0000073608   0.0000423727   0.0000351514   0.0000025209
        0.0000105267   0.0000092649   0.0000065365   0.0000000032  -0.0000054604
        0.0000013652   0.0000070437  -0.0000008807   0.0000062645  -0.0000036181
        0.0000013042   0.0000058785   0.0000029269   0.0000005615  -0.0000073731
       -0.0000011226  -0.0000023770  -0.0000048757   0.0000029706   0.0000049983
       -0.0000038077  -0.0000050960   0.0000011557  -0.0000133428   0.0000047037
       -0.0000025560  -0.0000048082   0.0000043471   0.0000024679  -0.0000030289
        0.0002014918  -0.0001640424   0.0000755988  -0.0003505482  -0.0000902666
        0.0001028391  -0.0517046539  -0.0350217716   0.0040572681   0.0558143985
       -0.1146442342  -0.1638470495  -0.0155487550  -0.0222768914  -0.0410196719
        0.0170710373  -0.0036181521  -0.0111732466   0.0014108375  -0.0033972047
        0.0049584839  -0.0000190558  -0.0001273022  -0.0000163267  -0.0000112738
       -0.0000146183   0.0000268133   0.0000153058  -0.0000027407  -0.0000033297
        0.0000022685  -0.0000077490   0.0000118157   0.0000209762  -0.0000128140
        0.0000267955   0.0001601235   0.0000727457  -0.0000559528   0.0000106120
        0.0000200856   0.0000159454   0.0000013281   0.0000051600  -0.0000091943
        0.0000011182   0.0000003125   0.0000034539   0.0000008916   0.0000015395
        0.0000031081   0.0000011076  -0.0000008072  -0.0000003040   0.0000005941
       -0.0000013222  -0.0000054525   0.0000016840  -0.0000016496  -0.0000092221
        0.0000005237  -0.0000021789  -0.0000096829   0.0000049197  -0.0000031150
       -0.0000053515   0.0000137067   0.0000055166   0.0000040636   0.0017865493
       -0.0029874361   0.0050151966   0.0044994047  -0.0132180121  -0.0110567417
       -0.2526992627  -0.0267939534   0.0983762457   0.5559408559   0.1207837403
       -0.1660047198  -0.2090534401  -0.1030169944   0.0179509602   0.0301342565
       -0.0445990122  -0.0533758764   0.0047406346   0.0025654771   0.0051254781
       -0.0001136115  -0.0008369922  -0.0004860385  -0.0002852000  -0.0005453340
        0.0001356061  -0.0000734597   0.0003325336   0.0002442251  -0.0001747187
       -0.0001065563  -0.0002504730   0.0001211603  -0.0002122887  -0.0000092637
        0.0000292562   0.0003257601   0.0001606264  -0.0004211725   0.0003296954
        0.0005769826   0.0008557784  -0.0000090106   0.0003075447  -0.0003400618
        0.0001309890   0.0000931166   0.0003908657   0.0001340340  -0.0001254187
       -0.0002652116   0.0001127773  -0.0000777914   0.0000995333  -0.0000310848
        0.0000136507  -0.0000257319  -0.0000242895  -0.0000038491   0.0000053763
        0.0000566713  -0.0000091696  -0.0000098950   0.0000123035  -0.0000032107
       -0.0000408651   0.0000197180  -0.0000108123   0.0000003332  -0.0000538774
        0.0000082059  -0.0000134306  -0.0000131360   0.0000161935  -0.0000163558
       -0.0000330515   0.0000232872   0.0000680909   0.0000195404   0.0000008813
        0.0000069417   0.0000072711  -0.0000011887   0.0000014864  -0.0000126295
        0.0000061940   0.0000117758   0.0000001878   0.0000023821   0.0000001056
        0.0000003912   0.0000027993  -0.0000000161  -0.0000029871   0.0000023989
        0.0000021518  -0.0000078129   0.0000049184   0.0000101782   0.0000098463
       -0.0000002176  -0.0000143450   0.0000124651  -0.0000009149   0.0000210688
       -0.0000018314   0.0000059535  -0.0000019846  -0.0000085435   0.0000042259
        0.0000559123  -0.0001539274   0.0000325181   0.0000209877  -0.0000275487
        0.0000316980  -0.0517667065  -0.0206311148   0.0115103762   0.0089241305
        0.0686255173   0.0468983655  -0.0206758645  -0.0006398328   0.0114142243
       -0.0466646003   0.0235673653   0.0253485598  -0.0208191309  -0.0179512199
       -0.0002888122   0.0000439884  -0.0001175491  -0.0000483490  -0.0000210980
       -0.0000121670   0.0000122424   0.0000250856   0.0000174868  -0.0000184759
        0.0000209536  -0.0000105720   0.0000196140   0.0000538086  -0.0000226323
        0.0000088747  -0.0000005677  -0.0000093932  -0.0002965216   0.0000113394
       -0.0000205671   0.0000371977  -0.0000127960  -0.0000090376   0.0000024914
       -0.0000008436   0.0000009617   0.0000018941   0.0000008337  -0.0000009820
        0.0000026839  -0.0000018228  -0.0000015056   0.0000034361  -0.0000013689
       -0.0000013761   0.0000028941   0.0000009018  -0.0000011647   0.0000026148
       -0.0000008369  -0.0000043809   0.0000016454   0.0000014787   0.0000133839
       -0.0000278227  -0.0000165114   0.0000107203   0.0000232221  -0.0004066044
       -0.0002595127   0.0000590168   0.0023382446  -0.0009049674   0.0025634798
        0.0310902941  -0.0822415360  -0.0438619518   0.1207837403   0.5101217150
        0.2210396167  -0.1605900860  -0.1970764613  -0.0206336889  -0.0024178079
       -0.0468393485  -0.0333884321  -0.0000503891   0.0000771568  -0.0033549780
        0.0000813942  -0.0011756496  -0.0012586689  -0.0002757016   0.0000208114
        0.0000781037  -0.0000627029   0.0000325852   0.0001217523  -0.0000889576
        0.0000306489  -0.0000784081   0.0000244636  -0.0002346330   0.0000462008
        0.0000775530   0.0000245578   0.0001424949  -0.0002318229  -0.0004924463
       -0.0000876528   0.0008353318  -0.0001392938   0.0005051218  -0.0004562399
        0.0000899133   0.0001295934   0.0004418073   0.0001710512  -0.0001775171
       -0.0003543868   0.0000203241  -0.0000664818   0.0000814131  -0.0000137025
        0.0000045325  -0.0000554181  -0.0000743670  -0.0000086601   0.0000816928
        0.0000805906  -0.0000132196  -0.0001023893  -0.0000524644  -0.0000010987
       -0.0000214230   0.0001538665  -0.0000335998   0.0000376325  -0.0001454088
        0.0000281908  -0.0000273025   0.0000203994  -0.0000019897  -0.0000615028
       -0.0000369172   0.0000183876   0.0001781498   0.0001153508  -0.0000227663
        0.0000268887   0.0000248305  -0.0000008581  -0.0000028349  -0.0000322775
        0.0000130647   0.0000193701  -0.0000022498   0.0000096863  -0.0000051671
        0.0000043981   0.0000018428  -0.0000131984  -0.0000021294   0.0000058283
        0.0000076242  -0.0000171577   0.0000014244   0.0000150534   0.0000193342
       -0.0000092106  -0.0000239225   0.0000205807  -0.0000101406   0.0000213290
       -0.0000070623  -0.0000014727   0.0000115628   0.0000046386  -0.0000016734
        0.0001028204  -0.0001323330   0.0001337444  -0.0001447606  -0.0000455540
        0.0002244901  -0.0195162691  -0.0079532885   0.0087291560   0.0260430498
        0.0140030331  -0.0055250227  -0.0183226434   0.0002334538   0.0103999503
        0.0240683060  -0.1885452039  -0.1276255671  -0.0004788355   0.0007943380
        0.0003346007  -0.0000100264  -0.0001879968  -0.0000512064  -0.0000212671
        0.0000202629   0.0000027065   0.0000110707   0.0000208515   0.0000042721
        0.0000144521  -0.0000108018   0.0000219074   0.0000758009  -0.0000059052
        0.0000387906  -0.0000297246   0.0000566633  -0.0002858583   0.0000092347
        0.0000061568   0.0000382328  -0.0000167692   0.0000025856  -0.0000063397
       -0.0000048749   0.0000020840   0.0000096116   0.0000004274   0.0000056176
        0.0000120601   0.0000022107   0.0000031461   0.0000075979   0.0000017756
        0.0000001837   0.0000009855   0.0000027711  -0.0000038312  -0.0000064796
       -0.0000031790  -0.0000047700  -0.0000087742   0.0000121765   0.0000075567
       -0.0000429845   0.0000035782   0.0000645068  -0.0000277218  -0.0002365737
        0.0002999610   0.0006435428  -0.0005367977  -0.0010803643  -0.0061550665
        0.1411634348  -0.0098632166  -0.1356966171  -0.1660047198   0.2210396167
        0.3762762260  -0.0228887500  -0.0533060031  -0.0711049816  -0.0215258833
       -0.0085659088   0.0052083084   0.0044966995  -0.0051717542   0.0009885576
       -0.0009606592  -0.0013042453  -0.0001785290  -0.0001199468   0.0001649234
       -0.0001699593   0.0000639098  -0.0001244657  -0.0001168829   0.0000315819
        0.0000905994   0.0000761963   0.0000351394   0.0000106379  -0.0001055272
        0.0000985673  -0.0003226299  -0.0000249105  -0.0007601720   0.0007567221
        0.0005983280  -0.0001422712  -0.0002317044  -0.0003189958  -0.0001566966
       -0.0000741944  -0.0001111220   0.0002966103  -0.0002591352   0.0001051323
       -0.0003701584  -0.0000538456   0.0000604048   0.0000755691   0.0000106838
        0.0000160472  -0.0000926458  -0.0001045034   0.0000188068   0.0001304754
        0.0000669820  -0.0000094271  -0.0001582504  -0.0000915041   0.0000186438
        0.0000180560   0.0001971366  -0.0000344025   0.0000546482  -0.0001500812
        0.0000209556  -0.0000417894   0.0000372255  -0.0000062683  -0.0000748940
       -0.0000166360  -0.0000047981   0.0002063807   0.0001592855  -0.0000432557
        0.0000279975   0.0000245540   0.0000061655   0.0000036104  -0.0000229444
        0.0000015737   0.0000175565  -0.0000087542   0.0000033271  -0.0000117391
        0.0000018989   0.0000062183  -0.0000036426  -0.0000002273  -0.0000032218
       -0.0000002054  -0.0000106444   0.0000069028   0.0000059188   0.0000197117
        0.0000070974  -0.0000090151   0.0000160047  -0.0000017735   0.0000079090
       -0.0000084135   0.0000055974   0.0000213582   0.0000142928   0.0000014330
       -0.0003357381   0.0003010735  -0.0001468889   0.0005480774   0.0000725429
       -0.0000334805   0.0136371367   0.0097460528  -0.0049448648   0.0145512736
       -0.0311151380  -0.0299787221  -0.0013446926   0.0002618091   0.0014821764
        0.0249255599  -0.1274927924  -0.1448735494   0.0120302179   0.0107197178
        0.0010696309  -0.0000245977  -0.0000218372   0.0000407444   0.0000138494
        0.0000076825  -0.0000161449  -0.0000207794  -0.0000029774   0.0000185868
        0.0000032717  -0.0000104544  -0.0000138836   0.0000194292   0.0000082945
        0.0000451920  -0.0002724979  -0.0000013201  -0.0000046945   0.0000348375
       -0.0000168886   0.0000184683  -0.0000062553  -0.0000013778   0.0000093902
       -0.0000015584  -0.0000025423  -0.0000021306   0.0000010981   0.0000010821
       -0.0000038111   0.0000029359  -0.0000014054  -0.0000000602   0.0000016256
       -0.0000005110   0.0000046449   0.0000025858  -0.0000010666   0.0000089433
       -0.0000020316  -0.0000000887   0.0000091664   0.0000186362  -0.0000058188
        0.0000018528   0.0000185080   0.0000242754  -0.0000306607  -0.0000832813
        0.0005657876   0.0001889836   0.0028484054  -0.0059535628   0.0016558617
       -0.0532229311  -0.0073776015   0.0263797999  -0.2090534401  -0.1605900860
       -0.0228887500   0.5764290334   0.1350028944  -0.1708113426  -0.0866469032
        0.0443936889   0.0554550854  -0.0009615823  -0.0233194392  -0.0133632308
       -0.0028377796  -0.0005731673  -0.0012554407   0.0000818273   0.0003854764
       -0.0000817882   0.0000284162   0.0000340757  -0.0001153486   0.0000857207
       -0.0000075293   0.0000948729  -0.0001279605   0.0000002339  -0.0002533418
        0.0002372446  -0.0014203271  -0.0000653258   0.0011954155  -0.0021450644
       -0.0020077525  -0.0029017414   0.0002217806  -0.0012831928   0.0012886005
       -0.0000664634  -0.0003449740  -0.0013022500  -0.0001661443   0.0003424252
        0.0010385730   0.0001334484   0.0000206204  -0.0001626147  -0.0000176910
       -0.0000451730   0.0002134773   0.0002567920  -0.0000196377  -0.0003066419
       -0.0001641997   0.0000054313   0.0003385345   0.0001962535  -0.0000335991
       -0.0000045541  -0.0004745082   0.0000960968  -0.0001186847   0.0004003074
       -0.0000735983   0.0000644492  -0.0001240283   0.0000261244   0.0002378882
        0.0000420640  -0.0000558432  -0.0005567021  -0.0004280418   0.0001337447
       -0.0000783540  -0.0000680366   0.0000104667  -0.0000026034   0.0000826777
       -0.0000128714  -0.0000414394   0.0000200991  -0.0000019018   0.0000269869
       -0.0000037563   0.0000033098   0.0000277033   0.0000013692   0.0000002064
       -0.0000061824   0.0000378091  -0.0000084011  -0.0000222828  -0.0000567776
        0.0000084382   0.0000451710  -0.0000619183   0.0000108935  -0.0000385548
        0.0000175031  -0.0000099477  -0.0000528461  -0.0000275780   0.0000044887
        0.0000627736   0.0001011532   0.0000876443   0.0001588703  -0.0000684173
        0.0000364861   0.0072866319   0.0238723177   0.0137386721  -0.0055331600
       -0.0175296501  -0.0126188345  -0.0027078371  -0.0013336709   0.0051413858
        0.0017419359   0.0007836705  -0.0003173721  -0.2206407838   0.0110107431
        0.1202966473   0.0000222823   0.0001428800   0.0000448978   0.0000289469
       -0.0000319975   0.0000113511  -0.0000112740  -0.0000457702   0.0000227367
        0.0000154923  -0.0001142188  -0.0000349346   0.0000008227   0.0000112406
        0.0000435810  -0.0009033271   0.0000653857  -0.0006366831  -0.0000036411
       -0.0000249465  -0.0001091862  -0.0000009418   0.0000417732  -0.0000153919
        0.0000065536  -0.0000031655   0.0000028704  -0.0000040940  -0.0000097841
        0.0000053340  -0.0000083225  -0.0000040323   0.0000022658  -0.0000084362
       -0.0000009807  -0.0000018043  -0.0000103789   0.0000053924  -0.0000053164
        0.0000026261   0.0000057617  -0.0000061848  -0.0000033154   0.0000031227
        0.0000134669   0.0000349047  -0.0000167494  -0.0000625879  -0.0029587370
       -0.0007382093   0.0051030587   0.0005394155  -0.0002559633  -0.0006026454
       -0.0508316751   0.0245444691   0.0467065932  -0.1030169944  -0.1970764613
       -0.0533060031   0.1350028944   0.4916940482   0.2025456794  -0.0016944933
       -0.1913413488  -0.1019035797  -0.0160280394  -0.0358577973  -0.0192471028
       -0.0034657823  -0.0004360279  -0.0007082328  -0.0000664528   0.0009726295
       -0.0005591657   0.0001400895  -0.0001951353  -0.0002832359   0.0002257722
        0.0001024125   0.0003211206  -0.0002218449   0.0002073113  -0.0002618013
        0.0003852342  -0.0017237461  -0.0000622677   0.0040704871  -0.0014977243
       -0.0015065377  -0.0005887547   0.0000524824  -0.0001922425   0.0004104371
       -0.0000057578   0.0000314940  -0.0005858925   0.0001703008  -0.0000412878
        0.0006077981  -0.0002957849   0.0000060058  -0.0002676678   0.0001481276
       -0.0000373766   0.0001167617   0.0000694645  -0.0000167213  -0.0000305095
       -0.0000871880   0.0000106449  -0.0000128706  -0.0000206243   0.0000035722
        0.0000979357  -0.0000320929   0.0000092338   0.0000235343   0.0000869255
       -0.0000086654  -0.0000148397   0.0000302806  -0.0000037927   0.0000376035
        0.0000341024   0.0000003078  -0.0001085154   0.0000054600   0.0000261954
       -0.0000224393  -0.0000229078   0.0000030443  -0.0000017416   0.0000187528
       -0.0000001475  -0.0000204566   0.0000126901   0.0000025145   0.0000114539
       -0.0000020801   0.0000017706  -0.0000078140   0.0000022139   0.0000054797
        0.0000095262   0.0000106152  -0.0000022490  -0.0000110777  -0.0000228115
        0.0000038905   0.0000216862  -0.0000282494   0.0000046906  -0.0000661523
        0.0000083754  -0.0000057145  -0.0000070278   0.0000048363  -0.0000014358
        0.0004536480  -0.0000452412  -0.0000007965  -0.0000426516   0.0001232964
       -0.0000202749   0.0598047816   0.0121504840  -0.0271365137  -0.0163660682
       -0.0461966185  -0.0218186666  -0.0010108001   0.0027705937  -0.0026046037
       -0.0165226468  -0.0186586001  -0.0049770485   0.0112262410  -0.0422286000
       -0.0123697595   0.0002270708  -0.0002587389   0.0001624011   0.0000572440
       -0.0000530422   0.0000143062  -0.0000016229  -0.0000382132   0.0000473810
        0.0000321422  -0.0001337476  -0.0000518835  -0.0000101342   0.0000161639
        0.0001322270  -0.0004544126   0.0005995189  -0.0002885540  -0.0000335366
        0.0000613203  -0.0000387438   0.0000061799  -0.0000030984  -0.0000138423
        0.0000046981   0.0000040585   0.0000047807   0.0000003704  -0.0000014367
        0.0000074693  -0.0000027982   0.0000002326   0.0000049874  -0.0000025686
       -0.0000004525   0.0000017629  -0.0000029414   0.0000016523  -0.0000029584
        0.0000027680  -0.0000012133  -0.0000045571  -0.0000008234   0.0000238552
        0.0000130718   0.0000731896   0.0001539457  -0.0000953113  -0.0013483403
        0.0027338092  -0.0025226280  -0.0001791613  -0.0005496883   0.0000230768
       -0.0040494790   0.0214070403   0.0192199066   0.0179509602  -0.0206336889
       -0.0711049816  -0.1708113426   0.2025456794   0.3650786864   0.0187332119
       -0.1348996368  -0.1570316860  -0.0068202682  -0.0106442539  -0.0026650045
       -0.0001247663   0.0010022586   0.0008502867  -0.0001032622   0.0004183771
       -0.0003305255   0.0001896615  -0.0001804863  -0.0000845260   0.0001297046
        0.0000657017   0.0001875786  -0.0000833547   0.0001971354  -0.0000266233
        0.0000497977  -0.0001569396  -0.0000950760   0.0001147387   0.0005381796
       -0.0006252445  -0.0011484208  -0.0004222168  -0.0006498017   0.0004810883
       -0.0001501295  -0.0003586101  -0.0001680908  -0.0001396501   0.0001382240
        0.0001840525  -0.0001131738   0.0001304736  -0.0001014585   0.0001376475
       -0.0000223058   0.0000718643   0.0000029985  -0.0000107956  -0.0000361712
       -0.0000225975   0.0000024528   0.0000054545  -0.0000105729   0.0000023149
        0.0000249426  -0.0000057993  -0.0000021421  -0.0000064085   0.0000172100
       -0.0000054387   0.0000036146   0.0000104219   0.0000007846  -0.0000359084
       -0.0000000482  -0.0000118708  -0.0000157069  -0.0000112243  -0.0000032036
       -0.0000005511  -0.0000047345   0.0000062440  -0.0000088736  -0.0000034314
       -0.0000008239   0.0000018201   0.0000105991   0.0000004859   0.0000066662
        0.0000019867   0.0000028625  -0.0000047540  -0.0000031868  -0.0000036349
        0.0000062404   0.0000020490  -0.0000021623   0.0000034641  -0.0000061989
        0.0000033198  -0.0000059970  -0.0000047550  -0.0000058641  -0.0000229396
        0.0000022662  -0.0000053502  -0.0000120021  -0.0000041547  -0.0000001651
       -0.0000766633   0.0001756376  -0.0001170903   0.0005748165   0.0001813465
       -0.0001135501   0.0409825568  -0.0054845621  -0.0279520187  -0.0113747535
       -0.0198804499  -0.0128180091   0.0051591451  -0.0026957041   0.0025957083
       -0.0131562019  -0.0151500131  -0.0028395692   0.1206595188  -0.0128696897
       -0.1139310769   0.0002279611  -0.0001403157   0.0003014966   0.0000218212
       -0.0000080975  -0.0000134284  -0.0000045535   0.0000252030   0.0000448467
        0.0000115265   0.0000114023   0.0000271647   0.0000180646   0.0000101718
        0.0000718951  -0.0017129706   0.0000476317  -0.0005671541  -0.0000087894
       -0.0000463852  -0.0000092866   0.0000123337  -0.0000410213   0.0000066507
        0.0000051969   0.0000035198   0.0000004430   0.0000008199  -0.0000031736
        0.0000007381  -0.0000035269  -0.0000029378  -0.0000004212  -0.0000034388
       -0.0000023079  -0.0000016513  -0.0000001901   0.0000009975  -0.0000029182
        0.0000038136  -0.0000048436  -0.0000027155   0.0000066669   0.0000048985
        0.0000156415  -0.0000280407  -0.0000471300  -0.0000146407   0.0048026915
       -0.0028143869   0.0024533506  -0.0005153311  -0.0002124624   0.0002878104
       -0.0184201589   0.0220608099   0.0231187213   0.0301342565  -0.0024178079
       -0.0215258833  -0.0866469032  -0.0016944933   0.0187332119   0.5480489926
        0.0801698510  -0.1576598851  -0.1473437766  -0.0770236205  -0.0097157784
        0.0095234203  -0.0078317864  -0.0050269349  -0.0012501072   0.0029229361
        0.0006730965  -0.0003745139  -0.0002438752   0.0005290735  -0.0002614081
        0.0000648832  -0.0002769645  -0.0000466333  -0.0006145782   0.0002528706
       -0.0006763892   0.0036484857   0.0004168008  -0.0396571571  -0.0161544750
        0.0025714281  -0.0000116537  -0.0028891005  -0.0003199388  -0.0010779644
       -0.0002691363  -0.0001578761   0.0021862968  -0.0011019246   0.0004161505
       -0.0021780962   0.0005584650   0.0000668002   0.0007181487  -0.0002773775
        0.0001130508  -0.0004224171  -0.0004039585   0.0000423664   0.0003773919
        0.0004110218  -0.0000477850  -0.0003668563  -0.0001685261   0.0000270794
       -0.0002097338   0.0005961374  -0.0001325169   0.0001091473  -0.0006432493
        0.0001323479  -0.0001117922   0.0000417100  -0.0000138635  -0.0002258072
       -0.0001432241  -0.0000026085   0.0007329086   0.0004126642  -0.0001708006
        0.0001254062   0.0001316021  -0.0000172165   0.0000227940  -0.0001191241
        0.0000248753   0.0000914452  -0.0000462033   0.0000093699  -0.0000531200
       -0.0000018503  -0.0000025541  -0.0000024809  -0.0000038227  -0.0000017408
       -0.0000138180  -0.0000700792   0.0000139381   0.0000499416   0.0001157296
       -0.0000228731  -0.0000761881   0.0001240259  -0.0000276575   0.0001729108
       -0.0000394342   0.0000113845   0.0000879721   0.0000134605  -0.0000007374
       -0.0026995084   0.0002328711   0.0007804587  -0.0013941085   0.0016757548
       -0.0013239983  -0.2252756518   0.0359236509   0.1311564897  -0.0523798194
       -0.0504455202  -0.0070914835   0.0004721459   0.0007303991   0.0005699665
       -0.0007799535  -0.0050424064   0.0020590418  -0.0064185377   0.0186626841
        0.0176337580   0.0002663108   0.0009778211  -0.0006552990  -0.0002482285
        0.0003359132  -0.0001230885   0.0000371063   0.0002753873  -0.0000919351
        0.0000310762   0.0003343795   0.0002043358   0.0000904675  -0.0001770992
       -0.0002876224  -0.0006443848   0.0003314318  -0.0009203576   0.0003410356
       -0.0002581969   0.0001308891  -0.0000417152  -0.0000253547   0.0000143485
       -0.0000172652  -0.0000000499   0.0000018770   0.0000028922   0.0000184659
       -0.0000033149   0.0000114212   0.0000051036  -0.0000007650   0.0000108299
        0.0000050708  -0.0000001593   0.0000206653  -0.0000108642   0.0000033983
       -0.0000115995  -0.0000110894   0.0000015380  -0.0002270754   0.0001610970
       -0.0000740734  -0.0000735409   0.0000953404  -0.0000506498  -0.0038678818
        0.0015081953   0.0045712434  -0.0001587375  -0.0044171203   0.0014664511
        0.0218698653  -0.0131552406  -0.0177103618  -0.0445990122  -0.0468393485
       -0.0085659088   0.0443936889  -0.1913413488  -0.1348996368   0.0801698510
        0.4970725213   0.1956180336  -0.0740619591  -0.1518563811  -0.0156104379
       -0.0149360226  -0.0341634689  -0.0089982565  -0.0018324336  -0.0008955977
        0.0001043539   0.0002200976   0.0000408316  -0.0001012408  -0.0003508994
        0.0001044526  -0.0003676281   0.0002711520  -0.0012846326  -0.0015662412
        0.0006773933  -0.0026802420   0.0009373809  -0.0140057836   0.0090937589
        0.0049285153   0.0035336096  -0.0020056228  -0.0003116113  -0.0008823517
       -0.0002689983  -0.0008530506   0.0022238154  -0.0012701524   0.0003642350