 Entering Gaussian System
 *********************************************
 Gaussian 98:
 frequency output generated by the xtb code
 *********************************************
                         Standard orientation:
 --------------------------------------------------------------------
  Center     Atomic     Atomic              Coordinates (Angstroms)
  Number     Number      Type              X           Y           Z
 --------------------------------------------------------------------
    1          6             0       -6.461036   -4.153183   -0.406252
    2          6             0       -5.460487   -3.650719   -1.222848
    3          6             0       -5.043132   -2.339624   -1.091933
    4          6             0       -5.621891   -1.514503   -0.128881
    5          7             0       -5.211327   -0.176587    0.005091
    6          6             0       -6.189441    0.809703    0.217811
    7          6             0       -7.408325    0.743562   -0.455485
    8          6             0       -8.377274    1.703832   -0.234017
    9          6             0       -8.144626    2.743199    0.652281
   10          6             0       -6.933723    2.813397    1.322498
   11          6             0       -5.961698    1.853269    1.113958
   12          6             0       -3.870730    0.160630   -0.077741
   13          6             0       -2.875842   -0.735700    0.334408
   14          6             0       -1.547944   -0.395460    0.249700
   15          6             0       -1.144560    0.852796   -0.246329
   16          6             0        0.269583    1.161558   -0.316882
   17          6             0        0.787374    2.406138   -0.670279
   18          7             0        2.089164    2.634211   -0.730687
   19          6             0        2.962272    1.688886   -0.454255
   20          7             0        4.259764    1.888747   -0.521228
   21          6             0        5.087185    0.895853   -0.224415
   22          6             0        4.587180   -0.375944    0.170845
   23          7             0        3.286145   -0.609222    0.245795
   24          6             0        2.434595    0.356322   -0.054032
   25          7             0        1.143533    0.180714   -0.013800
   26          6             0        5.712075   -1.252958    0.427207
   27          6             0        5.874725   -2.558481    0.825042
   28          6             0        7.185900   -3.056449    0.953052
   29          6             0        8.303505   -2.296862    0.698738
   30          6             0        8.172023   -0.948751    0.288598
   31          6             0        9.196825   -0.021324   -0.017032
   32          6             0        8.879350    1.259628   -0.402425
   33          6             0        7.553171    1.720376   -0.516458
   34          6             0        6.534026    0.844015   -0.229250
   35          6             0        6.866971   -0.474251    0.169444
   36          6             0       -2.141841    1.743742   -0.661057
   37          6             0       -3.472427    1.406596   -0.579316
   38          6             0       -6.627439   -2.023574    0.691098
   39          6             0       -7.043084   -3.333872    0.547668
   40          1             0       -6.785876   -5.177068   -0.513759
   41          1             0       -5.006711   -4.280779   -1.973738
   42          1             0       -4.271024   -1.944750   -1.736200
   43          1             0       -7.587930   -0.062535   -1.151638
   44          1             0       -9.317002    1.643258   -0.762951
   45          1             0       -8.902529    3.493365    0.820544
   46          1             0       -6.746714    3.616375    2.020408
   47          1             0       -5.022954    1.902462    1.646326
   48          1             0       -3.159647   -1.697959    0.733487
   49          1             0       -0.785593   -1.085352    0.577647
   50          1             0        0.159765    3.250397   -0.906813
   51          1             0        5.027453   -3.193407    1.034633
   52          1             0        7.308869   -4.083384    1.265022
   53          1             0        9.288354   -2.725480    0.810498
   54          1             0       10.230071   -0.326851    0.054377
   55          1             0        9.676713    1.951899   -0.630576
   56          1             0        7.353496    2.735821   -0.823103
   57          1             0       -1.877066    2.705272   -1.072062
   58          1             0       -4.222532    2.104732   -0.919499
   59          1             0       -7.076943   -1.386228    1.438420
   60          1             0       -7.821561   -3.718663    1.189884
 --------------------------------------------------------------------
     1 basis functions        1 primitive gaussians
     1 alpha electrons        1 beta electrons
 
 Harmonic frequencies (cm**-1), IR intensities (km*mol⁻¹),
 Raman scattering activities (A**4/amu), Raman depolarization ratios,
 reduced masses (AMU), force constants (mDyne/A) and normal coordinates:
                      1                      2                      3
                        a                      a                      a 
 Frequencies --     7.2132                15.4212                24.9292
 Red. masses --    11.2006                11.1873                10.9458
 Frc consts  --     0.0000                 0.0000                 0.0000
 IR Inten    --     0.0923                 0.3541                 0.5298
 Raman Activ --     0.0000                 0.0000                 0.0000
 Depolar     --     0.0000                 0.0000                 0.0000
 Atom AN      X      Y      Z        X      Y      Z        X      Y      Z
   1   6    -0.01   0.03  -0.20    -0.11   0.01   0.11    -0.30   0.04  -0.07
   2   6    -0.03   0.08  -0.20    -0.15  -0.02   0.03    -0.18  -0.05   0.02
   3   6    -0.03   0.07  -0.13    -0.12  -0.02  -0.01    -0.08  -0.09   0.05
   4   6    -0.00   0.01  -0.06    -0.04  -0.00   0.02    -0.10  -0.03  -0.01
   5   7     0.00   0.00   0.01    -0.01  -0.01  -0.03    -0.02  -0.07   0.02
   6   6     0.01  -0.01   0.09     0.03   0.02   0.03     0.04  -0.00   0.00
   7   6    -0.02   0.02   0.13    -0.03   0.03   0.13     0.08   0.13  -0.09
   8   6    -0.01   0.01   0.22     0.01   0.05   0.19     0.15   0.21  -0.11
   9   6     0.02  -0.04   0.26     0.10   0.06   0.16     0.17   0.14  -0.05
  10   6     0.04  -0.07   0.22     0.15   0.05   0.06     0.13   0.01   0.05
  11   6     0.04  -0.06   0.14     0.12   0.03  -0.00     0.06  -0.06   0.07
  12   6     0.00   0.01  -0.01    -0.00  -0.04  -0.10    -0.01  -0.11   0.02
  13   6     0.01  -0.01  -0.08    -0.00  -0.05  -0.13    -0.02  -0.12   0.02
  14   6     0.01  -0.01  -0.10    -0.00  -0.07  -0.17    -0.01  -0.13   0.04
  15   6    -0.00   0.00  -0.06    -0.00  -0.08  -0.18     0.00  -0.13   0.05
  16   6    -0.00  -0.01  -0.09    -0.00  -0.07  -0.17    -0.00  -0.11   0.07
  17   6     0.01  -0.05  -0.23    -0.01  -0.06  -0.13    -0.03  -0.09   0.08
  18   7     0.01  -0.06  -0.27    -0.01  -0.03  -0.08    -0.04  -0.07   0.07
  19   6     0.00  -0.03  -0.15    -0.00  -0.02  -0.05    -0.02  -0.04   0.04
  20   7     0.01  -0.05  -0.18    -0.01   0.01   0.04    -0.03  -0.02   0.01
  21   6     0.00  -0.02  -0.07    -0.00   0.02   0.03     0.01   0.01  -0.00
  22   6    -0.01   0.02   0.05     0.01  -0.02  -0.07     0.05   0.01   0.04
  23   7    -0.01   0.03   0.07     0.01  -0.06  -0.17     0.06  -0.03   0.07
  24   6    -0.00   0.01  -0.02     0.00  -0.05  -0.14     0.02  -0.05   0.06
  25   7    -0.00   0.02  -0.00     0.00  -0.08  -0.20     0.03  -0.10   0.07
  26   6    -0.01   0.04   0.13     0.01  -0.01  -0.06     0.08   0.04   0.03
  27   6    -0.02   0.08   0.26     0.02  -0.03  -0.14     0.12   0.06   0.06
  28   6    -0.02   0.08   0.30     0.02  -0.01  -0.09     0.14   0.10   0.04
  29   6    -0.01   0.05   0.23     0.02   0.04   0.03     0.11   0.12  -0.01
  30   6    -0.01   0.01   0.10     0.01   0.06   0.11     0.07   0.10  -0.04
  31   6    -0.00  -0.02   0.01     0.01   0.11   0.24     0.03   0.12  -0.10
  32   6     0.00  -0.05  -0.11     0.00   0.13   0.31    -0.01   0.10  -0.12
  33   6     0.00  -0.06  -0.15    -0.00   0.10   0.25    -0.02   0.07  -0.10
  34   6    -0.00  -0.03  -0.06     0.00   0.05   0.13     0.01   0.05  -0.04
  35   6    -0.01   0.01   0.06     0.01   0.04   0.06     0.05   0.06  -0.02
  36   6    -0.01   0.03   0.01    -0.00  -0.07  -0.17     0.01  -0.12   0.03
  37   6    -0.01   0.03   0.04    -0.00  -0.05  -0.13     0.01  -0.11   0.02
  38   6     0.02  -0.04  -0.06     0.00   0.03   0.09    -0.22   0.05  -0.09
  39   6     0.02  -0.03  -0.13    -0.03   0.03   0.14    -0.31   0.09  -0.13
  40   1    -0.00   0.01  -0.07    -0.04   0.00   0.04    -0.11   0.02  -0.03
  41   1    -0.01   0.04  -0.07    -0.06  -0.01   0.00    -0.05  -0.03   0.02
  42   1    -0.01   0.03  -0.04    -0.05  -0.01  -0.02     0.00  -0.04   0.03
  43   1    -0.01   0.02   0.03    -0.03   0.01   0.05     0.02   0.05  -0.04
  44   1    -0.01   0.01   0.07    -0.01   0.02   0.08     0.05   0.09  -0.05
  45   1     0.01  -0.01   0.10     0.04   0.02   0.06     0.07   0.06  -0.02
  46   1     0.02  -0.03   0.08     0.07   0.02   0.01     0.04  -0.01   0.03
  47   1     0.02  -0.02   0.03     0.05   0.01  -0.02     0.01  -0.05   0.04
  48   1     0.00  -0.01  -0.03    -0.00  -0.01  -0.03    -0.01  -0.03   0.00
  49   1     0.00  -0.01  -0.04    -0.00  -0.02  -0.05    -0.01  -0.04   0.01
  50   1     0.00  -0.02  -0.10    -0.00  -0.02  -0.04    -0.02  -0.03   0.03
  51   1    -0.01   0.03   0.09     0.01  -0.02  -0.07     0.04   0.01   0.03
  52   1    -0.01   0.03   0.11     0.01  -0.01  -0.04     0.05   0.03   0.02
  53   1    -0.00   0.02   0.08     0.01   0.02   0.02     0.04   0.04  -0.01
  54   1    -0.00  -0.01   0.01     0.00   0.04   0.08     0.01   0.04  -0.03
  55   1     0.00  -0.02  -0.05    -0.00   0.05   0.12    -0.01   0.03  -0.05
  56   1     0.00  -0.02  -0.07    -0.00   0.03   0.09    -0.02   0.02  -0.03
  57   1    -0.01   0.01   0.02     0.00  -0.02  -0.06     0.01  -0.04   0.01
  58   1    -0.00   0.01   0.03    -0.00  -0.01  -0.03     0.01  -0.03   0.00
  59   1     0.01  -0.03  -0.00     0.02   0.01   0.03    -0.07   0.03  -0.04
  60   1     0.01  -0.02  -0.04     0.00   0.02   0.06    -0.12   0.05  -0.06
                      4                      5                      6
                        a                      a                      a 
 Frequencies --    36.0510                44.4477                45.4019
 Red. masses --    11.0130                10.1871                10.7450
 Frc consts  --     0.0000                 0.0000                 0.0000
 IR Inten    --     1.2125                 5.1726                 1.3022
 Raman Activ --     0.0000                 0.0000                 0.0000
 Depolar     --     0.0000                 0.0000                 0.0000
 Atom AN      X      Y      Z        X      Y      Z        X      Y      Z
   1   6     0.01  -0.03   0.04    -0.17   0.09   0.07    -0.04  -0.06   0.20
   2   6    -0.09  -0.02  -0.08    -0.33   0.09  -0.12     0.01  -0.17   0.19
   3   6    -0.11  -0.01  -0.13    -0.25   0.07  -0.14     0.03  -0.17   0.06
   4   6    -0.02  -0.01  -0.08    -0.02   0.04   0.02     0.02  -0.04  -0.05
   5   7    -0.02  -0.00  -0.16     0.02   0.04  -0.01     0.05  -0.05  -0.16
   6   6     0.01   0.01  -0.06    -0.02   0.01  -0.04     0.05  -0.05  -0.07
   7   6    -0.10  -0.05   0.14     0.02  -0.05  -0.10     0.11   0.10  -0.18
   8   6    -0.07  -0.04   0.23    -0.06  -0.11  -0.13     0.12   0.09  -0.09
   9   6     0.07   0.03   0.11    -0.16  -0.13  -0.09     0.07  -0.08   0.12
  10   6     0.18   0.09  -0.10    -0.20  -0.07  -0.02     0.02  -0.23   0.24
  11   6     0.15   0.08  -0.18    -0.13  -0.00   0.00     0.01  -0.21   0.14
  12   6    -0.01  -0.03  -0.17     0.01   0.02  -0.02     0.03  -0.03  -0.15
  13   6    -0.03  -0.03  -0.12     0.01  -0.08  -0.22     0.07  -0.02  -0.22
  14   6    -0.02  -0.02  -0.06     0.02  -0.10  -0.21     0.05   0.03  -0.19
  15   6    -0.01  -0.03  -0.07     0.04  -0.02   0.01     0.01   0.09  -0.09
  16   6    -0.01  -0.00   0.05     0.04  -0.02   0.02     0.00   0.12  -0.04
  17   6    -0.01   0.04   0.20     0.04  -0.02   0.03     0.02   0.12  -0.03
  18   7    -0.02   0.07   0.26     0.04  -0.02   0.04     0.03   0.12   0.02
  19   6    -0.01   0.04   0.17     0.04  -0.02   0.02     0.02   0.10   0.04
  20   7    -0.01   0.04   0.14     0.04  -0.01   0.01     0.02   0.08   0.06
  21   6    -0.01   0.02   0.09     0.04  -0.01   0.01    -0.00   0.05   0.06
  22   6    -0.01   0.04   0.13     0.05  -0.01   0.01    -0.03   0.07   0.06
  23   7    -0.00   0.04   0.17     0.06  -0.02   0.02    -0.04   0.10   0.05
  24   6    -0.01   0.03   0.13     0.04  -0.02   0.01    -0.01   0.11   0.02
  25   7    -0.01   0.00   0.06     0.05  -0.03   0.01    -0.01   0.13  -0.01
  26   6    -0.00   0.03   0.10     0.06   0.00   0.01    -0.06   0.03   0.04
  27   6     0.00   0.04   0.12     0.07   0.01   0.03    -0.11   0.02   0.03
  28   6     0.00   0.02   0.05     0.08   0.02   0.02    -0.13  -0.04  -0.01
  29   6    -0.00  -0.01  -0.05     0.07   0.02   0.01    -0.10  -0.08  -0.03
  30   6    -0.01  -0.02  -0.08     0.06   0.02  -0.01    -0.06  -0.07  -0.02
  31   6    -0.01  -0.05  -0.19     0.05   0.02  -0.03    -0.03  -0.11  -0.04
  32   6    -0.02  -0.05  -0.21     0.04   0.01  -0.04     0.01  -0.10  -0.03
  33   6    -0.02  -0.03  -0.12     0.04   0.00  -0.03     0.03  -0.04   0.01
  34   6    -0.01  -0.00  -0.01     0.05   0.00  -0.01    -0.00   0.00   0.04
  35   6    -0.01   0.00   0.00     0.06   0.01   0.00    -0.04  -0.01   0.02
  36   6     0.02  -0.07  -0.19     0.04   0.08   0.20    -0.02   0.09  -0.01
  37   6     0.01  -0.07  -0.24     0.03   0.10   0.19    -0.01   0.03  -0.04
  38   6     0.08  -0.02   0.04     0.13   0.04   0.21    -0.04   0.07  -0.05
  39   6     0.10  -0.03   0.10     0.06   0.06   0.24    -0.07   0.07   0.08
  40   1     0.01  -0.01   0.03    -0.07   0.03   0.03    -0.02  -0.02   0.09
  41   1    -0.05  -0.00  -0.03    -0.15   0.03  -0.07     0.01  -0.08   0.08
  42   1    -0.05   0.00  -0.06    -0.11   0.02  -0.08     0.02  -0.08   0.01
  43   1    -0.06  -0.03   0.07     0.03  -0.01  -0.04     0.04   0.06  -0.10
  44   1    -0.05  -0.03   0.11    -0.01  -0.05  -0.05     0.05   0.06  -0.05
  45   1     0.03   0.01   0.05    -0.06  -0.05  -0.03     0.02  -0.03   0.06
  46   1     0.08   0.04  -0.06    -0.09  -0.02   0.00    -0.01  -0.10   0.12
  47   1     0.07   0.04  -0.10    -0.05   0.01   0.02    -0.01  -0.10   0.06
  48   1    -0.01  -0.00  -0.03     0.00  -0.04  -0.11     0.03  -0.02  -0.08
  49   1    -0.01  -0.00   0.00     0.00  -0.05  -0.10     0.02   0.01  -0.07
  50   1    -0.01   0.02   0.08     0.01  -0.01   0.01     0.01   0.03  -0.02
  51   1     0.00   0.02   0.06     0.02   0.00   0.01    -0.04   0.01   0.01
  52   1     0.00   0.01   0.02     0.03   0.01   0.01    -0.05  -0.01  -0.01
  53   1    -0.00  -0.01  -0.03     0.02   0.01   0.00    -0.03  -0.04  -0.02
  54   1    -0.00  -0.02  -0.08     0.02   0.01  -0.01    -0.01  -0.05  -0.02
  55   1    -0.01  -0.02  -0.09     0.01   0.00  -0.01     0.01  -0.04  -0.01
  56   1    -0.01  -0.01  -0.04     0.01   0.00  -0.01     0.02  -0.01   0.01
  57   1     0.01  -0.03  -0.07     0.01   0.04   0.11    -0.02   0.04   0.02
  58   1     0.01  -0.03  -0.09     0.01   0.05   0.10    -0.01   0.01   0.01
  59   1     0.05  -0.01   0.02     0.09   0.01   0.09    -0.02   0.05  -0.04
  60   1     0.05  -0.01   0.06     0.05   0.02   0.11    -0.03   0.05   0.02
                      7                      8                      9
                        a                      a                      a 
 Frequencies --    59.4719                66.9013                71.3588
 Red. masses --    11.5320                10.6898                10.8940
 Frc consts  --     0.0000                 0.0000                 0.0000
 IR Inten    --     1.2559                 0.6368                 0.2847
 Raman Activ --     0.0000                 0.0000                 0.0000
 Depolar     --     0.0000                 0.0000                 0.0000
 Atom AN      X      Y      Z        X      Y      Z        X      Y      Z
   1   6    -0.05   0.01  -0.06     0.07  -0.09  -0.06    -0.36   0.09  -0.18
   2   6    -0.04   0.03  -0.05    -0.05   0.02  -0.15    -0.21   0.00  -0.05
   3   6    -0.02   0.01   0.00    -0.07   0.01  -0.08    -0.01  -0.08   0.10
   4   6     0.00  -0.01   0.04     0.03  -0.09   0.07     0.05  -0.07   0.12
   5   7     0.01  -0.02   0.08     0.03  -0.11   0.17     0.10  -0.09   0.16
   6   6     0.00  -0.01   0.03     0.05  -0.07   0.11     0.07  -0.09   0.07
   7   6     0.01  -0.04   0.03     0.10   0.02   0.02     0.04  -0.21   0.12
   8   6     0.01  -0.02  -0.02     0.21   0.18  -0.15     0.00  -0.25   0.07
   9   6     0.01   0.02  -0.06     0.28   0.23  -0.24    -0.01  -0.14  -0.05
  10   6     0.01   0.04  -0.06     0.21   0.11  -0.10     0.02  -0.00  -0.12
  11   6     0.00   0.02  -0.01     0.09  -0.05   0.08     0.06   0.02  -0.06
  12   6     0.00  -0.02   0.04     0.01  -0.08   0.08     0.08  -0.05   0.06
  13   6     0.01  -0.01   0.03     0.05  -0.09  -0.05     0.12   0.02   0.09
  14   6     0.01  -0.01   0.00     0.03  -0.04  -0.08     0.11   0.08   0.06
  15   6     0.00  -0.02  -0.03    -0.03   0.02   0.01     0.04   0.07  -0.02
  16   6     0.00  -0.02  -0.07    -0.04   0.06   0.00     0.04   0.12  -0.03
  17   6     0.01  -0.11  -0.39    -0.05   0.07   0.03     0.04   0.13   0.04
  18   7     0.00  -0.10  -0.35    -0.05   0.07   0.03     0.05   0.14   0.04
  19   6     0.01   0.00  -0.01    -0.04   0.05  -0.01     0.05   0.11  -0.01
  20   7     0.01   0.04   0.12    -0.04   0.04  -0.02     0.06   0.09  -0.02
  21   6     0.01   0.08   0.23    -0.05   0.03  -0.03     0.04   0.06  -0.04
  22   6     0.00   0.08   0.24    -0.06   0.03  -0.04     0.01   0.07  -0.05
  23   7     0.01   0.09   0.28    -0.06   0.04  -0.05     0.01   0.09  -0.07
  24   6     0.00   0.06   0.16    -0.05   0.05  -0.03     0.03   0.11  -0.05
  25   7     0.01   0.06   0.20    -0.05   0.05  -0.04     0.04   0.12  -0.07
  26   6     0.00   0.04   0.13    -0.08   0.02  -0.02    -0.03   0.03  -0.03
  27   6    -0.00  -0.01  -0.03    -0.11   0.02  -0.00    -0.09   0.03  -0.01
  28   6    -0.01  -0.07  -0.24    -0.12   0.00   0.03    -0.12  -0.02   0.03
  29   6    -0.01  -0.08  -0.28    -0.11  -0.01   0.04    -0.08  -0.06   0.05
  30   6    -0.00  -0.03  -0.11    -0.08  -0.02   0.02    -0.02  -0.06   0.03
  31   6    -0.00  -0.04  -0.15    -0.06  -0.04   0.03     0.02  -0.10   0.04
  32   6     0.00  -0.00  -0.01    -0.04  -0.03   0.01     0.07  -0.09   0.03
  33   6     0.01   0.05   0.14    -0.03  -0.01  -0.01     0.09  -0.04  -0.00
  34   6     0.01   0.06   0.18    -0.05   0.01  -0.02     0.05   0.00  -0.02
  35   6     0.00   0.03   0.08    -0.07   0.00  -0.01    -0.00  -0.01  -0.01
  36   6    -0.01  -0.02  -0.01    -0.06   0.02   0.11     0.00  -0.01  -0.08
  37   6    -0.01  -0.02   0.02    -0.05  -0.04   0.14     0.02  -0.07  -0.04
  38   6     0.00  -0.03   0.03     0.14  -0.19   0.15    -0.05  -0.01   0.05
  39   6    -0.02  -0.02  -0.02     0.17  -0.19   0.09    -0.25   0.08  -0.10
  40   1    -0.02   0.01  -0.03     0.03  -0.03  -0.03    -0.16   0.05  -0.09
  41   1    -0.02   0.01  -0.02    -0.04   0.03  -0.08    -0.08  -0.00  -0.03
  42   1    -0.01   0.01   0.00    -0.05   0.03  -0.04     0.03  -0.04   0.05
  43   1     0.00  -0.02   0.02     0.02  -0.00   0.02     0.02  -0.08   0.06
  44   1     0.00  -0.01  -0.01     0.07   0.08  -0.07    -0.01  -0.10   0.03
  45   1     0.01   0.01  -0.03     0.11   0.11  -0.12    -0.01  -0.05  -0.03
  46   1     0.00   0.02  -0.03     0.07   0.04  -0.04     0.00   0.02  -0.06
  47   1     0.00   0.01  -0.00     0.01  -0.04   0.05     0.02   0.04  -0.03
  48   1     0.01  -0.00   0.01     0.03  -0.04  -0.03     0.05   0.01   0.04
  49   1     0.01  -0.00  -0.00     0.02  -0.01  -0.05     0.04   0.04   0.03
  50   1     0.00  -0.06  -0.21    -0.01   0.02   0.02     0.01   0.04   0.03
  51   1    -0.00  -0.00  -0.00    -0.04   0.01  -0.00    -0.04   0.02  -0.01
  52   1    -0.00  -0.03  -0.11    -0.04   0.00   0.01    -0.05  -0.00   0.01
  53   1    -0.00  -0.04  -0.13    -0.03  -0.01   0.02    -0.03  -0.03   0.02
  54   1    -0.00  -0.03  -0.08    -0.02  -0.01   0.01     0.00  -0.04   0.02
  55   1     0.00  -0.00  -0.01    -0.01  -0.01   0.00     0.03  -0.03   0.01
  56   1     0.00   0.02   0.06    -0.00  -0.00  -0.01     0.04  -0.01  -0.00
  57   1    -0.01  -0.00  -0.00    -0.03   0.02   0.05    -0.01  -0.01  -0.05
  58   1    -0.00  -0.01   0.01    -0.02  -0.01   0.06    -0.01  -0.04  -0.03
  59   1     0.01  -0.02   0.02     0.06  -0.08   0.07     0.00  -0.00   0.02
  60   1    -0.01  -0.01  -0.01     0.08  -0.08   0.05    -0.10   0.04  -0.05
                     10                     11                     12
                        a                      a                      a 
 Frequencies --    89.4912                98.6591               134.3990
 Red. masses --    11.9426                 9.7629                11.2886
 Frc consts  --     0.0000                 0.0000                 0.0000
 IR Inten    --     0.2294                 0.2678                 0.9726
 Raman Activ --     0.0000                 0.0000                 0.0000
 Depolar     --     0.0000                 0.0000                 0.0000
 Atom AN      X      Y      Z        X      Y      Z        X      Y      Z
   1   6    -0.07  -0.04   0.07     0.04  -0.05   0.03     0.09  -0.08   0.05
   2   6    -0.11  -0.10  -0.02     0.17  -0.09   0.16     0.00  -0.01  -0.00
   3   6    -0.08  -0.10  -0.11     0.11  -0.07   0.12    -0.12   0.03  -0.05
   4   6    -0.02  -0.04  -0.13    -0.03  -0.01  -0.01    -0.14   0.00  -0.05
   5   7    -0.01  -0.03  -0.23    -0.03  -0.01   0.01    -0.13   0.00  -0.02
   6   6     0.02  -0.03  -0.13    -0.03  -0.01   0.03    -0.10   0.03  -0.01
   7   6    -0.05  -0.02  -0.00    -0.11  -0.10   0.18    -0.11   0.07  -0.01
   8   6    -0.02  -0.01   0.09    -0.09  -0.08   0.15    -0.09   0.10   0.00
   9   6     0.09  -0.00   0.06     0.01   0.07  -0.05    -0.07   0.08   0.02
  10   6     0.15  -0.01  -0.06     0.08   0.17  -0.19    -0.07   0.03   0.02
  11   6     0.11  -0.03  -0.14     0.05   0.12  -0.13    -0.09   0.01   0.00
  12   6     0.00  -0.03  -0.08    -0.02  -0.01   0.00    -0.09  -0.06   0.03
  13   6    -0.01  -0.00   0.00     0.01  -0.11  -0.29    -0.10  -0.07   0.05
  14   6    -0.02   0.06   0.18     0.01  -0.12  -0.31    -0.08  -0.12   0.06
  15   6    -0.00   0.09   0.26     0.00   0.01  -0.00    -0.00  -0.15   0.04
  16   6    -0.00   0.09   0.26     0.00   0.00  -0.01     0.01  -0.11   0.02
  17   6     0.00   0.01  -0.02     0.01   0.00  -0.00    -0.03  -0.08   0.03
  18   7     0.00  -0.04  -0.19     0.01   0.00   0.01    -0.05   0.01  -0.00
  19   6     0.00  -0.01  -0.10     0.01   0.00   0.01     0.05   0.08  -0.03
  20   7     0.00  -0.05  -0.23     0.01   0.01   0.02     0.06   0.16  -0.05
  21   6     0.00  -0.03  -0.16     0.01   0.01   0.02     0.14   0.19  -0.05
  22   6    -0.00  -0.01  -0.09     0.01   0.00   0.01     0.11   0.19  -0.05
  23   7    -0.00   0.04   0.07     0.01  -0.00  -0.02     0.15   0.14  -0.05
  24   6    -0.00   0.06   0.13     0.01  -0.00  -0.02     0.08   0.06  -0.04
  25   7    -0.00   0.14   0.40     0.01  -0.00  -0.03     0.10  -0.05  -0.02
  26   6    -0.01  -0.02  -0.11     0.01   0.00   0.01     0.05   0.15  -0.03
  27   6    -0.02  -0.03  -0.12     0.01   0.01   0.02    -0.11   0.14  -0.02
  28   6    -0.02  -0.02  -0.07     0.01   0.00   0.01    -0.17   0.01  -0.00
  29   6    -0.01   0.01   0.02     0.01  -0.00   0.00    -0.11  -0.09   0.01
  30   6    -0.00   0.01   0.03     0.01  -0.00  -0.00     0.04  -0.07   0.01
  31   6     0.00   0.04   0.16     0.01  -0.01  -0.02     0.14  -0.18   0.04
  32   6     0.01   0.04   0.15     0.01  -0.01  -0.02     0.25  -0.15   0.05
  33   6     0.01   0.00   0.00     0.01  -0.00  -0.00     0.29  -0.01   0.02
  34   6     0.00  -0.03  -0.11     0.01   0.00   0.01     0.17   0.11  -0.02
  35   6    -0.00  -0.02  -0.08     0.01   0.00   0.01     0.09   0.08  -0.02
  36   6     0.01   0.07   0.19    -0.02   0.12   0.31     0.00  -0.14   0.02
  37   6     0.02   0.01   0.01    -0.02   0.11   0.28    -0.01  -0.09   0.02
  38   6     0.03   0.01  -0.04    -0.16   0.02  -0.14    -0.11  -0.05  -0.04
  39   6     0.00   0.01   0.07    -0.13   0.02  -0.14     0.01  -0.09   0.01
  40   1    -0.03  -0.01   0.04     0.02  -0.02   0.02     0.06  -0.04   0.03
  41   1    -0.05  -0.04  -0.00     0.09  -0.04   0.08     0.01   0.00   0.00
  42   1    -0.03  -0.04  -0.05     0.05  -0.03   0.05    -0.05   0.02  -0.02
  43   1    -0.04  -0.01   0.01    -0.05  -0.05   0.09    -0.04   0.03  -0.01
  44   1    -0.02  -0.00   0.06    -0.04  -0.05   0.08    -0.03   0.04  -0.00
  45   1     0.03   0.00   0.04     0.01   0.03  -0.03    -0.01   0.03   0.01
  46   1     0.07  -0.00  -0.02     0.05   0.08  -0.10    -0.01   0.00   0.01
  47   1     0.04  -0.01  -0.06     0.02   0.06  -0.06    -0.03  -0.00   0.00
  48   1    -0.01  -0.01  -0.02     0.01  -0.06  -0.14    -0.04  -0.02   0.02
  49   1    -0.01   0.02   0.07     0.00  -0.07  -0.16    -0.03  -0.05   0.03
  50   1     0.00  -0.01  -0.05     0.00  -0.00  -0.01    -0.02  -0.03   0.02
  51   1    -0.01  -0.01  -0.04     0.00   0.00   0.01    -0.06   0.07  -0.01
  52   1    -0.01  -0.01  -0.02     0.00   0.00   0.01    -0.08  -0.00  -0.00
  53   1    -0.00   0.01   0.03     0.00  -0.00  -0.00    -0.04  -0.05   0.00
  54   1     0.00   0.02   0.08     0.00  -0.00  -0.01     0.03  -0.08   0.02
  55   1     0.00   0.02   0.08     0.00  -0.00  -0.01     0.09  -0.06   0.02
  56   1     0.00   0.00  -0.00     0.00  -0.00  -0.00     0.13   0.00   0.00
  57   1     0.00   0.03   0.08    -0.01   0.07   0.17     0.01  -0.05  -0.00
  58   1     0.01  -0.00  -0.02    -0.00   0.06   0.14     0.01  -0.01   0.00
  59   1     0.02   0.02  -0.01    -0.08   0.02  -0.07    -0.05  -0.02  -0.02
  60   1     0.01   0.02   0.04    -0.07   0.02  -0.07     0.01  -0.04   0.01
                     13                     14                     15
                        a                      a                      a 
 Frequencies --   141.8078               155.4039               163.0476
 Red. masses --    11.7545                 9.9893                11.3206
 Frc consts  --     0.0000                 0.0000                 0.0000
 IR Inten    --     0.4000                 2.1985                 2.3401
 Raman Activ --     0.0000                 0.0000                 0.0000
 Depolar     --     0.0000                 0.0000                 0.0000
 Atom AN      X      Y      Z        X      Y      Z        X      Y      Z
   1   6     0.06   0.02  -0.04    -0.00  -0.01   0.00     0.05   0.13   0.02
   2   6     0.09   0.08   0.03    -0.01  -0.01  -0.00     0.06   0.09   0.01
   3   6     0.03   0.09   0.10    -0.01  -0.01  -0.01     0.08   0.08  -0.01
   4   6    -0.02   0.03   0.11    -0.00  -0.00  -0.01     0.08   0.09  -0.02
   5   7    -0.00   0.02   0.19    -0.01  -0.00  -0.01     0.14   0.06  -0.01
   6   6    -0.00   0.04   0.12    -0.01  -0.00  -0.01     0.18   0.10  -0.08
   7   6     0.04   0.01   0.04    -0.01   0.00  -0.00     0.20   0.03  -0.10
   8   6     0.01  -0.00  -0.05    -0.01   0.01   0.00     0.08  -0.11   0.00
   9   6    -0.07   0.00  -0.03     0.00   0.01   0.00    -0.02  -0.17   0.09
  10   6    -0.11   0.03   0.04     0.00  -0.00  -0.00     0.03  -0.01  -0.01
  11   6    -0.07   0.06   0.11    -0.00  -0.01  -0.00     0.14   0.13  -0.10
  12   6    -0.00  -0.03  -0.05    -0.01   0.00   0.00     0.13  -0.05   0.04
  13   6     0.01  -0.08  -0.19    -0.00   0.01   0.02     0.06  -0.15   0.02
  14   6     0.01  -0.10  -0.26    -0.00   0.01   0.02     0.06  -0.20   0.02
  15   6     0.00  -0.07  -0.18    -0.00   0.00   0.01     0.04  -0.18   0.06
  16   6     0.00   0.00   0.04     0.00  -0.00  -0.01    -0.01  -0.14   0.04
  17   6    -0.00   0.01   0.04     0.00  -0.01  -0.04    -0.10  -0.09   0.11
  18   7    -0.00   0.02   0.09     0.00   0.00  -0.00    -0.13  -0.05  -0.00
  19   6     0.00   0.02   0.07     0.00   0.01   0.04    -0.08  -0.04  -0.09
  20   7     0.00  -0.04  -0.14     0.00   0.03   0.09    -0.10   0.00  -0.18
  21   6     0.00  -0.05  -0.17     0.01   0.03   0.09    -0.07   0.06  -0.05
  22   6     0.01   0.00   0.00     0.00   0.01   0.04    -0.05   0.09   0.06
  23   7     0.01   0.09   0.30     0.00  -0.00  -0.02    -0.02   0.01   0.06
  24   6     0.00   0.08   0.26     0.00   0.00   0.00    -0.02  -0.04  -0.03
  25   7     0.00   0.09   0.30     0.00   0.00   0.00     0.00  -0.14  -0.05
  26   6     0.00  -0.03  -0.09     0.00   0.02   0.06    -0.08   0.10   0.09
  27   6     0.00  -0.03  -0.10    -0.01  -0.11  -0.37    -0.17   0.08   0.02
  28   6     0.00  -0.03  -0.09    -0.00  -0.07  -0.24    -0.19   0.00  -0.10
  29   6     0.01   0.00   0.02     0.00   0.07   0.22    -0.17  -0.02  -0.09
  30   6     0.01   0.00   0.02     0.01   0.11   0.35    -0.11   0.02   0.03
  31   6     0.01   0.06   0.21     0.01   0.04   0.16    -0.10   0.01   0.03
  32   6     0.01   0.03   0.13     0.00  -0.10  -0.30    -0.07   0.01   0.03
  33   6     0.01  -0.04  -0.12     0.00  -0.11  -0.35    -0.06   0.04  -0.02
  34   6     0.00  -0.06  -0.21     0.01   0.03   0.11    -0.08   0.07   0.00
  35   6     0.00  -0.04  -0.13     0.01   0.10   0.31    -0.09   0.08   0.07
  36   6    -0.00  -0.09  -0.23    -0.00   0.00   0.01     0.12  -0.11   0.08
  37   6    -0.01  -0.07  -0.15    -0.00   0.00   0.01     0.13  -0.05   0.07
  38   6    -0.05  -0.02   0.04    -0.00  -0.00  -0.00     0.07   0.14  -0.01
  39   6    -0.02  -0.02  -0.05     0.00  -0.00   0.00     0.05   0.15   0.00
  40   1     0.03   0.01  -0.03    -0.00  -0.00   0.00     0.01   0.04   0.01
  41   1     0.04   0.04   0.01    -0.00  -0.00  -0.00     0.02   0.02   0.01
  42   1     0.01   0.04   0.04    -0.00  -0.00  -0.00     0.03   0.02  -0.00
  43   1     0.03   0.00   0.01    -0.00   0.00   0.00     0.08   0.01  -0.04
  44   1     0.01  -0.01  -0.03    -0.00   0.00   0.00     0.02  -0.06   0.01
  45   1    -0.03  -0.00  -0.03     0.00   0.00   0.00    -0.04  -0.09   0.06
  46   1    -0.05   0.01   0.01     0.00  -0.00  -0.00    -0.01  -0.00   0.00
  47   1    -0.03   0.03   0.04    -0.00  -0.00  -0.00     0.05   0.06  -0.04
  48   1     0.01  -0.02  -0.06    -0.00   0.00   0.01    -0.00  -0.04  -0.01
  49   1     0.00  -0.03  -0.09    -0.00   0.00   0.01     0.02  -0.06  -0.01
  50   1    -0.00  -0.00  -0.01     0.00  -0.01  -0.02    -0.04  -0.02   0.08
  51   1     0.00  -0.01  -0.03    -0.00  -0.07  -0.23    -0.06   0.04   0.00
  52   1     0.00  -0.01  -0.03    -0.00  -0.05  -0.15    -0.06  -0.01  -0.06
  53   1     0.00   0.01   0.03     0.00   0.03   0.09    -0.05  -0.02  -0.05
  54   1     0.00   0.03   0.12     0.00   0.02   0.06    -0.03  -0.00   0.01
  55   1     0.00   0.02   0.08    -0.00  -0.06  -0.18    -0.02  -0.00   0.01
  56   1     0.00  -0.02  -0.05    -0.00  -0.07  -0.21    -0.01   0.01  -0.02
  57   1    -0.00  -0.03  -0.08    -0.00   0.00   0.00     0.05  -0.03   0.03
  58   1    -0.00  -0.02  -0.03    -0.00   0.00   0.00     0.04  -0.01   0.02
  59   1    -0.03  -0.02   0.01     0.00  -0.00  -0.00     0.02   0.05  -0.01
  60   1    -0.01  -0.02  -0.03     0.00  -0.00   0.00     0.01   0.05  -0.00
                     16                     17                     18
                        a                      a                      a 
 Frequencies --   168.6584               204.5187               214.6656
 Red. masses --    11.5021                11.3244                11.0261
 Frc consts  --     0.0000                 0.0000                 0.0000
 IR Inten    --     0.3021                 0.0591                 1.6583
 Raman Activ --     0.0000                 0.0000                 0.0000
 Depolar     --     0.0000                 0.0000                 0.0000
 Atom AN      X      Y      Z        X      Y      Z        X      Y      Z
   1   6    -0.03  -0.05  -0.01     0.12  -0.07   0.05     0.13  -0.13   0.14
   2   6    -0.03  -0.04  -0.00     0.01   0.05  -0.00    -0.07  -0.02  -0.03
   3   6    -0.02  -0.04   0.00    -0.15   0.10  -0.01    -0.24   0.06  -0.14
   4   6    -0.02  -0.04   0.00    -0.16   0.03   0.05    -0.19   0.01  -0.08
   5   7    -0.05  -0.02  -0.01    -0.01  -0.03   0.17    -0.01  -0.05   0.09
   6   6    -0.07  -0.05   0.03     0.07   0.09   0.05     0.09   0.08  -0.06
   7   6    -0.08  -0.02   0.04     0.12   0.07  -0.03     0.12   0.09  -0.10
   8   6    -0.03   0.04   0.00     0.03  -0.02  -0.03     0.03  -0.03   0.01
   9   6     0.02   0.06  -0.04    -0.09  -0.06   0.05    -0.05  -0.10   0.11
  10   6    -0.00  -0.00   0.00    -0.07   0.05   0.01     0.02   0.04  -0.03
  11   6    -0.05  -0.06   0.04     0.02   0.14   0.00     0.09   0.13  -0.12
  12   6    -0.05   0.03  -0.01     0.02  -0.14  -0.07     0.03  -0.11   0.15
  13   6    -0.02   0.07  -0.00     0.07  -0.13  -0.14     0.09  -0.04   0.16
  14   6    -0.02   0.08   0.00     0.05  -0.01  -0.04     0.08   0.04   0.08
  15   6    -0.02   0.08  -0.01     0.01   0.07   0.11     0.03   0.02  -0.03
  16   6     0.00   0.05  -0.02     0.00   0.16   0.21     0.02   0.07  -0.19
  17   6     0.03   0.12   0.25     0.03   0.12   0.10     0.04   0.08  -0.11
  18   7     0.04   0.02   0.03     0.05   0.03  -0.10     0.06   0.10   0.02
  19   6     0.03  -0.06  -0.21     0.03  -0.01  -0.15     0.04   0.09   0.08
  20   7     0.03  -0.15  -0.42     0.04  -0.06  -0.15     0.05   0.03   0.13
  21   6     0.02  -0.06  -0.09    -0.00  -0.03   0.05    -0.01  -0.05   0.00
  22   6     0.02   0.03   0.21    -0.01  -0.06  -0.07    -0.02  -0.02   0.08
  23   7     0.00   0.06   0.19    -0.03  -0.07  -0.27    -0.04   0.08   0.16
  24   6     0.01  -0.02  -0.09     0.01   0.02  -0.09     0.02   0.08   0.00
  25   7    -0.00  -0.02  -0.24    -0.00   0.15   0.19     0.02   0.06  -0.24
  26   6     0.03   0.06   0.31     0.00  -0.03   0.06    -0.01  -0.06  -0.00
  27   6     0.07   0.01   0.14     0.05  -0.04   0.00     0.05  -0.04   0.05
  28   6     0.07  -0.08  -0.22     0.06  -0.00   0.04     0.07  -0.03  -0.03
  29   6     0.06  -0.08  -0.25     0.05   0.01   0.02     0.05  -0.01  -0.04
  30   6     0.04   0.02   0.06     0.01   0.01   0.05     0.01  -0.02  -0.03
  31   6     0.03   0.03   0.09    -0.01  -0.04  -0.19    -0.02   0.07   0.14
  32   6     0.02   0.03   0.09    -0.03  -0.02  -0.10    -0.04   0.04   0.06
  33   6     0.01  -0.03  -0.03    -0.03   0.04   0.18    -0.06  -0.06  -0.14
  34   6     0.02  -0.02   0.03    -0.00   0.03   0.22    -0.02  -0.10  -0.13
  35   6     0.03   0.04   0.22     0.00   0.02   0.20    -0.01  -0.08  -0.11
  36   6    -0.04   0.06  -0.01    -0.03  -0.05  -0.05    -0.04  -0.02   0.07
  37   6    -0.04   0.04  -0.01    -0.01  -0.17  -0.16    -0.02  -0.09   0.17
  38   6    -0.01  -0.05   0.00    -0.19  -0.04  -0.03    -0.23  -0.01  -0.14
  39   6    -0.02  -0.05   0.00    -0.03  -0.09  -0.02    -0.03  -0.09   0.01
  40   1    -0.01  -0.01  -0.00     0.08  -0.04   0.03     0.10  -0.07   0.09
  41   1    -0.01  -0.01  -0.00     0.02   0.03  -0.00    -0.01   0.00  -0.01
  42   1    -0.01  -0.01   0.00    -0.06   0.06  -0.01    -0.09   0.03  -0.06
  43   1    -0.03  -0.01   0.02     0.06   0.02  -0.02     0.05   0.04  -0.05
  44   1    -0.01   0.02  -0.00     0.02  -0.02  -0.02     0.00  -0.02   0.01
  45   1     0.02   0.03  -0.02    -0.05  -0.04   0.03    -0.04  -0.07   0.07
  46   1     0.01  -0.00  -0.00    -0.04   0.02   0.00    -0.00   0.01  -0.01
  47   1    -0.02  -0.03   0.02     0.01   0.07  -0.00     0.03   0.06  -0.05
  48   1     0.00   0.02   0.00     0.04  -0.05  -0.06     0.05  -0.02   0.05
  49   1    -0.01   0.03   0.00     0.02   0.01  -0.01     0.04   0.02   0.02
  50   1     0.01   0.07   0.18     0.01   0.04   0.03     0.02   0.03  -0.03
  51   1     0.02   0.00   0.05     0.02  -0.03  -0.03     0.02  -0.01   0.04
  52   1     0.02  -0.05  -0.14     0.02  -0.00   0.01     0.03  -0.01  -0.01
  53   1     0.02  -0.04  -0.15     0.02   0.00  -0.01     0.02   0.00  -0.01
  54   1     0.01   0.01   0.02    -0.00  -0.03  -0.13    -0.00   0.04   0.10
  55   1     0.00   0.01   0.03    -0.01  -0.02  -0.08    -0.02   0.03   0.05
  56   1    -0.00  -0.02  -0.05    -0.02   0.01   0.07    -0.03  -0.03  -0.05
  57   1    -0.02   0.02  -0.01    -0.02  -0.01  -0.02    -0.03  -0.00   0.01
  58   1    -0.01   0.01  -0.00    -0.01  -0.07  -0.07    -0.02  -0.04   0.05
  59   1    -0.00  -0.02   0.00    -0.09  -0.02  -0.01    -0.10  -0.00  -0.06
  60   1    -0.00  -0.01   0.00    -0.01  -0.05  -0.01     0.01  -0.04   0.01
                     19                     20                     21
                        a                      a                      a 
 Frequencies --   233.2245               252.9616               274.3284
 Red. masses --    10.3092                10.6351                11.4687
 Frc consts  --     0.0000                 0.0000                 0.0000
 IR Inten    --     4.8864                 1.7694                 2.0482
 Raman Activ --     0.0000                 0.0000                 0.0000
 Depolar     --     0.0000                 0.0000                 0.0000
 Atom AN      X      Y      Z        X      Y      Z        X      Y      Z
   1   6    -0.13  -0.04  -0.22    -0.00  -0.02   0.01     0.07  -0.00   0.04
   2   6     0.03  -0.01  -0.00    -0.02  -0.02  -0.01    -0.00   0.06  -0.00
   3   6     0.13  -0.08   0.26    -0.01  -0.02  -0.02    -0.08   0.08  -0.01
   4   6     0.03  -0.09   0.23     0.00  -0.01  -0.02    -0.06   0.02   0.05
   5   7    -0.06  -0.02   0.02    -0.00  -0.00  -0.01     0.03  -0.03   0.11
   6   6    -0.01   0.11  -0.23    -0.01  -0.00  -0.03     0.12   0.00   0.05
   7   6     0.01   0.25  -0.27    -0.01   0.01  -0.03     0.21  -0.08  -0.06
   8   6    -0.04   0.16  -0.00    -0.01   0.01   0.01     0.15  -0.16  -0.04
   9   6    -0.11  -0.05   0.26    -0.00  -0.00   0.02     0.11  -0.20   0.00
  10   6     0.03   0.03  -0.00     0.02  -0.00  -0.01     0.12  -0.04  -0.03
  11   6     0.08   0.15  -0.29     0.01  -0.00  -0.04     0.18   0.02   0.00
  12   6    -0.06  -0.02   0.00     0.00   0.02   0.08    -0.05   0.09  -0.07
  13   6    -0.04  -0.00  -0.02     0.01   0.02   0.07    -0.07   0.11  -0.05
  14   6    -0.04   0.00  -0.06     0.01  -0.00  -0.01    -0.12   0.18  -0.03
  15   6    -0.04   0.03  -0.00     0.01  -0.03  -0.08    -0.17   0.18  -0.02
  16   6    -0.03   0.01  -0.01     0.01  -0.02  -0.10    -0.13  -0.05   0.01
  17   6    -0.01   0.01  -0.01     0.00   0.04   0.12    -0.09  -0.09   0.03
  18   7    -0.00   0.00   0.00     0.00   0.01  -0.02    -0.10  -0.15   0.03
  19   6    -0.00   0.00   0.01     0.01  -0.01  -0.10    -0.11  -0.15   0.04
  20   7     0.00  -0.00   0.01     0.01  -0.07  -0.23    -0.13  -0.07   0.03
  21   6     0.01  -0.00   0.00    -0.00  -0.01  -0.03     0.02   0.04  -0.00
  22   6     0.01   0.00   0.00    -0.00   0.02   0.09     0.01   0.04   0.01
  23   7    -0.00   0.01   0.00    -0.00   0.13   0.39     0.01  -0.05   0.06
  24   6    -0.01   0.00  -0.00     0.01   0.04   0.09    -0.13  -0.15   0.04
  25   7    -0.02   0.01  -0.02     0.01  -0.03  -0.17    -0.17  -0.14   0.00
  26   6     0.02  -0.00   0.00    -0.01  -0.04  -0.10     0.06   0.08  -0.03
  27   6     0.03  -0.00   0.01    -0.00  -0.11  -0.34     0.04   0.07  -0.04
  28   6     0.03  -0.00  -0.00     0.01   0.02   0.06     0.02   0.04  -0.01
  29   6     0.03  -0.01  -0.01     0.01   0.10   0.33     0.03   0.02   0.01
  30   6     0.02  -0.01   0.00    -0.00  -0.01  -0.02     0.06   0.01  -0.01
  31   6     0.03  -0.01   0.02    -0.01  -0.09  -0.29     0.14  -0.08   0.02
  32   6     0.03  -0.01   0.01    -0.01  -0.01  -0.05     0.18  -0.07   0.02
  33   6     0.03  -0.02  -0.01    -0.01   0.09   0.31     0.19  -0.01   0.01
  34   6     0.02  -0.01  -0.01    -0.00   0.01   0.05     0.07   0.08  -0.03
  35   6     0.02  -0.01  -0.00    -0.01  -0.02  -0.05     0.07   0.07  -0.04
  36   6    -0.06   0.03   0.07     0.00  -0.01  -0.01    -0.17   0.21  -0.02
  37   6    -0.06  -0.00   0.02    -0.00   0.03   0.10    -0.16   0.13  -0.06
  38   6     0.11  -0.22   0.24    -0.00  -0.00  -0.02    -0.11   0.01  -0.01
  39   6     0.02  -0.18  -0.00     0.00  -0.01   0.01    -0.03  -0.01  -0.01
  40   1    -0.09   0.01  -0.14     0.00  -0.01   0.01     0.05  -0.01   0.03
  41   1     0.01   0.02  -0.02    -0.01  -0.01  -0.00     0.00   0.03  -0.01
  42   1     0.06  -0.01   0.10    -0.00  -0.01  -0.01    -0.04   0.04  -0.01
  43   1    -0.01   0.10  -0.11    -0.01   0.01  -0.01     0.10  -0.02  -0.02
  44   1    -0.02   0.06   0.02    -0.01   0.00   0.01     0.04  -0.05  -0.01
  45   1    -0.06  -0.07   0.17    -0.00  -0.00   0.02     0.01  -0.08   0.01
  46   1     0.02  -0.01   0.02     0.01  -0.00  -0.00     0.02   0.00  -0.02
  47   1     0.04   0.05  -0.12     0.00  -0.00  -0.01     0.05   0.01  -0.01
  48   1    -0.00  -0.00  -0.00     0.00   0.01   0.03    -0.02   0.03  -0.01
  49   1    -0.01  -0.01  -0.03     0.00  -0.00  -0.01    -0.02   0.07  -0.01
  50   1    -0.00   0.00  -0.01    -0.00   0.03   0.11    -0.02  -0.02   0.01
  51   1     0.01  -0.00   0.01    -0.00  -0.06  -0.18     0.01   0.03  -0.02
  52   1     0.01  -0.00  -0.00     0.00   0.02   0.06    -0.00   0.01  -0.00
  53   1     0.01  -0.00  -0.01     0.01   0.07   0.21     0.01   0.00   0.01
  54   1     0.01  -0.00   0.01    -0.01  -0.05  -0.17     0.03  -0.04   0.01
  55   1     0.01  -0.00   0.00    -0.00  -0.01  -0.04     0.06  -0.03   0.01
  56   1     0.01  -0.01  -0.01    -0.00   0.05   0.17     0.09   0.00   0.00
  57   1    -0.02   0.02   0.04    -0.00  -0.01  -0.01    -0.06   0.07   0.01
  58   1    -0.01  -0.00   0.00    -0.00   0.01   0.04    -0.06   0.03  -0.02
  59   1     0.03  -0.09   0.10     0.00   0.00  -0.01    -0.05   0.00  -0.01
  60   1     0.00  -0.07  -0.02     0.00   0.00   0.01    -0.01  -0.01  -0.01
                     22                     23                     24
                        a                      a                      a 
 Frequencies --   287.0185               297.3801               314.5934
 Red. masses --    11.8376                11.3857                10.8212
 Frc consts  --     0.0000                 0.0000                 0.0000
 IR Inten    --     3.4361                 3.3355                 1.1740
 Raman Activ --     0.0000                 0.0000                 0.0000
 Depolar     --     0.0000                 0.0000                 0.0000
 Atom AN      X      Y      Z        X      Y      Z        X      Y      Z
   1   6     0.01  -0.03   0.05     0.07   0.25  -0.00    -0.12  -0.08  -0.00
   2   6    -0.05  -0.04  -0.03     0.11   0.19   0.01    -0.05  -0.22  -0.00
   3   6    -0.02  -0.04  -0.08     0.09   0.18   0.02     0.12  -0.24  -0.12
   4   6     0.03  -0.02  -0.07    -0.00   0.06   0.03     0.16  -0.04  -0.23
   5   7     0.00  -0.01   0.04    -0.04  -0.00  -0.05     0.05   0.01  -0.01
   6   6    -0.02  -0.03  -0.07    -0.06  -0.08  -0.11     0.12   0.11   0.18
   7   6    -0.01   0.01  -0.09    -0.09  -0.10  -0.07     0.15   0.13   0.12
   8   6    -0.00  -0.00   0.02    -0.02  -0.05   0.01     0.03   0.04   0.00
   9   6     0.03  -0.04   0.05     0.12  -0.05  -0.03    -0.17   0.07   0.02
  10   6     0.08  -0.02  -0.04     0.12  -0.11  -0.02    -0.18   0.17   0.02
  11   6     0.04  -0.03  -0.08     0.03  -0.17  -0.05    -0.04   0.25   0.10
  12   6    -0.01   0.09   0.25    -0.04  -0.11   0.06     0.04  -0.04   0.03
  13   6    -0.00   0.10   0.23    -0.07  -0.15   0.04     0.00  -0.08   0.01
  14   6     0.01  -0.01  -0.14    -0.07  -0.14  -0.00    -0.01  -0.04   0.02
  15   6    -0.01  -0.08  -0.31    -0.11  -0.10   0.03    -0.09  -0.02   0.01
  16   6    -0.01  -0.04  -0.14    -0.13   0.07  -0.01    -0.11   0.02  -0.00
  17   6    -0.01  -0.03  -0.12    -0.16   0.10  -0.02    -0.15   0.04  -0.01
  18   7    -0.01   0.08   0.30    -0.15   0.13  -0.05    -0.16   0.05  -0.03
  19   6    -0.01   0.02   0.10    -0.07   0.16  -0.05    -0.12   0.05  -0.02
  20   7    -0.01  -0.07  -0.21    -0.04   0.04  -0.00    -0.11   0.01   0.01
  21   6    -0.00  -0.06  -0.19    -0.02   0.01   0.01    -0.04   0.02   0.00
  22   6    -0.00  -0.05  -0.17    -0.03  -0.01   0.01    -0.03   0.00   0.00
  23   7    -0.00  -0.06  -0.19    -0.08   0.14  -0.04    -0.06   0.07  -0.02
  24   6    -0.01   0.03   0.11    -0.06   0.15  -0.05    -0.09   0.05  -0.02
  25   7    -0.02   0.10   0.33    -0.06   0.15  -0.05    -0.10   0.04  -0.01
  26   6     0.01   0.03   0.08     0.01  -0.07   0.02     0.01  -0.02   0.00
  27   6     0.01   0.02   0.07     0.19  -0.08   0.02     0.14  -0.02   0.01
  28   6     0.01  -0.00  -0.01     0.22  -0.04   0.01     0.15  -0.01   0.00
  29   6     0.01  -0.02  -0.07     0.19  -0.02   0.00     0.13   0.00  -0.00
  30   6     0.01   0.03   0.08     0.04  -0.04   0.01     0.03  -0.02   0.00
  31   6     0.01  -0.03  -0.09     0.07  -0.08   0.03     0.08  -0.09   0.03
  32   6     0.01  -0.01  -0.01     0.07  -0.09   0.03     0.10  -0.10   0.03
  33   6     0.02   0.02   0.09     0.06  -0.11   0.03     0.10  -0.08   0.02
  34   6     0.01   0.03   0.07     0.01  -0.06   0.02     0.01  -0.00   0.00
  35   6     0.01   0.07   0.20     0.01  -0.07   0.02     0.01  -0.01   0.00
  36   6    -0.03  -0.02  -0.12    -0.12  -0.11   0.05    -0.06  -0.02  -0.02
  37   6    -0.03   0.10   0.23    -0.10  -0.13   0.03    -0.04  -0.03   0.02
  38   6     0.00   0.02  -0.08     0.02   0.16   0.09     0.23  -0.01  -0.14
  39   6     0.01   0.02   0.02     0.02   0.18   0.03     0.07   0.03   0.01
  40   1     0.01  -0.01   0.04     0.02   0.08  -0.01    -0.07  -0.01   0.01
  41   1    -0.03  -0.02  -0.01     0.03   0.05   0.01    -0.03  -0.10   0.02
  42   1    -0.00  -0.02  -0.03     0.02   0.08   0.02     0.06  -0.13  -0.04
  43   1    -0.01   0.01  -0.03    -0.04  -0.03  -0.01     0.07   0.04   0.03
  44   1    -0.01   0.01   0.02    -0.02   0.00   0.03     0.03  -0.02  -0.03
  45   1     0.00  -0.02   0.04     0.05   0.00  -0.00    -0.07  -0.00  -0.01
  46   1     0.03  -0.01  -0.01     0.05  -0.04  -0.00    -0.07   0.06  -0.01
  47   1     0.01  -0.02  -0.03     0.01  -0.09  -0.02    -0.02   0.14   0.04
  48   1     0.00   0.04   0.10    -0.02  -0.04   0.01    -0.00  -0.02  -0.00
  49   1     0.01  -0.01  -0.06    -0.01  -0.04  -0.01     0.01   0.00   0.01
  50   1    -0.00  -0.03  -0.10    -0.05   0.03  -0.00    -0.05   0.01   0.00
  51   1     0.00   0.00   0.00     0.08  -0.05   0.02     0.05  -0.02   0.01
  52   1     0.00  -0.01  -0.03     0.07  -0.01   0.00     0.04  -0.00   0.00
  53   1     0.00  -0.02  -0.07     0.07   0.02  -0.01     0.05   0.02  -0.01
  54   1     0.00  -0.03  -0.08     0.02  -0.03   0.01     0.02  -0.04   0.02
  55   1     0.00  -0.01  -0.03     0.02  -0.02   0.01     0.03  -0.03   0.01
  56   1     0.01   0.00   0.01     0.03  -0.03   0.01     0.05  -0.02   0.00
  57   1    -0.02  -0.01  -0.05    -0.04  -0.03   0.01    -0.02  -0.01  -0.02
  58   1    -0.02   0.04   0.11    -0.04  -0.05   0.00    -0.03  -0.02   0.01
  59   1     0.00   0.02  -0.03     0.02   0.05   0.03     0.10   0.02  -0.04
  60   1     0.01   0.01   0.02     0.00   0.03  -0.00     0.03   0.05   0.04
                     25                     26                     27
                        a                      a                      a 
 Frequencies --   348.0712               352.0767               376.2813
 Red. masses --    11.0220                11.1809                 9.0360
 Frc consts  --     0.0000                 0.0000                 0.0000
 IR Inten    --     0.4929                 1.4893                 5.9148
 Raman Activ --     0.0000                 0.0000                 0.0000
 Depolar     --     0.0000                 0.0000                 0.0000
 Atom AN      X      Y      Z        X      Y      Z        X      Y      Z
   1   6     0.03   0.10   0.05     0.00  -0.09   0.05     0.00  -0.00   0.00
   2   6    -0.00   0.02  -0.03    -0.08  -0.05  -0.02    -0.23   0.11  -0.22
   3   6     0.09   0.00  -0.09    -0.03  -0.05  -0.02     0.24  -0.09   0.23
   4   6     0.08  -0.02  -0.08     0.05  -0.02   0.00    -0.00   0.02  -0.00
   5   7     0.03  -0.06   0.13     0.00   0.02   0.14     0.00   0.01  -0.02
   6   6    -0.09  -0.07  -0.10    -0.03  -0.04   0.02     0.01   0.01   0.01
   7   6    -0.15   0.05  -0.06     0.04  -0.01  -0.09    -0.00  -0.02   0.04
   8   6    -0.10   0.11   0.05     0.03  -0.04  -0.01     0.00  -0.01  -0.01
   9   6    -0.06   0.10   0.06     0.05  -0.09   0.05     0.00   0.01  -0.03
  10   6    -0.01  -0.00  -0.03     0.09   0.00  -0.04    -0.02  -0.01   0.02
  11   6    -0.10  -0.07  -0.10     0.05  -0.03  -0.02     0.00   0.00   0.02
  12   6     0.07  -0.16   0.25    -0.06   0.25   0.16     0.01  -0.01  -0.03
  13   6     0.20  -0.13   0.07    -0.13   0.16   0.05    -0.01   0.09   0.23
  14   6     0.14   0.07  -0.14    -0.08  -0.10  -0.15     0.01  -0.10  -0.22
  15   6    -0.02   0.15  -0.07     0.01  -0.12  -0.11    -0.01  -0.01  -0.00
  16   6    -0.01   0.12   0.08     0.01  -0.02   0.18    -0.00  -0.00   0.01
  17   6     0.07   0.09   0.13    -0.05   0.04   0.28    -0.00  -0.01  -0.01
  18   7     0.10  -0.15  -0.11    -0.06  -0.02  -0.28    -0.00   0.01   0.03
  19   6    -0.02  -0.21  -0.06     0.01   0.04  -0.24     0.00   0.00  -0.01
  20   7    -0.05  -0.10   0.08     0.03   0.10   0.06     0.00  -0.00  -0.02
  21   6     0.01   0.01   0.16    -0.00   0.10   0.26     0.00   0.01   0.02
  22   6    -0.01   0.00   0.08     0.01   0.04   0.09     0.00   0.02   0.04
  23   7    -0.02  -0.14   0.02     0.02   0.06  -0.09     0.00   0.00  -0.01
  24   6    -0.08  -0.17   0.01     0.05   0.07  -0.09     0.00  -0.00  -0.03
  25   7    -0.11  -0.00   0.05     0.07   0.03   0.13     0.00   0.00   0.01
  26   6     0.02   0.06  -0.07    -0.01  -0.07  -0.09    -0.00   0.00   0.02
  27   6    -0.07   0.08  -0.03     0.03  -0.05   0.01     0.00  -0.01  -0.01
  28   6    -0.09   0.06  -0.00     0.05  -0.03   0.04     0.00  -0.00  -0.01
  29   6    -0.07   0.03  -0.01     0.04  -0.03  -0.01     0.00   0.01   0.02
  30   6     0.02   0.03  -0.06    -0.01  -0.05  -0.06    -0.00  -0.00  -0.01
  31   6     0.06   0.03   0.06    -0.03   0.04   0.12    -0.00  -0.00  -0.00
  32   6     0.08   0.01  -0.03    -0.05  -0.02  -0.04    -0.00   0.00   0.01
  33   6     0.08   0.02  -0.06    -0.05  -0.05  -0.08    -0.00  -0.00  -0.00
  34   6     0.04   0.07   0.01    -0.02  -0.02   0.08    -0.00  -0.01  -0.02
  35   6     0.03   0.05  -0.11    -0.02  -0.08  -0.13    -0.00  -0.01  -0.02
  36   6    -0.13  -0.00  -0.12     0.09  -0.06  -0.18    -0.01   0.09   0.23
  37   6    -0.06  -0.20   0.09     0.02   0.22   0.09     0.01  -0.10  -0.25
  38   6     0.06   0.10  -0.06    -0.02  -0.03  -0.08    -0.24   0.11  -0.23
  39   6     0.03   0.12   0.04    -0.01  -0.04  -0.01     0.23  -0.09   0.22
  40   1     0.01   0.03   0.03     0.01  -0.03   0.03     0.00  -0.00   0.00
  41   1    -0.02  -0.02  -0.00    -0.03  -0.01  -0.02    -0.14   0.06  -0.14
  42   1     0.03  -0.01  -0.03    -0.01  -0.03  -0.01     0.15  -0.06   0.14
  43   1    -0.09   0.03  -0.02     0.02   0.01  -0.04    -0.00  -0.01   0.02
  44   1    -0.04   0.04   0.03     0.00  -0.00   0.00     0.00  -0.00  -0.01
  45   1    -0.01   0.03   0.04     0.01  -0.04   0.03     0.00   0.01  -0.02
  46   1     0.03  -0.01  -0.00     0.03   0.01  -0.03    -0.01  -0.01   0.01
  47   1    -0.03  -0.04  -0.03     0.02  -0.02  -0.01     0.00   0.01   0.00
  48   1     0.12  -0.06   0.00    -0.07   0.06   0.02    -0.01   0.06   0.14
  49   1     0.08   0.04  -0.09    -0.05  -0.06  -0.06     0.01  -0.06  -0.13
  50   1     0.04   0.05   0.07    -0.03   0.02   0.16     0.00  -0.01  -0.02
  51   1    -0.03   0.04   0.00     0.02  -0.01   0.04     0.00  -0.00  -0.00
  52   1    -0.03   0.02   0.02     0.02   0.00   0.04     0.00  -0.00  -0.00
  53   1    -0.03   0.00   0.02     0.01   0.00   0.01     0.00   0.01   0.02
  54   1     0.02   0.01   0.06    -0.01   0.04   0.10    -0.00   0.00   0.00
  55   1     0.03   0.00  -0.00    -0.02  -0.00  -0.01    -0.00   0.00   0.01
  56   1     0.04   0.01  -0.02    -0.02  -0.02  -0.02    -0.00   0.00   0.01
  57   1    -0.08  -0.01  -0.08     0.06  -0.05  -0.10    -0.01   0.07   0.15
  58   1    -0.06  -0.10   0.01     0.03   0.09   0.03     0.00  -0.06  -0.13
  59   1     0.04   0.06  -0.03    -0.02  -0.00  -0.03    -0.15   0.06  -0.14
  60   1     0.01   0.04   0.02    -0.01   0.00   0.00     0.14  -0.06   0.14
                     28                     29                     30
                        a                      a                      a 
 Frequencies --   377.0589               383.7908               394.1497
 Red. masses --     9.0442                 9.5030                10.9024
 Frc consts  --     0.0000                 0.0000                 0.0000
 IR Inten    --     5.1363                 3.2982                 1.2307
 Raman Activ --     0.0000                 0.0000                 0.0000
 Depolar     --     0.0000                 0.0000                 0.0000
 Atom AN      X      Y      Z        X      Y      Z        X      Y      Z
   1   6    -0.01   0.01  -0.03    -0.03   0.04  -0.00    -0.04   0.13  -0.01
   2   6    -0.07   0.05  -0.08     0.14  -0.08   0.12     0.00   0.02  -0.04
   3   6     0.11  -0.04   0.13    -0.09   0.03  -0.18     0.20  -0.05  -0.01
   4   6    -0.02   0.01   0.01     0.01  -0.01  -0.08     0.01  -0.01  -0.15
   5   7    -0.01   0.01  -0.04    -0.05  -0.02   0.02    -0.12  -0.05   0.07
   6   6    -0.00   0.02   0.01     0.00   0.01   0.08    -0.01  -0.02   0.14
   7   6     0.14   0.21  -0.26     0.13   0.13  -0.15     0.05  -0.05   0.05
   8   6    -0.14  -0.20   0.26    -0.04  -0.12   0.11     0.10   0.01  -0.13
   9   6    -0.00   0.01  -0.01    -0.01  -0.04   0.01     0.01  -0.12   0.05
  10   6     0.12   0.20  -0.25     0.07   0.13  -0.15     0.02  -0.01   0.03
  11   6    -0.15  -0.19   0.29    -0.05  -0.07   0.19     0.13   0.12  -0.06
  12   6    -0.00  -0.03  -0.04    -0.07  -0.03   0.01    -0.17  -0.06   0.03
  13   6     0.02  -0.08  -0.18    -0.10   0.08   0.27    -0.19  -0.11  -0.12
  14   6    -0.00   0.07   0.16    -0.07  -0.10  -0.23    -0.21   0.04   0.10
  15   6     0.00   0.01   0.02    -0.06  -0.01  -0.01    -0.15   0.01   0.03
  16   6     0.00   0.00  -0.01    -0.02   0.00   0.01    -0.05  -0.01   0.01
  17   6     0.00  -0.00  -0.01     0.06  -0.02   0.00     0.11  -0.05   0.02
  18   7     0.00  -0.00  -0.00     0.07  -0.02   0.04     0.13  -0.07   0.01
  19   6     0.00   0.00   0.02     0.09  -0.01  -0.01     0.19   0.01   0.01
  20   7     0.00   0.00   0.01     0.10   0.00  -0.03     0.22   0.03   0.01
  21   6     0.00  -0.01  -0.03     0.05  -0.01   0.04     0.12  -0.05  -0.03
  22   6     0.00  -0.01  -0.03     0.03   0.02   0.06     0.06  -0.01  -0.04
  23   7    -0.00   0.00   0.02     0.03  -0.00  -0.03     0.07   0.04   0.02
  24   6    -0.00   0.00   0.02     0.04   0.01  -0.04     0.08   0.05   0.00
  25   7    -0.00  -0.01  -0.02     0.03   0.03   0.01     0.06   0.05  -0.04
  26   6     0.00   0.00  -0.00     0.01   0.00   0.02     0.03  -0.02  -0.00
  27   6    -0.00   0.00   0.01    -0.06  -0.01  -0.01    -0.12  -0.02   0.01
  28   6    -0.00   0.00   0.00    -0.06  -0.01  -0.01    -0.12  -0.03   0.02
  29   6    -0.00  -0.00  -0.01    -0.04  -0.02   0.04    -0.07  -0.08   0.01
  30   6     0.00   0.00   0.01     0.03  -0.02  -0.02     0.08  -0.03   0.02
  31   6     0.00  -0.00  -0.01    -0.02   0.06  -0.02    -0.04   0.13  -0.05
  32   6     0.00   0.00   0.00    -0.04   0.07  -0.01    -0.09   0.14  -0.04
  33   6     0.00   0.00   0.01    -0.04   0.04  -0.01    -0.10   0.08  -0.02
  34   6     0.00   0.00   0.00     0.03  -0.03  -0.01     0.07  -0.07   0.03
  35   6     0.00   0.01   0.02     0.03  -0.04  -0.03     0.07  -0.06   0.05
  36   6     0.00  -0.06  -0.13    -0.11   0.07   0.23    -0.23  -0.09  -0.08
  37   6    -0.01   0.04   0.13    -0.09  -0.14  -0.26    -0.24  -0.02   0.11
  38   6    -0.09   0.03  -0.07     0.19  -0.04   0.12     0.04   0.10  -0.08
  39   6     0.11  -0.05   0.10    -0.10   0.09  -0.10     0.10   0.09   0.11
  40   1    -0.01   0.01  -0.02    -0.02   0.01   0.00    -0.03   0.05  -0.00
  41   1    -0.05   0.03  -0.05     0.08  -0.06   0.09    -0.02  -0.02  -0.00
  42   1     0.06  -0.02   0.07    -0.06   0.02  -0.09     0.09  -0.04   0.03
  43   1     0.09   0.12  -0.16     0.08   0.07  -0.10     0.04  -0.02   0.02
  44   1    -0.09  -0.12   0.17    -0.03  -0.07   0.07     0.05   0.03  -0.08
  45   1     0.00   0.00  -0.01    -0.01  -0.02   0.00    -0.01  -0.05   0.03
  46   1     0.08   0.13  -0.16     0.04   0.09  -0.10    -0.01   0.01   0.00
  47   1    -0.09  -0.12   0.17    -0.03  -0.04   0.09     0.06   0.07  -0.06
  48   1     0.01  -0.04  -0.09    -0.03   0.06   0.15    -0.04  -0.05  -0.07
  49   1    -0.00   0.04   0.10    -0.02  -0.06  -0.14    -0.06   0.02   0.06
  50   1     0.00   0.00   0.00     0.03  -0.00  -0.02     0.05   0.00   0.01
  51   1    -0.00   0.00  -0.00    -0.02   0.00  -0.00    -0.05   0.01  -0.00
  52   1    -0.00  -0.00  -0.00    -0.02  -0.00  -0.00    -0.04  -0.01   0.00
  53   1    -0.00  -0.00  -0.01    -0.02  -0.01   0.03    -0.04  -0.06   0.00
  54   1     0.00  -0.00  -0.01    -0.00   0.03  -0.00     0.00   0.07  -0.03
  55   1     0.00  -0.00  -0.00    -0.01   0.02   0.00    -0.03   0.04  -0.02
  56   1     0.00   0.00  -0.00    -0.03   0.01   0.00    -0.07   0.01  -0.01
  57   1     0.00  -0.04  -0.09    -0.04   0.06   0.15    -0.07  -0.04  -0.06
  58   1    -0.01   0.03   0.09    -0.03  -0.07  -0.14    -0.08  -0.01   0.05
  59   1    -0.06   0.02  -0.05     0.12  -0.02   0.08     0.03   0.06  -0.04
  60   1     0.07  -0.03   0.06    -0.06   0.05  -0.06     0.07   0.02   0.07
                     31                     32                     33
                        a                      a                      a 
 Frequencies --   402.1683               407.1160               420.5770
 Red. masses --    11.7850                11.3045                 9.4698
 Frc consts  --     0.0000                 0.0000                 0.0000
 IR Inten    --     3.8521                 2.2240                 0.3536
 Raman Activ --     0.0000                 0.0000                 0.0000
 Depolar     --     0.0000                 0.0000                 0.0000
 Atom AN      X      Y      Z        X      Y      Z        X      Y      Z
   1   6     0.04  -0.01   0.06    -0.08   0.01  -0.13     0.01   0.00   0.01
   2   6    -0.04  -0.01  -0.02     0.07   0.00   0.06    -0.01   0.00  -0.01
   3   6     0.01  -0.01  -0.06    -0.04   0.02   0.11     0.01  -0.00  -0.01
   4   6     0.10  -0.03   0.02    -0.20   0.07  -0.04     0.02  -0.01   0.01
   5   7     0.04  -0.03   0.20    -0.07   0.09  -0.44     0.01  -0.01   0.04
   6   6    -0.06  -0.07   0.00     0.13   0.16  -0.03    -0.01  -0.01   0.00
   7   6    -0.04   0.02  -0.06     0.09  -0.03   0.10    -0.01   0.00  -0.01
   8   6    -0.02   0.04   0.01     0.02  -0.10   0.01    -0.00   0.01  -0.00
   9   6    -0.02   0.00   0.06     0.05   0.01  -0.13    -0.01   0.00   0.01
  10   6     0.02   0.01  -0.03    -0.05  -0.03   0.07     0.00   0.00  -0.01
  11   6    -0.04  -0.04  -0.04     0.07   0.06   0.11    -0.01  -0.00  -0.01
  12   6     0.01   0.06   0.03     0.00  -0.09  -0.00     0.00  -0.00  -0.01
  13   6     0.00   0.05   0.01    -0.01  -0.02   0.16     0.00  -0.00  -0.01
  14   6     0.01  -0.03  -0.07    -0.00  -0.02  -0.04     0.00   0.01   0.01
  15   6     0.01   0.03   0.08    -0.01  -0.06  -0.19    -0.00   0.01   0.01
  16   6     0.01  -0.02   0.04    -0.02   0.05  -0.08     0.00  -0.02  -0.01
  17   6    -0.02   0.01   0.10     0.04   0.10   0.13    -0.01  -0.01  -0.01
  18   7    -0.03  -0.07  -0.26     0.06  -0.06  -0.10    -0.01   0.00   0.01
  19   6    -0.01   0.04   0.08     0.02  -0.08  -0.07    -0.00   0.01   0.01
  20   7    -0.01   0.08   0.21     0.01  -0.06   0.01    -0.00  -0.00  -0.03
  21   6    -0.01  -0.08  -0.30     0.01  -0.02   0.07     0.00   0.00  -0.01
  22   6     0.00  -0.13  -0.43    -0.02  -0.07  -0.16     0.00  -0.01  -0.04
  23   7     0.01   0.09   0.26    -0.03  -0.01   0.12     0.01   0.01   0.02
  24   6     0.01   0.06   0.18    -0.03  -0.00   0.11     0.00   0.01   0.03
  25   7     0.02  -0.08  -0.18    -0.04   0.07   0.02     0.01  -0.01  -0.02
  26   6    -0.00  -0.05  -0.16    -0.00  -0.05  -0.24     0.00  -0.04  -0.13
  27   6     0.01   0.01   0.06    -0.03   0.03   0.02     0.01   0.09   0.30
  28   6     0.01   0.03   0.12    -0.03   0.07   0.11    -0.00  -0.11  -0.32
  29   6     0.00  -0.06  -0.18    -0.03  -0.03  -0.16     0.00   0.03   0.10
  30   6    -0.00   0.03   0.14     0.02   0.03   0.02     0.01   0.10   0.35
  31   6    -0.01  -0.01  -0.01     0.04   0.06   0.13    -0.00   0.05   0.15
  32   6    -0.01  -0.01  -0.02     0.03  -0.02  -0.12    -0.02  -0.11  -0.37
  33   6    -0.01   0.01   0.03     0.03   0.01  -0.01    -0.00   0.10   0.31
  34   6    -0.01   0.03   0.11     0.02   0.08   0.22    -0.00  -0.02  -0.05
  35   6    -0.00   0.08   0.26     0.02   0.02   0.02    -0.00  -0.10  -0.31
  36   6     0.03   0.04   0.06    -0.04  -0.02  -0.00    -0.00   0.01   0.01
  37   6     0.02  -0.01  -0.14    -0.02  -0.04   0.14    -0.00  -0.00  -0.02
  38   6     0.02   0.02  -0.05    -0.04  -0.05   0.10     0.00   0.01  -0.01
  39   6    -0.03   0.04  -0.02     0.04  -0.09   0.03    -0.00   0.01  -0.00
  40   1     0.02  -0.01   0.04    -0.04   0.01  -0.07     0.00  -0.00   0.01
  41   1    -0.03  -0.01  -0.01     0.06   0.01   0.04    -0.01  -0.00  -0.00
  42   1    -0.01  -0.01  -0.03     0.00   0.02   0.06    -0.00  -0.00  -0.00
  43   1    -0.02   0.02  -0.03     0.05  -0.03   0.05    -0.00   0.00  -0.00
  44   1    -0.01   0.02   0.00     0.00  -0.06   0.01    -0.00   0.00  -0.00
  45   1    -0.01  -0.00   0.03     0.02   0.02  -0.07    -0.00  -0.00   0.01
  46   1     0.03   0.01  -0.02    -0.06  -0.01   0.04     0.00   0.00  -0.00
  47   1    -0.01  -0.02  -0.02     0.01   0.03   0.05    -0.00  -0.00  -0.00
  48   1    -0.01   0.01   0.00     0.01   0.00   0.08     0.00  -0.00  -0.00
  49   1     0.00  -0.03  -0.06     0.01   0.01  -0.00     0.00   0.00   0.00
  50   1    -0.01   0.02   0.10     0.03   0.06   0.10    -0.00  -0.00  -0.00
  51   1     0.00  -0.00  -0.00    -0.01   0.02   0.03     0.00   0.07   0.23
  52   1     0.00   0.01   0.04    -0.01   0.03   0.07    -0.00  -0.07  -0.21
  53   1     0.00  -0.05  -0.15    -0.01  -0.03  -0.09     0.00   0.00   0.01
  54   1    -0.00  -0.02  -0.06     0.01   0.02   0.06    -0.00   0.01   0.03
  55   1    -0.00  -0.02  -0.06     0.01  -0.02  -0.09    -0.01  -0.08  -0.25
  56   1    -0.00  -0.01  -0.04     0.01  -0.01  -0.03     0.00   0.07   0.22
  57   1     0.01   0.01   0.02    -0.02   0.01   0.02    -0.00   0.00   0.01
  58   1     0.01  -0.01  -0.08    -0.02  -0.01   0.07    -0.00  -0.00  -0.01
  59   1     0.01   0.02  -0.02    -0.01  -0.04   0.06     0.00   0.00  -0.00
  60   1    -0.02   0.03  -0.02     0.04  -0.05   0.02    -0.00   0.00  -0.00
                     34                     35                     36
                        a                      a                      a 
 Frequencies --   430.8399               437.7048               465.4045
 Red. masses --    11.4748                11.3468                10.7952
 Frc consts  --     0.0000                 0.0000                 0.0000
 IR Inten    --     0.8446                 4.4935                 4.1143
 Raman Activ --     0.0000                 0.0000                 0.0000
 Depolar     --     0.0000                 0.0000                 0.0000
 Atom AN      X      Y      Z        X      Y      Z        X      Y      Z
   1   6    -0.05  -0.03  -0.04     0.02  -0.01   0.04    -0.06   0.09  -0.06
   2   6     0.01  -0.02   0.03    -0.03   0.00  -0.02     0.07   0.00   0.05
   3   6    -0.02  -0.01   0.03     0.03  -0.01  -0.03     0.03   0.02  -0.02
   4   6    -0.06   0.04  -0.03     0.08  -0.03   0.02    -0.13   0.02  -0.13
   5   7    -0.05   0.07  -0.11    -0.02  -0.02   0.16    -0.09  -0.03   0.01
   6   6     0.01   0.05   0.01    -0.08  -0.08   0.10    -0.06  -0.06   0.12
   7   6     0.03  -0.03   0.01    -0.01  -0.01  -0.04    -0.00  -0.01   0.00
   8   6     0.02  -0.05  -0.02     0.02   0.03  -0.05     0.02   0.02  -0.07
   9   6     0.05  -0.04  -0.04    -0.01  -0.07   0.07    -0.01  -0.08   0.06
  10   6     0.02  -0.01   0.02     0.05   0.03  -0.04     0.04   0.02  -0.05
  11   6     0.05   0.02   0.04     0.01  -0.01  -0.02     0.03   0.00   0.01
  12   6    -0.04   0.09   0.12    -0.07   0.10  -0.10    -0.06  -0.05   0.01
  13   6    -0.09   0.02   0.06    -0.14   0.03  -0.07    -0.00   0.02  -0.00
  14   6    -0.04  -0.15  -0.08    -0.06  -0.19   0.11    -0.01   0.08  -0.03
  15   6     0.02  -0.10   0.04     0.05  -0.19   0.12     0.05   0.06  -0.03
  16   6    -0.02   0.18   0.09    -0.02   0.18  -0.11     0.10  -0.09   0.02
  17   6     0.06   0.16   0.06     0.09   0.17  -0.15     0.17  -0.11   0.05
  18   7     0.10  -0.07  -0.22     0.15   0.04   0.14     0.15  -0.05   0.02
  19   6     0.01  -0.06   0.05     0.02  -0.09   0.05     0.13  -0.02  -0.03
  20   7     0.01  -0.01   0.33     0.01  -0.20  -0.15     0.10   0.14  -0.01
  21   6    -0.01  -0.15  -0.20    -0.02  -0.08   0.15    -0.03   0.07  -0.04
  22   6    -0.07  -0.07  -0.01    -0.11  -0.08   0.05    -0.07   0.04  -0.03
  23   7    -0.10  -0.10  -0.02    -0.16  -0.12   0.07    -0.02  -0.03   0.03
  24   6    -0.05  -0.05  -0.04    -0.07  -0.04   0.04     0.06  -0.01  -0.03
  25   7    -0.07   0.13  -0.04    -0.09   0.18  -0.11     0.09  -0.10   0.05
  26   6    -0.02   0.10   0.24    -0.06  -0.01  -0.14    -0.18  -0.05   0.01
  27   6    -0.05   0.06   0.05    -0.06   0.04  -0.05     0.13  -0.04   0.01
  28   6    -0.04   0.03  -0.21    -0.04   0.16   0.05     0.19   0.07  -0.03
  29   6    -0.04   0.13   0.14    -0.05   0.12  -0.13     0.02   0.23  -0.07
  30   6     0.01   0.10   0.08    -0.02   0.11  -0.08    -0.37   0.12  -0.02
  31   6     0.07  -0.05  -0.19     0.11   0.02   0.11    -0.20  -0.18   0.06
  32   6     0.10   0.05   0.12     0.16  -0.03  -0.08     0.06  -0.16   0.05
  33   6     0.08  -0.01   0.04     0.13  -0.05   0.00     0.10  -0.05   0.02
  34   6     0.01  -0.08  -0.32     0.02   0.08   0.16    -0.08   0.11  -0.04
  35   6    -0.00   0.05   0.03    -0.04   0.04  -0.04    -0.31   0.08  -0.02
  36   6     0.06  -0.13  -0.07     0.12  -0.16   0.10    -0.02   0.01  -0.00
  37   6     0.03   0.05   0.05     0.05   0.07  -0.07    -0.02  -0.06   0.02
  38   6    -0.00  -0.03   0.01     0.02   0.01  -0.04    -0.01   0.01   0.01
  39   6     0.02  -0.04   0.01    -0.02   0.03  -0.01     0.04  -0.00   0.08
  40   1    -0.02  -0.01  -0.02     0.01  -0.01   0.02    -0.03   0.03  -0.03
  41   1     0.02  -0.00   0.02    -0.03  -0.00  -0.02     0.05  -0.02   0.05
  42   1     0.00  -0.01   0.02     0.00  -0.01  -0.02     0.04  -0.00   0.02
  43   1     0.03  -0.02   0.01     0.01   0.01  -0.03     0.02   0.01  -0.02
  44   1     0.00  -0.02  -0.00     0.02   0.03  -0.04     0.02   0.03  -0.05
  45   1     0.02  -0.01  -0.02    -0.01  -0.03   0.04    -0.01  -0.03   0.03
  46   1    -0.01  -0.00   0.01     0.03   0.03  -0.04     0.02   0.03  -0.04
  47   1     0.01   0.00   0.01     0.02   0.00  -0.03     0.02   0.02  -0.02
  48   1    -0.05   0.01   0.00    -0.09   0.03  -0.02     0.03  -0.00   0.00
  49   1    -0.03  -0.08  -0.05    -0.06  -0.09   0.06    -0.00   0.02  -0.01
  50   1     0.05   0.07   0.03     0.07   0.07  -0.08     0.04  -0.04   0.02
  51   1    -0.01   0.01  -0.01    -0.01   0.01   0.00     0.08  -0.06   0.02
  52   1    -0.01  -0.02  -0.15     0.01   0.06   0.06     0.09   0.02  -0.01
  53   1    -0.01   0.03   0.05    -0.02   0.03  -0.04     0.05   0.16  -0.05
  54   1     0.01  -0.06  -0.12     0.02  -0.02   0.08    -0.09  -0.14   0.04
  55   1     0.03   0.03   0.08     0.04  -0.01  -0.05     0.04  -0.08   0.02
  56   1     0.03   0.01   0.05     0.05  -0.02  -0.02     0.08  -0.01   0.00
  57   1     0.05  -0.06  -0.05     0.09  -0.05   0.05    -0.03   0.01  -0.00
  58   1     0.03   0.02  -0.00     0.05   0.06  -0.02    -0.01  -0.02   0.01
  59   1     0.00  -0.02   0.01     0.00   0.01  -0.02     0.04   0.00   0.02
  60   1     0.02  -0.02   0.01    -0.01   0.02  -0.01     0.05  -0.02   0.05
                     37                     38                     39
                        a                      a                      a 
 Frequencies --   473.7057               481.6328               483.1727
 Red. masses --    12.2264                10.5100                10.8470
 Frc consts  --     0.0000                 0.0000                 0.0000
 IR Inten    --    40.8644                30.6496                23.5402
 Raman Activ --     0.0000                 0.0000                 0.0000
 Depolar     --     0.0000                 0.0000                 0.0000
 Atom AN      X      Y      Z        X      Y      Z        X      Y      Z
   1   6     0.07   0.02   0.05    -0.13  -0.05  -0.09     0.10  -0.10   0.10
   2   6    -0.02   0.02  -0.05     0.03  -0.05   0.11    -0.09  -0.01  -0.08
   3   6     0.01   0.00  -0.01    -0.03  -0.00   0.01    -0.01  -0.04   0.02
   4   6     0.08  -0.06   0.08    -0.12   0.12  -0.16     0.20  -0.05   0.17
   5   7     0.03  -0.06  -0.01    -0.03   0.11   0.12     0.09   0.03   0.01
   6   6    -0.00  -0.06   0.04     0.01   0.13  -0.14     0.15   0.17  -0.25
   7   6     0.00   0.03   0.02    -0.02  -0.05  -0.06     0.04   0.01  -0.01
   8   6     0.00   0.04  -0.01    -0.02  -0.09   0.04    -0.03  -0.07   0.14
   9   6    -0.06   0.01   0.04     0.12  -0.00  -0.09     0.06   0.15  -0.14
  10   6    -0.02   0.02  -0.04     0.03  -0.05   0.09    -0.08  -0.05   0.13
  11   6    -0.02  -0.00  -0.01     0.03   0.00   0.01    -0.03   0.03  -0.02
  12   6     0.02  -0.07  -0.19    -0.02   0.15   0.33     0.04   0.01   0.05
  13   6     0.01   0.00   0.01    -0.02  -0.02  -0.06    -0.05  -0.08   0.01
  14   6     0.01   0.01   0.08    -0.01  -0.03  -0.10    -0.08  -0.02   0.00
  15   6    -0.00  -0.08  -0.15    -0.00   0.14   0.33    -0.13   0.02   0.03
  16   6    -0.01  -0.03  -0.11     0.00   0.02   0.06    -0.09  -0.09   0.04
  17   6    -0.00  -0.00  -0.01    -0.00  -0.05  -0.21     0.07  -0.16   0.03
  18   7    -0.00   0.06   0.22    -0.01   0.09   0.27     0.07  -0.10   0.03
  19   6     0.01  -0.14  -0.47    -0.02  -0.05  -0.15     0.18   0.04   0.02
  20   7     0.01   0.09   0.32    -0.02   0.01   0.03     0.20   0.06  -0.04
  21   6     0.01  -0.04  -0.09    -0.00  -0.00  -0.05     0.08  -0.02   0.01
  22   6    -0.01  -0.03  -0.09     0.01  -0.00  -0.03    -0.08   0.02  -0.00
  23   7    -0.02   0.09   0.27     0.01   0.07   0.21    -0.09   0.09  -0.04
  24   6    -0.01  -0.12  -0.43    -0.00  -0.09  -0.26    -0.03   0.10  -0.02
  25   7    -0.02   0.10   0.29    -0.01  -0.01   0.00    -0.02  -0.04  -0.01
  26   6    -0.01  -0.01  -0.01     0.02  -0.01  -0.08    -0.19  -0.09   0.03
  27   6    -0.02   0.00   0.01     0.01   0.00  -0.03    -0.11  -0.09   0.03
  28   6    -0.01   0.02  -0.01     0.00  -0.01   0.06     0.00   0.16  -0.05
  29   6    -0.01   0.01  -0.01     0.01  -0.05  -0.05    -0.03   0.19  -0.06
  30   6     0.02   0.02   0.03     0.01  -0.02   0.02    -0.05   0.15  -0.05
  31   6     0.02   0.01  -0.03    -0.01   0.01   0.05     0.04   0.06  -0.01
  32   6     0.02   0.02   0.00    -0.02  -0.02  -0.05     0.14   0.06  -0.03
  33   6     0.01  -0.01   0.01    -0.01   0.03   0.02     0.08  -0.13   0.04
  34   6     0.01  -0.03  -0.02    -0.00   0.03   0.06     0.05  -0.12   0.04
  35   6     0.01  -0.01   0.03     0.02   0.01   0.01    -0.13  -0.11   0.03
  36   6    -0.01   0.01   0.07     0.03  -0.02  -0.09    -0.10   0.04  -0.04
  37   6    -0.02   0.01   0.02     0.04  -0.01  -0.06    -0.08   0.02  -0.01
  38   6    -0.01   0.02   0.02     0.02  -0.04  -0.06     0.04  -0.00  -0.01
  39   6    -0.04   0.04  -0.03     0.07  -0.07   0.05    -0.05   0.03  -0.11
  40   1     0.02   0.00   0.02    -0.04  -0.01  -0.04     0.03  -0.03   0.04
  41   1    -0.03   0.01  -0.04     0.06  -0.03   0.07    -0.08   0.03  -0.08
  42   1    -0.02   0.02  -0.02     0.03  -0.04   0.03    -0.04  -0.00  -0.04
  43   1    -0.00   0.02  -0.01    -0.01  -0.04   0.02    -0.03  -0.04   0.06
  44   1     0.01   0.01  -0.02    -0.03  -0.04   0.06    -0.05  -0.08   0.11
  45   1    -0.02   0.00   0.02     0.04   0.00  -0.04     0.02   0.05  -0.06
  46   1     0.01   0.01  -0.02    -0.03  -0.04   0.07    -0.06  -0.07   0.11
  47   1    -0.00   0.02  -0.01    -0.00  -0.05   0.02    -0.04  -0.03   0.05
  48   1    -0.01   0.03   0.06     0.00  -0.05  -0.13    -0.02  -0.03  -0.02
  49   1    -0.00   0.03   0.09    -0.00  -0.06  -0.15    -0.01   0.00  -0.02
  50   1     0.00   0.02   0.05    -0.00  -0.03  -0.10     0.03  -0.04   0.00
  51   1    -0.01  -0.00   0.00     0.00   0.01  -0.00     0.00  -0.07   0.02
  52   1    -0.00   0.00  -0.01    -0.01   0.00   0.04     0.05   0.05  -0.01
  53   1    -0.00  -0.01  -0.01     0.00  -0.02  -0.03    -0.01   0.06  -0.02
  54   1     0.01  -0.00  -0.02     0.00   0.01   0.01    -0.00  -0.03   0.01
  55   1     0.00   0.01  -0.00    -0.01  -0.01  -0.04     0.03   0.03  -0.01
  56   1    -0.00  -0.00   0.00    -0.00   0.01   0.00    -0.01  -0.04   0.01
  57   1    -0.00   0.03   0.09     0.02  -0.06  -0.16    -0.02   0.00  -0.03
  58   1    -0.01   0.03   0.06     0.02  -0.05  -0.14    -0.04  -0.02  -0.01
  59   1    -0.02   0.02  -0.01     0.04  -0.03   0.02    -0.04   0.01  -0.04
  60   1    -0.03   0.01  -0.04     0.06  -0.02   0.07    -0.07   0.04  -0.08
                     40                     41                     42
                        a                      a                      a 
 Frequencies --   496.3404               501.4084               537.3720
 Red. masses --    11.1015                10.5555                11.7211
 Frc consts  --     0.0000                 0.0000                 0.0000
 IR Inten    --    19.0501                 0.8098                51.5701
 Raman Activ --     0.0000                 0.0000                 0.0000
 Depolar     --     0.0000                 0.0000                 0.0000
 Atom AN      X      Y      Z        X      Y      Z        X      Y      Z
   1   6    -0.11   0.06  -0.10     0.14  -0.03   0.08    -0.03  -0.01  -0.03
   2   6     0.08  -0.01   0.09    -0.05   0.03  -0.11     0.01  -0.00   0.03
   3   6    -0.02   0.04  -0.02    -0.03  -0.02   0.08    -0.03   0.01   0.01
   4   6    -0.18   0.06  -0.16     0.13  -0.08   0.22    -0.03   0.03  -0.02
   5   7    -0.01  -0.02   0.07    -0.04   0.04  -0.51     0.04   0.01   0.00
   6   6    -0.08  -0.09   0.10    -0.07  -0.15   0.27    -0.02  -0.04   0.02
   7   6    -0.04  -0.02  -0.00     0.01   0.03   0.08    -0.02  -0.01   0.01
   8   6     0.01   0.04  -0.06     0.03   0.07  -0.13     0.01   0.02  -0.02
   9   6    -0.03  -0.06   0.07    -0.10  -0.11   0.12    -0.02  -0.01   0.03
  10   6     0.04   0.02  -0.06     0.03   0.06  -0.14     0.01   0.01  -0.03
  11   6    -0.01  -0.04  -0.01     0.04  -0.01   0.07    -0.02  -0.02  -0.00
  12   6     0.04  -0.02  -0.02     0.01   0.06   0.27     0.05   0.01  -0.01
  13   6     0.10   0.04  -0.01     0.01  -0.04   0.04     0.03  -0.02   0.01
  14   6     0.08   0.08  -0.01     0.00   0.00  -0.12     0.03  -0.04   0.01
  15   6     0.06   0.05  -0.04    -0.01   0.12   0.19    -0.02  -0.02  -0.00
  16   6     0.05  -0.13   0.02     0.00  -0.00   0.08    -0.05  -0.01   0.00
  17   6    -0.08  -0.09   0.04    -0.00  -0.05  -0.08     0.11  -0.07   0.02
  18   7    -0.12   0.11  -0.05    -0.01   0.03   0.07     0.11  -0.16   0.04
  19   6    -0.06   0.12  -0.03    -0.00   0.02   0.01     0.13  -0.06   0.02
  20   7    -0.03  -0.05   0.01     0.00  -0.01  -0.03     0.11   0.21  -0.06
  21   6    -0.02  -0.07   0.02     0.01  -0.00  -0.01    -0.04   0.08  -0.02
  22   6    -0.04  -0.04   0.01    -0.00   0.01   0.00    -0.17   0.18  -0.05
  23   7    -0.05   0.09  -0.04    -0.00   0.04   0.04    -0.16  -0.00  -0.00
  24   6    -0.01   0.09  -0.01    -0.01  -0.00  -0.06    -0.12  -0.01   0.01
  25   7     0.02  -0.14   0.05    -0.01  -0.06  -0.04    -0.12  -0.03   0.01
  26   6    -0.10  -0.11   0.04    -0.02  -0.03  -0.02    -0.10   0.25  -0.07
  27   6    -0.23  -0.11   0.04    -0.03  -0.02  -0.01     0.05   0.33  -0.10
  28   6    -0.12   0.19  -0.06    -0.01   0.03   0.02     0.04   0.27  -0.09
  29   6    -0.07   0.17  -0.05    -0.00   0.01  -0.03     0.29  -0.09   0.02
  30   6     0.17   0.17  -0.05     0.02   0.02  -0.00     0.16  -0.13   0.04
  31   6     0.28   0.14  -0.05     0.03   0.03   0.01     0.06  -0.09   0.02
  32   6     0.18   0.11  -0.03     0.02   0.01  -0.03    -0.21  -0.16   0.06
  33   6     0.04  -0.24   0.07     0.00  -0.03   0.02    -0.19  -0.19   0.06
  34   6     0.01  -0.21   0.06     0.01  -0.03   0.03    -0.08  -0.19   0.06
  35   6     0.01  -0.18   0.05    -0.00  -0.03   0.01     0.10  -0.10   0.03
  36   6     0.07   0.08   0.00     0.00   0.00  -0.11     0.04   0.02  -0.01
  37   6     0.08  -0.01  -0.01     0.04  -0.04   0.03     0.04   0.02  -0.01
  38   6    -0.04  -0.01  -0.01    -0.03   0.02   0.09    -0.02   0.00  -0.01
  39   6     0.06  -0.04   0.10    -0.06   0.04  -0.10     0.02  -0.02   0.01
  40   1    -0.03   0.02  -0.04     0.04  -0.01   0.03    -0.01  -0.00  -0.01
  41   1     0.08  -0.03   0.08    -0.07   0.05  -0.10     0.02  -0.00   0.02
  42   1     0.04  -0.01   0.04    -0.07   0.04  -0.02     0.00  -0.00   0.01
  43   1    -0.00   0.02  -0.03     0.06   0.05  -0.04    -0.01   0.01  -0.01
  44   1     0.02   0.05  -0.05     0.05   0.07  -0.12     0.01   0.02  -0.02
  45   1    -0.01  -0.02   0.03    -0.03  -0.03   0.04    -0.00  -0.00   0.01
  46   1     0.03   0.03  -0.05     0.04   0.08  -0.12     0.02   0.01  -0.02
  47   1     0.01   0.00  -0.03     0.04   0.07  -0.03    -0.00  -0.00  -0.01
  48   1     0.04   0.01   0.00     0.03  -0.06  -0.08    -0.00  -0.00   0.01
  49   1     0.03   0.04  -0.00     0.02  -0.03  -0.14     0.01  -0.00   0.01
  50   1    -0.07  -0.06   0.03    -0.01  -0.03  -0.05     0.06   0.00   0.00
  51   1    -0.04  -0.05   0.02    -0.00  -0.01   0.00     0.04   0.07  -0.02
  52   1     0.02   0.06  -0.02     0.00   0.01   0.01    -0.08   0.07  -0.02
  53   1    -0.04  -0.01   0.00    -0.00  -0.00  -0.01     0.06  -0.07   0.02
  54   1     0.08   0.03  -0.01     0.01   0.01   0.01     0.03   0.02  -0.01
  55   1     0.00   0.09  -0.02    -0.00   0.01  -0.02    -0.09  -0.01   0.01
  56   1    -0.04  -0.08   0.02    -0.01  -0.01   0.01    -0.07  -0.06   0.02
  57   1     0.00   0.03   0.01    -0.01  -0.04  -0.14     0.03   0.00   0.00
  58   1     0.02  -0.00   0.00    -0.00  -0.07  -0.08     0.01   0.01   0.00
  59   1     0.03  -0.02   0.04    -0.08   0.01  -0.02     0.00  -0.01   0.01
  60   1     0.07  -0.04   0.08    -0.08   0.02  -0.10     0.02  -0.01   0.02
                     43                     44                     45
                        a                      a                      a 
[...]
  10   6     0.01   0.05   0.04    -0.02  -0.07  -0.06     0.00   0.00   0.00
  11   6     0.07   0.00   0.04    -0.09  -0.00  -0.05     0.01   0.00   0.01
  12   6    -0.00  -0.00   0.00    -0.00  -0.00   0.00     0.00   0.00  -0.00
  13   6    -0.02  -0.06   0.02    -0.02  -0.05   0.02     0.05   0.17  -0.07
  14   6    -0.02   0.01  -0.01    -0.02   0.02  -0.01     0.06  -0.05   0.03
  15   6    -0.00   0.00  -0.00    -0.00   0.00  -0.00     0.00  -0.00   0.00
  16   6    -0.00   0.00  -0.00     0.00  -0.00   0.00     0.00  -0.00   0.00
  17   6    -0.03   0.04  -0.01     0.01  -0.02   0.00     0.05  -0.08   0.02
  18   7    -0.00   0.00  -0.00     0.00  -0.00   0.00     0.00  -0.00   0.00
  19   6     0.00  -0.00   0.00    -0.00   0.00  -0.00    -0.00   0.00  -0.00
  20   7    -0.00   0.00  -0.00     0.00  -0.00   0.00     0.00  -0.00   0.00
  21   6     0.00  -0.00   0.00     0.00   0.00  -0.00    -0.00   0.00  -0.00
  22   6    -0.00  -0.00   0.00    -0.00  -0.00   0.00     0.00   0.00  -0.00
  23   7     0.00  -0.00  -0.00    -0.00   0.00  -0.00    -0.00  -0.00   0.00
  24   6    -0.00  -0.00   0.00     0.00   0.00   0.00     0.00   0.00   0.00
  25   7     0.00  -0.00   0.00    -0.00  -0.00   0.00    -0.00   0.00  -0.00
  26   6     0.00  -0.00  -0.00    -0.00   0.00   0.00    -0.00   0.00   0.00
  27   6     0.00   0.00  -0.00    -0.00  -0.00   0.00    -0.00  -0.00   0.00
  28   6    -0.00   0.00  -0.00    -0.00   0.00  -0.00    -0.00   0.00  -0.00
  29   6    -0.00   0.00  -0.00    -0.00   0.00  -0.00    -0.00   0.00  -0.00
  30   6    -0.00  -0.00   0.00    -0.00  -0.00   0.00    -0.00  -0.00   0.00
  31   6    -0.00   0.00  -0.00     0.00  -0.00   0.00     0.00  -0.00   0.00
  32   6    -0.00  -0.00  -0.00     0.00   0.00  -0.00     0.00   0.00  -0.00
  33   6     0.00  -0.00   0.00     0.00  -0.00   0.00    -0.00   0.00  -0.00
  34   6    -0.00  -0.00   0.00     0.00  -0.00   0.00     0.00   0.00   0.00
  35   6    -0.00  -0.00   0.00     0.00   0.00  -0.00     0.00   0.00  -0.00
  36   6    -0.00  -0.01   0.00    -0.00  -0.00   0.00    -0.00  -0.01   0.01
  37   6     0.01  -0.01   0.01    -0.01   0.01  -0.01    -0.05   0.05  -0.02
  38   6    -0.06   0.08   0.09    -0.04   0.06   0.07    -0.02   0.03   0.03
  39   6    -0.07  -0.04   0.06    -0.04  -0.02   0.03    -0.03  -0.02   0.03
  40   1    -0.05  -0.14  -0.01    -0.04  -0.13  -0.01     0.00   0.01   0.00
  41   1     0.13  -0.19  -0.22     0.08  -0.11  -0.13     0.06  -0.09  -0.10
  42   1     0.21   0.11  -0.18     0.10   0.05  -0.09     0.19   0.10  -0.16
  43   1    -0.05  -0.22  -0.19     0.09   0.40   0.35     0.00   0.01   0.01
  44   1    -0.19  -0.01  -0.11     0.24   0.02   0.13    -0.01  -0.00  -0.01
  45   1     0.03  -0.02  -0.01    -0.10   0.10   0.02    -0.02   0.02   0.00
  46   1    -0.04  -0.17  -0.15     0.06   0.25   0.21    -0.00  -0.01  -0.01
  47   1    -0.24  -0.01  -0.14     0.30   0.02   0.17    -0.05  -0.00  -0.03
  48   1     0.06   0.21  -0.09     0.06   0.19  -0.08    -0.18  -0.63   0.26
  49   1     0.06  -0.06   0.03     0.07  -0.06   0.03    -0.22   0.20  -0.10
  50   1     0.11  -0.15   0.04    -0.04   0.06  -0.02    -0.20   0.26  -0.07
  51   1    -0.00  -0.00   0.00     0.00   0.00  -0.00     0.01   0.01  -0.00
  52   1     0.00  -0.00   0.00     0.00  -0.01   0.00     0.00  -0.01   0.00
  53   1     0.00  -0.00   0.00     0.01  -0.00   0.00     0.01  -0.00   0.00
  54   1     0.00  -0.00   0.00    -0.01   0.00  -0.00    -0.01   0.00  -0.00
  55   1    -0.00  -0.00   0.00    -0.00  -0.00   0.00    -0.01  -0.01   0.00
  56   1    -0.00   0.00  -0.00    -0.00   0.00  -0.00     0.00  -0.00   0.00
  57   1     0.01   0.02  -0.01     0.00   0.02  -0.01     0.02   0.06  -0.02
  58   1    -0.05   0.05  -0.02     0.05  -0.04   0.02     0.18  -0.17   0.08
  59   1     0.20  -0.28  -0.33     0.15  -0.21  -0.25     0.07  -0.10  -0.12
  60   1     0.24   0.12  -0.20     0.13   0.06  -0.11     0.11   0.05  -0.09
                    166                    167                    168
                        a                      a                      a 
 Frequencies --  3088.5106              3089.5185              3090.1683
 Red. masses --     1.8528                 1.7917                 1.8417
 Frc consts  --     0.0000                 0.0000                 0.0000
 IR Inten    --    10.4089                 5.0909               157.3854
 Raman Activ --     0.0000                 0.0000                 0.0000
 Depolar     --     0.0000                 0.0000                 0.0000
 Atom AN      X      Y      Z        X      Y      Z        X      Y      Z
   1   6    -0.00  -0.00  -0.00    -0.00  -0.00  -0.00    -0.00  -0.00  -0.00
   2   6     0.00  -0.00  -0.00    -0.00   0.01   0.01    -0.00   0.00   0.00
   3   6     0.00   0.00  -0.00    -0.02  -0.01   0.01    -0.00  -0.00   0.00
   4   6    -0.00  -0.00   0.00    -0.00  -0.00  -0.00     0.00   0.00  -0.00
   5   7     0.00  -0.00  -0.00    -0.00  -0.00  -0.00    -0.00  -0.00   0.00
   6   6    -0.00   0.00   0.00    -0.00   0.00   0.00     0.00  -0.00   0.00
   7   6     0.00   0.00   0.00    -0.00  -0.02  -0.02    -0.00  -0.00  -0.00
   8   6     0.00   0.00   0.00    -0.02  -0.00  -0.01    -0.00  -0.00  -0.00
   9   6    -0.00   0.00   0.00    -0.01   0.01   0.00    -0.00   0.00   0.00
  10   6     0.00   0.00   0.00    -0.00  -0.01  -0.01    -0.00  -0.00  -0.00
  11   6     0.00   0.00   0.00    -0.04  -0.00  -0.02    -0.00  -0.00  -0.00
  12   6    -0.00  -0.00   0.00     0.01   0.00  -0.00     0.00   0.00  -0.00
  13   6    -0.00  -0.00   0.00     0.02   0.09  -0.04     0.00   0.00  -0.00
  14   6    -0.00   0.00  -0.00     0.03  -0.03   0.01     0.00  -0.00   0.00
  15   6    -0.00   0.00  -0.00     0.00   0.00  -0.00    -0.00  -0.00   0.00
  16   6    -0.00   0.00  -0.00    -0.01   0.00  -0.00    -0.00   0.00  -0.00
  17   6    -0.00   0.00  -0.00    -0.08   0.11  -0.03    -0.00  -0.00   0.00
  18   7     0.00   0.00  -0.00    -0.00   0.00  -0.00     0.00   0.00  -0.00
  19   6    -0.00  -0.00  -0.00     0.00  -0.00   0.00     0.00  -0.00   0.00
  20   7     0.00   0.00   0.00    -0.00   0.00  -0.00    -0.00  -0.00   0.00
  21   6    -0.00   0.00  -0.00     0.00  -0.00   0.00     0.00   0.00  -0.00
  22   6     0.00  -0.00   0.00    -0.00   0.00   0.00    -0.00  -0.00   0.00
  23   7     0.00   0.00  -0.00     0.00  -0.00   0.00     0.00   0.00  -0.00
  24   6     0.00  -0.00   0.00    -0.00  -0.00  -0.00     0.00  -0.00   0.00
  25   7    -0.00  -0.00   0.00     0.00  -0.00   0.00    -0.00  -0.00   0.00
  26   6    -0.00   0.00  -0.00     0.00  -0.00  -0.00    -0.00   0.00  -0.00
  27   6    -0.08  -0.07   0.02     0.00   0.00  -0.00    -0.06  -0.05   0.02
  28   6    -0.01   0.12  -0.04     0.00  -0.00   0.00    -0.01   0.05  -0.01
  29   6    -0.16   0.07  -0.02    -0.00   0.00  -0.00    -0.10   0.04  -0.01
  30   6    -0.00  -0.01   0.00    -0.00  -0.00   0.00    -0.01   0.00  -0.00
  31   6     0.11  -0.03   0.01     0.00  -0.00   0.00    -0.18   0.05  -0.01
  32   6     0.05   0.04  -0.01     0.00   0.00  -0.00    -0.06  -0.05   0.02
  33   6     0.01  -0.05   0.02     0.00  -0.00   0.00    -0.02   0.11  -0.03
  34   6     0.00  -0.00   0.00    -0.00  -0.00  -0.00    -0.00   0.00  -0.00
  35   6     0.00   0.00  -0.00    -0.00  -0.00   0.00     0.00  -0.00   0.00
  36   6     0.00   0.00  -0.00     0.02   0.07  -0.03     0.00   0.00  -0.00
  37   6     0.00  -0.00   0.00     0.12  -0.11   0.05     0.00  -0.00   0.00
  38   6     0.00  -0.00  -0.00    -0.01   0.01   0.01    -0.00   0.00   0.00
  39   6     0.00   0.00  -0.00    -0.01  -0.00   0.01    -0.00  -0.00   0.00
  40   1     0.00   0.00   0.00     0.00   0.01   0.00     0.00   0.00   0.00
  41   1    -0.00   0.00   0.01     0.01  -0.02  -0.02     0.00  -0.00  -0.00
  42   1    -0.01  -0.00   0.01     0.06   0.03  -0.05     0.00   0.00  -0.00
  43   1    -0.00  -0.01  -0.01     0.01   0.07   0.06     0.00   0.00   0.00
  44   1    -0.00  -0.00  -0.00     0.07   0.00   0.04     0.00   0.00   0.00
  45   1     0.00  -0.00  -0.00     0.02  -0.02  -0.00     0.00  -0.00  -0.00
  46   1    -0.00  -0.00  -0.00     0.01   0.04   0.04     0.00   0.00   0.00
  47   1    -0.00  -0.00  -0.00     0.13   0.01   0.07     0.00   0.00   0.00
  48   1     0.00   0.01  -0.00    -0.09  -0.33   0.14    -0.00  -0.00   0.00
  49   1     0.00  -0.00   0.00    -0.12   0.11  -0.05    -0.00   0.00  -0.00
  50   1     0.00  -0.00   0.00     0.29  -0.39   0.11    -0.00   0.00  -0.00
  51   1     0.31   0.23  -0.08    -0.00  -0.00   0.00     0.21   0.16  -0.05
  52   1     0.05  -0.40   0.12    -0.00   0.00  -0.00     0.02  -0.17   0.05
  53   1     0.54  -0.24   0.06     0.00  -0.00   0.00     0.33  -0.15   0.04
  54   1    -0.36   0.11  -0.03    -0.00   0.00  -0.00     0.63  -0.18   0.04
  55   1    -0.16  -0.14   0.05    -0.00  -0.00   0.00     0.20   0.17  -0.06
  56   1    -0.04   0.19  -0.06    -0.00   0.01  -0.00     0.08  -0.41   0.12
  57   1    -0.00  -0.00   0.00    -0.07  -0.25   0.11    -0.00  -0.00   0.00
  58   1    -0.00   0.00  -0.00    -0.43   0.40  -0.19    -0.00   0.00  -0.00
  59   1    -0.00   0.01   0.01     0.02  -0.03  -0.03     0.00  -0.00  -0.00
  60   1    -0.01  -0.00   0.00     0.03   0.02  -0.03     0.00   0.00  -0.00
                    169                    170                    171
                        a                      a                      a 
 Frequencies --  3095.9870              3096.5229              3096.7098
 Red. masses --     1.9235                 1.8802                 1.9223
 Frc consts  --     0.0000                 0.0000                 0.0000
 IR Inten    --    91.5399                58.8445               130.4262
 Raman Activ --     0.0000                 0.0000                 0.0000
 Depolar     --     0.0000                 0.0000                 0.0000
 Atom AN      X      Y      Z        X      Y      Z        X      Y      Z
   1   6     0.02   0.05   0.01    -0.00  -0.01  -0.00    -0.06  -0.18  -0.02
   2   6    -0.01   0.02   0.02     0.00  -0.00  -0.01     0.05  -0.06  -0.08
   3   6    -0.01  -0.01   0.01     0.00   0.00  -0.00     0.05   0.03  -0.04
   4   6    -0.00  -0.00  -0.00     0.00   0.00   0.00     0.00   0.01   0.00
   5   7    -0.00   0.00   0.00    -0.00  -0.00  -0.00    -0.00  -0.00  -0.00
   6   6     0.01  -0.01  -0.00     0.00  -0.00  -0.00     0.00  -0.00  -0.00
   7   6    -0.02  -0.07  -0.06    -0.00  -0.00  -0.00    -0.00  -0.02  -0.02
   8   6    -0.11  -0.01  -0.06    -0.00  -0.00  -0.00    -0.03  -0.00  -0.02
   9   6    -0.13   0.12   0.03    -0.00   0.00   0.00    -0.03   0.03   0.01
  10   6     0.02   0.09   0.07     0.00   0.00   0.00     0.01   0.02   0.02
  11   6     0.07   0.00   0.04     0.00   0.00   0.00     0.02   0.00   0.01
  12   6     0.00   0.00  -0.00     0.00   0.00  -0.00     0.00   0.00  -0.00
  13   6    -0.00  -0.00   0.00    -0.00  -0.00   0.00    -0.00  -0.00   0.00
  14   6    -0.00   0.00  -0.00    -0.00   0.00  -0.00    -0.01   0.00  -0.00
  15   6    -0.00  -0.00   0.00    -0.00  -0.00  -0.00    -0.00  -0.00   0.00
  16   6     0.00  -0.00   0.00     0.00  -0.00   0.00     0.00  -0.00   0.00
  17   6     0.00  -0.00   0.00    -0.00   0.00  -0.00     0.00  -0.00   0.00
  18   7     0.00  -0.00   0.00     0.00  -0.00   0.00    -0.00  -0.00   0.00
  19   6     0.00   0.00  -0.00    -0.00   0.00  -0.00     0.00   0.00  -0.00
  20   7     0.00  -0.00   0.00     0.00  -0.00   0.00    -0.00  -0.00   0.00
  21   6     0.00   0.00  -0.00    -0.00   0.00  -0.00     0.00   0.00  -0.00
  22   6    -0.00  -0.00   0.00     0.00   0.00  -0.00    -0.00  -0.00   0.00
  23   7     0.00   0.00  -0.00    -0.00  -0.00   0.00     0.00   0.00  -0.00
  24   6    -0.00  -0.00   0.00     0.00  -0.00   0.00    -0.00  -0.00   0.00
  25   7    -0.00   0.00  -0.00    -0.00   0.00  -0.00    -0.00   0.00  -0.00
  26   6     0.00  -0.00   0.00     0.00  -0.00   0.00    -0.00   0.00  -0.00
  27   6     0.00   0.00  -0.00     0.13   0.10  -0.03    -0.00  -0.00   0.00
  28   6    -0.00   0.00  -0.00    -0.01   0.08  -0.02     0.00  -0.00   0.00
  29   6    -0.00   0.00  -0.00    -0.04   0.02  -0.00     0.00  -0.00   0.00
  30   6     0.00   0.00  -0.00    -0.00  -0.00   0.00     0.00   0.00  -0.00
  31   6    -0.00   0.00  -0.00     0.06  -0.02   0.00    -0.01   0.00  -0.00
  32   6    -0.00  -0.00   0.00     0.07   0.06  -0.02    -0.01  -0.01   0.00
  33   6     0.00  -0.00   0.00    -0.03   0.17  -0.05     0.00  -0.02   0.01
  34   6     0.00  -0.00   0.00    -0.01   0.00  -0.00     0.00  -0.00   0.00
  35   6    -0.00   0.00  -0.00    -0.00  -0.00   0.00    -0.00   0.00  -0.00
  36   6    -0.00  -0.01   0.00    -0.00  -0.00   0.00    -0.00  -0.01   0.00
  37   6     0.00  -0.00   0.00     0.00  -0.00   0.00     0.00  -0.00   0.00
  38   6     0.01  -0.01  -0.01    -0.00   0.00   0.00    -0.04   0.05   0.06
  39   6     0.02   0.01  -0.02    -0.01  -0.00   0.01    -0.09  -0.05   0.08
  40   1    -0.05  -0.16  -0.02     0.01   0.04   0.00     0.19   0.60   0.06
  41   1     0.04  -0.05  -0.06    -0.01   0.01   0.02    -0.15   0.21   0.25
  42   1     0.04   0.02  -0.03    -0.01  -0.01   0.01    -0.17  -0.09   0.14
  43   1     0.06   0.24   0.21     0.00   0.01   0.01     0.02   0.07   0.06
  44   1     0.37   0.02   0.21     0.01   0.00   0.01     0.09   0.01   0.05
  45   1     0.42  -0.42  -0.09     0.01  -0.01  -0.00     0.10  -0.10  -0.02
  46   1    -0.07  -0.28  -0.24    -0.00  -0.01  -0.01    -0.02  -0.07  -0.06
  47   1    -0.23  -0.01  -0.13    -0.01  -0.00  -0.00    -0.06  -0.00  -0.03
  48   1     0.00   0.00  -0.00     0.00   0.00  -0.00     0.00   0.00  -0.00
  49   1     0.01  -0.01   0.00     0.00  -0.00   0.00     0.02  -0.02   0.01
  50   1    -0.01   0.01  -0.00     0.00  -0.00   0.00    -0.01   0.01  -0.00
  51   1    -0.00  -0.00   0.00    -0.44  -0.33   0.11     0.01   0.01  -0.00
  52   1     0.00  -0.00   0.00     0.03  -0.26   0.08    -0.00   0.01  -0.00
  53   1     0.00  -0.00   0.00     0.13  -0.05   0.01    -0.00   0.00  -0.00
  54   1     0.00  -0.00   0.00    -0.19   0.06  -0.01     0.02  -0.01   0.00
  55   1     0.00   0.00  -0.00    -0.23  -0.20   0.06     0.02   0.02  -0.01
  56   1    -0.00   0.01  -0.00     0.11  -0.58   0.17    -0.01   0.06  -0.02
  57   1     0.01   0.03  -0.01     0.00   0.01  -0.00     0.01   0.04  -0.02
  58   1    -0.01   0.01  -0.00    -0.00   0.00  -0.00    -0.01   0.01  -0.01
  59   1    -0.03   0.04   0.04     0.01  -0.01  -0.01     0.12  -0.17  -0.20
  60   1    -0.08  -0.04   0.06     0.02   0.01  -0.02     0.31   0.15  -0.25
                    172                    173                    174
                        a                      a                      a 
 Frequencies --  3098.0477              3100.2869              3102.6086
 Red. masses --     1.8846                 1.8620                 1.8679
 Frc consts  --     0.0000                 0.0000                 0.0000
 IR Inten    --    52.7442                86.1305                 6.7140
 Raman Activ --     0.0000                 0.0000                 0.0000
 Depolar     --     0.0000                 0.0000                 0.0000
 Atom AN      X      Y      Z        X      Y      Z        X      Y      Z
   1   6     0.00   0.01   0.00     0.00   0.01   0.00     0.00   0.01   0.00
   2   6    -0.00   0.00   0.00    -0.00   0.00   0.00    -0.00   0.00   0.00
   3   6    -0.00  -0.00   0.00     0.00   0.00  -0.00    -0.00  -0.00   0.00
   4   6    -0.00  -0.00  -0.00    -0.00   0.00   0.00    -0.00  -0.00  -0.00
   5   7    -0.00   0.00   0.00    -0.00  -0.00  -0.00    -0.00   0.00   0.00
   6   6    -0.00   0.00   0.00    -0.00   0.00   0.00    -0.00  -0.00  -0.00
   7   6     0.00   0.00   0.00     0.00   0.00   0.00     0.00   0.00   0.00
   8   6     0.00   0.00   0.00     0.00   0.00   0.00     0.00   0.00   0.00
   9   6     0.00  -0.00  -0.00     0.00  -0.00  -0.00     0.00  -0.00  -0.00
  10   6    -0.00  -0.00  -0.00    -0.00  -0.00  -0.00    -0.00  -0.00  -0.00
  11   6    -0.00  -0.00  -0.00    -0.01  -0.00  -0.01    -0.00  -0.00  -0.00
  12   6    -0.00  -0.00   0.00     0.00   0.00  -0.00     0.01   0.00   0.00
  13   6     0.00   0.00  -0.00    -0.01  -0.03   0.01     0.03   0.10  -0.04
  14   6     0.00  -0.00   0.00     0.07  -0.06   0.03    -0.16   0.15  -0.07
  15   6     0.00   0.00  -0.00    -0.00  -0.00   0.00    -0.01  -0.00   0.00
  16   6     0.00   0.00  -0.00     0.00  -0.00   0.00     0.00   0.00  -0.00
  17   6    -0.00   0.00  -0.00     0.03  -0.04   0.01     0.01  -0.01   0.00
  18   7     0.00   0.00  -0.00     0.00  -0.00   0.00     0.00  -0.00   0.00
  19   6    -0.00  -0.00   0.00    -0.00   0.00  -0.00     0.00  -0.00   0.00
  20   7    -0.00  -0.00   0.00     0.00  -0.00   0.00     0.00  -0.00   0.00
  21   6     0.00   0.00  -0.00    -0.00   0.00  -0.00    -0.00   0.00  -0.00
  22   6    -0.00  -0.00   0.00     0.00   0.00  -0.00    -0.00  -0.00  -0.00
  23   7     0.00   0.00  -0.00    -0.00   0.00   0.00    -0.00   0.00  -0.00
  24   6     0.00   0.00  -0.00    -0.00  -0.00   0.00     0.00   0.00   0.00
  25   7    -0.00  -0.00   0.00     0.00   0.00  -0.00    -0.00  -0.00   0.00
  26   6     0.01  -0.00   0.00     0.00  -0.00   0.00     0.00  -0.00   0.00
  27   6     0.13   0.10  -0.03     0.01   0.01  -0.00     0.00   0.00  -0.00
  28   6    -0.01   0.10  -0.03    -0.00   0.01  -0.00    -0.00   0.00  -0.00
  29   6    -0.06   0.03  -0.01    -0.00   0.00  -0.00    -0.00   0.00  -0.00
  30   6    -0.00   0.00  -0.00    -0.00   0.00  -0.00    -0.00   0.00  -0.00
  31   6    -0.07   0.02  -0.01    -0.00   0.00  -0.00    -0.00   0.00  -0.00
  32   6    -0.06  -0.06   0.02    -0.00  -0.00   0.00    -0.00  -0.00   0.00
  33   6     0.03  -0.14   0.04     0.00  -0.01   0.00     0.00  -0.00   0.00
  34   6     0.01  -0.00   0.00     0.00  -0.00   0.00     0.00  -0.00   0.00
  35   6    -0.00   0.00  -0.00    -0.00   0.00  -0.00     0.00  -0.00   0.00
  36   6     0.00   0.02  -0.01    -0.05  -0.19   0.08    -0.02  -0.08   0.03
  37   6    -0.01   0.01  -0.00     0.10  -0.09   0.04     0.04  -0.04   0.02
  38   6     0.00  -0.00  -0.00     0.00  -0.00  -0.00     0.00  -0.00  -0.00
  39   6     0.00   0.00  -0.00     0.00   0.00  -0.00     0.00   0.00  -0.00
  40   1    -0.01  -0.02  -0.00    -0.01  -0.02  -0.00    -0.01  -0.02  -0.00
  41   1     0.01  -0.01  -0.01     0.00  -0.01  -0.01     0.01  -0.01  -0.01
  42   1     0.01   0.00  -0.00    -0.00  -0.00   0.00     0.02   0.01  -0.01
  43   1    -0.00  -0.01  -0.00    -0.00  -0.01  -0.01    -0.00  -0.01  -0.01
  44   1    -0.01  -0.00  -0.00    -0.01  -0.00  -0.01    -0.01  -0.00  -0.01
  45   1    -0.01   0.01   0.00    -0.01   0.01   0.00    -0.01   0.01   0.00
  46   1     0.00   0.01   0.01     0.00   0.01   0.01     0.00   0.01   0.01
  47   1     0.00   0.00   0.00     0.03   0.00   0.02     0.01   0.00   0.01
  48   1    -0.00  -0.00   0.00     0.03   0.11  -0.05    -0.10  -0.33   0.14
  49   1    -0.01   0.01  -0.00    -0.24   0.21  -0.10     0.57  -0.52   0.25
  50   1     0.00  -0.00   0.00    -0.11   0.15  -0.04    -0.03   0.04  -0.01
  51   1    -0.46  -0.35   0.12    -0.03  -0.02   0.01    -0.02  -0.01   0.00
  52   1     0.04  -0.32   0.10     0.00  -0.02   0.01     0.00  -0.01   0.00
  53   1     0.21  -0.09   0.02     0.01  -0.01   0.00     0.01  -0.00   0.00
  54   1     0.23  -0.07   0.02     0.02  -0.00   0.00     0.01  -0.00   0.00
  55   1     0.21   0.18  -0.06     0.02   0.01  -0.00     0.01   0.01  -0.00
  56   1    -0.09   0.48  -0.14    -0.01   0.03  -0.01    -0.00   0.02  -0.01
  57   1    -0.02  -0.06   0.02     0.18   0.65  -0.28     0.07   0.27  -0.11
  58   1     0.03  -0.02   0.01    -0.32   0.30  -0.15    -0.12   0.12  -0.06
  59   1    -0.00   0.01   0.01    -0.01   0.01   0.01    -0.00   0.01   0.01
  60   1    -0.01  -0.01   0.01    -0.01  -0.01   0.01    -0.01  -0.00   0.01
