$hessian                                                                        
        0.1753422019  -0.2428356884   0.0743442409  -0.1477231922   0.1853133797
       -0.0376599479  -0.0409947837   0.0594058821  -0.0377007296   0.0127600871
        0.0058605811  -0.0013112027  -0.0036429199  -0.0037080391  -0.0035357383
       -0.0001634561   0.0022475509   0.0014422308  -0.0011103213  -0.0025267440
       -0.0012400443   0.0013996730   0.0013603767   0.0008882360  -0.0004802768
       -0.0002281669   0.0001682634   0.0007708030   0.0008286988   0.0000949886
       -0.0003450567  -0.0010264991   0.0001205991   0.0001759738  -0.0001604164
       -0.0001857240  -0.0000634722   0.0000470767  -0.0000337311   0.0000498053
        0.0000344485   0.0000036699   0.0000072486  -0.0000000874   0.0000119495
        0.0000300360  -0.0000046805   0.0000422085  -0.0001434853  -0.0000019338
        0.0000160840  -0.0004135660   0.0007688927  -0.0002677542   0.0005311723
       -0.0001074134   0.0002258523   0.0000013004   0.0003851926  -0.0001033471
        0.0004722315  -0.0005842545   0.0003011848  -0.0006439083   0.0008438420
       -0.0002352737   0.0005742635  -0.0001216295   0.0003003732  -0.0000199354
       -0.0003361918  -0.0002371220  -0.0003247703   0.0002090517  -0.0003264709
       -0.0000505495  -0.0004613299   0.0001224103  -0.0009000378  -0.0000373962
       -0.0003928458   0.0004357787  -0.0000079307   0.0001215449  -0.0002454276
       -0.0000689995  -0.0000565788   0.0001136140   0.0000346146   0.0000438289
       -0.0000959220  -0.0000390454  -0.0001138322   0.0002545619   0.0001048553
        0.0001115257   0.0017269563   0.0010618588   0.0019854898   0.0011608264
       -0.0045670201  -0.0018639088   0.0007641510  -0.0004134633   0.0040661886
        0.0010002238  -0.0007224932   0.0006743748   0.0000307673   0.0000702638
       -0.0000100014   0.0000071389   0.0000392953  -0.0000152528   0.0000214635
        0.0000113290   0.0000994392   0.0000110015  -0.0000149104   0.0000088607
       -0.0000000877  -0.0000090724   0.0000026288  -0.0000000938  -0.0000071978
       -0.0000024728  -0.0000020701  -0.0000011049  -0.0000138344   0.0000214768
        0.0000092269  -0.0000058359  -0.0000348231   0.0000174724  -0.0000199215
        0.0000086566   0.0000302766   0.0000284876  -0.0000446876  -0.0000143244
        0.0000949496  -0.0000915446  -0.0000395130  -0.0000770269  -0.0000647081
       -0.0000449527  -0.0000604909   0.0000159377   0.0000351966  -0.0000170409
        0.0000653081   0.0000107990  -0.0000220768   0.0000297151   0.0000005563
        0.0000052154   0.0000099196   0.0000215578   0.0000260087  -0.0000258247
        0.0000116290  -0.0000236831  -0.0001436309  -0.0001719089   0.0001629696
       -0.0000237417  -0.0005014974   0.0000180847
       -0.2428356884   0.6264251594  -0.0917200252   0.1887807619  -0.5236841094
        0.0717132279   0.0415373729  -0.0194804760   0.0239444642   0.0097290724
       -0.0807063507  -0.0056120794   0.0105623346   0.0030295929   0.0080356152
        0.0011273655  -0.0052897133  -0.0006323132   0.0035203671   0.0060181592
        0.0035720879  -0.0028703450  -0.0032722922  -0.0021889920   0.0009984667
        0.0007591977  -0.0006525755  -0.0017830182  -0.0019077284  -0.0003762703
        0.0005341692   0.0026878142  -0.0002836071  -0.0004916070   0.0004135418
        0.0004978938   0.0001819232  -0.0002364581   0.0001478258  -0.0001257677
       -0.0001112515   0.0000808134  -0.0000095264   0.0000013346  -0.0000048782
        0.0000401992   0.0001061397  -0.0001974663   0.0003716026   0.0000774901
       -0.0001063068   0.0011803134  -0.0019517918   0.0008339296  -0.0012263049
        0.0005577461  -0.0007453763   0.0002227905  -0.0010803791   0.0003911395
       -0.0011634244   0.0021238142  -0.0010459095   0.0013830426  -0.0035885709
        0.0010896060  -0.0014697945   0.0006384180  -0.0010873449   0.0006356228
        0.0016973475   0.0007959363   0.0006971241  -0.0009710167   0.0010270830
        0.0000144133   0.0014649487  -0.0003564846   0.0022128205   0.0000128760
        0.0010374696  -0.0010593701  -0.0001806116  -0.0003065714   0.0006481875
        0.0000449677  -0.0000519804  -0.0002060153  -0.0001224651  -0.0001642244
        0.0001246481   0.0001906895   0.0004187087  -0.0007614988  -0.0000739552
       -0.0001612510  -0.0044382014  -0.0063882048  -0.0030147623  -0.0061443817
        0.0042767827  -0.0043771480   0.0016899373  -0.0003845052   0.0016699177
       -0.0011221788   0.0001639720  -0.0007387776  -0.0000746283  -0.0000618881
       -0.0001227785  -0.0000517094  -0.0002767464   0.0000342063  -0.0000100614
       -0.0001367082  -0.0002069075  -0.0000919143   0.0000289231  -0.0000047271
        0.0000670152   0.0000209634  -0.0000344389   0.0000576242  -0.0000260637
        0.0000189260   0.0000223056  -0.0000560993   0.0000696542  -0.0001442556
        0.0000119005  -0.0000395827   0.0000324625  -0.0000863258   0.0001037876
       -0.0000643718  -0.0000768811  -0.0000609468  -0.0001103071  -0.0000721767
       -0.0002636465   0.0001680043   0.0000328260  -0.0001440228   0.0000323574
       -0.0001764388   0.0000908619   0.0001078360   0.0000371341  -0.0000002890
       -0.0001750711   0.0000315581   0.0000783232  -0.0001287835  -0.0000061387
       -0.0000570118  -0.0000728560  -0.0001059583  -0.0001345481   0.0001390664
       -0.0000736563   0.0000113566  -0.0002358826  -0.0008823349  -0.0003522189
        0.0000477566   0.0006139992  -0.0004173716
        0.0743442409  -0.0917200252   0.0653989841  -0.0374376756   0.0692790807
       -0.0769358276  -0.0398535249   0.0365303968  -0.0002804891  -0.0005674445
       -0.0086240298   0.0138670727  -0.0016479386  -0.0023724832  -0.0011695609
        0.0008020607   0.0011708975   0.0000005467  -0.0003411492  -0.0011974900
       -0.0003687714   0.0004871610   0.0005636560   0.0006066806  -0.0002281243
        0.0000118786   0.0000751137   0.0002923466   0.0003062864  -0.0000097724
       -0.0001757694  -0.0004604406   0.0001067719   0.0000543454  -0.0000681329
       -0.0000873161  -0.0000291942  -0.0000263402  -0.0000192941   0.0000251343
       -0.0000077326   0.0000192624   0.0000014363  -0.0000133981   0.0000162696
        0.0000269985   0.0000157605   0.0000022323  -0.0000331263   0.0000222983
       -0.0000085763  -0.0002296600   0.0003723264  -0.0001332422   0.0002606641
       -0.0000400107   0.0001116883   0.0000190864   0.0001636902  -0.0000165621
        0.0002907244  -0.0003901833   0.0001737224   0.0000426589   0.0008772301
        0.0002928432   0.0000821916  -0.0001153220   0.0000015569  -0.0000877157
       -0.0005684170  -0.0005141112  -0.0000391810   0.0002742002  -0.0002638847
       -0.0000991234  -0.0003016574  -0.0000278553  -0.0003372642  -0.0000433361
       -0.0001671780   0.0001827306  -0.0000723541   0.0000142244  -0.0000664406
       -0.0000391693  -0.0000293298   0.0000346194   0.0000085142   0.0000137465
       -0.0000666624  -0.0000045923  -0.0000138623   0.0000912690   0.0001162272
        0.0000900176   0.0015853906   0.0000744409  -0.0002402051  -0.0020560305
       -0.0031303185   0.0008175181   0.0042933303   0.0002894271  -0.0019047946
        0.0006520492  -0.0004773647   0.0004119696  -0.0000028027   0.0000456206
        0.0000068319  -0.0000083701  -0.0000160237  -0.0000093397   0.0000257689
       -0.0000152778   0.0000446020  -0.0000137073   0.0000062826   0.0000158490
       -0.0000019194   0.0000045367  -0.0000051598   0.0000081152  -0.0000011407
       -0.0000039707   0.0000071037  -0.0000127897  -0.0000068916  -0.0000053994
        0.0000078053  -0.0000124516  -0.0000212797  -0.0000299034  -0.0000112797
       -0.0000191167   0.0000090550   0.0000027609  -0.0000557374   0.0000155133
        0.0001825839  -0.0001623278  -0.0000073888   0.0001292551  -0.0000306491
        0.0000581889  -0.0000230493   0.0000324128   0.0000053261  -0.0000284006
       -0.0000002516   0.0000052045  -0.0000126801   0.0000026024  -0.0000008256
       -0.0000052005  -0.0000074286   0.0000055875  -0.0000024012  -0.0000034529
        0.0000044593  -0.0000113047   0.0001100923  -0.0001864980  -0.0001933399
       -0.0001260661  -0.0003012450   0.0001139987
       -0.1477231922   0.1887807619  -0.0374376756   0.4222143067  -0.1374163782
        0.1640666335  -0.1677822607   0.0081155449  -0.0822857177  -0.0771563103
       -0.0381886191  -0.0140625246  -0.0181760842  -0.0199127089  -0.0152415454
       -0.0014734340   0.0046008213  -0.0056480058  -0.0022640808  -0.0029725417
       -0.0018910368   0.0004905644   0.0018089464   0.0015514546  -0.0000400613
       -0.0005807876   0.0004166576   0.0005595187   0.0007669106   0.0002239558
        0.0000139740  -0.0011319431   0.0001168608   0.0002129522  -0.0001748523
       -0.0002122688  -0.0000715466   0.0001401422  -0.0000616836   0.0000060455
        0.0000302439  -0.0000846323  -0.0000518922   0.0000143477  -0.0000701089
       -0.0001109593  -0.0000981006   0.0000760143  -0.0001554018  -0.0000984454
       -0.0000183304  -0.0005887918   0.0009574202  -0.0004524556   0.0004195160
       -0.0003469630   0.0003810067  -0.0002223756   0.0005677186  -0.0002827404
        0.0002819939  -0.0011167470   0.0005951506  -0.0006299281   0.0014208628
       -0.0011011770   0.0007441286  -0.0001736840   0.0007003055  -0.0006027126
       -0.0006758780   0.0001570986  -0.0004262709   0.0004522073  -0.0004493494
        0.0004690826  -0.0007392484   0.0001970265  -0.0010955287  -0.0000595611
       -0.0005990645   0.0004811667   0.0002320200   0.0001916949  -0.0003517478
        0.0000413691   0.0000955626   0.0000291836   0.0000802059   0.0000969358
       -0.0000592489  -0.0001465618  -0.0002989870   0.0003969783  -0.0000646953
       -0.0000457499   0.0048664460   0.0056575570  -0.0017231880   0.0061865364
       -0.0019091040   0.0059767089  -0.0153064833  -0.0098731790  -0.0144723569
       -0.0018908991  -0.0009449204   0.0003071678  -0.0003114739  -0.0007597794
       -0.0004514016   0.0000411185   0.0002241584   0.0000106142  -0.0000155299
        0.0000975509   0.0000649202   0.0000867842  -0.0000106208   0.0000196020
       -0.0000600082  -0.0000097741   0.0000592040  -0.0000607161   0.0000375258
        0.0000107948  -0.0000250596   0.0000702130  -0.0000294401   0.0001220966
        0.0000053230   0.0000852897   0.0000024571   0.0000570416  -0.0000725407
        0.0000362578   0.0000015171   0.0000123928   0.0001391457   0.0001084262
       -0.0001539543   0.0002418421  -0.0001401951   0.0003488660  -0.0001375926
        0.0003446560   0.0001884291  -0.0000381655  -0.0001032263  -0.0000179522
        0.0000931230  -0.0000582509  -0.0000567619   0.0000919049  -0.0000002233
        0.0000431255   0.0000581759   0.0000692225   0.0001051573  -0.0000893089
        0.0000613263   0.0000401484   0.0003161058   0.0009928560   0.0001320412
       -0.0016843398   0.0019700924   0.0009498295
        0.1853133797  -0.5236841094   0.0692790807  -0.1374163782   0.7933797727
       -0.0133089254   0.0376087213  -0.0933116119   0.0208962790  -0.0386816283
       -0.1418070605  -0.0385772111  -0.0252541274  -0.0066016542  -0.0194110252
        0.0007479517   0.0124073981   0.0029289443  -0.0052129645  -0.0110749443
       -0.0055768750   0.0044459712   0.0060413189   0.0036649644  -0.0008952896
       -0.0015660805   0.0009759268   0.0022217531   0.0027868617   0.0005962054
       -0.0006695830  -0.0038858094   0.0004755679   0.0006675883  -0.0006216407
       -0.0007293914  -0.0002524837   0.0003884943  -0.0002195734   0.0002003727
        0.0001714702  -0.0001261198   0.0000206306   0.0000205800  -0.0000180549
       -0.0000589434  -0.0001721849   0.0002781538  -0.0005595690  -0.0002093382
        0.0001726729  -0.0017923498   0.0028269560  -0.0011940529   0.0018254184
       -0.0009568748   0.0012722561  -0.0003672885   0.0018644826  -0.0006143465
        0.0016867169  -0.0034917060   0.0016437825  -0.0022518722   0.0059161072
       -0.0018859578   0.0024863908  -0.0010496546   0.0018481726  -0.0010890793
       -0.0028463172  -0.0012137804  -0.0011077046   0.0014360859  -0.0015881514
       -0.0000326453  -0.0022224700   0.0004706816  -0.0035058376   0.0000848684
       -0.0017812106   0.0016342093   0.0003618579   0.0005279251  -0.0010647987
       -0.0000526007   0.0001128604   0.0003057565   0.0001964918   0.0002657002
       -0.0001892334  -0.0003248528  -0.0007050112   0.0011943293   0.0000077315
        0.0001561844   0.0118270489   0.0039857319   0.0073491473  -0.0007521279
       -0.0486617088  -0.0068998590  -0.0332964689   0.0076433069  -0.0228237481
        0.0022493735   0.0000158134   0.0017814403   0.0005145579   0.0005935058
        0.0006734660   0.0001290247   0.0005014244   0.0000176765  -0.0000106565
        0.0002468065   0.0002707259   0.0001512498  -0.0000544519   0.0000000075
       -0.0001177279  -0.0000345941   0.0000605172  -0.0001046758   0.0000517243
       -0.0000322341  -0.0000557284   0.0001084430  -0.0001085411   0.0002018499
        0.0000365142   0.0000570688   0.0000059425   0.0001809118  -0.0001142181
        0.0001260955   0.0001329965   0.0001141952   0.0001634953   0.0001636787
        0.0003890440  -0.0001926979   0.0000688284   0.0002703531   0.0000519283
        0.0001846917  -0.0000667697  -0.0001618579  -0.0000952900  -0.0000252795
        0.0002986812  -0.0000629796  -0.0001280468   0.0002154300   0.0000187359
        0.0001088453   0.0001378623   0.0001818480   0.0002425826  -0.0002358895
        0.0001533956   0.0000348268  -0.0002737814  -0.0003865369  -0.0001924702
       -0.0008283414   0.0010156375   0.0004055987
       -0.0376599479   0.0717132279  -0.0769358276   0.1640666335  -0.0133089254
        0.2818515560  -0.0782848977   0.0000610505  -0.1060209242  -0.0141530550
       -0.0371186590  -0.0804884739  -0.0161313971  -0.0154528295  -0.0147225487
       -0.0062783702   0.0034884858   0.0034191490  -0.0023826001  -0.0032221922
       -0.0028996365   0.0022013329   0.0024224661   0.0002449601  -0.0002230675
       -0.0008590804   0.0003064481   0.0006561225   0.0009499624   0.0002767290
       -0.0000465137  -0.0011617036  -0.0000147446   0.0002285288  -0.0001852480
       -0.0002260373  -0.0000727434   0.0001734881  -0.0000570848   0.0000462152
        0.0000812534  -0.0000986454  -0.0000131930   0.0000158191  -0.0000402203
       -0.0000826305  -0.0000976469   0.0001352173  -0.0002271902  -0.0001397598
        0.0000502806  -0.0005042086   0.0006938575  -0.0003173881   0.0004042181
       -0.0002674333   0.0003824644  -0.0001802316   0.0005438764  -0.0002224508
        0.0002852277  -0.0009130760   0.0004770400  -0.0010729219   0.0012866729
       -0.0012498941   0.0010444930  -0.0002377511   0.0008464337  -0.0003224336
       -0.0004415157   0.0002695286  -0.0005415399   0.0001172845  -0.0003502733
        0.0002183226  -0.0005259926   0.0002632076  -0.0011644256   0.0002046502
       -0.0004769425   0.0004855735   0.0002827575   0.0002724963  -0.0004151142
        0.0000589710   0.0000870422   0.0000433112   0.0000828257   0.0000908406
       -0.0000365544  -0.0001398352  -0.0003231904   0.0004988399  -0.0001906030
        0.0000004671  -0.0005139330   0.0037662622   0.0074321309   0.0059654251
       -0.0074628369   0.0015974969  -0.0176985318  -0.0063852769  -0.0101859814
        0.0008437723  -0.0004065712  -0.0018580773  -0.0003132687  -0.0004904839
       -0.0000848640   0.0000928630   0.0001868810   0.0000418741  -0.0000114000
        0.0001291345   0.0000564743   0.0000832109  -0.0000188765  -0.0000207970
       -0.0000435118  -0.0000143060   0.0000413379  -0.0000625540   0.0000316492
       -0.0000051744  -0.0000380413   0.0000740126  -0.0000564330   0.0001227466
        0.0000205427   0.0000529631   0.0000420798   0.0001041482  -0.0000374261
        0.0000931154   0.0000556857   0.0000495208   0.0000969453   0.0000790028
       -0.0001170879   0.0002633699  -0.0000417078  -0.0003712334   0.0000574192
        0.0000165564   0.0000837851  -0.0000700449  -0.0001086713  -0.0000037715
        0.0001365629  -0.0000593345  -0.0000604764   0.0001014096  -0.0000124871
        0.0000501714   0.0000769319   0.0000928457   0.0000887739  -0.0000973665
        0.0000554857   0.0000189817  -0.0000957698   0.0006043091   0.0003620720
        0.0005827869   0.0018696388  -0.0016038376
       -0.0409947837   0.0415373729  -0.0398535249  -0.1677822607   0.0376087213
       -0.0782848977   0.2906505219   0.0408655904   0.1882904741  -0.0287399854
       -0.0230060578  -0.0283814860   0.0053959799  -0.0018967368   0.0023340894
       -0.0004214827  -0.0042904054  -0.0012844447   0.0018145267   0.0039256605
        0.0020166864  -0.0017351456  -0.0020838236  -0.0012766078   0.0006946378
        0.0004451505  -0.0004046420  -0.0011213043  -0.0012494804  -0.0002318863
        0.0002833386   0.0016866978  -0.0001773711  -0.0003346871   0.0002547787
        0.0003173070   0.0001189444  -0.0001090838   0.0000456915  -0.0000300378
       -0.0000380513   0.0000615955   0.0000629716  -0.0000110561   0.0000588179
        0.0000612603   0.0000681367  -0.0000715178   0.0002197938   0.0000811401
        0.0000412460   0.0007406114  -0.0013039188   0.0005172192  -0.0006533367
        0.0003274618  -0.0004216999   0.0002195832  -0.0006215801   0.0002930536
       -0.0005276700   0.0011949392  -0.0006694301   0.0008471635  -0.0016580226
        0.0010841746  -0.0009151838   0.0002017299  -0.0007445378   0.0005132974
        0.0007416166   0.0000081234   0.0005280218  -0.0005380005   0.0006193389
       -0.0004023623   0.0009090543  -0.0002604875   0.0014167209   0.0000432922
        0.0006307838  -0.0006602564  -0.0002292904  -0.0001953757   0.0004464258
       -0.0000140531  -0.0000438436  -0.0000632685  -0.0000994527  -0.0001269149
        0.0000944030   0.0001398392   0.0003142794  -0.0005018144  -0.0000080493
       -0.0000532676  -0.0033919736  -0.0018334324  -0.0017323670  -0.0013223450
        0.0078691067  -0.0003571205  -0.0554572703  -0.0969758945  -0.0422079658
        0.0005951335   0.0004998771   0.0006813490  -0.0002454999  -0.0002854144
       -0.0001560661  -0.0000401042  -0.0001557596   0.0000107921  -0.0000213171
       -0.0000945742  -0.0001430599  -0.0000790358   0.0000171633  -0.0000247853
        0.0000497148   0.0000082346  -0.0000557906   0.0000523080  -0.0000341166
       -0.0000113745   0.0000246954  -0.0000641794   0.0000272871  -0.0001050728
       -0.0000257923  -0.0000681917   0.0000153556  -0.0000383612   0.0000670092
       -0.0000293987  -0.0000145370  -0.0000107196  -0.0000847781  -0.0000695546
        0.0000949934  -0.0001419859   0.0002122879  -0.0001780898   0.0001684269
       -0.0002784990  -0.0001280146   0.0000266568   0.0000853175  -0.0000053538
       -0.0000955165   0.0000461412   0.0000630795  -0.0000780694   0.0000105490
       -0.0000332030  -0.0000538420  -0.0000643872  -0.0000935548   0.0000843414
       -0.0000500390  -0.0000112066   0.0000463524  -0.0000344745  -0.0000795123
        0.0008586021  -0.0016037807   0.0002009199
        0.0594058821  -0.0194804760   0.0365303968   0.0081155449  -0.0933116119
        0.0000610505   0.0408655904   0.4679587157   0.0881081222  -0.0240687210
       -0.0000411407  -0.0179247779  -0.0022322921  -0.0052048769  -0.0024905592
       -0.0011880508   0.0005849431  -0.0007149929  -0.0002278550  -0.0003080609
       -0.0002619539   0.0003277723   0.0003489287   0.0002482376  -0.0001521072
        0.0000717220   0.0000199471   0.0001825215   0.0002353041  -0.0000300242
       -0.0001128070  -0.0001798364   0.0000152123   0.0000204381  -0.0000324092
       -0.0000260016  -0.0000128847  -0.0000245758   0.0000257977   0.0000129513
        0.0000022600   0.0000082180  -0.0000011683   0.0000003710  -0.0000047514
        0.0000231895   0.0000006196  -0.0000104897  -0.0000107035   0.0000089755
       -0.0000476982  -0.0000517591   0.0000825774   0.0000131039   0.0001069309
        0.0000917827  -0.0000060551   0.0000328465  -0.0000484219   0.0000037019
       -0.0000071240   0.0000532031  -0.0000123240  -0.0000307264  -0.0001886220
       -0.0000426891   0.0000192693   0.0000633818   0.0000214382   0.0000109556
        0.0000884537   0.0001153504  -0.0000172626  -0.0000389666   0.0000174302
       -0.0000116258  -0.0000369371  -0.0000386276  -0.0001654121  -0.0000311164
       -0.0000477369   0.0000875089  -0.0000753495  -0.0000119272  -0.0000525760
       -0.0000238720  -0.0000405561   0.0000126461  -0.0000018760  -0.0000057061
       -0.0000562368   0.0000063548  -0.0000120610   0.0000429536   0.0000859294
        0.0000601669   0.0000444137   0.0008433967   0.0000598532  -0.0017614550
       -0.0027357329  -0.0015601722  -0.0781753294  -0.3462393537  -0.1010857416
        0.0000333203  -0.0002493545  -0.0000357656  -0.0002422862  -0.0003322181
       -0.0002739746  -0.0000114497  -0.0000329852   0.0000065923   0.0000194617
       -0.0000193896   0.0000306994  -0.0000070224   0.0000035074  -0.0000018592
       -0.0000030405   0.0000000270   0.0000077339  -0.0000139438   0.0000008484
        0.0000064544  -0.0000094017   0.0000103022   0.0000027294  -0.0000081173
        0.0000109905   0.0000095079  -0.0000168034  -0.0000044921   0.0000100049
       -0.0000058012  -0.0000016223   0.0000062574  -0.0000165337   0.0000023024
       -0.0000677788   0.0000157602  -0.0000297047  -0.0000252485  -0.0000126278
       -0.0000263175   0.0000322741   0.0000545009   0.0000079308  -0.0000064195
        0.0000091042  -0.0000029074  -0.0000062584   0.0000107285  -0.0000030900
       -0.0000019602   0.0000019482  -0.0000045640   0.0000102304   0.0000087376
       -0.0000043681  -0.0000047320   0.0000641250   0.0000717204   0.0000994755
       -0.0008459761  -0.0019202991  -0.0007311440
       -0.0377007296   0.0239444642  -0.0002804891  -0.0822857177   0.0208962790
       -0.1060209242   0.1882904741   0.0881081222   0.1793963090  -0.0285070902
       -0.0173137655  -0.0156698217   0.0020804083  -0.0022820934   0.0032807658
       -0.0001856819  -0.0028682274  -0.0013825699   0.0013552243   0.0027344132
        0.0013722343  -0.0013258007  -0.0015202782  -0.0007779802   0.0004555276
        0.0003467989  -0.0002460220  -0.0007947124  -0.0008550749  -0.0001350520
        0.0002482391   0.0011489477  -0.0001275008  -0.0002225224   0.0001922844
        0.0002095153   0.0000840262  -0.0001009467   0.0000394333  -0.0000389083
       -0.0000580759   0.0000520253   0.0000088179  -0.0000128670   0.0000306624
        0.0000280054   0.0000669771  -0.0000687067   0.0001896055   0.0000749466
       -0.0000017668   0.0004563682  -0.0007921251   0.0003158075  -0.0004833937
        0.0002243983  -0.0003064148   0.0001104666  -0.0005123560   0.0001901883
       -0.0003823699   0.0008281900  -0.0004446745   0.0007282391  -0.0011750398
        0.0008303318  -0.0007397780   0.0001714509  -0.0005674908   0.0002933895
        0.0004699051  -0.0000116575   0.0004028084  -0.0003088679   0.0003593434
       -0.0000861292   0.0005200595  -0.0001489710   0.0010227082  -0.0000036663
        0.0004604138  -0.0004436889  -0.0001731007  -0.0001650203   0.0003130485
       -0.0000138563  -0.0000329409  -0.0000550227  -0.0000601000  -0.0000741497
        0.0000733434   0.0000949762   0.0002267723  -0.0003618052   0.0000162134
       -0.0000283721  -0.0018327774  -0.0011394055  -0.0019878728  -0.0016930331
        0.0054238687   0.0001699551  -0.0395269117  -0.1144504732  -0.0586979805
        0.0004416509   0.0003254788   0.0004471918  -0.0000636153  -0.0002213878
       -0.0002980901  -0.0000394129  -0.0001273626   0.0000087446  -0.0000088633
       -0.0000721234  -0.0000962114  -0.0000583093   0.0000170315   0.0000095087
        0.0000163212   0.0000111280  -0.0000218166   0.0000333555  -0.0000146200
       -0.0000009565   0.0000229049  -0.0000490187   0.0000289948  -0.0000829991
       -0.0000245198  -0.0000383688  -0.0000108835  -0.0000522951   0.0000231479
       -0.0000344671  -0.0000177916  -0.0000242021  -0.0000583558  -0.0000345381
        0.0000325905  -0.0000339192   0.0000571417   0.0000294094   0.0000363594
        0.0000196968  -0.0000088024   0.0000299888   0.0000630978  -0.0000174290
       -0.0000852319   0.0000353196   0.0000396459  -0.0000620240   0.0000083797
       -0.0000268559  -0.0000390616  -0.0000456044  -0.0000709430   0.0000621972
       -0.0000294780  -0.0000042166   0.0000235555  -0.0000312448  -0.0000250834
        0.0004361821  -0.0014392652   0.0002563633
        0.0127600871   0.0097290724  -0.0005674445  -0.0771563103  -0.0386816283
       -0.0141530550  -0.0287399854  -0.0240687210  -0.0285070902   0.4490474371
       -0.0520620118   0.2431658319  -0.2031566426   0.0398992668  -0.1112138688
       -0.0215133339  -0.0590517535  -0.0265935051  -0.0211151422   0.0235427986
       -0.0067714955  -0.0034333967  -0.0037575783  -0.0020988348   0.0012641743
        0.0005486541  -0.0005959343  -0.0018246716  -0.0017036903  -0.0000501478
        0.0012720084   0.0021578150  -0.0011406797  -0.0007979101   0.0004024223
        0.0003450815   0.0002734132   0.0000124358  -0.0000045728  -0.0001442564
       -0.0000125226  -0.0000398220   0.0000929420   0.0000028316   0.0000190682
       -0.0001240794   0.0000031849  -0.0000479949   0.0003376901  -0.0001200029
        0.0001027185   0.0009641093  -0.0020961654   0.0006907771  -0.0011045278
        0.0001259983  -0.0008286394   0.0000191413  -0.0010245465   0.0000775100
       -0.0010757942   0.0010737972  -0.0004971228   0.0005636324  -0.0015444091
        0.0004749268  -0.0007395519   0.0001640710  -0.0005690166   0.0004515453
        0.0008931771   0.0003362420   0.0008583414  -0.0006225222   0.0008729096
        0.0001791942   0.0010819574  -0.0001968801   0.0021978081   0.0002038761
        0.0009928661  -0.0010983791   0.0001250406  -0.0001651709   0.0005874627
        0.0001445811   0.0001621740  -0.0002403358  -0.0000964325  -0.0001586207
        0.0002792035   0.0000555497   0.0001895933  -0.0005690186  -0.0004109014
       -0.0002193413   0.0250045370   0.0174994096   0.0215467366  -0.1148023874
        0.0661830476  -0.0438957080  -0.0018996795   0.0002693447  -0.0048628087
       -0.0116653338   0.0043763948  -0.0087977165   0.0035523963  -0.0014288164
       -0.0047163029  -0.0000049069  -0.0000639202   0.0001268642  -0.0000429650
       -0.0000558390  -0.0002462872  -0.0000338589   0.0000054700  -0.0000100748
        0.0000335072   0.0000064503  -0.0000258040   0.0000372288  -0.0000167051
        0.0000021076   0.0000189940  -0.0000328073   0.0000395006  -0.0000712686
       -0.0000025954  -0.0000178683   0.0000903643   0.0000358482  -0.0000070310
        0.0000340507  -0.0000330756   0.0000056940  -0.0000163605  -0.0000699893
       -0.0000291172   0.0000644109   0.0001108642  -0.0000245551  -0.0000007651
       -0.0000223128   0.0000999698   0.0000441606  -0.0000794251  -0.0000888894
       -0.0000987020  -0.0000134215   0.0000414907  -0.0000738590  -0.0000096246
       -0.0000288363  -0.0000372135  -0.0000290189  -0.0000974673   0.0000397240
       -0.0000299132   0.0000005301   0.0033211927  -0.0020807710  -0.0049182811
       -0.0118081205   0.0205677616  -0.0071066078
        0.0058605811  -0.0807063507  -0.0086240298  -0.0381886191  -0.1418070605
       -0.0371186590  -0.0230060578  -0.0000411407  -0.0173137655  -0.0520620118
        0.6152409080   0.0225903946  -0.0007920395  -0.0839216469  -0.0054885590
       -0.0171335142   0.0119704184  -0.0147782710   0.0234498198   0.0034577112
        0.0197899173  -0.0050985620  -0.0093385620  -0.0050305106  -0.0004750215
        0.0022227871  -0.0008410098  -0.0008431427  -0.0023596459  -0.0005866684
        0.0000709354   0.0025781187   0.0003119758  -0.0001960606   0.0004106453
        0.0005468275   0.0000725328  -0.0002025969   0.0001267433  -0.0000378398
       -0.0001171058   0.0000829858   0.0000044343   0.0000058642   0.0000089753
        0.0000622311   0.0000929656  -0.0001411203   0.0002852542   0.0001162425
        0.0000229214   0.0011279320  -0.0019534139   0.0006610182  -0.0013006476
        0.0002917710  -0.0005366373   0.0001326530  -0.0009103402   0.0004665089
       -0.0010888325   0.0021146586  -0.0012687876   0.0015377738  -0.0033845885
        0.0011972018  -0.0016017385   0.0004957855  -0.0011428968   0.0006989736
        0.0016337005   0.0005693729   0.0008423647  -0.0006602668   0.0009465231
       -0.0004080943   0.0013778477  -0.0004009042   0.0037947226  -0.0000929383
        0.0021457910  -0.0014187124   0.0001097706  -0.0002415050   0.0008741172
        0.0001332758   0.0000987128  -0.0002808061  -0.0001407092  -0.0001741221
        0.0004035379   0.0001940591   0.0004430285  -0.0009938898  -0.0003388999
       -0.0004506712  -0.0257177885  -0.0728735080  -0.0278867011   0.1069271471
       -0.2320323117   0.0597953711   0.0030706984   0.0012367399   0.0015404385
        0.0212562838  -0.0031149994   0.0160016549  -0.0021111586  -0.0037463188
       -0.0028603455  -0.0000917982  -0.0000924710  -0.0002837873  -0.0000246129
       -0.0000574361  -0.0001712286  -0.0000654071   0.0000434718  -0.0000366285
        0.0000670570   0.0000265300  -0.0000471710   0.0000761710  -0.0000200855
        0.0000011507   0.0000351124  -0.0000621689   0.0000524128  -0.0001846875
        0.0000043826  -0.0001077617   0.0000895250  -0.0000201702   0.0001339183
       -0.0000296740  -0.0000697820  -0.0000417975  -0.0000554781  -0.0001116073
       -0.0001344120   0.0000350029   0.0001028061  -0.0000410858   0.0003541550
       -0.0000855450  -0.0000778427  -0.0000592067   0.0000512584  -0.0000011211
       -0.0002075816   0.0000351467   0.0001044663  -0.0001683141   0.0000171785
       -0.0000666002  -0.0000849687  -0.0001219752  -0.0001574078   0.0001247313
       -0.0000623447   0.0000325503  -0.0016729410  -0.0033656142  -0.0027517534