$hessian                                                                        
        0.5236351242   0.0028986417   0.0032593169  -0.0578104900  -0.0014783528
        0.0026841675  -0.0047235814  -0.0119590752  -0.0201676111   0.0017962876
       -0.0001100983  -0.0030717662  -0.0001457668   0.0005914727  -0.0002118929
       -0.0001338311   0.0000024318   0.0002359757   0.0000657001  -0.0000705915
        0.0000191471   0.0000190318   0.0002942918   0.0001548424  -0.0009248952
       -0.0005104838   0.0001481612   0.0001803376  -0.0010342848   0.0001404517
        0.0002148520   0.0003680812   0.0002792138  -0.0000254708   0.0001277566
       -0.0001848107   0.0000527084  -0.0000704076  -0.0000040546   0.0000003253
       -0.0000424843  -0.0000020243   0.0000238193   0.0000078964   0.0000062907
        0.0000062397  -0.0000119214  -0.0000063638   0.0000060145   0.0000146478
        0.0000143743  -0.0000354456  -0.0000041161  -0.0000071431   0.0000082184
       -0.0000421120   0.0000957910   0.0000275285   0.0000075114  -0.0000929885
       -0.0000011208  -0.0000021790   0.0000144775   0.0000081422   0.0000005063
       -0.0000135607   0.0000049627  -0.0000109126   0.0000052320   0.0000102619
        0.0000012458  -0.0000224302  -0.0000108778   0.0000168501   0.0000201173
        0.0000163233  -0.0000042882  -0.0000109040   0.0000056912  -0.0000075027
        0.0000037949  -0.0000069693  -0.0000246877   0.0000042963   0.0000018212
       -0.0000195513  -0.0000107480  -0.0000025230  -0.0000104677  -0.0000187751
       -0.0000069400  -0.0000336836  -0.0000053183  -0.0000001791  -0.0000122366
        0.0000043489   0.0000045268   0.0000025211   0.0000202374   0.0000003636
        0.0000638912  -0.0000271055   0.0000926507   0.0001748731   0.0001002268
       -0.0001946750  -0.0001749292  -0.0001031476  -0.0011573029   0.0018880637
        0.0007861035   0.0005707769  -0.0005683486  -0.0007730089   0.0001718059
        0.0006122943  -0.0000279928  -0.0010139874   0.0001080824  -0.0012525338
       -0.0010549908  -0.0004836294   0.0009603947  -0.0065181903   0.0128012282
        0.0219978782  -0.0455890290   0.0149845856  -0.0124613864  -0.1881200809
       -0.1150183064  -0.0235255512  -0.2173085092   0.1006230092   0.0337473501
        0.0004316055   0.0003827886  -0.0005948737  -0.0034003208  -0.0035770587
       -0.0017117473   0.0007220378  -0.0006882941  -0.0010546634   0.0000681131
       -0.0001194556  -0.0000618701  -0.0000021024   0.0000195622  -0.0000317552
        0.0000566717  -0.0000356083  -0.0000570308   0.0000290538   0.0000335976
        0.0000084931   0.0001140371  -0.0001723329   0.0000132781  -0.0000094295
       -0.0000187868  -0.0000077906  -0.0000066855  -0.0000177659  -0.0000048927
       -0.0000070409  -0.0000080074  -0.0000008929  -0.0000074535  -0.0000042746
        0.0000031328  -0.0000031770  -0.0000072048   0.0000080508   0.0000003892
       -0.0000066280   0.0000127375  -0.0000014020  -0.0000002307   0.0000124145
       -0.0000000939   0.0000052008   0.0000100504  -0.0000076377   0.0000045278
        0.0000101900  -0.0000062045  -0.0000031252  -0.0000007916  -0.0000000285
        0.0000049884   0.0000023413   0.0000041154   0.0000126733  -0.0000154387
       -0.0000055169   0.0000066311   0.0000177707   0.0000127630   0.0000006064
       -0.0000014459  -0.0000012522   0.0000120351   0.0000105538  -0.0000026656
        0.0000134373   0.0000045576  -0.0000041521   0.0000107777   0.0000076699
       -0.0000140785   0.0000077647   0.0000058929   0.0000089902   0.0000855540
        0.0001123972   0.0000415263   0.0000313511   0.0002163654  -0.0001108121
        0.0000959357  -0.0000552552  -0.0000379069   0.0000461102   0.0004414802
        0.0028986417   0.5101148993  -0.0304731238  -0.0041366080  -0.0714912384
       -0.0348635211  -0.0057209707  -0.0112989848  -0.0194959052   0.0006671458
        0.0048307171   0.0188426538  -0.0004757373  -0.0009638870   0.0010618293
        0.0001901624  -0.0010626771  -0.0006372609   0.0005471327  -0.0000145385
        0.0002010686  -0.0001050922   0.0003692743  -0.0010860218   0.0007983726
       -0.0012086893   0.0019042230  -0.0005724045   0.0010360123  -0.0008268502
        0.0000142288  -0.0002125769   0.0001180177   0.0003009048   0.0000322613
       -0.0000926867   0.0000272773   0.0000194211   0.0000402949  -0.0000161996
       -0.0000382701  -0.0000052801   0.0000018003   0.0000344573   0.0000176993
        0.0000039738  -0.0000012286  -0.0000035396   0.0000007495   0.0000062100
       -0.0000021582   0.0000298591  -0.0000697566  -0.0000436905   0.0000124141
        0.0000877122   0.0000268071   0.0000008517   0.0000122540  -0.0000386377
        0.0000008197  -0.0000065525   0.0000014602   0.0000062619  -0.0000013253
       -0.0000172124  -0.0000028921  -0.0000012463  -0.0000001897   0.0000015644
        0.0000027954  -0.0000048031  -0.0000012150  -0.0000079225   0.0000104160
       -0.0000051808  -0.0000058036  -0.0000049348   0.0000042767   0.0000003602
       -0.0000004569  -0.0000031549   0.0000017121  -0.0000029624  -0.0000035850
        0.0000194226   0.0000013427   0.0000013579  -0.0000088687   0.0000141654
        0.0000005580   0.0000072712  -0.0000097527   0.0000063015  -0.0000179566
       -0.0000054953   0.0000205193  -0.0000019235  -0.0000093273  -0.0000299700
       -0.0000817113   0.0000511070  -0.0000480238   0.0000288016   0.0000280954
       -0.0001813314   0.0000727059  -0.0000349650  -0.0009401305  -0.0014768121
        0.0001315013   0.0000914444   0.0001843803   0.0006630545  -0.0001527152
       -0.0001874240  -0.0000463000   0.0005047486  -0.0001579551   0.0008642391
        0.0008102149   0.0003830895  -0.0004207286   0.0079511241  -0.0079034653
       -0.0154277247   0.0149940727  -0.1813683474   0.1184630539  -0.1152703232
       -0.1362561492  -0.0179782955   0.1004486078  -0.1019092242  -0.0184746913
        0.0001798153   0.0004961957  -0.0012024607  -0.0032951394  -0.0026429286
       -0.0014305996   0.0007173020   0.0004836995   0.0000171899  -0.0000973919
        0.0001693734   0.0003317227   0.0000735209  -0.0001268750   0.0000840727
       -0.0000472101   0.0000875020   0.0001728158  -0.0000183733   0.0000035115
        0.0000892581  -0.0001444925  -0.0000718523   0.0000244536  -0.0000145437
        0.0000172369   0.0000060613  -0.0000030208  -0.0000033662  -0.0000009073
       -0.0000150945  -0.0000010424  -0.0000024683  -0.0000120796   0.0000029175
        0.0000025815  -0.0000064011   0.0000061461   0.0000034325  -0.0000007740
        0.0000022274   0.0000015175  -0.0000029817   0.0000033693   0.0000012500
       -0.0000027271   0.0000037102   0.0000043353   0.0000002676   0.0000003062
       -0.0000007161   0.0000028247   0.0000026399   0.0000014943  -0.0000021342
        0.0000038880  -0.0000017351  -0.0000017493  -0.0000033608   0.0000086103
        0.0000050234   0.0000017246  -0.0000010129  -0.0000035009   0.0000105888
        0.0000014435  -0.0000018766   0.0000077741  -0.0000027596   0.0000028802
        0.0000061403  -0.0000046201   0.0000018899   0.0000138047  -0.0000048643
       -0.0000137286   0.0000101850   0.0000039202   0.0000081616  -0.0000265492
       -0.0000106325  -0.0000234230   0.0000281020  -0.0001902873   0.0000780153
       -0.0000314260   0.0000227279  -0.0000329112   0.0000571347  -0.0003583370
        0.0032593169  -0.0304731238   0.4355363554  -0.0042725428  -0.0402639629
       -0.1504719836  -0.0040381646  -0.0070277701  -0.0097167765  -0.0018830675
        0.0044966279  -0.0305683503   0.0018170517  -0.0002358253  -0.0003153445
       -0.0003544999   0.0016390496   0.0002184489  -0.0004548521  -0.0001267373
       -0.0001087265  -0.0001859080   0.0003027080   0.0006494615  -0.0014733620
       -0.0007720166  -0.0000502776   0.0010457413  -0.0001391638  -0.0010245688
       -0.0004821747  -0.0004441764  -0.0000713566  -0.0000630145   0.0000533169
       -0.0000451493  -0.0000358513  -0.0000207717  -0.0000149448   0.0000783177
        0.0000047765   0.0000119742   0.0000042541   0.0000001596   0.0000050692
        0.0000200092  -0.0000041460  -0.0000019214   0.0000171438   0.0000207776
        0.0000132873   0.0000042125  -0.0000132433  -0.0000065648  -0.0000465069
       -0.0000257752   0.0001045651   0.0000375916   0.0000103506  -0.0001196382
       -0.0000084983  -0.0000145190   0.0000206390   0.0000071640  -0.0000027375
       -0.0000121755   0.0000002601  -0.0000060738   0.0000150914   0.0000051027
        0.0000026609  -0.0000115393  -0.0000107756   0.0000117675   0.0000252617
       -0.0000070326  -0.0000074146  -0.0000157781  -0.0000031406   0.0000016211
        0.0000060486  -0.0000301136   0.0000000047   0.0000094277   0.0000056577
       -0.0000235299  -0.0000071768  -0.0000012109   0.0000087931  -0.0000144247
       -0.0000039370  -0.0000077926   0.0000071099   0.0000081099  -0.0000127657
       -0.0000188856  -0.0000072733  -0.0000085134   0.0000048375  -0.0000020227
        0.0000533762  -0.0000233432   0.0000526215   0.0000592923   0.0000241996
       -0.0000250810  -0.0000546805   0.0000581297  -0.0012561027   0.0000591664
        0.0002949646   0.0001473908  -0.0002585928   0.0002182311  -0.0001298285
       -0.0001467051   0.0000150717   0.0007738000  -0.0003256906   0.0003240143
       -0.0004016031   0.0014166341  -0.0005719372   0.0100448527  -0.0096558228
       -0.0097874273  -0.0124564361   0.1178969438  -0.1413825784  -0.0237225488
       -0.0180818052  -0.0458521725   0.0331404819  -0.0182699786  -0.0479736559
        0.0007698413   0.0007606505   0.0006877174  -0.0009104970  -0.0007841713
        0.0000730602   0.0006989091   0.0004896891   0.0003386306   0.0002040184
       -0.0001579753  -0.0003047984   0.0000101007   0.0001104705   0.0000027595
        0.0000565157  -0.0001517397  -0.0001257694  -0.0000242875  -0.0000350594
       -0.0000169899   0.0000225599  -0.0000715963  -0.0000255272   0.0000198226
        0.0000265056   0.0000121279   0.0000013559   0.0000043572  -0.0000035343
       -0.0000065436  -0.0000004845   0.0000002459  -0.0000100121   0.0000046678
        0.0000019632  -0.0000000215  -0.0000019236  -0.0000014112  -0.0000007927
       -0.0000017998   0.0000035424  -0.0000033954  -0.0000013677   0.0000001083
       -0.0000020573  -0.0000009095   0.0000063336  -0.0000035213   0.0000002821
        0.0000062788   0.0000080219   0.0000007092   0.0000053339   0.0000016858
       -0.0000009303   0.0000036253   0.0000070955   0.0000013926  -0.0000015104
        0.0000051875   0.0000010631   0.0000141394   0.0000047693   0.0000024342
        0.0000031798  -0.0000050755   0.0000129016   0.0000141645  -0.0000032279
        0.0000071382   0.0000115079  -0.0000033327  -0.0000014277   0.0000271523
        0.0000021638   0.0000161853   0.0000101471   0.0000046871   0.0000367289
        0.0000014458  -0.0000465276   0.0000089685  -0.0000477959   0.0000190705
        0.0000619142   0.0000402123   0.0000699562   0.0000486343  -0.0001118304
       -0.0578104900  -0.0041366080  -0.0042725428   0.4899567412   0.0267021284
       -0.0041529837  -0.1379731643  -0.0586609701  -0.0091222954  -0.0631297842
       -0.0010892405  -0.0044845328  -0.0009945434   0.0178024009  -0.0153087961
       -0.0032674296  -0.0009666562  -0.0031830288  -0.0000942858   0.0001575169
       -0.0001363341  -0.0034866152  -0.0033763699  -0.0004035668   0.0004151041
       -0.0160833510   0.0141503147   0.0020334815   0.0038544117  -0.0000954002
       -0.0007412086  -0.0008013811  -0.0002120595   0.0001458453   0.0004155366
        0.0001704600  -0.0002216562  -0.0000829400  -0.0000684790   0.0001917825
       -0.0000031611   0.0000242046  -0.0000769095  -0.0000754992  -0.0000379307
        0.0000611640  -0.0000395934  -0.0000114671  -0.0000212656   0.0000185278
        0.0000187618  -0.0000757596   0.0001053307   0.0000455868   0.0000348066
       -0.0000711833  -0.0000472129  -0.0000344355  -0.0000166509   0.0000830653
        0.0000050591   0.0000090474  -0.0000140123  -0.0000042619   0.0000052610
        0.0000150616   0.0000088704   0.0000011442  -0.0000089307  -0.0000000192
       -0.0000019101   0.0000103228   0.0000079337   0.0000028104  -0.0000211282
        0.0000071938   0.0000092606   0.0000082727   0.0000020888  -0.0000022462
       -0.0000041146   0.0000366759   0.0000123994  -0.0000089317   0.0000057028
       -0.0000195644   0.0000064212   0.0000043589   0.0000209415  -0.0000039132
        0.0000052121  -0.0000040865   0.0000020988  -0.0000002034   0.0000179219
       -0.0000005168   0.0000091981  -0.0000083394   0.0000145863   0.0000079510
        0.0000707751  -0.0000388548   0.0000224670   0.0000393481  -0.0000180924
        0.0004007367  -0.0000256664   0.0000524716  -0.0309188172   0.0025588290
        0.0057884527  -0.0020690616  -0.0029329050   0.0019913914  -0.0007058862
        0.0001043265   0.0000209895   0.0017450673  -0.0000815256   0.0012663899
       -0.0056471060   0.0107283321   0.0001565540  -0.1540497780   0.0462176205
        0.0183106824   0.0002081801  -0.0007983269  -0.0016572738  -0.0017324817
       -0.0087491260  -0.0202162477  -0.0021769076   0.0097388680   0.0231944835
        0.0007707225  -0.0015913708   0.0017249586  -0.0028225669  -0.0030504854
       -0.0025467454  -0.0264159793  -0.0151708110  -0.0010619846   0.0000858683
        0.0003077039   0.0005995986  -0.0002805541   0.0010479647  -0.0007927541
       -0.0001290705   0.0003069572   0.0002631059  -0.0002044135  -0.0010378383
        0.0007234336   0.0000219875  -0.0000326165  -0.0000038632   0.0000035882
        0.0000263248   0.0000272739  -0.0000062014   0.0000092506   0.0000060091
        0.0000071832   0.0000046142   0.0000065446   0.0000182941   0.0000010574
        0.0000052804  -0.0000017068  -0.0000044759   0.0000107875   0.0000006488
       -0.0000014358   0.0000022090   0.0000033451   0.0000006281   0.0000044721
        0.0000040256  -0.0000021904  -0.0000039037  -0.0000013024   0.0000016974
       -0.0000033157  -0.0000058411  -0.0000004506  -0.0000013807   0.0000010328
       -0.0000050410   0.0000002139  -0.0000053398  -0.0000134500  -0.0000055216
       -0.0000055482   0.0000020098  -0.0000123835  -0.0000059097  -0.0000143377
       -0.0000022737   0.0000028739  -0.0000184357  -0.0000084565  -0.0000037113
       -0.0000083419  -0.0000025993  -0.0000077545  -0.0000031710  -0.0000106265
       -0.0000094033  -0.0000021541  -0.0000088049  -0.0010252354   0.0004504733
       -0.0000660763   0.0001126588  -0.0001219185  -0.0003664749   0.0000237582
       -0.0002890652   0.0001045529  -0.0002089994  -0.0013565292  -0.0003832012
       -0.0014783528  -0.0714912384  -0.0402639629   0.0267021284   0.4706910987
       -0.0207343922  -0.0594309646  -0.1138454419  -0.0057364491   0.0033013111
       -0.1308030352   0.0646919835   0.0065965158  -0.0083335485   0.0089453363
       -0.0000052971   0.0038144901   0.0027697990  -0.0005377371  -0.0006301479
        0.0001436493  -0.0032394038   0.0010846862   0.0028452663  -0.0092892005
       -0.0202317249   0.0130131275   0.0029085164  -0.0003218789  -0.0000077207
       -0.0006051235  -0.0001725646  -0.0000152311   0.0000561941   0.0002441476
       -0.0000673466  -0.0000776201  -0.0000325028  -0.0000372575   0.0001276873
        0.0000157817   0.0000218108  -0.0000397528  -0.0000301786  -0.0000251727
        0.0000486597  -0.0000290756  -0.0000086409   0.0000009042   0.0000208750
        0.0000070476  -0.0000136715   0.0000273114   0.0000148024   0.0000158480
        0.0000026125  -0.0000240659  -0.0000171052  -0.0000011431   0.0000358062
        0.0000036325   0.0000057269  -0.0000063734   0.0000007610  -0.0000018703
        0.0000021532   0.0000009880  -0.0000012596  -0.0000022054   0.0000017513
       -0.0000017591   0.0000049039   0.0000063555  -0.0000058917  -0.0000068915
       -0.0000029351  -0.0000054998  -0.0000041845   0.0000032639   0.0000021654
       -0.0000008320   0.0000024124   0.0000121515  -0.0000061697  -0.0000002567
       -0.0000055315   0.0000067070   0.0000097200   0.0000031600   0.0000031244
        0.0000098946  -0.0000003457  -0.0000069005   0.0000099825  -0.0000022239
       -0.0000153646   0.0000037136  -0.0000031921   0.0000000985  -0.0000009753
        0.0000012023  -0.0000023343  -0.0000007902  -0.0000017825   0.0000359968
        0.0002207560  -0.0000440972  -0.0000008609  -0.0068482286   0.0085394446
        0.0018863201  -0.0036857122  -0.0013835627   0.0006338895   0.0003999362
       -0.0006604799  -0.0000370369  -0.0008611952  -0.0045457720   0.0002633222
        0.0257640536  -0.0164073223  -0.0042086516   0.0402689718  -0.0858748077
       -0.0073486377  -0.0002389963   0.0062685759   0.0189159378  -0.0018159131
       -0.0084497541  -0.0173599719   0.0018234954  -0.0062527864  -0.0148489904
       -0.0186901336  -0.0183418124   0.0010522413  -0.0104039417  -0.0095184543
       -0.0035464957   0.0092194342   0.0084349373   0.0009858413  -0.0006637323
       -0.0007277489  -0.0015396303  -0.0001822575  -0.0000596211   0.0000883273
        0.0002336354  -0.0004273202  -0.0007943803   0.0000228484  -0.0007344436
        0.0002910043  -0.0000328843  -0.0001389646  -0.0000298969   0.0000003894
        0.0000164313   0.0000320468  -0.0000063118   0.0000053504   0.0000038646
        0.0000008211   0.0000025037   0.0000058463   0.0000040447   0.0000044424
        0.0000035970  -0.0000027985   0.0000001029   0.0000063784   0.0000003842
        0.0000049748  -0.0000002670   0.0000011955   0.0000029171  -0.0000008120
        0.0000011540   0.0000015833   0.0000012037   0.0000008175   0.0000000751
       -0.0000014180   0.0000014854   0.0000023383   0.0000036234  -0.0000017829
        0.0000009248   0.0000001895   0.0000100290  -0.0000156037   0.0000075114
        0.0000059653   0.0000018132  -0.0000035163  -0.0000132916   0.0000074980
        0.0000026764  -0.0000059260   0.0000015477   0.0000020976  -0.0000026740
       -0.0000015146  -0.0000035778  -0.0000041632   0.0000019275   0.0000070154
       -0.0000049572   0.0000082419  -0.0000019717  -0.0008898385   0.0002677859
        0.0001478354  -0.0000235432  -0.0000151158   0.0000338712   0.0012572179
       -0.0007522482  -0.0000656106   0.0000705925   0.0008044406  -0.0001530322
        0.0026841675  -0.0348635211  -0.1504719836  -0.0041529837  -0.0207343922
        0.4206781352  -0.0104606687  -0.0066895308  -0.0623315217  -0.0086401265
        0.0639708579  -0.1048720278  -0.0054509057   0.0120645002  -0.0102904538
       -0.0029581331   0.0028964995   0.0035514731  -0.0009493343   0.0004899636
       -0.0008117048  -0.0002028584   0.0010158510   0.0041523683   0.0064580945
        0.0101970666  -0.0050779795  -0.0008421467  -0.0004645434  -0.0018441603
       -0.0006643368  -0.0001776091   0.0001948957  -0.0000380866   0.0001399545
       -0.0001087513  -0.0001331087  -0.0000857157  -0.0000331149   0.0001664798
        0.0000429367   0.0000246398  -0.0000932164  -0.0000375281  -0.0000321742
        0.0000898673  -0.0000403537  -0.0000186686   0.0000151778   0.0000576863
        0.0000291892  -0.0000247510  -0.0000037433   0.0000021148   0.0000030750
       -0.0000049632   0.0000237869   0.0000067862   0.0000011396  -0.0000301413
       -0.0000089408   0.0000085406  -0.0000015881   0.0000041473  -0.0000069216
       -0.0000098151  -0.0000032117  -0.0000081890   0.0000042840  -0.0000004237
        0.0000006378  -0.0000071888  -0.0000029217  -0.0000026678   0.0000049699
       -0.0000075189  -0.0000069575  -0.0000108603  -0.0000015463  -0.0000032202
       -0.0000016596  -0.0000231426  -0.0000095331  -0.0000048885  -0.0000033310
       -0.0000031935   0.0000022505  -0.0000061819  -0.0000010265   0.0000001775
        0.0000003141  -0.0000005145  -0.0000076784   0.0000119676  -0.0000006518
       -0.0000102753   0.0000055831  -0.0000011703   0.0000166762  -0.0000090012
        0.0000089281   0.0000009885  -0.0000484197   0.0000204445  -0.0000292602
        0.0000649604  -0.0002467985   0.0000190615   0.0052643209  -0.0018495447
       -0.0010234909   0.0003367724   0.0016160137   0.0050663906  -0.0001118100
       -0.0010474150  -0.0000930637   0.0015105567   0.0008536019   0.0068169591
       -0.0013173745  -0.0002104914   0.0010836327   0.0200648342  -0.0097172185
       -0.0540799218  -0.0001239590  -0.0049217124  -0.0247811874  -0.0020555726
       -0.0038501812  -0.0061892566   0.0028874232  -0.0050701725  -0.0097023004
        0.0148742059   0.0132517605   0.0000641234  -0.0211688909  -0.0177850779
       -0.0042613105   0.0039715702   0.0026037109   0.0001990269   0.0014123030
       -0.0011511433  -0.0010336048   0.0001041692   0.0003704770  -0.0002602535
        0.0002770205  -0.0007258374  -0.0006516699  -0.0001617958  -0.0000758800
       -0.0000223701   0.0000615052  -0.0000099851   0.0000174786  -0.0000024220
       -0.0000041863   0.0000200653   0.0000023593   0.0000084285  -0.0000058724
       -0.0000005480   0.0000016241  -0.0000009720  -0.0000035211   0.0000029183
        0.0000010256  -0.0000015196  -0.0000098259   0.0000018420  -0.0000019283
       -0.0000012818   0.0000017988  -0.0000043804  -0.0000021471  -0.0000062505
       -0.0000019194  -0.0000045696   0.0000035453  -0.0000013103   0.0000007961
        0.0000013467  -0.0000000363  -0.0000004018   0.0000016225  -0.0000025414
        0.0000019345   0.0000049354   0.0000107985   0.0000005608   0.0000144999
        0.0000068033   0.0000011972   0.0000086038  -0.0000017316   0.0000113834
        0.0000076463  -0.0000034127   0.0000088282   0.0000089325  -0.0000029722
        0.0000079318   0.0000085743  -0.0000024965   0.0000075008   0.0000055815
       -0.0000030775   0.0000009297  -0.0000030069   0.0000601908  -0.0000888184
       -0.0001820824  -0.0002585113  -0.0000211573  -0.0013553793  -0.0000958944
        0.0001822842   0.0000519633  -0.0003025321   0.0000929039  -0.0024367168
       -0.0047235814  -0.0057209707  -0.0040381646  -0.1379731643  -0.0594309646
       -0.0104606687   0.4771497725  -0.0375771584  -0.0057119409  -0.0000118410
       -0.0040984217   0.0030034545  -0.0009762181   0.0005748708   0.0001084890
        0.0002254366  -0.0000869225   0.0000529203  -0.0001915000   0.0000215909
       -0.0000737061   0.0000564435  -0.0002911457   0.0000750735   0.0000118602
        0.0003013910  -0.0009737656   0.0009145544  -0.0002130541   0.0001979976
       -0.0001889466  -0.0000573731   0.0000015862   0.0000245093   0.0000407420
       -0.0000002171  -0.0000337356  -0.0000437845  -0.0000165497   0.0000265728
       -0.0000195421  -0.0000157694  -0.0000173400  -0.0000085994  -0.0000039737
        0.0000206240  -0.0000122122  -0.0000018739  -0.0000106069   0.0000034118
        0.0000049478  -0.0000130851   0.0000201138   0.0000117963  -0.0000237944
       -0.0000329980   0.0000318796   0.0000276379   0.0000074529  -0.0000400091
       -0.0000011348  -0.0000106789   0.0000074495   0.0000001030   0.0000059021
       -0.0000046756   0.0000028781  -0.0000033679  -0.0000009022   0.0000041638
       -0.0000014275  -0.0000131598  -0.0000063945   0.0000154890   0.0000059431
        0.0000194933   0.0000002243  -0.0000022927  -0.0000005584  -0.0000020931
        0.0000020383   0.0000091009  -0.0000106732   0.0000040257   0.0000028186
       -0.0000105217  -0.0000103245   0.0000017724  -0.0000092824  -0.0000158306
       -0.0000056011  -0.0000225368   0.0000059669  -0.0000084119  -0.0000007678
        0.0000109218  -0.0000095812  -0.0000021716  -0.0000006429   0.0000192109
        0.0000513662  -0.0000192119   0.0000362569   0.0000301178  -0.0000056183
        0.0000731148  -0.0001073487   0.0000206951  -0.0034485762   0.0033016162
       -0.0002232838  -0.0012596133  -0.0006718590   0.0005998304  -0.0002328617
       -0.0001619416   0.0000648335   0.0000125917  -0.0008134581   0.0003025730
       -0.0003374195   0.0002495188   0.0000688427  -0.0269198582  -0.0131371319
       -0.0006475914   0.0001445332   0.0000899154   0.0006324126   0.0004523442
       -0.0002079543  -0.0005508824   0.0007328551   0.0005699217   0.0007583674
       -0.0429847406   0.0161852638  -0.0147956798  -0.0433167458  -0.0021499667
       -0.0068673946  -0.2153261822   0.1020641831   0.0394656223   0.0004672380
        0.0009215389  -0.0009993939   0.0000126859   0.0000102352  -0.0000276716
        0.0000544411   0.0000918342  -0.0000106651   0.0000900444   0.0000723339
       -0.0000113918  -0.0000206300  -0.0000054307  -0.0000072189  -0.0000100656
       -0.0000094771   0.0000019463  -0.0000033898  -0.0000097798  -0.0000049139
       -0.0000093029  -0.0000063367  -0.0000022112  -0.0000068780  -0.0000013333
       -0.0000012474   0.0000013636   0.0000021247   0.0000013431  -0.0000004448
       -0.0000064138   0.0000076583  -0.0000027710   0.0000001413   0.0000135636
       -0.0000024554   0.0000075078   0.0000057917  -0.0000078375   0.0000017476
        0.0000059858  -0.0000056067  -0.0000023976  -0.0000041250  -0.0000005389
        0.0000031859  -0.0000030959   0.0000005655   0.0000012895  -0.0000219271
       -0.0000120091   0.0000024483   0.0000103094   0.0000055254  -0.0000030187
       -0.0000074339  -0.0000002326   0.0000068061   0.0000041320  -0.0000008436
        0.0000081054  -0.0000018712  -0.0000006308  -0.0000013471   0.0000015474
        0.0000005290   0.0000083287   0.0000055534  -0.0003539029   0.0001921295
        0.0000256681  -0.0000749982  -0.0000321740  -0.0000522650   0.0000246939
       -0.0000291164   0.0000006366  -0.0020917039   0.0001603047   0.0001277583
       -0.0119590752  -0.0112989848  -0.0070277701  -0.0586609701  -0.1138454419
       -0.0066895308  -0.0375771584   0.4958927468  -0.0017003310  -0.0181190979
       -0.0192076094   0.0021758376   0.0003156739  -0.0001183932  -0.0001405862
       -0.0007068594   0.0002790523  -0.0001130655  -0.0001446842  -0.0001298445
        0.0000799454  -0.0011420815  -0.0005135574   0.0005220976   0.0016656511
       -0.0032006488   0.0027442061  -0.0002080183   0.0010190880  -0.0002703603
       -0.0001377646  -0.0001488232  -0.0000778744   0.0001169134   0.0000692827
        0.0000097479  -0.0000278066  -0.0000003067  -0.0000032942  -0.0000022771
        0.0000027196   0.0000058392  -0.0000106100  -0.0000005978  -0.0000022289
       -0.0000010460   0.0000012193  -0.0000000901  -0.0000193343  -0.0000071452
       -0.0000095569   0.0000190917  -0.0000235974  -0.0000198150   0.0000347713
        0.0000436977  -0.0000144310  -0.0000180578  -0.0000045204   0.0000263180
        0.0000037903  -0.0000123163  -0.0000031273   0.0000039643  -0.0000010972
       -0.0000096222  -0.0000001911   0.0000078514  -0.0000025044  -0.0000022714
       -0.0000016355   0.0000136144   0.0000058488  -0.0000137844  -0.0000017914
       -0.0000106362   0.0000024778   0.0000054342   0.0000030982  -0.0000006794
       -0.0000000866   0.0000247301   0.0000077743  -0.0000088329   0.0000003868
        0.0000078476   0.0000148474   0.0000081672   0.0000204504   0.0000082733
        0.0000053869   0.0000107810   0.0000015977   0.0000101413  -0.0000158205
       -0.0000091425   0.0000226709  -0.0000130876  -0.0000303512  -0.0000184352
       -0.0000531188   0.0000175806  -0.0000735788  -0.0000785493  -0.0000266784
        0.0000411878   0.0001390529   0.0000393709   0.0022780133  -0.0018820726
       -0.0005102000   0.0003495199   0.0004172309  -0.0003084660   0.0000836003
       -0.0000775291  -0.0000114878  -0.0000069224   0.0006194086  -0.0001512264
        0.0005255496  -0.0011759554   0.0005836367   0.0063997392   0.0078125167
        0.0011916728   0.0002698832   0.0006575324   0.0008990631  -0.0004797782
       -0.0009498771  -0.0026476330  -0.0007136936   0.0002336930   0.0004928846
        0.0161135463  -0.1718338789   0.1196988104  -0.0021007707  -0.0793708264
       -0.0855642923   0.1020504669  -0.1010442133  -0.0239234847  -0.0005780914
       -0.0016966821   0.0011251922  -0.0000268021   0.0000233631  -0.0000215443
       -0.0000325326  -0.0000886383  -0.0000358265  -0.0000415881  -0.0003084560
        0.0001773023  -0.0000566777   0.0000672568   0.0000418436  -0.0000097435
        0.0000115161   0.0000081237  -0.0000019157   0.0000020580   0.0000018209
       -0.0000074280  -0.0000005026  -0.0000006450  -0.0000051286   0.0000014052
        0.0000010589  -0.0000012466   0.0000091920   0.0000024381   0.0000016945
        0.0000006657  -0.0000001873  -0.0000008476   0.0000019207   0.0000053527
       -0.0000012501   0.0000027881   0.0000031714  -0.0000011873  -0.0000009065
       -0.0000003533   0.0000025557   0.0000015221   0.0000034467  -0.0000023990
        0.0000018776  -0.0000013329  -0.0000028429  -0.0000070129   0.0000185239
        0.0000022806   0.0000012965  -0.0000072423  -0.0000094546   0.0000072360
        0.0000018420  -0.0000067110   0.0000009877  -0.0000006636  -0.0000035148
        0.0000060950  -0.0000040740  -0.0000042847   0.0000010890   0.0000036302
       -0.0000047050   0.0000164626   0.0000075010   0.0001734989  -0.0001234575
       -0.0000376034   0.0001380692   0.0000377025   0.0000233360   0.0000122420
       -0.0000059961  -0.0000206896   0.0022573371  -0.0001832932  -0.0005473374
       -0.0201676111  -0.0194959052  -0.0097167765  -0.0091222954  -0.0057364491
       -0.0623315217  -0.0057119409  -0.0017003310   0.5326173946   0.0131653618
        0.0135910486  -0.0001305529  -0.0002134249   0.0007995966  -0.0007546687
        0.0006108094  -0.0001163674   0.0002388080   0.0001722823   0.0001183808
       -0.0000288645   0.0007382816   0.0004340878  -0.0003359325  -0.0011665320
        0.0030032425  -0.0018382638   0.0003580527  -0.0000624879   0.0004009040
       -0.0003661190  -0.0003787145  -0.0002421127   0.0000394486   0.0001036907
        0.0001017097  -0.0000920684  -0.0000365107  -0.0000317744   0.0000845110
        0.0000243993   0.0000128061  -0.0000396450  -0.0000368009  -0.0000188352