$hessian                                                                        
        0.1043664367   0.1657533774   0.0782732144  -0.1124194875  -0.1482187175
       -0.0660734460   0.0033182651  -0.0064272524  -0.0030330059   0.0006356822
       -0.0002406758  -0.0011071967  -0.0001136620   0.0001415747  -0.0006229910
        0.0000958531   0.0001388443  -0.0001110793  -0.0001868583  -0.0003724407
       -0.0004927938  -0.0005084599  -0.0012154661   0.0019203043  -0.0015716341
       -0.0169874535  -0.0089220420   0.0006777285  -0.0021795004   0.0001463617
        0.0004735112  -0.0008683018   0.0009481771   0.0002186121  -0.0004315264
        0.0001407563  -0.0013054532  -0.0003943918  -0.0001244207  -0.0028499807
        0.0021159501  -0.0029485771   0.0107172254   0.0104069211   0.0039238995
       -0.0006163772   0.0004080966  -0.0006850557  -0.0008665501  -0.0007833536
        0.0004000240   0.0002253603   0.0000346001   0.0002840468   0.0004155651
       -0.0011106066   0.0000602341   0.0017328041  -0.0011852638  -0.0024708746
       -0.0016188587   0.0023372561   0.0008649445   0.0016200460  -0.0007587238
        0.0002529751  -0.0002299065   0.0003174656  -0.0002644088   0.0003759236
       -0.0010141721   0.0009070570  -0.0002322890   0.0001950254  -0.0003755609
        0.0000700806  -0.0001171770   0.0000516334  -0.0001336196  -0.0001918603
       -0.0003290793  -0.0004377011  -0.0002179570  -0.0004098989  -0.0006182416
        0.0001959622  -0.0001557567  -0.0002469783   0.0000385310   0.0002106940
       -0.0000383278  -0.0000405384   0.0000865933  -0.0000517276   0.0001824617
       -0.0000609633   0.0000132410   0.0000085505  -0.0000406364  -0.0000837847
       -0.0000881699  -0.0001104466  -0.0000076623   0.0000185735  -0.0000380749
        0.0000387776   0.0000210276   0.0000128269   0.0001113454   0.0000573891
        0.0000603809  -0.0000409241  -0.0000055729  -0.0000530383   0.0000339654
       -0.0000366056   0.0000123414   0.0000651194  -0.0000166176  -0.0000004416
       -0.0000177251   0.0000089715   0.0000339250  -0.0000078310   0.0000361215
        0.0000164513   0.0001181121  -0.0000363172   0.0000181968  -0.0000631844
        0.0000548958  -0.0000285235   0.0000064934   0.0000196917   0.0000148727
        0.0000120623  -0.0000006771   0.0000229843  -0.0000146135   0.0000032495
        0.0000001334   0.0000491319   0.0000646774   0.0000046243  -0.0000869520
       -0.0000589328  -0.0000019456   0.0000823252   0.0000079316  -0.0000027617
       -0.0000165842   0.0000048340   0.0000050227   0.0000142676   0.0000020238
       -0.0000030943   0.0000038949  -0.0000023903  -0.0000011992   0.0000076119
        0.0000108404  -0.0000000108  -0.0000038217  -0.0000297370  -0.0000062822
       -0.0000136367   0.0000079236   0.0000051253   0.0000102626  -0.0000071780
       -0.0000031091  -0.0000127035   0.0000022093   0.0000018313   0.0000136267
        0.0000134729  -0.0000010815   0.0000232807   0.0000009445  -0.0000080123
       -0.0000150605   0.0000210775  -0.0000014512   0.0000026842  -0.0000237402
        0.0000032500   0.0000104196  -0.0000047309   0.0000067741  -0.0000047220
       -0.0000342962  -0.0000344328  -0.0000110335  -0.0000036863   0.0000101220
        0.0000035987  -0.0000043488  -0.0000157899   0.0000032927  -0.0000049875
       -0.0000096683   0.0000065529  -0.0000146503   0.0000058648   0.0000026897
        0.0000040540  -0.0000082811  -0.0000008369   0.0000092092   0.0000001561
        0.0000102423  -0.0000096986  -0.0000043559   0.0000006130  -0.0000055980
        0.0000097355   0.0000047779  -0.0000086048   0.0000158957  -0.0000062927
        0.0000015728  -0.0000187035  -0.0000274157  -0.0000481957   0.0000478623
       -0.0000300908  -0.0000249922  -0.0000196654  -0.0000349721  -0.0000155033
       -0.0000638926   0.0000432106   0.0000217476  -0.0000149741  -0.0000030998
        0.0000689790   0.0002943116  -0.0002832952  -0.0002961159  -0.0000885488
       -0.0000284315   0.0000240663   0.0000692032   0.0000308444  -0.0000741034
        0.0000865815  -0.0001682334  -0.0001962365   0.0001137418   0.0000213162
        0.0001435954   0.0001825353  -0.0010473825  -0.0003081522  -0.0005277689
        0.0000266918   0.0001156449  -0.0000169238  -0.0000650467   0.0000111631
       -0.0001601053  -0.0004882541  -0.0000550732  -0.0002229917   0.0001367928
        0.0002305647  -0.0002362456   0.0000961573   0.0003420943   0.0004680713
       -0.0000732469  -0.0000405167   0.0001552286   0.0000761845   0.0002212904
        0.0000243920   0.0002628421  -0.0000031991   0.0000311174   0.0001054428
        0.0003013854  -0.0000633965   0.0001499007  -0.0001554172   0.0000060626
        0.0002496613   0.0000271064  -0.0001746663   0.0000954346   0.0001016550
       -0.0001211517  -0.0001536290  -0.0001530210   0.0000128857   0.0000407563
        0.0001243473   0.0000143331   0.0000204556   0.0000460185  -0.0000223039
        0.0000114453   0.0000379335  -0.0000156929   0.0000151922  -0.0000122629
        0.0000336623  -0.0000303433   0.0000089816   0.0000000836   0.0000153285
        0.0000199348   0.0000180769  -0.0000200658  -0.0000110881  -0.0000135012
       -0.0000059672   0.0000035747  -0.0000212197   0.0000049767   0.0000012481
       -0.0000025625   0.0000033292  -0.0000024493  -0.0000001435  -0.0000050452
        0.0000048000   0.0000031926  -0.0000096634  -0.0000017048   0.0000023296
       -0.0000025433  -0.0000057708  -0.0000007433  -0.0000081750  -0.0000056150
        0.0000006674  -0.0000003110  -0.0000054041  -0.0000009535  -0.0000064692
        0.0000067558   0.0000048206  -0.0000081157  -0.0000127945   0.0000021006
       -0.0000074690  -0.0000012067  -0.0000079541  -0.0000013658   0.0000046040
       -0.0000039979   0.0000051415   0.0000092540  -0.0000053932   0.0000034500
       -0.0000010167   0.0000087918  -0.0000032272   0.0000101677   0.0000117640
       -0.0000023772   0.0000130277  -0.0000008403  -0.0000033610   0.0000138175
        0.0000045822  -0.0000032784   0.0000129806  -0.0000081903   0.0000034872
        0.0000018690  -0.0000070911   0.0000025476   0.0000065012   0.0000119773
       -0.0000144534   0.0000205080   0.0000195436   0.0000091922  -0.0000154995
        0.0000104289  -0.0000324539  -0.0000036670   0.0000296315
        0.1657533774   0.4822135682   0.2016149946  -0.1538609499  -0.4516254765
       -0.1797372307  -0.0065505783  -0.0156502547  -0.0085707516   0.0009287923
       -0.0017496279  -0.0028114093   0.0009141998   0.0003071344  -0.0002125363
        0.0002057265   0.0003472911  -0.0004530244   0.0008813719  -0.0011253082
        0.0001191360  -0.0029976645  -0.0021437932   0.0045844631  -0.0028974858
       -0.0020735018  -0.0034452877  -0.0002192786  -0.0021145854   0.0001484567
       -0.0001635036   0.0008712758   0.0001363856   0.0004452609   0.0001560453
        0.0002897247   0.0001473981  -0.0005930713   0.0003315881  -0.0017868645
        0.0009193218  -0.0018344538  -0.0019674922  -0.0106974821  -0.0108367069
        0.0027177356  -0.0022503170   0.0008691605   0.0008162226   0.0007040196
       -0.0008559832  -0.0004249046   0.0001290250  -0.0001726485  -0.0000058391
        0.0009864037   0.0001095355  -0.0018252783  -0.0000087605  -0.0030518759
        0.0012286143   0.0000595456   0.0021459054  -0.0007908945  -0.0002355616
       -0.0001292435  -0.0003060822   0.0006611333   0.0000456812   0.0012340110
       -0.0025077198  -0.0004987940  -0.0003497658   0.0007461129   0.0001308206
       -0.0001162036   0.0004526621   0.0000311279   0.0001458676  -0.0002629454
       -0.0000566442  -0.0003604118  -0.0005083045  -0.0003751650  -0.0003137678
       -0.0004099828  -0.0004387630  -0.0002901521  -0.0001396201   0.0003567381
        0.0000727055   0.0001093963   0.0000633167  -0.0003051667   0.0004963603
        0.0002094101  -0.0001044592   0.0001341349  -0.0002532487  -0.0000395416
       -0.0001445658  -0.0000806290   0.0000136175   0.0000664302  -0.0000485446
        0.0000784664   0.0000287308  -0.0000381590   0.0001040698  -0.0000032155
        0.0001223593   0.0001903064  -0.0000142496   0.0001090258  -0.0000991348
       -0.0000012541   0.0001650988  -0.0000477707   0.0000153265   0.0000470425
        0.0000264602  -0.0000471843  -0.0000894451   0.0000107969  -0.0000190287
       -0.0000129053  -0.0000684860   0.0000207705  -0.0000097572   0.0000416524
       -0.0000105780   0.0000318287  -0.0000241081  -0.0000447514  -0.0000172270
        0.0000052791   0.0000023386  -0.0000034363   0.0000203886  -0.0000115406
        0.0000101871  -0.0000491103  -0.0000722072  -0.0000053120   0.0000337843
        0.0001034208   0.0000168903  -0.0000352892   0.0000122903  -0.0000014367
        0.0000117753  -0.0000115380  -0.0000051352  -0.0000096937  -0.0000087450
        0.0000013207   0.0000017545   0.0000119642   0.0000028065   0.0000095379
       -0.0000018655  -0.0000014900  -0.0000062394   0.0000092091   0.0000036347
        0.0000272657   0.0000168043  -0.0000019178  -0.0000012138  -0.0000086636
       -0.0000043266   0.0000023086  -0.0000015095  -0.0000036934   0.0000183035
       -0.0000167746  -0.0000129404  -0.0000132461   0.0000118690   0.0000027614
        0.0000264203  -0.0000833226  -0.0000118889  -0.0000013851   0.0000192896
       -0.0000012818   0.0000021765   0.0000066014   0.0000002276   0.0000167631
        0.0000120892   0.0000029060   0.0000147557  -0.0000095449   0.0000058165
        0.0000045995  -0.0000009004   0.0000064114   0.0000048489   0.0000025736
        0.0000045417   0.0000024912   0.0000045288   0.0000005478   0.0000000189
        0.0000015392   0.0000044017   0.0000018161  -0.0000039712   0.0000043484
        0.0000017007   0.0000021873   0.0000009159   0.0000046730   0.0000034773
       -0.0000018858   0.0000025209   0.0000018794  -0.0000072869   0.0000141301
       -0.0000076917   0.0000022825   0.0000261110   0.0000168351  -0.0000163225
        0.0000125854   0.0000204332   0.0000076551  -0.0000065703   0.0000021910
        0.0000246967  -0.0001807201   0.0001168512   0.0001168629  -0.0000534365
       -0.0001185391  -0.0002682195  -0.0006555190   0.0004102183   0.0006769147
       -0.0001432109   0.0000259183   0.0002958696  -0.0002281486   0.0000347395
        0.0001012552  -0.0001468322  -0.0004305761   0.0004118475  -0.0004266609
        0.0008511783   0.0002793631   0.0005732980   0.0020724354   0.0003373176
       -0.0001760380   0.0002963783  -0.0001471856   0.0000929664   0.0002367186
        0.0000655037  -0.0001933159   0.0001141123  -0.0001111676   0.0005765365
        0.0011083491   0.0003009435   0.0000774365  -0.0005338838   0.0004771725
        0.0003223523  -0.0000517679  -0.0002728432   0.0000079282  -0.0002956685
       -0.0000040200  -0.0000312591   0.0000153477   0.0001608548   0.0003222320
        0.0004446445  -0.0001258863  -0.0001882478   0.0003695002   0.0002341996
        0.0001475857   0.0000723425  -0.0000405824   0.0000643372   0.0002247334
       -0.0002282550  -0.0001375174  -0.0001804481  -0.0000389903   0.0000583007
        0.0001710494  -0.0000117231   0.0000091711   0.0000090937   0.0000097577
        0.0000298394   0.0000130694   0.0000281294   0.0000341723  -0.0000250655
        0.0000605376   0.0000352830  -0.0000411267  -0.0000024718  -0.0000014582
        0.0000057786   0.0000277332   0.0000282007   0.0000108605   0.0000197589
        0.0000038852  -0.0000125649   0.0000069889   0.0000036914   0.0000100452
       -0.0000093776   0.0000015741   0.0000062148   0.0000027677   0.0000000476
        0.0000024236   0.0000016401   0.0000017982   0.0000015867   0.0000007680
        0.0000034825   0.0000040862   0.0000007256   0.0000009784   0.0000026005
        0.0000001547   0.0000006530   0.0000120877   0.0000029715  -0.0000136374
        0.0000058151   0.0000058996   0.0000039071  -0.0000075381  -0.0000005887
        0.0000064750   0.0000023530   0.0000040931  -0.0000019934   0.0000006294
       -0.0000020842  -0.0000022765  -0.0000017739  -0.0000022564   0.0000000645
       -0.0000031416  -0.0000036582   0.0000013614  -0.0000032076  -0.0000007503
        0.0000000924  -0.0000025028   0.0000005280   0.0000004209  -0.0000024754
        0.0000009829   0.0000006782  -0.0000028152   0.0000022820  -0.0000016111
       -0.0000024058   0.0000057184  -0.0000028715   0.0000008816  -0.0000033278
        0.0000030124  -0.0000055217  -0.0000053800   0.0000087614   0.0000221721
        0.0000120182  -0.0000198988  -0.0000199874  -0.0000281560
        0.0782732144   0.2016149946   0.1340874517  -0.0704173271  -0.1820217231
       -0.1359667519   0.0046543001   0.0073034944   0.0094514396   0.0000647324
       -0.0009510294   0.0010237044  -0.0008435920   0.0002782777   0.0010012767
       -0.0000210631   0.0003456442   0.0001427487  -0.0003101420   0.0007308314
       -0.0007973065   0.0004059459   0.0006448369  -0.0014360725  -0.0062848455
       -0.0138244177  -0.0009433238   0.0005634038  -0.0019787276   0.0007057222
        0.0007160222  -0.0005993544   0.0001232020   0.0002075459  -0.0001680630
        0.0001717576  -0.0002824171  -0.0006006119  -0.0006829171  -0.0033532510
        0.0014888155  -0.0017248069  -0.0018886706  -0.0155405933  -0.0037977668
        0.0010568534  -0.0009146275   0.0020124365   0.0012864411   0.0012056513
       -0.0002943363  -0.0003263562  -0.0000016240  -0.0003294557  -0.0001871339
        0.0013549709   0.0000870823  -0.0015303201  -0.0005147216  -0.0059614083
       -0.0004609274   0.0005688250   0.0036639693   0.0001688525  -0.0001359730
       -0.0000128212  -0.0004860442   0.0005169144   0.0000472207   0.0020204292
       -0.0017073897  -0.0006845433  -0.0007481344   0.0003971453   0.0000451793
       -0.0000849301   0.0001290955   0.0001105410   0.0002363962  -0.0003597673
       -0.0002684343  -0.0002634436   0.0000831197  -0.0009707573  -0.0005372873
       -0.0000589436  -0.0007356539  -0.0005517898  -0.0002922243   0.0002177726
       -0.0000209546  -0.0001411729   0.0000628737  -0.0003634046   0.0004086361
        0.0002466707  -0.0000655340  -0.0000082596   0.0001431704  -0.0000322635
       -0.0000119276  -0.0000457110  -0.0000150162  -0.0000125907   0.0000016766
        0.0000486949  -0.0000315084  -0.0000156348   0.0000240628  -0.0000012846
        0.0000217713   0.0003072855  -0.0000740521   0.0001210438  -0.0000779544
        0.0000353236   0.0002520364  -0.0000164918   0.0000090861   0.0000662176
        0.0000198317  -0.0000430079  -0.0000519685   0.0000087433  -0.0000163008
       -0.0000071263  -0.0000386495   0.0000139208  -0.0000030470   0.0000208987
       -0.0000093187   0.0000166878  -0.0000063774  -0.0000166392  -0.0000045599
       -0.0000056144   0.0000014596  -0.0000052535   0.0000055566  -0.0000018163
        0.0000038066  -0.0000207000  -0.0000290250  -0.0000060061   0.0000139193
        0.0000406044   0.0000134464  -0.0000120746   0.0000062373  -0.0000036954
        0.0000046520  -0.0000053155   0.0000000755  -0.0000033090  -0.0000037726
        0.0000016919   0.0000009527   0.0000043117   0.0000024039   0.0000040379
       -0.0000008637   0.0000009106  -0.0000025421   0.0000026240   0.0000019783
        0.0000107089   0.0000074763   0.0000003449  -0.0000000398  -0.0000049093
       -0.0000002325   0.0000009935  -0.0000009036   0.0000015368   0.0000101509
       -0.0000075865  -0.0000020771  -0.0000028016   0.0000041674   0.0000056579
        0.0000106256  -0.0000342239  -0.0000090964   0.0000003172   0.0000100989
        0.0000014324  -0.0000019523   0.0000022357   0.0000007945   0.0000063968
        0.0000024507   0.0000041858   0.0000051964   0.0000052043  -0.0000018452
        0.0000020292   0.0000038372   0.0000013591   0.0000031197  -0.0000011646
        0.0000019851   0.0000014232   0.0000003066   0.0000001991  -0.0000004778
        0.0000028820   0.0000002907   0.0000025698  -0.0000048160  -0.0000002433
       -0.0000015978   0.0000030341   0.0000013105   0.0000000337   0.0000030259
       -0.0000019284  -0.0000001751  -0.0000019491  -0.0000087062   0.0000077450
       -0.0000129677  -0.0000024125   0.0000099328   0.0000189678  -0.0000136163
        0.0000037169   0.0000162549   0.0000123111  -0.0000079409  -0.0000075702
        0.0000205057  -0.0002690143   0.0001236377   0.0001215505  -0.0000641533
       -0.0001072690  -0.0001363570  -0.0001608278   0.0017649473   0.0004727900
       -0.0000539448  -0.0000621455   0.0001786326   0.0001453489   0.0001797486
        0.0000524811   0.0000251524   0.0002540642  -0.0000383310   0.0002173338
        0.0006871282   0.0002636511  -0.0004479730  -0.0000089463  -0.0007087869
        0.0000139007   0.0001039801   0.0000174432  -0.0001194922   0.0000292390
        0.0000317366  -0.0002762170  -0.0000153160  -0.0003256594  -0.0000676336
        0.0003053128   0.0001400657  -0.0001228229  -0.0004334394   0.0005100787
        0.0001721659   0.0000145271  -0.0001037807  -0.0000431618  -0.0003702283
        0.0000380238  -0.0001237653   0.0000383975   0.0002025464   0.0000303108
        0.0000334495   0.0000511791  -0.0000300178   0.0002109964   0.0001286638
        0.0000510274   0.0000989113   0.0001386194   0.0000842121   0.0001223570
        0.0000060411   0.0000608190  -0.0001187273  -0.0001247219   0.0000280217
       -0.0000357091  -0.0000067452   0.0000114380   0.0000297662  -0.0000169341
        0.0000005581   0.0000184575  -0.0000325882  -0.0000004458  -0.0000038358
       -0.0000019370   0.0000423885  -0.0000265647  -0.0000148707   0.0000038714
        0.0000124043   0.0000119919   0.0000164213   0.0000105944   0.0000089129
        0.0000057885  -0.0000037293   0.0000032381   0.0000011837  -0.0000006504
       -0.0000037016   0.0000007117   0.0000028155  -0.0000000066  -0.0000001317
        0.0000011074  -0.0000000305   0.0000004828   0.0000006636  -0.0000003490
        0.0000012704   0.0000014213  -0.0000005468  -0.0000003719   0.0000008205
       -0.0000008502  -0.0000000614   0.0000046990  -0.0000003619  -0.0000063228
        0.0000036294  -0.0000003083   0.0000008054  -0.0000033485  -0.0000037060
        0.0000053847  -0.0000001168   0.0000024927   0.0000024244  -0.0000023522
        0.0000003028  -0.0000003836  -0.0000067893  -0.0000008738  -0.0000018622
       -0.0000024812   0.0000048530  -0.0000000029  -0.0000012393   0.0000015160
        0.0000016402  -0.0000038305   0.0000010145   0.0000011675  -0.0000004832
        0.0000013118   0.0000028240  -0.0000039001   0.0000042992   0.0000013783
       -0.0000020922   0.0000111380   0.0000000172   0.0000052396  -0.0000016439
       -0.0000010122   0.0000017774  -0.0000056027   0.0000042412   0.0000188185
       -0.0000015416  -0.0000568567   0.0000222590   0.0000152976
       -0.1124194875  -0.1538609499  -0.0704173271   0.4135203027   0.1139044604
        0.0484811107  -0.0465921184  -0.0225380827   0.0237971991  -0.0040336158
       -0.0027707525   0.0089383357   0.0047567175  -0.0005843523   0.0035754535
       -0.0004081593   0.0003295665   0.0008536167   0.0056291784  -0.0004420003
        0.0009987328  -0.0013522971  -0.0044400228  -0.0012171377  -0.1147683056
        0.0189203969  -0.0556098906  -0.0108441124   0.0143281147  -0.0079327970
        0.0025843442   0.0020463064  -0.0027168371  -0.0009087386   0.0011153867
       -0.0006352084   0.0036405390  -0.0037182485  -0.0018488912  -0.0126774910
       -0.0074900241  -0.0083241385  -0.1008421916   0.0306725524   0.0474041885
        0.0021421240   0.0006290594   0.0104906121   0.0042477664   0.0019413389
       -0.0012784407  -0.0015172833   0.0003561293  -0.0004762976  -0.0018434586
        0.0032105838  -0.0022775571  -0.0245761760   0.0116343394   0.0077956287
        0.0076679937  -0.0041121094   0.0051497446  -0.0060590532   0.0017127617
       -0.0026587497   0.0002057594  -0.0002217955   0.0007822163   0.0008008956
        0.0002525725  -0.0032053329   0.0001259738   0.0000931074   0.0011139446
       -0.0002656071   0.0001775963   0.0003022664   0.0000273359  -0.0000838843
        0.0001313087  -0.0000912956  -0.0002021898   0.0000603484   0.0003818587
       -0.0003061625  -0.0001889850   0.0003118753  -0.0000751389  -0.0003588064
        0.0000380748   0.0002761124  -0.0002965562  -0.0002826504   0.0000166679
        0.0004325087  -0.0001421467   0.0000945066  -0.0000154750   0.0002389341
        0.0001961174   0.0002535263   0.0000022401  -0.0000234231   0.0000550698
       -0.0000272274  -0.0000607505  -0.0000749346  -0.0002217707  -0.0001222985
       -0.0001262339   0.0002590831   0.0000193214   0.0002517021  -0.0002973023
        0.0001288375   0.0002053218  -0.0002282389   0.0000580036   0.0000480020
        0.0001010030  -0.0000733344  -0.0001943141   0.0000251436  -0.0001460685
       -0.0000801449  -0.0004176135   0.0001242900  -0.0000586621   0.0002087579
       -0.0001695945   0.0001099913  -0.0000438078  -0.0000980421  -0.0000601960
       -0.0000203972  -0.0000012149  -0.0000610991   0.0000576189  -0.0000205340
        0.0000072683  -0.0001727286  -0.0002412795  -0.0000152511   0.0002689356
        0.0002481021   0.0000191789  -0.0002539356  -0.0000127980   0.0000058001
        0.0000553969  -0.0000224286  -0.0000172255  -0.0000451569  -0.0000140210
        0.0000095754  -0.0000071468   0.0000164497   0.0000059372  -0.0000101908
       -0.0000312437  -0.0000009062   0.0000036244   0.0000896505   0.0000214075
        0.0000613973  -0.0000075629  -0.0000150735  -0.0000273696   0.0000067791
        0.0000040793   0.0000419618  -0.0000055341  -0.0000076945  -0.0000210476
       -0.0000531897  -0.0000077206  -0.0000676564   0.0000100956   0.0000240108
        0.0000665271  -0.0001280317  -0.0000054446  -0.0000106127   0.0000794711
       -0.0000113655  -0.0000250492   0.0000243381  -0.0000206130   0.0000277844
        0.0001157400   0.0001061785   0.0000465884  -0.0000030033  -0.0000247966
       -0.0000050465   0.0000109235   0.0000505113  -0.0000040895   0.0000165873
        0.0000316037  -0.0000148375   0.0000434913  -0.0000193288  -0.0000057478
       -0.0000100307   0.0000244979   0.0000053696  -0.0000294463   0.0000043349
       -0.0000266659   0.0000264917   0.0000153825   0.0000023911   0.0000208954
       -0.0000294888  -0.0000110102   0.0000269261  -0.0000560167   0.0000341657
       -0.0000190512   0.0000531026   0.0000987041   0.0001635675  -0.0001528951
        0.0001197625   0.0001051379   0.0000753466   0.0001042484   0.0000397046
        0.0002077633  -0.0004720882   0.0000978297   0.0000997080  -0.0021198195
        0.0004476255  -0.0011058231  -0.0011911124   0.0006139249  -0.0007853024
       -0.0000002025  -0.0001705285   0.0000872979  -0.0012148173   0.0002726145
       -0.0006075236   0.0002664371   0.0002804436  -0.0000008226  -0.0013346067
        0.0006775493  -0.0007322187  -0.0000185957  -0.0007519600   0.0015908534
        0.0000705781  -0.0004117446   0.0000435207  -0.0002054806  -0.0001317390
        0.0009062948   0.0002110516   0.0003851964   0.0000410440   0.0002619539
        0.0003276120   0.0015473412  -0.0002516448  -0.0011858318  -0.0020169792
        0.0001952875  -0.0000869630  -0.0006842604  -0.0001500556  -0.0007929558
       -0.0001067106  -0.0003995295  -0.0000571305   0.0000811884  -0.0001133651
       -0.0002340545  -0.0000050478  -0.0001201576   0.0001471307  -0.0000033068
       -0.0003529252   0.0000320840   0.0002492679  -0.0000651814  -0.0001417969
        0.0001590767   0.0004445191   0.0002255700  -0.0000047672  -0.0000741098
       -0.0002850446  -0.0000566545  -0.0000414898  -0.0001177288   0.0000702918
       -0.0000122712  -0.0000878943   0.0000416411  -0.0000220541   0.0000146076
       -0.0000558427   0.0000939910  -0.0000803134  -0.0000372060  -0.0000484631
       -0.0000445372  -0.0000164800   0.0000730568   0.0000462571   0.0000587666
        0.0000250898  -0.0000199243   0.0000653345  -0.0000078602   0.0000051994
       -0.0000002543  -0.0000045563   0.0000143783   0.0000030231   0.0000144464
       -0.0000101708  -0.0000066796   0.0000280007   0.0000052790  -0.0000053080
        0.0000105072   0.0000166191   0.0000025494   0.0000234077   0.0000168127
       -0.0000014195   0.0000021346   0.0000211750   0.0000044962   0.0000086750
       -0.0000130577  -0.0000080238   0.0000278405   0.0000288423  -0.0000056324
        0.0000264447   0.0000053164   0.0000245249   0.0000040203  -0.0000115369
        0.0000085464  -0.0000117566  -0.0000284891   0.0000149336  -0.0000073115
       -0.0000003100  -0.0000263258   0.0000118208  -0.0000301547  -0.0000321155
        0.0000082341  -0.0000372450   0.0000029502   0.0000112830  -0.0000399291
       -0.0000120209   0.0000126416  -0.0000384381   0.0000244627  -0.0000084783
       -0.0000074096   0.0000248400  -0.0000054780  -0.0000182696  -0.0000373472
        0.0000365786  -0.0000629101  -0.0000604785  -0.0000082505   0.0000664606
       -0.0000175841   0.0000721217   0.0000056537  -0.0001187919
       -0.1482187175  -0.4516254765  -0.1820217231   0.1139044604   0.6746023798
        0.1347981137  -0.0221575077  -0.0917755022   0.0605478537  -0.0027303744
        0.0078266778   0.0084960267   0.0002473226   0.0015832491  -0.0024902932
       -0.0003441435  -0.0013916284   0.0003779168  -0.0002923349  -0.0034505353
       -0.0023202625  -0.0048317088  -0.0203732185   0.0103189941   0.0106319116
       -0.0406388083   0.0062870074   0.0164102587  -0.0030723467   0.0118255308
        0.0024206312  -0.0045764306   0.0016286310  -0.0002966665  -0.0020965313
       -0.0001798207  -0.0035844463  -0.0008598156  -0.0026920665  -0.0097929447
        0.0045643759  -0.0061222552   0.0366416353  -0.0599401804  -0.0280789335
       -0.0008821825  -0.0009200097  -0.0069048895   0.0001407105   0.0057118157
       -0.0002777166   0.0009177676  -0.0005526763   0.0000826869   0.0016513640
        0.0043686909  -0.0000697885   0.0103139013  -0.0026342265   0.0027848448
       -0.0027972144  -0.0037285132  -0.0038176436   0.0017245866   0.0004085875
        0.0009632322   0.0003985535  -0.0010082980  -0.0000483254  -0.0016643975
        0.0037792728   0.0004674297   0.0003862829  -0.0011206767  -0.0001807487
        0.0001645295  -0.0003632618  -0.0000726007  -0.0002558918   0.0002530390
        0.0001639788  -0.0001197247   0.0000851537   0.0001255703   0.0004095087
        0.0001320085  -0.0001311928   0.0004343113   0.0001022519  -0.0004861188
       -0.0000805177   0.0000120649  -0.0001893694   0.0004146142  -0.0007136582
       -0.0003250097   0.0002239106  -0.0001890132   0.0005543896   0.0000027526
        0.0002981970   0.0000495105  -0.0000256357  -0.0001561274   0.0001264286
       -0.0000879569  -0.0000502705   0.0001020249  -0.0001820952   0.0000101942
       -0.0002224894  -0.0003035309   0.0000500155  -0.0001155466   0.0002145080
        0.0000524045  -0.0002413123   0.0000811659  -0.0000637145  -0.0000553849
       -0.0000492451   0.0000731415   0.0001482455  -0.0000266891   0.0000390618
        0.0000202706   0.0001350707  -0.0000346459   0.0000210771  -0.0000782912
        0.0000254565  -0.0000565039   0.0000404949   0.0000751697   0.0000317745
       -0.0000114939  -0.0000019473   0.0000077338  -0.0000360849   0.0000196786
       -0.0000152376   0.0000847746   0.0001235348   0.0000079017  -0.0000705589
       -0.0001737797  -0.0000248316   0.0000715170  -0.0000163008   0.0000010398
       -0.0000245570   0.0000173330   0.0000101991   0.0000186468   0.0000122430
       -0.0000026391  -0.0000009932  -0.0000181366  -0.0000037353  -0.0000146665
        0.0000057473   0.0000035426   0.0000080484  -0.0000204814  -0.0000066162
       -0.0000445598  -0.0000233844   0.0000045622   0.0000026304   0.0000111890
        0.0000067954  -0.0000077529  -0.0000010365   0.0000063091  -0.0000224085
        0.0000277191   0.0000197739   0.0000238455  -0.0000159533  -0.0000036797
       -0.0000441020   0.0001338440   0.0000162918   0.0000003750  -0.0000340986
        0.0000030313  -0.0000022286  -0.0000103514   0.0000018804  -0.0000267881
       -0.0000309588  -0.0000098201  -0.0000284069   0.0000216807  -0.0000063453
       -0.0000068604   0.0000032033  -0.0000194055  -0.0000058935  -0.0000092046
       -0.0000092443  -0.0000044082  -0.0000087095   0.0000028413  -0.0000001519
       -0.0000006817  -0.0000106847  -0.0000031677   0.0000082277  -0.0000093845
       -0.0000026969  -0.0000044642  -0.0000034482  -0.0000092616  -0.0000066859
        0.0000045511  -0.0000054011  -0.0000050612   0.0000113289  -0.0000249201
        0.0000105335  -0.0000094412  -0.0000461219  -0.0000349126   0.0000335543
       -0.0000179915  -0.0000419166  -0.0000238528   0.0000045078  -0.0000136537
       -0.0000487686   0.0003848231  -0.0000681864  -0.0002060008   0.0006841413
       -0.0004114871   0.0005684649   0.0016332875  -0.0011276515  -0.0022190963
        0.0004603334   0.0002325363  -0.0009514735   0.0002803926  -0.0000113025
       -0.0002682215  -0.0002894793  -0.0003740969   0.0003872316   0.0004616130
       -0.0003173891  -0.0007219151   0.0007321661  -0.0036124923   0.0004389267
        0.0009620083  -0.0005429517   0.0007425232  -0.0001883223  -0.0002961538
       -0.0002116179  -0.0008438977  -0.0002694714  -0.0006993956  -0.0006194887
       -0.0020347366  -0.0004871001  -0.0010623984  -0.0012280391   0.0004420197
       -0.0001694502   0.0002610160   0.0003363204  -0.0005509590  -0.0012088199
        0.0002996839  -0.0000109892  -0.0000177205  -0.0002342545  -0.0003918424
       -0.0006109178   0.0000792684   0.0001540529  -0.0004797736  -0.0002698272
       -0.0002402914  -0.0000945584   0.0000509509  -0.0001436488  -0.0003936412
        0.0003705892   0.0002662631   0.0002579666   0.0000921802  -0.0001434947
       -0.0003447083  -0.0000378008  -0.0000202997   0.0000018382  -0.0000429518
       -0.0000578357  -0.0000198188  -0.0000686150  -0.0000548648   0.0000465072
       -0.0001030904  -0.0000175628   0.0000615472   0.0000127770   0.0000062819