$hessian                                                                        
        0.4970090436   0.1906585013   0.1576714209  -0.4643509352  -0.1718848131
       -0.1453164162  -0.0087192299  -0.0092496777  -0.0016997315   0.0007208245
       -0.0018597649  -0.0012835033   0.0008026489   0.0002205608   0.0003585709
        0.0002112941   0.0001298227  -0.0005162818   0.0007584829  -0.0007244135
        0.0006855049  -0.0022624268   0.0000411801   0.0024962991  -0.0031858979
       -0.0038691468  -0.0025748372  -0.0020261238  -0.0005880878   0.0004764723
        0.0008093811   0.0003483430  -0.0001630534   0.0001825581   0.0001900434
        0.0002922451  -0.0007792968   0.0001926676   0.0004415003   0.0009997707
       -0.0011768442  -0.0025901923  -0.0196881125  -0.0057562938  -0.0074911876
       -0.0013833822  -0.0050156052   0.0005408320  -0.0001905188  -0.0000058506
        0.0005923823   0.0002604560  -0.0012410152   0.0000763892  -0.0008209851
        0.0005710812   0.0006694249  -0.0015203147   0.0052186681  -0.0015619590
        0.0002716673   0.0005332441  -0.0002959539   0.0014241173   0.0004931334
        0.0000117528  -0.0005600151  -0.0000893620  -0.0000216425   0.0001924563
        0.0001419209   0.0000084718  -0.0001262932  -0.0002256352   0.0000148600
       -0.0000558193   0.0000011723  -0.0000040070  -0.0000047108  -0.0000335054
       -0.0000299264  -0.0000400718  -0.0000432054  -0.0000465578  -0.0000145676
       -0.0000187006  -0.0000007232   0.0000081187   0.0000110593  -0.0000144572
        0.0001100184   0.0001167815   0.0000686287  -0.0001183171  -0.0001155881
        0.0000274612   0.0001698273   0.0000787307   0.0000323005  -0.0002382804
       -0.0002388786   0.0000052212   0.0000500442   0.0000789043   0.0000021152
       -0.0000412692   0.0002297717  -0.0000110657   0.0002875986  -0.0001310239
       -0.0000398340  -0.0001760484  -0.0000340632   0.0000075294   0.0001219972
       -0.0001077209  -0.0000154517  -0.0002877701   0.0000740869   0.0000156537
        0.0003780840  -0.0002942943  -0.0000420540  -0.0003044187   0.0002843624
        0.0000361135   0.0000883256  -0.0001797227  -0.0000120559  -0.0000564273
        0.0001234323   0.0000076874  -0.0000516348  -0.0001479687  -0.0000009092
       -0.0001535460   0.0001989459   0.0000275528   0.0002244137  -0.0000319192
        0.0000080251   0.0000740253   0.0002022847  -0.0000121105  -0.0001202552
       -0.0000693249  -0.0000059783   0.0001360152  -0.0003390978   0.0001491062
        0.0000074135   0.0000136490  -0.0001837125   0.0000347974  -0.0001091131
        0.0001235105  -0.0000270960   0.0001772824  -0.0002471916  -0.0000951701
        0.0000859295   0.0002847424   0.0000562966   0.0000937934  -0.0006592829
       -0.0001077251   0.0000189106   0.0006473109   0.0000241368   0.0001014041
       -0.0002783930  -0.0000644380   0.0000606395   0.0002022787   0.0000177425
       -0.0000056393  -0.0001527335  -0.0000311606  -0.0000423432   0.0002747250
        0.0001215318  -0.0001966822  -0.0001503717  -0.0000184218   0.0000670365
        0.0000323545  -0.0000047164   0.0000410736  -0.0000002166   0.0003811644
       -0.0001385529   0.0000126771  -0.0009407562   0.0002659401   0.0000111790
       -0.0002202030   0.0003502135  -0.0004924704  -0.0001417265  -0.0000006505
        0.0001454210  -0.0002522124  -0.0000033390  -0.0000650228  -0.0000476258
       -0.0003018707   0.0001970988  -0.0005116171   0.0002018450  -0.0001998777
        0.0019278141   0.0007704339   0.0000281992   0.0002313404  -0.0000285432
       -0.0002151734   0.0002274497   0.0000707001   0.0000796165   0.0001149261
       -0.0000397824  -0.0002250652   0.0009595315   0.0004580397   0.0004692706
        0.0003114477   0.0009500268  -0.0003473189   0.0000508419   0.0002257315
       -0.0000486156   0.0000796645   0.0001096773  -0.0001769665   0.0000384445
        0.0000429739   0.0000033315  -0.0000380388   0.0000073839  -0.0000014722
        0.0000348307  -0.0000040993  -0.0000024760  -0.0000198240   0.0000078267
        0.0000032725   0.0000149601  -0.0000015353   0.0000185477  -0.0000013242
       -0.0000122810   0.0000029968   0.0000149106   0.0000200368  -0.0000090314
       -0.0000294558   0.0000375123   0.0000048305  -0.0000433699  -0.0000006745
        0.0000015763  -0.0000329121  -0.0000242303  -0.0000044688  -0.0000432416
       -0.0000372646   0.0000023997  -0.0000009991  -0.0000461578  -0.0000046843
        0.0000423783  -0.0000230042  -0.0000077911   0.0000203425   0.0000240678
        0.0000026882  -0.0000134271  -0.0000079126  -0.0000140410   0.0000058674
        0.0000151916  -0.0000214050   0.0000030070  -0.0000166525   0.0000048179
        0.0000057137  -0.0000000064   0.0000266010  -0.0000159612   0.0000334436
        0.0000298758  -0.0000215565   0.0000317132  -0.0000080768  -0.0000085558
        0.0000342920   0.0000043796  -0.0000080230   0.0000364737  -0.0000339994
        0.0000019578   0.0000004952  -0.0000379119   0.0000102310  -0.0000115986
       -0.0000056983  -0.0000102883   0.0000043083   0.0000073963   0.0000175901
       -0.0000049869   0.0000035346  -0.0000209863   0.0000317002  -0.0000047959
        0.1906585013   0.1205794868   0.0674414151  -0.1755902901  -0.1262667004
       -0.0614336840  -0.0158475518  -0.0028992967  -0.0044170262   0.0001280743
       -0.0022775153  -0.0013097538   0.0012093227  -0.0004046100   0.0008590245
        0.0000105616   0.0004151794  -0.0001470822   0.0014581844  -0.0000164383
        0.0007638429  -0.0009990635   0.0012167270   0.0013261397  -0.0118546581
        0.0002591794  -0.0051659409  -0.0019637735   0.0001902601   0.0009760940
       -0.0001909174  -0.0004080400   0.0005529944  -0.0001275609   0.0001728523
        0.0003679932  -0.0001731077  -0.0009149786  -0.0001927137   0.0010831104
       -0.0000833150  -0.0030681016   0.0096664360   0.0074820485   0.0043551709
       -0.0006755239   0.0025236820   0.0004804235   0.0006973867   0.0010920763
       -0.0002496675   0.0001999447   0.0006731648  -0.0000692751  -0.0001090579
       -0.0010519478  -0.0002490624   0.0000044521  -0.0037670918   0.0000184006
       -0.0000018852   0.0018626361   0.0000128976   0.0010240837  -0.0006148361
        0.0000832199  -0.0000564006  -0.0002055480   0.0000116910   0.0000368580
       -0.0003092804  -0.0000323574  -0.0002251945   0.0003319042  -0.0000225687
        0.0003326776  -0.0000689443   0.0000014281  -0.0000783000   0.0001271969
        0.0000138798   0.0001234693   0.0000544871   0.0000607050  -0.0000931516
        0.0000373952   0.0000028231   0.0000027733   0.0000119708   0.0000584912
       -0.0001741210  -0.0002290696  -0.0000528932   0.0001193566   0.0002413262
       -0.0000816366  -0.0003911150  -0.0000721872  -0.0000697187   0.0003912026
        0.0004236989  -0.0000029635  -0.0001717942  -0.0001889813   0.0000087126
        0.0000009215  -0.0002268202   0.0000267573  -0.0002682091   0.0000269516
        0.0000220536   0.0002204857  -0.0000632523  -0.0000245958  -0.0000220965
        0.0000329075  -0.0000012803   0.0001787569   0.0000292790  -0.0000110865
       -0.0002822344   0.0003114915   0.0000445592   0.0003340975  -0.0002005957
       -0.0000454132  -0.0000170248   0.0001487348   0.0000076764   0.0000482014
       -0.0000408631  -0.0000031923  -0.0000649037   0.0001495151   0.0000123269
        0.0000634453  -0.0001927390  -0.0000135845  -0.0002323269  -0.0000322954
       -0.0000240390  -0.0000393970  -0.0004000527   0.0000830513   0.0002598586
        0.0000968667   0.0000510164  -0.0000695748   0.0002836465  -0.0000918150
        0.0000047142   0.0000173723   0.0001107983  -0.0000414910   0.0001096673
       -0.0000941667   0.0000414769  -0.0001547566   0.0001422727   0.0000645038
       -0.0000922859  -0.0001793896  -0.0000111238  -0.0000707046   0.0004322752
        0.0000774582  -0.0000074407  -0.0003982387   0.0000048695  -0.0001164136
        0.0001798020   0.0000631054  -0.0000931491  -0.0001092890  -0.0000322475
        0.0000281255   0.0001074053   0.0000221349   0.0000453114  -0.0001693681
       -0.0000802781   0.0001783810   0.0000870957   0.0000866482  -0.0001244402
       -0.0000518534  -0.0001121064  -0.0000907375  -0.0000411656  -0.0002178874
        0.0002403276   0.0000388036   0.0005805284   0.0005238514  -0.0000277716
       -0.0006928078   0.0005118977  -0.0000688229  -0.0001049397  -0.0000252260
        0.0003056253  -0.0003895789  -0.0000131673  -0.0000586826  -0.0000448722
       -0.0001925184   0.0000946202  -0.0004157451   0.0004488688  -0.0002314024
        0.0003382235  -0.0003952630  -0.0003075610   0.0001225007   0.0000259088
       -0.0000698401   0.0000232935   0.0000811278  -0.0001340470   0.0000017626
       -0.0002815785  -0.0002598959   0.0003366121   0.0003357402  -0.0000836681
        0.0016821485   0.0008039898  -0.0001265156  -0.0000428379   0.0002401399
       -0.0000238938   0.0001875007   0.0000204022   0.0000481351   0.0000656598
        0.0000978545   0.0000095992  -0.0000107426  -0.0000019248   0.0000100736
       -0.0000111730  -0.0000059774   0.0000071728  -0.0000044274  -0.0000056747
        0.0000069539  -0.0000062221  -0.0000013177  -0.0000295461   0.0000108291
        0.0000076424  -0.0000175432  -0.0000093688  -0.0000030388  -0.0000020031
        0.0000101923  -0.0000143742  -0.0000005549   0.0000242083  -0.0000022517
       -0.0000034126   0.0000157404   0.0000152489   0.0000063783   0.0000157360
        0.0000196134  -0.0000059414  -0.0000014886   0.0000369182   0.0000042283
       -0.0000315084   0.0000184352   0.0000050536  -0.0000103443  -0.0000244096
        0.0000049454   0.0000024938   0.0000123195   0.0000177633   0.0000013223
       -0.0000031599   0.0000206172  -0.0000013900   0.0000096703  -0.0000074323
       -0.0000061407  -0.0000057035  -0.0000174095   0.0000074237  -0.0000070811
       -0.0000044587   0.0000082092  -0.0000042983   0.0000011096  -0.0000004069
       -0.0000081603   0.0000042650   0.0000040089  -0.0000064515   0.0000077576
       -0.0000034791  -0.0000045986   0.0000137327  -0.0000068581   0.0000084086
        0.0000046942   0.0000003402   0.0000063300  -0.0000045197  -0.0000057098
        0.0000199765   0.0000087386  -0.0000413979   0.0000533088  -0.0000148594
        0.1576714209   0.0674414151   0.0959821861  -0.1399849156  -0.0577188701
       -0.1053342178   0.0100878514   0.0026868824   0.0098659790  -0.0002571937
       -0.0009034732   0.0013813280  -0.0012102100  -0.0000196986   0.0003929517
       -0.0000595033   0.0003122252   0.0001540174  -0.0007499709   0.0001854259
       -0.0008516506   0.0005200460  -0.0005171984  -0.0005467916  -0.0183066074
       -0.0084576252  -0.0022303229  -0.0024043303   0.0000424666   0.0017421025
       -0.0010616992   0.0001610644   0.0007806734  -0.0003391023   0.0001255968
        0.0004975283  -0.0005445913  -0.0005954039  -0.0012041123   0.0020588899
       -0.0017022998  -0.0039189043  -0.0042518211  -0.0020384450   0.0045519064
       -0.0001566624  -0.0009074573   0.0005363489   0.0000260288  -0.0000599076
       -0.0004006525   0.0001693541  -0.0000396216   0.0000676300  -0.0004466155
       -0.0003945529  -0.0004704523  -0.0009972826   0.0011876013   0.0001426356
        0.0001609363   0.0004280987   0.0006349913   0.0001797118  -0.0000477364
       -0.0002376446   0.0001440346   0.0000203343   0.0000733351  -0.0001537920
        0.0000661713   0.0000321285   0.0000525450  -0.0000557683   0.0000183341
       -0.0000463756   0.0000132192  -0.0000066652  -0.0000079545  -0.0000361335
       -0.0000100080  -0.0000408215  -0.0000246991  -0.0000224887  -0.0000022194
       -0.0000057379  -0.0000020326  -0.0000078210   0.0000093245  -0.0000069315
        0.0000107198   0.0000162594   0.0000333954  -0.0000493787   0.0000237541
       -0.0000319969   0.0000219439   0.0000235733  -0.0000070488  -0.0000697140
       -0.0000623696  -0.0000000694   0.0000285272   0.0000294391   0.0000039138
       -0.0000096545   0.0000704198  -0.0000102457   0.0001136912  -0.0000465129
       -0.0000138845  -0.0000740367  -0.0000115000   0.0000062667   0.0000482833
       -0.0000414801  -0.0000047583  -0.0000869823   0.0000339385   0.0000073160
        0.0001163132  -0.0000809545  -0.0000099042  -0.0000802254   0.0000645426
        0.0000085831   0.0000350986  -0.0000254531  -0.0000009330  -0.0000064198
        0.0000574461   0.0000023858  -0.0000328511  -0.0000421099   0.0000092582
       -0.0000495551   0.0000460538   0.0000101189   0.0000537048   0.0000006111
        0.0000072324   0.0000263789   0.0000334103   0.0000169956   0.0000178818
       -0.0000209732   0.0000283952   0.0000452399  -0.0001468632   0.0000558532
        0.0000093623   0.0000089745  -0.0001025225   0.0000117900  -0.0000466314
        0.0000590006  -0.0000113967   0.0000741766  -0.0000857512  -0.0000365310
        0.0000385708   0.0001116425   0.0000282549   0.0000275391  -0.0002542002
       -0.0000369944  -0.0000051618   0.0002456268   0.0000043815   0.0000515462
       -0.0001027440  -0.0000241340   0.0000340168   0.0000617821   0.0000084796
       -0.0000071977  -0.0000725317  -0.0000126085  -0.0000255415   0.0001129007
        0.0000473367  -0.0000826649  -0.0000551382  -0.0000179276   0.0000409675
        0.0000231347   0.0000029091   0.0000036376  -0.0000082103  -0.0001133805
        0.0000025738   0.0000171178   0.0001018110   0.0001384384  -0.0000789653
       -0.0000496485   0.0006424049   0.0003184557  -0.0000332580  -0.0000393559
        0.0000656708   0.0001876216   0.0001029394   0.0000547775  -0.0000323109
        0.0001779660  -0.0000609686   0.0002716584   0.0004569728   0.0001907603
       -0.0007193690  -0.0004280240  -0.0009532476   0.0000800993   0.0000339260
        0.0000344943  -0.0000259014  -0.0000881033  -0.0001493418  -0.0001170160
       -0.0002033780  -0.0005187594   0.0002242716  -0.0001062148  -0.0001921519
        0.0001435820   0.0000346695  -0.0003308587   0.0000189011   0.0000457371
       -0.0000259615   0.0000141631   0.0000291124   0.0000680075  -0.0000088021
       -0.0000150309  -0.0000578889  -0.0000110163   0.0000015416  -0.0000143567
        0.0000194455   0.0000133996  -0.0000007428  -0.0000079471   0.0000098724
        0.0000017532   0.0000138561  -0.0000042719   0.0000121536  -0.0000022834
       -0.0000111321   0.0000033738   0.0000026553   0.0000086970  -0.0000031241
       -0.0000084698   0.0000116725   0.0000011898  -0.0000165203   0.0000000940
        0.0000006585  -0.0000103016  -0.0000093890  -0.0000017127  -0.0000182649
       -0.0000135940  -0.0000003085   0.0000002622  -0.0000222043  -0.0000036735
        0.0000175830  -0.0000089967  -0.0000061429   0.0000113450   0.0000080196
       -0.0000041675  -0.0000050384  -0.0000046451  -0.0000052323   0.0000006681
        0.0000081388  -0.0000105456   0.0000007851  -0.0000130330   0.0000043651
       -0.0000016714   0.0000002515   0.0000157247  -0.0000061087   0.0000115084
        0.0000125037  -0.0000075965   0.0000083320  -0.0000012924  -0.0000033449
        0.0000120382   0.0000019827  -0.0000019448   0.0000086888  -0.0000089864
        0.0000005771   0.0000009057  -0.0000059560   0.0000044993  -0.0000010827
       -0.0000057909   0.0000043233   0.0000011481   0.0000031811   0.0000117492
        0.0000073426   0.0000020217  -0.0000028786   0.0000034045  -0.0000230802
       -0.4643509352  -0.1755902901  -0.1399849156   0.6774817869   0.1370074405
        0.1016175524  -0.0551507583  -0.0305397408   0.0270680079  -0.0062291972
       -0.0027861039   0.0098691468   0.0041132402   0.0008929929   0.0030719727
       -0.0004008669  -0.0002420894   0.0006950900   0.0053111013   0.0007094815
        0.0013348773   0.0012184342  -0.0043389525  -0.0022068947  -0.0384545250
        0.0001306513   0.0037355472  -0.0005373107   0.0083263830   0.0159392234
       -0.0037429635  -0.0012394423   0.0037207903  -0.0017376338  -0.0003249451
        0.0003938077  -0.0006840929  -0.0036655854  -0.0031931053   0.0021260116
       -0.0048672723  -0.0123152155  -0.0931740901   0.0558891951  -0.0056148111
        0.0075304725   0.0178648660  -0.0016606043   0.0045295980  -0.0043290552
       -0.0000476509  -0.0022191897   0.0039134153  -0.0003749554  -0.0034787334
       -0.0064990422  -0.0000234755  -0.0238767954   0.0106410852  -0.0011097112
        0.0040978065   0.0023631114   0.0002740905  -0.0032558328  -0.0028980186
        0.0001791090   0.0017421194   0.0002027248   0.0000641893  -0.0008628209
       -0.0012234184  -0.0000815284  -0.0004043005   0.0013248197  -0.0000788997
        0.0009515641  -0.0002765252  -0.0000187003  -0.0002373883   0.0005420251
        0.0002234419   0.0003425774   0.0002038433   0.0002075965  -0.0002607827
        0.0001507102  -0.0000113942  -0.0000271696  -0.0000566718   0.0001078084
       -0.0009386320  -0.0009937031  -0.0000723176   0.0005075726   0.0013563847
       -0.0005932663  -0.0017807369  -0.0004219357  -0.0004872084   0.0016135639
        0.0017349375  -0.0000170042  -0.0006889272  -0.0007750116   0.0000165680
        0.0002171051  -0.0014411060   0.0000216060  -0.0015348523   0.0004342809
        0.0001901383   0.0011445589  -0.0003909657  -0.0001092634  -0.0002313905
        0.0005494824   0.0000174887   0.0015292718  -0.0001222444  -0.0000777745
       -0.0020585365   0.0019086421   0.0002864402   0.0020991030  -0.0017542991
       -0.0002843856  -0.0003140409   0.0014122130   0.0000548503   0.0005585577
       -0.0002005703  -0.0000248775  -0.0004783966   0.0010115376   0.0000926450
        0.0006125604  -0.0013644559  -0.0001548069  -0.0014691433   0.0000613376
        0.0000023848  -0.0002261232  -0.0018424332   0.0004528350   0.0014355693
        0.0004698563   0.0004213566  -0.0003849022   0.0013849702  -0.0004899189
        0.0000080191   0.0000031387   0.0004591751  -0.0001637755   0.0005604039
       -0.0004275834   0.0001286459  -0.0007616276   0.0008839401   0.0003249199
       -0.0003592630  -0.0010920199  -0.0000957758  -0.0004972851   0.0023409938
        0.0003795856  -0.0000815275  -0.0022408511  -0.0000550216  -0.0005179453
        0.0010683038   0.0002478131  -0.0003555741  -0.0006811460  -0.0001037632
        0.0000516039   0.0005118840   0.0000840690   0.0001726776  -0.0008720867
       -0.0003762661   0.0008340416   0.0005834246   0.0002153863  -0.0003907539
       -0.0001747274  -0.0004487173  -0.0003561517  -0.0001661350  -0.0013742001
        0.0002568523   0.0001885329   0.0013325968   0.0020818407  -0.0002369131
       -0.0012409166   0.0006329059  -0.0005623359  -0.0000103859  -0.0001697658
        0.0001920554  -0.0010687460   0.0001235055  -0.0005798523   0.0000714955
        0.0003444182  -0.0001405230  -0.0012663490   0.0006028059  -0.0009273788
       -0.0035433772   0.0000349302   0.0011303490  -0.0003144064   0.0003657631
        0.0010510915  -0.0003808191   0.0001512846  -0.0004410940  -0.0004167151
       -0.0006555980  -0.0010012013  -0.0014147771  -0.0004072676  -0.0008902254
       -0.0009884079  -0.0027434260   0.0007446127   0.0002493645  -0.0008832849
        0.0001281734  -0.0001296184  -0.0001799181   0.0001140969  -0.0000789884
       -0.0000662825  -0.0000178530   0.0000871347  -0.0000284253   0.0000289917
       -0.0000741186  -0.0000377554  -0.0000352489   0.0000556340  -0.0000188280
        0.0000095831   0.0000073141  -0.0000033348  -0.0000696265   0.0000338862
        0.0000276629  -0.0000284162  -0.0000286815  -0.0000287350   0.0000072990
        0.0000472576  -0.0000621585  -0.0000135276   0.0001033345  -0.0000022655
       -0.0000135239   0.0000514005   0.0000465712   0.0000424580   0.0000691924
        0.0000559219  -0.0000394780  -0.0000024171   0.0001145520   0.0000158871
       -0.0000800988   0.0000450114   0.0000197786  -0.0000309015  -0.0000498268
       -0.0000025845   0.0000147489   0.0000513826   0.0000550826  -0.0000248570
       -0.0000013960   0.0000572035   0.0000011559   0.0000506780  -0.0000117189
       -0.0000199526   0.0000004747  -0.0000875929   0.0000505567  -0.0000771479
       -0.0000751891   0.0000637267  -0.0000685723   0.0000226146   0.0000239748
       -0.0000804037  -0.0000082286   0.0000308094  -0.0000852848   0.0000881625
       -0.0000044683   0.0000014354   0.0001077020  -0.0000160528   0.0000485888
        0.0000092526   0.0000334502   0.0000015972  -0.0000470745  -0.0000294069
        0.0000774843   0.0000185213   0.0000950028  -0.0000702372  -0.0000209126
       -0.1718848131  -0.1262667004  -0.0577188701   0.1370074405   0.4151207788
        0.0472423836  -0.0286023541  -0.0867526975   0.0544640688  -0.0020701725
        0.0083944942   0.0058538114   0.0005654201   0.0022451840  -0.0024957031
       -0.0000403149  -0.0017519446  -0.0001111235  -0.0002667961  -0.0040025780
       -0.0014676946  -0.0059276802  -0.0192633933   0.0106371609   0.0052965450
       -0.0596066388  -0.0451693791   0.0083227955  -0.0003455943  -0.0052316209
       -0.0007151257   0.0055845533  -0.0009578500   0.0001054374  -0.0006123946
       -0.0011932962  -0.0040783639   0.0041304271  -0.0011607104  -0.0048718107
       -0.0082091959  -0.0094915886   0.0539789428  -0.0935115184   0.0024595590
        0.0112866735  -0.0345034193   0.0023134336  -0.0065651049  -0.0020282514
        0.0007463007   0.0010941563  -0.0052453906   0.0004787345   0.0004568992
        0.0080990174   0.0003358797   0.0107978901   0.0121133010   0.0006069748
       -0.0007284857  -0.0070461223   0.0001305198  -0.0014008624   0.0037346194
       -0.0004913574  -0.0005617091   0.0005185398  -0.0000304207   0.0003164121
        0.0021785505   0.0001008305   0.0008397544  -0.0022123744   0.0001541489
       -0.0015955481   0.0003640339   0.0000311092   0.0004150558  -0.0008282131
       -0.0002516696  -0.0005266990  -0.0002640172  -0.0002706987   0.0005032221
       -0.0002139128   0.0000025096   0.0000369741   0.0000444178  -0.0001749815
        0.0013131604   0.0014292949   0.0000533135  -0.0006488787  -0.0019879706
        0.0008855978   0.0025621135   0.0005325239   0.0006799607  -0.0022533210
       -0.0024669119   0.0000213985   0.0009145625   0.0010480564  -0.0000371835
       -0.0000830901   0.0016967026  -0.0000499550   0.0016856443  -0.0003459509
       -0.0001781393  -0.0013162434   0.0005788159   0.0001484822   0.0001368768
       -0.0005165014  -0.0000004964  -0.0015820007  -0.0000140093   0.0000864552
        0.0022382729  -0.0023306504  -0.0003443424  -0.0025374095   0.0019423009
        0.0003560220   0.0002563458  -0.0016015946  -0.0000602101  -0.0006238129
        0.0001211160   0.0000248648   0.0007033853  -0.0012031674  -0.0001242677
       -0.0006047880   0.0016222497   0.0001585122   0.0017669061   0.0000612878
        0.0000101172   0.0002453667   0.0026292455  -0.0006936741  -0.0021031005
       -0.0006325720  -0.0006445336   0.0004587774  -0.0016724356   0.0005588416
       -0.0000326269  -0.0000409196  -0.0004395260   0.0002354756  -0.0007185172
        0.0005192133  -0.0002010706   0.0009565052  -0.0009947080  -0.0003969362
        0.0004722674   0.0012382995   0.0000442265   0.0006347122  -0.0026505200
       -0.0004533268   0.0001055338   0.0024818661   0.0000184724   0.0006750265
       -0.0012165852  -0.0003276183   0.0004862366   0.0007495159   0.0001590772
       -0.0000868603  -0.0006150296  -0.0000777673  -0.0002410535   0.0009496234
        0.0004304120  -0.0009991314  -0.0006758248  -0.0003643298   0.0005558825
        0.0002316115   0.0007288768   0.0005342931   0.0002749357   0.0014526575
       -0.0008284699  -0.0002245047  -0.0028118385  -0.0030200663   0.0001461737
        0.0007371297  -0.0015257363  -0.0013233022   0.0004893147   0.0001397920
       -0.0011144519   0.0003678970   0.0001931339  -0.0003570228  -0.0003167933
       -0.0002212043   0.0005028917   0.0005770577  -0.0000718778  -0.0007866194
       -0.0006447966  -0.0015334535   0.0015707643  -0.0004196174   0.0000849113
        0.0003875469   0.0002255008  -0.0010288801   0.0008470026   0.0001863795
        0.0002038255  -0.0001390755   0.0000840548  -0.0011363702   0.0010451819
       -0.0013447220  -0.0011705315  -0.0004134353   0.0005296872  -0.0007112481
        0.0001150562  -0.0002870247   0.0001363051  -0.0002292030  -0.0001338153
       -0.0003635486  -0.0000237727  -0.0000263491  -0.0000209828  -0.0000467722
        0.0000630401   0.0000703771   0.0000257634  -0.0000347897   0.0000254497
       -0.0000315781  -0.0000184660   0.0000191439   0.0000929167  -0.0000491694
       -0.0000257375   0.0000577415   0.0000504107   0.0000126836   0.0000053599
       -0.0000484684   0.0000669978   0.0000121382  -0.0001156042   0.0000045247
        0.0000197541  -0.0000579368  -0.0000624021  -0.0000519634  -0.0000478175
       -0.0000648253   0.0000513493   0.0000105048  -0.0001401713  -0.0000191828
        0.0001079681  -0.0000673601  -0.0000237951   0.0000210265   0.0000867306
       -0.0000090663   0.0000051917  -0.0000658512  -0.0000763490   0.0000334764
       -0.0000175495  -0.0000644574  -0.0000011501  -0.0000525619   0.0000141309
        0.0000295884   0.0000113502   0.0001022000  -0.0000473568   0.0000625189
        0.0000546882  -0.0000590496   0.0000448042  -0.0000204603  -0.0000133021
        0.0000625752  -0.0000040029  -0.0000294941   0.0000645155  -0.0000725007
        0.0000094391   0.0000049857  -0.0000932675   0.0000174265  -0.0000497380
       -0.0000085333  -0.0000291230  -0.0000107149   0.0000516748   0.0000199233
       -0.0001133186  -0.0000495673   0.0000395997  -0.0000793905   0.0000364534
       -0.1453164162  -0.0614336840  -0.1053342178   0.1016175524   0.0472423836
        0.4082503278   0.0231073459   0.0535813037  -0.0906086063   0.0099416983
        0.0100829428  -0.0203796625   0.0045846988  -0.0026051614  -0.0023227117
        0.0003928085  -0.0002091399  -0.0007326511   0.0021561034  -0.0008979415
        0.0032650894  -0.0017597259   0.0068266465   0.0032932978   0.0124315364
       -0.0461143948  -0.1318197206   0.0155880511  -0.0055131775  -0.0211899574
        0.0041341267  -0.0005014728   0.0019872438   0.0011976798  -0.0008376593
       -0.0024661685  -0.0034103970  -0.0011445636   0.0053300838  -0.0112328728
       -0.0092736494  -0.0134550610  -0.0084464002   0.0100651541  -0.0373789772
       -0.0012108912   0.0031868342  -0.0016332837   0.0008254714   0.0000783780
        0.0055398492  -0.0009621963   0.0000714129  -0.0002378249   0.0011376820
        0.0002854411   0.0054006173  -0.0022468505   0.0001872092  -0.0003090009
       -0.0008205068   0.0000880896  -0.0034360299   0.0013480219  -0.0003583417
        0.0007156226  -0.0013413245  -0.0001747425  -0.0002338162   0.0010812134
       -0.0008935471  -0.0000400272  -0.0004490953   0.0005373692  -0.0000796356
        0.0004100841  -0.0001228896   0.0000038149  -0.0000998124   0.0003220644
        0.0001250294   0.0001714432   0.0000964486   0.0000766786  -0.0001377842
        0.0000576740   0.0000023862  -0.0000131109  -0.0000629288   0.0000083783
       -0.0003579632  -0.0003532646  -0.0000152532   0.0002091290   0.0005232780
       -0.0002391268  -0.0006546988  -0.0001713888  -0.0001972750   0.0005839554
        0.0006205388  -0.0000013186  -0.0002085632  -0.0002399565  -0.0000043291
        0.0000625334  -0.0005523089   0.0000016801  -0.0005554725   0.0001758097
        0.0000658676   0.0004055645  -0.0001412205  -0.0000464907  -0.0000937573
        0.0002178413   0.0000059053   0.0005972173  -0.0000579882  -0.0000369854
       -0.0008075765   0.0007507978   0.0001105453   0.0008285490  -0.0007189337
       -0.0001155308  -0.0001513711   0.0005961393   0.0000196336   0.0002576528
       -0.0000754139  -0.0000155409  -0.0001935234   0.0003908670   0.0000229318
        0.0002582164  -0.0005469721  -0.0000696661  -0.0005878365   0.0000229131
        0.0000245716  -0.0000971871  -0.0006957482   0.0001811586   0.0005687760
        0.0001736363   0.0001810247  -0.0001918930   0.0005513127  -0.0001804135
        0.0000057286  -0.0000385860   0.0001635168  -0.0000714861   0.0002246104
       -0.0001635969   0.0000486520  -0.0003030361   0.0003532903   0.0001307094
       -0.0001270334  -0.0004224521  -0.0000327449  -0.0002194256   0.0008935853
        0.0001410500  -0.0000253726  -0.0008411356  -0.0000200166  -0.0001909811
        0.0003983078   0.0000915036  -0.0001172926  -0.0002536922  -0.0000348632
        0.0000094614   0.0002148300   0.0000265485   0.0000804435  -0.0003222697
       -0.0001430724   0.0002804993   0.0002401275   0.0000989717  -0.0001697058
       -0.0000743565  -0.0002528715  -0.0001400121  -0.0000726661   0.0009113926
       -0.0001900088   0.0000435449  -0.0012755991   0.0004120345  -0.0000288631
       -0.0008711086  -0.0017644660  -0.0005468082   0.0003420122   0.0005611153
       -0.0003749804  -0.0008251441  -0.0004003214  -0.0001144141  -0.0000476100
       -0.0008750846   0.0001327324  -0.0005427547  -0.0020024865  -0.0007968101
       -0.0005304744   0.0008412531   0.0006857505  -0.0002678387  -0.0001870334
       -0.0000981388  -0.0001997772   0.0006253069   0.0001373546   0.0004075934
        0.0001090375   0.0002349477   0.0003035108   0.0012777756   0.0010102589
        0.0000282679  -0.0006867817  -0.0015517492  -0.0000439122   0.0000270473
        0.0001812317  -0.0000327282  -0.0000877763  -0.0013021866   0.0000284816
        0.0001007867   0.0001544891   0.0000115644   0.0000036218   0.0000424700
       -0.0000466282  -0.0000582322  -0.0000123791   0.0000298239  -0.0000213999
        0.0000091491  -0.0000051970  -0.0000010971  -0.0000198057   0.0000122726
        0.0000208783  -0.0000063436  -0.0000166517  -0.0000125993   0.0000066500
        0.0000223676  -0.0000295515  -0.0000060597   0.0000420245  -0.0000003177
       -0.0000052201   0.0000235205   0.0000212015   0.0000169892   0.0000256964
        0.0000244817  -0.0000131144  -0.0000005075   0.0000453420   0.0000097467