$hessian                                                                        
        0.4469122922   0.0000317203  -0.0338121536  -0.1533478391   0.0000393929
       -0.0442844621  -0.0044484464   0.0000034564  -0.0059186354  -0.0221708361
       -0.0116367170  -0.0022538438  -0.0008619701   0.0014229850  -0.0002562629
       -0.0000220955  -0.0001986571   0.0007216041   0.0000205457   0.0000882404
        0.0001671054  -0.0000526445  -0.0003857725   0.0009228948  -0.0000652097
       -0.0016851556  -0.0012214792  -0.0001181104   0.0000024877  -0.0000537382
        0.0001490791   0.0000000547   0.0000549845  -0.0000129274  -0.0000000760
       -0.0000176832   0.0000087457   0.0000002428   0.0000209976  -0.0000217963
        0.0000001193   0.0000256007   0.0000031613   0.0000000098   0.0000031433
        0.0000030387   0.0000000638  -0.0000451937   0.0000013270   0.0000000487
        0.0000010920   0.0000147836  -0.0000032520  -0.0000082907   0.0000148023
        0.0000031914  -0.0000081877   0.0000270392   0.0000000275  -0.0000167203
       -0.0000138444   0.0000000262   0.0000040113   0.0000310303   0.0000000493
        0.0000053101  -0.0000260913  -0.0000000012  -0.0000128770   0.0000077499
       -0.0000198918   0.0000041749   0.0000051866   0.0000047943   0.0000033474
        0.0000040291  -0.0000031643   0.0000028020   0.0000007659   0.0000011156
        0.0000009730   0.0000018467  -0.0000042271   0.0000020000  -0.0000028203
        0.0000019337  -0.0000014423   0.0000060991  -0.0000000793   0.0000011056
        0.0000030650  -0.0000000502   0.0000002272   0.0000028921  -0.0000001396
        0.0000019807  -0.0000027973  -0.0000020522  -0.0000013305   0.0000018701
        0.0000040554   0.0000022093   0.0000007971  -0.0000012220   0.0000012980
        0.0000040580   0.0000031337   0.0000031210   0.0000052144  -0.0000047831
        0.0000035629   0.0000076924   0.0000198172   0.0000042560  -0.0000052486
        0.0000000875   0.0000023812   0.0000059399   0.0000001223  -0.0000079712
       -0.0000179686   0.0000001773   0.0000100762   0.0000805531  -0.0000000346
       -0.0000909406  -0.0000255143   0.0000307720   0.0000486264  -0.0000255397
       -0.0000301660   0.0000489700  -0.0000638524   0.0016764699  -0.0012235849
       -0.0000533108   0.0003888678   0.0009201299   0.0000202407  -0.0000885939
        0.0001672408  -0.0000214645   0.0002009659   0.0007185176  -0.0008690001
       -0.0014122114  -0.0002417664  -0.0221126529   0.0116578576  -0.0022665334
       -0.0434490273   0.0000004173   0.0140319597  -0.1000358761   0.0975440866
        0.0365790286  -0.1002023768  -0.0976462842   0.0365904025   0.0005337394
       -0.0000329316   0.0007498134   0.0005017268  -0.0000010660  -0.0001574036
        0.0005288983   0.0000319754   0.0007449833  -0.0002699392   0.0002266790
       -0.0001559664  -0.0000225627   0.0000433119  -0.0000413085  -0.0000616651
        0.0000226121  -0.0001241689  -0.0000695130  -0.0000980286  -0.0000470203
       -0.0000102809   0.0000001713   0.0000012613  -0.0000141353   0.0000002512
        0.0000200257   0.0000249838  -0.0000000139   0.0000206675   0.0000031126
       -0.0000070734   0.0000087429   0.0000004290   0.0000029633   0.0000012332
       -0.0000083414   0.0000011271  -0.0000028991  -0.0000083331  -0.0000012257
       -0.0000027811   0.0000004539  -0.0000029388   0.0000014314   0.0000031427
        0.0000070113   0.0000088215   0.0000040307  -0.0000000349  -0.0000020240
        0.0000008697  -0.0000008307  -0.0000016036   0.0000023660   0.0000016319
        0.0000001490  -0.0000010849   0.0000033916  -0.0000007749  -0.0000031314
        0.0000009932  -0.0000015053   0.0000015976  -0.0000000221   0.0000039305
       -0.0000013085   0.0000024170   0.0000012092  -0.0000012720  -0.0000025851
        0.0000013793   0.0000002168  -0.0000001633   0.0000023718  -0.0000010433
       -0.0000027317  -0.0000000347  -0.0000010499   0.0000023889  -0.0000000397
       -0.0000031088  -0.0000012134  -0.0000012819  -0.0000010429  -0.0000035386
       -0.0000003663   0.0000024100  -0.0000016325   0.0000005435   0.0000009013
        0.0000008856  -0.0000014008  -0.0000046919   0.0000001166   0.0000029179
       -0.0000003565   0.0000001919   0.0000065546  -0.0000691446   0.0000980130
       -0.0000474653  -0.0000612861  -0.0000228257  -0.0001242811  -0.0000227520
       -0.0000433687  -0.0000417161  -0.0002674197  -0.0002281662  -0.0001540322
        0.0000317203   0.5273817675   0.0000459106   0.0000448103  -0.0620899544
        0.0000191753  -0.0000204658   0.0010294204  -0.0000063755  -0.0238712658
       -0.0034902149  -0.0052463783  -0.0006563804  -0.0012080239  -0.0004083391
        0.0002216324   0.0007248259   0.0005603946  -0.0000740901  -0.0002777454
       -0.0000251094   0.0001898088   0.0003548099   0.0011630154   0.0001692401
       -0.0045351535  -0.0008628631   0.0000012166   0.0032666011  -0.0000031682
        0.0000000537   0.0000130327  -0.0000003084  -0.0000002174   0.0000335151
       -0.0000000572   0.0000001518  -0.0000036221  -0.0000001079   0.0000001353
        0.0000058667   0.0000001588   0.0000001330  -0.0000213713  -0.0000002683
        0.0000003278   0.0000227143  -0.0000002148  -0.0000000402   0.0000005652
       -0.0000000987   0.0000033950   0.0000087427  -0.0000006732  -0.0000033005
        0.0000086965   0.0000005580  -0.0000000516   0.0000013108   0.0000002517
        0.0000003203   0.0000068283   0.0000000053  -0.0000000299  -0.0000018473
        0.0000000914   0.0000000449   0.0000107974   0.0000000876   0.0000027751
       -0.0000077788   0.0000020039   0.0000024105   0.0000009792   0.0000003189
       -0.0000008836  -0.0000009735   0.0000002994   0.0000012717   0.0000015626
        0.0000005408   0.0000005167  -0.0000022802   0.0000001841  -0.0000018949
        0.0000013830  -0.0000005304  -0.0000000235   0.0000008591   0.0000001194
        0.0000000503   0.0000010071   0.0000002631   0.0000000012   0.0000000877
        0.0000002150   0.0000019095   0.0000013076   0.0000008128  -0.0000005931
       -0.0000021857  -0.0000000889  -0.0000012307   0.0000015329  -0.0000002797
        0.0000008521  -0.0000009893  -0.0000000096  -0.0000024226   0.0000009564
       -0.0000003037  -0.0000028097  -0.0000078607  -0.0000018672   0.0000000957
       -0.0000000271   0.0000000651   0.0000000744  -0.0000010139   0.0000000386
        0.0000000220   0.0000047152   0.0000000862  -0.0000002144  -0.0000646218
        0.0000003642   0.0000042506   0.0000243482   0.0000068778  -0.0000039847
        0.0000245350  -0.0000071808  -0.0001725942  -0.0045377687   0.0008709368
       -0.0001887512   0.0003534929  -0.0011659520   0.0000725210  -0.0002781424
        0.0000263114  -0.0002200530   0.0007220115  -0.0005645846   0.0006681225
       -0.0012371160   0.0003832108   0.0239039678  -0.0035322495   0.0052654352
       -0.0000010838  -0.0444599919   0.0000292463   0.0976402140  -0.2035414709
       -0.0594772747  -0.0977382136  -0.2034021769   0.0593900375   0.0005807060
        0.0002273669   0.0002022266   0.0000007822   0.0005427753  -0.0000040374
       -0.0005805329   0.0002239701  -0.0001982731  -0.0013481575  -0.0008986202
       -0.0003859805   0.0000310253  -0.0000126678   0.0000699979  -0.0001763270
       -0.0000302100  -0.0000981089  -0.0001981000  -0.0001757761   0.0000498748
        0.0000000352  -0.0000201240   0.0000000937   0.0000000502  -0.0000072840
       -0.0000000227   0.0000000167  -0.0000220836   0.0000000230  -0.0000060903
       -0.0000112824  -0.0000054644  -0.0000066729   0.0000013052   0.0000047639
        0.0000038121   0.0000007459   0.0000015268  -0.0000038302   0.0000007885
       -0.0000014253   0.0000067071   0.0000013040  -0.0000048644   0.0000060439
       -0.0000113578   0.0000055190   0.0000000089  -0.0000013486   0.0000000435
        0.0000027940  -0.0000021831  -0.0000016721   0.0000000237   0.0000016960
        0.0000015014  -0.0000002582   0.0000013800   0.0000012015   0.0000000090
        0.0000003609   0.0000011969  -0.0000000561   0.0000000576   0.0000000996
       -0.0000011930   0.0000012972   0.0000000061   0.0000011530   0.0000013430
        0.0000002156  -0.0000000490   0.0000011931   0.0000001205   0.0000010821
        0.0000014897  -0.0000001621  -0.0000012390   0.0000014693   0.0000004021
       -0.0000001239   0.0000003678  -0.0000009400   0.0000002158   0.0000014079
       -0.0000009778  -0.0000000011   0.0000017011  -0.0000013439  -0.0000030513
       -0.0000022924   0.0000017632   0.0000000724  -0.0000007791   0.0000000593
        0.0000000661  -0.0000011370   0.0000000393   0.0001979632  -0.0001767636
       -0.0000492192   0.0001768994  -0.0000302136   0.0000984098  -0.0000312119
       -0.0000127991  -0.0000704093   0.0013459769  -0.0008987895   0.0003888347
       -0.0338121536   0.0000459106   0.5043183975  -0.0369149174   0.0000193205
       -0.0747132352  -0.0273989931   0.0000141305  -0.0195556895   0.0057729332
        0.0001766468   0.0035789577   0.0007364722  -0.0000627746   0.0002377019
       -0.0000656425   0.0000609974  -0.0002309909  -0.0001488803   0.0000975818
        0.0000506890  -0.0000655974  -0.0003046976  -0.0003801876   0.0005177481
        0.0014758794  -0.0003888906   0.0000283683  -0.0000032512  -0.0002377098
       -0.0002093104   0.0000002185   0.0001772733   0.0000172413  -0.0000003869
        0.0000042623  -0.0000427400  -0.0000003680   0.0000115247   0.0000292132
       -0.0000003955  -0.0000253424  -0.0000309854  -0.0000001797   0.0000105377
        0.0000565107  -0.0000001161  -0.0000685774  -0.0000051227  -0.0000001037
       -0.0000088957   0.0000198635   0.0000079247   0.0000006566   0.0000199085
       -0.0000078484   0.0000004252   0.0000093333  -0.0000000554  -0.0000009099
        0.0000083468  -0.0000001615  -0.0000057670  -0.0000080789  -0.0000000926
       -0.0000087733   0.0000090071   0.0000000034   0.0000048978  -0.0000015093
        0.0000062326   0.0000010660   0.0000032534  -0.0000003933  -0.0000016766
        0.0000000856   0.0000007879   0.0000012465   0.0000012099   0.0000000151
        0.0000000705  -0.0000031208   0.0000022465   0.0000015072   0.0000010447
       -0.0000025836  -0.0000003185  -0.0000001040   0.0000001750  -0.0000021891
       -0.0000002235   0.0000002672   0.0000001722   0.0000006170   0.0000004144
        0.0000011940   0.0000010087   0.0000029074  -0.0000006948  -0.0000030684
       -0.0000020436   0.0000010748   0.0000011326   0.0000002610  -0.0000006974
        0.0000000296  -0.0000006858   0.0000006256   0.0000032356   0.0000003393
       -0.0000022796  -0.0000016058  -0.0000062040   0.0000009109   0.0000012527
       -0.0000002161   0.0000036572  -0.0000063262  -0.0000002684   0.0000131837
        0.0000157718  -0.0000002615  -0.0000112485  -0.0001069087   0.0000000189
        0.0000965822   0.0000294365  -0.0000292520  -0.0000263455   0.0000293842
        0.0000280750  -0.0000267711   0.0005152100  -0.0014702806  -0.0003876382
       -0.0000649515   0.0003033389  -0.0003787651  -0.0001492701  -0.0000967406
        0.0000521840  -0.0000657297  -0.0000627686  -0.0002289591   0.0007453697
        0.0000382055   0.0002119413   0.0057349639  -0.0001733048   0.0035737848
        0.0138135020   0.0000328911  -0.2803421093   0.0370004379  -0.0597839080
       -0.0654959185   0.0370140649   0.0596983623  -0.0654554394  -0.0008146389
       -0.0003749728   0.0010527987  -0.0013037468  -0.0000073120  -0.0067435266
       -0.0008046668   0.0003764330   0.0010434809  -0.0002395559  -0.0002002015
        0.0000807301  -0.0000236667   0.0000401912  -0.0000081366   0.0000379735
        0.0000423722   0.0000511830   0.0001483682   0.0000814999   0.0000279521
        0.0000352961  -0.0000004434  -0.0000155815   0.0000176314  -0.0000004833
       -0.0000108007  -0.0000039931   0.0000000719  -0.0000042462  -0.0000063122
       -0.0000022263  -0.0000063773  -0.0000045803  -0.0000005486  -0.0000002260
        0.0000063052  -0.0000043187   0.0000061449   0.0000062446   0.0000045801
        0.0000058854  -0.0000045867   0.0000004726  -0.0000006318  -0.0000064153
        0.0000024781  -0.0000067015   0.0000017550   0.0000000881   0.0000007352
        0.0000006470   0.0000000691   0.0000007245   0.0000008249   0.0000014113
        0.0000002708   0.0000002513   0.0000005261   0.0000003043  -0.0000004331
       -0.0000002121   0.0000002787   0.0000007442  -0.0000000620   0.0000023537
        0.0000008507   0.0000000158  -0.0000004138   0.0000011732   0.0000002096
        0.0000006522   0.0000001031   0.0000003981   0.0000004428   0.0000004090
        0.0000000324  -0.0000011326   0.0000007748   0.0000007136   0.0000001226
       -0.0000004898   0.0000006778  -0.0000002119   0.0000001635  -0.0000002052
       -0.0000006253   0.0000007818  -0.0000014401  -0.0000006646   0.0000007788
       -0.0000001646   0.0000002784  -0.0000003439  -0.0000002767   0.0000018409
        0.0000015803  -0.0000004268   0.0000003835   0.0001478595  -0.0000817915
        0.0000287824   0.0000375810  -0.0000423952   0.0000520751  -0.0000236018
       -0.0000402716  -0.0000070879  -0.0002417831   0.0002017018   0.0000804398
       -0.1533478391   0.0000448103  -0.0369149174   0.4461460443   0.0000050276
       -0.0153660657  -0.0575276435  -0.0000097594  -0.0009707943  -0.0879031175
       -0.0461641070   0.0219579582   0.0060126652   0.0032125550  -0.0043263336
        0.0011782641   0.0023072583   0.0036601647   0.0000602235  -0.0009885415
       -0.0000574065  -0.0011007296   0.0019238503   0.0050043099  -0.0140651188
       -0.0194718244   0.0102301966   0.0016873355  -0.0000057150  -0.0032986670
       -0.0001824900   0.0000003183   0.0002153750   0.0001870009  -0.0000007150
       -0.0002021197  -0.0000395504   0.0000000143  -0.0000357561   0.0000850263
       -0.0000002460  -0.0000552857  -0.0000264133   0.0000000601   0.0000294388
        0.0002694513   0.0000000276  -0.0000394886   0.0000037632  -0.0000000286
       -0.0000117532   0.0000157959   0.0000078846  -0.0000017472   0.0000158322
       -0.0000078936  -0.0000017284   0.0000061949   0.0000000204  -0.0000014086
        0.0000159854  -0.0000000215  -0.0000070568  -0.0000058180  -0.0000000065
       -0.0000049465   0.0000095435   0.0000000325  -0.0000044705  -0.0000029495
        0.0000039791   0.0000007807   0.0000071693  -0.0000017604  -0.0000011175
        0.0000046188   0.0000012245   0.0000005126   0.0000032596   0.0000019479
        0.0000002846   0.0000009926  -0.0000015103  -0.0000002047   0.0000015487
       -0.0000022356  -0.0000000056   0.0000038316   0.0000000039   0.0000011860
        0.0000060990   0.0000000233   0.0000000894   0.0000030350   0.0000000171
        0.0000018767   0.0000015553   0.0000022565  -0.0000000231   0.0000010056
        0.0000014816  -0.0000002039   0.0000032693  -0.0000019341   0.0000002817
        0.0000046327  -0.0000012153   0.0000005236   0.0000071819   0.0000017684
       -0.0000011423  -0.0000029651  -0.0000040208   0.0000007817  -0.0000014626
        0.0000000117   0.0000026357   0.0000022895   0.0000000293   0.0000083596
        0.0000183819   0.0000000275  -0.0000088813  -0.0000917812   0.0000003534
        0.0001289522   0.0000186083  -0.0000431124  -0.0000436343   0.0000185456
        0.0000428622  -0.0000439153  -0.0140271428   0.0195178524   0.0101806208
       -0.0011062421  -0.0019092059   0.0050115000   0.0000623813   0.0009875945
       -0.0000601280   0.0011717392  -0.0023029362   0.0036702396   0.0060193929
       -0.0032793766  -0.0043275509  -0.0877570063   0.0461110159   0.0218085289
       -0.0019177747  -0.0000018663  -0.0032821606  -0.0182629760   0.0033456413
       -0.0049969644  -0.0182861242  -0.0033287361  -0.0049974040  -0.0013365215
       -0.0014332482   0.0141660866  -0.0009052817  -0.0000163342  -0.0272010275
       -0.0013222540   0.0014574753   0.0140328620  -0.0010240315   0.0006249862
       -0.0011927460   0.0001958962   0.0008395745  -0.0000382420  -0.0004111543
        0.0001650537  -0.0007542222  -0.0006284680  -0.0008484313   0.0000821606
       -0.0000280661   0.0000000188  -0.0000175988   0.0000162630  -0.0000000486
       -0.0000148623  -0.0000818434   0.0000000096   0.0000073517  -0.0000108480
        0.0000082862   0.0000013894   0.0000070242  -0.0000041017  -0.0000081011
       -0.0000011011  -0.0000032840   0.0000006169  -0.0000011213   0.0000033278
        0.0000006125   0.0000070647   0.0000041163  -0.0000081338  -0.0000108461
       -0.0000082671   0.0000014572  -0.0000033067   0.0000000018  -0.0000023337
        0.0000008993   0.0000013322  -0.0000001838   0.0000015131   0.0000012374
       -0.0000004617   0.0000001560   0.0000013828  -0.0000002003  -0.0000007038
        0.0000006523  -0.0000001560   0.0000016895  -0.0000000119   0.0000028176
       -0.0000002040   0.0000011324   0.0000010673  -0.0000001534  -0.0000011473
        0.0000012404   0.0000009158   0.0000000163  -0.0000003025  -0.0000005530
       -0.0000008655  -0.0000004562  -0.0000005073   0.0000008602  -0.0000003041
       -0.0000006996  -0.0000006472  -0.0000001585   0.0000001634  -0.0000013771
       -0.0000002075   0.0000015266  -0.0000012292  -0.0000004700   0.0000009239
       -0.0000013154  -0.0000001770   0.0000032815  -0.0000000015  -0.0000010545
        0.0000018057  -0.0000000061  -0.0000026725  -0.0006282095   0.0008500242
        0.0000799749  -0.0004115047  -0.0001660056  -0.0007543033   0.0001955254
       -0.0008411216  -0.0000364364  -0.0010247894  -0.0006252258  -0.0011941408
        0.0000393929  -0.0620899544   0.0000193205   0.0000050276   0.4969057987
       -0.0000752730   0.0000024763  -0.0622866861  -0.0001019181  -0.0481146778
       -0.1478615804   0.0312493768  -0.0091717406  -0.0322278599   0.0059575140
        0.0028945385  -0.0026039576  -0.0019626894  -0.0002902698  -0.0003362645
        0.0001920833   0.0008615536   0.0007058318  -0.0006121602  -0.0078610742
        0.0017810023   0.0052181612  -0.0000073625  -0.0031561171   0.0000051538
        0.0000003955  -0.0001168392  -0.0000001589  -0.0000004022  -0.0000538855
        0.0000004917   0.0000002199  -0.0000000689  -0.0000000878  -0.0000001667
        0.0000048849   0.0000000790   0.0000000296   0.0000189710  -0.0000001861
        0.0000000263  -0.0000598692   0.0000002310  -0.0000000662  -0.0000136228
       -0.0000000195  -0.0000121548  -0.0000241663   0.0000010143   0.0000122208
       -0.0000242101  -0.0000010677  -0.0000000956   0.0000007845   0.0000001628
        0.0000001950   0.0000014862   0.0000000020  -0.0000000125  -0.0000002776
        0.0000000243   0.0000000086   0.0000117866  -0.0000000118   0.0000037193
       -0.0000087566   0.0000014066   0.0000003342  -0.0000002144   0.0000000532
       -0.0000001537  -0.0000019800   0.0000009357   0.0000007289   0.0000001253
       -0.0000004483   0.0000012520  -0.0000037529  -0.0000000738  -0.0000021362
        0.0000013530  -0.0000004115  -0.0000000041  -0.0000008993   0.0000000018
        0.0000000788   0.0000007283   0.0000001677   0.0000000354  -0.0000015470
        0.0000000871   0.0000021741   0.0000012592   0.0000004989  -0.0000013092
       -0.0000036202  -0.0000001116  -0.0000006824   0.0000000761   0.0000004846
        0.0000001253  -0.0000019685  -0.0000007365  -0.0000003645  -0.0000002846
       -0.0000002890  -0.0000037512  -0.0000088100  -0.0000014258   0.0000000648
       -0.0000010310   0.0000000511  -0.0000000023  -0.0000027332  -0.0000000139
       -0.0000000721  -0.0000065950   0.0000001028   0.0000001162  -0.0000113035
        0.0000001730  -0.0000013404   0.0000107328   0.0000035921   0.0000012755
        0.0000108870  -0.0000038035   0.0079063653   0.0017004701  -0.0052510409
       -0.0008486709   0.0007136656   0.0006080794   0.0002897927  -0.0003398766
       -0.0001913918  -0.0028936741  -0.0025883258   0.0019707008   0.0091056675
       -0.0322451346  -0.0058753188   0.0480707953  -0.1481424726  -0.0311186952
        0.0000010663   0.0000137906   0.0000008136   0.0229381041  -0.0020027622
        0.0084406361  -0.0229193799  -0.0019763152  -0.0084367172  -0.0017283633
       -0.0019381755   0.0243428623  -0.0000019208   0.0000085649   0.0000627132
        0.0017222636  -0.0020012829  -0.0244408306  -0.0008561653   0.0007766158
        0.0005777386  -0.0004760358  -0.0009943769   0.0003061637   0.0000567733
        0.0001859380  -0.0000299813   0.0003203982   0.0001231445  -0.0002166837
        0.0000001350   0.0000147438  -0.0000000832  -0.0000000299  -0.0000036871
        0.0000000212  -0.0000000436   0.0000192850  -0.0000000366   0.0000093026
        0.0000098272  -0.0000014175   0.0000066039   0.0000044814  -0.0000016382
       -0.0000009007   0.0000011114  -0.0000009354   0.0000008785   0.0000011161
        0.0000010079  -0.0000065984   0.0000044858   0.0000014814  -0.0000093103
        0.0000097476   0.0000014838   0.0000000151  -0.0000012765  -0.0000000089
        0.0000049300  -0.0000003134  -0.0000029092   0.0000024307   0.0000011216
        0.0000007015   0.0000017928   0.0000008815   0.0000013173   0.0000008474
        0.0000006020   0.0000008462  -0.0000000764   0.0000007338  -0.0000000530
       -0.0000005748   0.0000014204   0.0000002897   0.0000005564   0.0000014650
       -0.0000003621  -0.0000000005   0.0000016501   0.0000000092   0.0000001509
        0.0000013304  -0.0000006286  -0.0000002043   0.0000013012   0.0000006152
       -0.0000008944   0.0000006061  -0.0000008295  -0.0000018050   0.0000008923
       -0.0000013382  -0.0000024337   0.0000011117  -0.0000006831  -0.0000051489
       -0.0000003670   0.0000028637   0.0000000206  -0.0000013659  -0.0000000053
        0.0000000039  -0.0000022303   0.0000000002  -0.0003193940   0.0001215272
        0.0002153017  -0.0000569990   0.0001866932   0.0000288887   0.0004746781
       -0.0009931567  -0.0003029315   0.0008569020   0.0007759428  -0.0005802983
       -0.0442844621   0.0000191753  -0.0747132352  -0.0153660657  -0.0000752730
        0.4349311700   0.0061129409  -0.0001045926  -0.1709987360   0.0219117183
        0.0299731724  -0.0686819542  -0.0043441783  -0.0022009910   0.0023275391
        0.0036579271  -0.0015469858   0.0042947244  -0.0000300223   0.0006259407
        0.0000079612   0.0050238259  -0.0012261242   0.0031529205   0.0104260972
        0.0128024846  -0.0052003699  -0.0033475765   0.0000068886  -0.0012069366
        0.0002303955  -0.0000001253   0.0000100548  -0.0000704613   0.0000006995
        0.0001442959   0.0000103005   0.0000000203  -0.0000007539  -0.0000728478
        0.0000000586   0.0000066831   0.0000015211  -0.0000000433  -0.0000279087
       -0.0001981813   0.0000003523   0.0000814954  -0.0000089429   0.0000000441
        0.0000074089  -0.0000072695  -0.0000055083  -0.0000105164  -0.0000072574
        0.0000055293  -0.0000105187  -0.0000002283   0.0000000347  -0.0000033885
       -0.0000052551  -0.0000000846   0.0000033181   0.0000026283   0.0000000050
        0.0000000543   0.0000025225  -0.0000000081  -0.0000049808  -0.0000031964
        0.0000007615   0.0000045745   0.0000002505   0.0000004036  -0.0000036112
       -0.0000025842   0.0000012879  -0.0000004714  -0.0000011854   0.0000000673
       -0.0000019902  -0.0000037191   0.0000003688  -0.0000000282  -0.0000019413
       -0.0000012184  -0.0000017359  -0.0000011937   0.0000000059  -0.0000031862
       -0.0000011000   0.0000001226  -0.0000022260  -0.0000004029   0.0000000705
       -0.0000022699  -0.0000019607   0.0000012852  -0.0000018368  -0.0000036536
       -0.0000004623   0.0000000270  -0.0000012204  -0.0000000287  -0.0000020127
       -0.0000025997  -0.0000012554  -0.0000003757   0.0000002519  -0.0000004402
       -0.0000037084  -0.0000032778  -0.0000007830   0.0000046576  -0.0000009896
       -0.0000000101  -0.0000022547  -0.0000034478   0.0000000022  -0.0000020234
       -0.0000168253   0.0000000021   0.0000015812   0.0000935193  -0.0000003063
       -0.0000562962  -0.0000200164   0.0000334771   0.0000196697  -0.0000200376
       -0.0000333072   0.0000198623   0.0103847708  -0.0128341013  -0.0051578945
        0.0050249459   0.0012250601   0.0031495408  -0.0000310123  -0.0006253610
        0.0000096015   0.0036648580   0.0015596645   0.0042864188  -0.0043613537
        0.0022891668   0.0023353758   0.0217754122  -0.0298534333  -0.0685534620
       -0.0277395673   0.0000154544  -0.0146185898   0.0064763538  -0.0000811617
        0.0027814076   0.0064778837   0.0000771978   0.0027805549   0.0026587617
        0.0030347679  -0.0141785481  -0.0027770491  -0.0000086606  -0.0157574702
        0.0026458617  -0.0030692480  -0.0141237401  -0.0011956920  -0.0003993955
       -0.0020578157  -0.0000318457  -0.0005557193   0.0001752613  -0.0007588601
       -0.0001068643  -0.0010445355   0.0000830815   0.0005578716  -0.0005640262
        0.0000271962  -0.0000002118  -0.0000658022  -0.0000024492   0.0000000197
        0.0000050195  -0.0000256301  -0.0000000901  -0.0000254641  -0.0000005535
       -0.0000018626   0.0000039260  -0.0000043740   0.0000030843   0.0000075413
       -0.0000038823   0.0000037150   0.0000000075  -0.0000039291  -0.0000037286
        0.0000000339  -0.0000043409  -0.0000031058   0.0000075496  -0.0000005953
        0.0000018535   0.0000038820  -0.0000034132   0.0000000061   0.0000001420
       -0.0000005184  -0.0000005813   0.0000029528  -0.0000008040   0.0000011587
        0.0000010873  -0.0000007268   0.0000000484   0.0000004596  -0.0000012186
       -0.0000002724   0.0000000983  -0.0000014939  -0.0000000599   0.0000011412
       -0.0000005890  -0.0000001033  -0.0000010803  -0.0000003103   0.0000000317
       -0.0000000393  -0.0000006281   0.0000000376   0.0000015677  -0.0000006458
       -0.0000000752  -0.0000005394  -0.0000003417   0.0000000866   0.0000003618
       -0.0000012424   0.0000002922   0.0000001209  -0.0000007578  -0.0000000194
        0.0000004637  -0.0000007968  -0.0000011721   0.0000010712  -0.0000003842
        0.0000006261   0.0000029771  -0.0000035822  -0.0000000026   0.0000020275
        0.0000023484  -0.0000000044   0.0000009921   0.0000829991  -0.0005593384
       -0.0005625884  -0.0007584388   0.0001051416  -0.0010446336  -0.0000323273
        0.0005586075   0.0001744531  -0.0011969176   0.0003959691  -0.0020544799
       -0.0044484464  -0.0000204658  -0.0273989931  -0.0575276435   0.0000024763
        0.0061129409   0.5209212894   0.0000085694  -0.0012096215  -0.0021236936
       -0.0048982587   0.0148277553  -0.0001081862   0.0004853942   0.0010810521
       -0.0004203511  -0.0000714798  -0.0002452905   0.0000162522   0.0000258057
       -0.0001329929  -0.0006414739   0.0000361258  -0.0003171093  -0.0001432068
       -0.0020431457   0.0005735843  -0.0001812641   0.0000037791  -0.0000406415
        0.0002152724  -0.0000002931  -0.0001581678  -0.0000602735   0.0000000308
       -0.0000042157   0.0000393095  -0.0000000598   0.0000012311  -0.0000572512
       -0.0000000093   0.0000057362   0.0000242276  -0.0000000647  -0.0000089877
       -0.0000024313   0.0000001775   0.0000162365  -0.0000056151   0.0000000218
        0.0000054526   0.0000098954  -0.0000090628  -0.0000219122   0.0000098916
        0.0000091287  -0.0000219403   0.0000220875   0.0000000072  -0.0000132654
       -0.0000147596  -0.0000000192   0.0000064654   0.0000256140  -0.0000000102
        0.0000054610  -0.0000163525  -0.0000000012  -0.0000178827   0.0000027326
       -0.0000154205   0.0000075611   0.0000045517   0.0000030511  -0.0000002443
        0.0000028105  -0.0000016396   0.0000021852   0.0000001044   0.0000016373
       -0.0000000724  -0.0000004505  -0.0000031497   0.0000009580  -0.0000027630
        0.0000010991  -0.0000012886   0.0000030349  -0.0000000128   0.0000003915
        0.0000028936   0.0000000251  -0.0000006423   0.0000020455   0.0000000198
        0.0000002518  -0.0000027431  -0.0000011091  -0.0000013276  -0.0000004092
        0.0000030674   0.0000009432   0.0000001138  -0.0000016473  -0.0000001144
        0.0000028338   0.0000016168   0.0000021842   0.0000045660  -0.0000030802
       -0.0000002950   0.0000026514   0.0000153295   0.0000075463  -0.0000048733
       -0.0000000404  -0.0000009942   0.0000072624  -0.0000000487  -0.0000079685
       -0.0000237930   0.0000000197   0.0000111420   0.0001284580  -0.0000005362
       -0.0001201271  -0.0000326310   0.0000519159   0.0000507593  -0.0000326560
       -0.0000515809   0.0000510656  -0.0001429022   0.0020339633   0.0005694350
       -0.0006390396  -0.0000356742  -0.0003156265   0.0000159939  -0.0000258791
       -0.0001332951  -0.0004215916   0.0000738058  -0.0002435880  -0.0001063331
       -0.0004807176   0.0010792710  -0.0021045075   0.0049222687   0.0147610767
       -0.0049771240   0.0000003950  -0.0037816995   0.0009318487  -0.0003617384
       -0.0005477994   0.0009259324   0.0003589694  -0.0005503658  -0.0996195518
       -0.0951054431   0.0380316137  -0.2513544271   0.0005704670  -0.0798685705
       -0.0984626215   0.0945258230   0.0374708606   0.0001721789   0.0003050373
       -0.0000557760   0.0000202339  -0.0000161783  -0.0000111953   0.0000609432
       -0.0000334461   0.0000927058  -0.0000259059  -0.0001089634   0.0001692859
       -0.0000024847  -0.0000000159  -0.0000052397  -0.0000110143   0.0000000483
        0.0000197112  -0.0000289389  -0.0000000878   0.0000215063  -0.0000026220
       -0.0000000413   0.0000200848   0.0000015870   0.0000057164   0.0000033085
       -0.0000163659   0.0000049756  -0.0000038523  -0.0000163838  -0.0000049931
       -0.0000038481   0.0000016667  -0.0000057121   0.0000032506  -0.0000025561
       -0.0000000192   0.0000200699  -0.0000025348  -0.0000000114  -0.0000017872
       -0.0000002520  -0.0000003913   0.0000012542   0.0000006326   0.0000017762
        0.0000010674  -0.0000016009   0.0000022979   0.0000004097  -0.0000030642
        0.0000009203  -0.0000002412   0.0000001787  -0.0000000558   0.0000034366