$hessian                                                                        
        0.6128535679   0.0492321053   0.1633386642  -0.1265381714  -0.1239224165
        0.0072922050  -0.0259037576  -0.0288324444  -0.0014962406   0.0077541589
        0.0063396026   0.0034981555  -0.0071517827  -0.0034338299  -0.0023787665
        0.0063851216   0.0055177450   0.0020826515  -0.0041587452  -0.0016629307
       -0.0015977652   0.0004825943   0.0015134820   0.0000988676  -0.0005234926
       -0.0003668211  -0.0001811248   0.0000639709   0.0003376888   0.0000150300
       -0.0000452945  -0.0002552639  -0.0000059864   0.0000770159   0.0002595636
        0.0000201696   0.0001989050  -0.0005691456   0.0000948586   0.0009822009
        0.0032444458   0.0003160513  -0.0062964049  -0.0029383088  -0.0025270469
        0.0005500091  -0.0009960496   0.0001496881  -0.0005149047   0.0002001229
       -0.0002881056   0.0000617785  -0.0003539441   0.0000676166  -0.0000777469
        0.0002257712   0.0000065091   0.0001002558  -0.0000459995   0.0000767231
       -0.0000159170  -0.0001195118  -0.0000231863   0.0000308707   0.0000687291
        0.0000237154  -0.0001340693  -0.0000482137  -0.0000024361   0.0001316328
       -0.0000738055   0.0000682113  -0.0001386929   0.0000797716  -0.0000409915
       -0.0000987768  -0.0000442200   0.0000080640   0.0000487759   0.0000711321
       -0.0002718224   0.0001243197  -0.0000843926  -0.0000258984  -0.0000041416
        0.0000003443  -0.0000174991   0.0000664684   0.0000466890  -0.0000119197
       -0.0000177512  -0.0000466487  -0.0000013593   0.0000060149   0.0000703152
       -0.0000219715   0.0000514184  -0.0000398647   0.0000182455  -0.0000197410
       -0.0000292204   0.0000158336   0.0000014158   0.0000245545  -0.0000168134
        0.0000509703  -0.0000219868   0.0000312894   0.0000161971   0.0000070244
        0.0000018170  -0.0000188728   0.0000130781   0.0000003621  -0.0000020130
        0.0000328216   0.0000127488   0.0000250653   0.0000030786  -0.0000068825
       -0.0000033273   0.0000169372   0.0000027431  -0.0000106131   0.0000182535
       -0.0000046308   0.0000123740  -0.0000052706  -0.0000086237  -0.0000140597
        0.0000158635   0.0000119404   0.0000192363  -0.0000006321  -0.0000051883
        0.0000164665   0.0000136431   0.0000015135  -0.0000150885   0.0000205676
        0.0000079859  -0.0000097054   0.0000203140   0.0000017085  -0.0000034432
       -0.0000610004  -0.0000077327  -0.0000243823   0.0000107820   0.0000022685
        0.0000044989  -0.0000420819  -0.0000008491  -0.0000222938   0.0000435077
        0.0000077213   0.0000070120  -0.0000156660  -0.0000018917   0.0000038591
       -0.0000213519  -0.0000140830   0.0000384437   0.0000014238  -0.0000028325
       -0.0000204071  -0.0000058271  -0.0000014239   0.0000046566  -0.0000083899
        0.0000123026   0.0000086043  -0.0000204232   0.0000063054   0.0000781447
        0.0003366890  -0.0000110526   0.0060392144  -0.0011859194   0.0028894983
       -0.0418031295   0.0126421216  -0.0193702845  -0.1549352529   0.1233261753
       -0.0736212889  -0.2710239159  -0.0411235203  -0.0724428999   0.0057435512
        0.0143134953  -0.0023018652  -0.0041720982  -0.0018127358  -0.0040424333
        0.0000009505  -0.0000167563   0.0000011161  -0.0000165768  -0.0000041840
       -0.0000061755   0.0000006214  -0.0000160642  -0.0000000933   0.0000116915
       -0.0000263471   0.0000081745   0.0000305644   0.0000262235   0.0000231339
        0.0000253890   0.0000242039   0.0000209568  -0.0000000322   0.0000077104
       -0.0000028302   0.0000056418   0.0000107648  -0.0000229191  -0.0000239877
       -0.0000218582  -0.0000106613  -0.0000264370  -0.0000147781  -0.0000116254
       -0.0000880030  -0.0000010994   0.0001987934   0.0001134144  -0.0000281490
        0.0000511009   0.0000013818  -0.0000280805   0.0000228470   0.0000126810
        0.0000069201  -0.0000001798   0.0000073192   0.0000040198   0.0000007969
       -0.0000030143   0.0000041972  -0.0000004817  -0.0000067397  -0.0000056481
        0.0000014408  -0.0000016894   0.0000039266   0.0000081001  -0.0000034362
       -0.0000015009   0.0000029118  -0.0000060635  -0.0000133264   0.0000054539
        0.0000061717  -0.0000036386   0.0000011975  -0.0000129985  -0.0000090696
       -0.0000030176   0.0000002436  -0.0000159937  -0.0000041102   0.0000125869
       -0.0000062033  -0.0000032315   0.0000132226   0.0000014125  -0.0000004978
        0.0000111577   0.0000014308   0.0000000631   0.0000062665   0.0000134870
        0.0000034439  -0.0000091736   0.0000201799   0.0000082770  -0.0000170268
       -0.0000075223   0.0000001587   0.0000038750   0.0000060625  -0.0000127621
       -0.0000180889  -0.0000013370  -0.0000210328   0.0000497348  -0.0000104052
        0.0000294751  -0.0042488885  -0.0015033656  -0.0040277102   0.0058484455
       -0.0082752139   0.0043113184
        0.0492321053   0.6100570238  -0.1235391634  -0.0512902493  -0.2832102172
        0.0488376701  -0.0840061775   0.0046492290  -0.0313370879   0.0061791280
       -0.0558447428   0.0157609948  -0.0007106406   0.0012369732  -0.0001929573
       -0.0012480215  -0.0009134174  -0.0003738917  -0.0007431480   0.0007518873
       -0.0003759924  -0.0002679863  -0.0003690177  -0.0001113895   0.0001864165
        0.0000369995   0.0000723538  -0.0000469851  -0.0000952431  -0.0000111484
        0.0000388929   0.0000646868   0.0000129702  -0.0000729887  -0.0000921907
       -0.0000247357  -0.0000827802   0.0001966938  -0.0000453083   0.0003819890
       -0.0023110841   0.0002516495   0.0005076458   0.0004334609   0.0003053287
        0.0002156348  -0.0000577695   0.0001100934  -0.0000650267  -0.0000185909
       -0.0000409715   0.0000388019   0.0000021602   0.0000347090  -0.0000427542
        0.0000173349  -0.0000090429   0.0000180778   0.0000238301   0.0000021678
       -0.0000139107  -0.0000605845  -0.0000062554   0.0000030592   0.0000019403
       -0.0000219652  -0.0000734836  -0.0000461741  -0.0000064592  -0.0000426657
        0.0000247207  -0.0000216652   0.0000987539  -0.0001194789   0.0000904667
       -0.0000481628   0.0000740737  -0.0000438717   0.0000264408  -0.0000404475
        0.0001080803  -0.0000565979   0.0000489301  -0.0000821126   0.0000525422
        0.0000477687  -0.0000295245  -0.0000117903  -0.0000001484   0.0000015419
       -0.0000153306  -0.0000107634   0.0000143186   0.0000201805   0.0000317492
       -0.0000229812   0.0000169077  -0.0000003264   0.0000085103   0.0000053789
        0.0000076797  -0.0000041979  -0.0000138749  -0.0000016452   0.0000013637
        0.0000461497   0.0000564394  -0.0000447531  -0.0000167904   0.0000191819
        0.0000229084  -0.0000194142  -0.0000022958  -0.0000116376  -0.0000371541
       -0.0000000458   0.0000098552   0.0000654969   0.0000105969  -0.0000132351
       -0.0000698633   0.0000104771   0.0000026637   0.0000325440   0.0000524854
        0.0000244787  -0.0001911392  -0.0000779618   0.0000131926   0.0000140408
        0.0000037832  -0.0000135369   0.0001111982  -0.0000708102  -0.0000686174
       -0.0000107419   0.0000137574   0.0000074215  -0.0000113319  -0.0000095467
       -0.0000034611   0.0000405373   0.0000657725   0.0000183149   0.0000825787
       -0.0000890715  -0.0000466100  -0.0000920535   0.0000558647   0.0000339149
       -0.0000426063  -0.0000909663  -0.0000309410   0.0000033364   0.0001189985
        0.0000473318   0.0000745231  -0.0000254415  -0.0000205336  -0.0000205960
       -0.0000015730   0.0000042155   0.0000038416  -0.0000164016  -0.0000060726
        0.0000561996   0.0001188367   0.0000682056   0.0000547628  -0.0000229628
       -0.0000299299  -0.0000568393  -0.0000400481   0.0000133551   0.0000149761
        0.0000763582   0.0000198566   0.0021402629  -0.0001183962   0.0005323354
        0.0674939087   0.0400060379   0.0135171127   0.0508697876  -0.2195483521
        0.0676670294  -0.0412424737  -0.0504423949  -0.0098616862  -0.0075088958
       -0.0236696974   0.0042679960  -0.0014384062   0.0013882893   0.0014139118
        0.0000271980   0.0000047140   0.0000063213   0.0000068387  -0.0000090418
        0.0000016281  -0.0000021529   0.0000036225  -0.0000005143  -0.0000079737
       -0.0000023689  -0.0000035039   0.0000011632   0.0000834548   0.0000033863
       -0.0000068219  -0.0000007331  -0.0000067194  -0.0000028589  -0.0000052568
       -0.0000042374   0.0000022458   0.0000081300  -0.0000048600   0.0000054637
       -0.0000063560   0.0000168475   0.0000565687  -0.0000143666  -0.0000001425
       -0.0000238859  -0.0001576014  -0.0000754897   0.0000676260   0.0000257789
        0.0000378950   0.0000053601  -0.0000011751  -0.0000070371  -0.0000075976
       -0.0000009622  -0.0000014475  -0.0000050296  -0.0000097873   0.0000042141
        0.0000023003  -0.0000071587   0.0000031726   0.0000125603  -0.0000030119
        0.0000045983   0.0000026856  -0.0000028852  -0.0000019329   0.0000061649
        0.0000073487  -0.0000018062   0.0000046264   0.0000018915  -0.0000105015
       -0.0000036349   0.0000015698  -0.0000147052   0.0000119528   0.0000092972
        0.0000041530  -0.0000006411   0.0000106176   0.0000026697  -0.0000112048
        0.0000059522   0.0000033652  -0.0000109460  -0.0000026903   0.0000003563
       -0.0000118177  -0.0000017134  -0.0000008056  -0.0000062903  -0.0000104392
       -0.0000035413   0.0000071589  -0.0000072402  -0.0000034142   0.0000139714
        0.0000004896  -0.0000056462   0.0000018264  -0.0000044632   0.0000127627
        0.0000100432   0.0000010683   0.0000051167  -0.0000216927   0.0000480197
       -0.0000108749  -0.0019479569   0.0013885067   0.0013805061   0.0133095316
       -0.0236394231   0.0118256044
        0.1633386642  -0.1235391634   0.2107107043  -0.0132181164   0.0227514893
       -0.0593843880   0.0139014479  -0.0113892655   0.0095344749   0.0035079926
        0.0162391250  -0.0097485089  -0.0023894523  -0.0017424833  -0.0010790520
        0.0029208271   0.0023144290   0.0009731837  -0.0013316114  -0.0007950643
       -0.0004703766   0.0002718124   0.0006786880   0.0000730227  -0.0002604557
       -0.0001472634  -0.0000912669   0.0000403292   0.0001544999   0.0000095243
       -0.0000309999  -0.0001162637  -0.0000060121   0.0000522863   0.0001252421
        0.0000150839   0.0001064641  -0.0002763382   0.0000518552   0.0002004524
        0.0019602587   0.0000177869  -0.0025675321  -0.0011912086  -0.0010444783
        0.0001386593  -0.0003752247   0.0000242027  -0.0001813514   0.0000885231
       -0.0000968322   0.0000109679  -0.0001369971   0.0000139029  -0.0000173515
        0.0000811387   0.0000070531   0.0000290699  -0.0000187326   0.0000263349
       -0.0000023918  -0.0000293831  -0.0000069241   0.0000089237   0.0000234900
        0.0000131601  -0.0000432672  -0.0000094094  -0.0000002882   0.0000562969
       -0.0000381436   0.0000352376  -0.0000708331   0.0000497017  -0.0000238157
       -0.0000283622  -0.0000439292   0.0000272780   0.0000363826  -0.0000022685
       -0.0001503514   0.0000250177  -0.0000374617   0.0000080578  -0.0000039495
       -0.0000124521   0.0000081579   0.0000328878   0.0000148017  -0.0000025253
       -0.0000048909  -0.0000174979  -0.0000025545  -0.0000016916   0.0000286210
       -0.0000070883   0.0000179161  -0.0000192239   0.0000086728  -0.0000078274
       -0.0000136200   0.0000078830   0.0000025034   0.0000119497  -0.0000076502
        0.0000180250  -0.0000127680   0.0000153824   0.0000081118  -0.0000030389
       -0.0000022997  -0.0000029494   0.0000046924   0.0000026404   0.0000056632
        0.0000111433   0.0000020567   0.0000002928  -0.0000005504  -0.0000001317
        0.0000048080   0.0000042177   0.0000007134  -0.0000060353   0.0000011943
       -0.0000040488   0.0000209846   0.0000056976  -0.0000052552  -0.0000052656
        0.0000055557   0.0000066171  -0.0000024129   0.0000078960   0.0000052590
        0.0000067773   0.0000030551   0.0000001040  -0.0000039363   0.0000085058
        0.0000035435  -0.0000070838   0.0000017806  -0.0000009499  -0.0000093847
       -0.0000156379   0.0000021406  -0.0000006175  -0.0000008965  -0.0000019720
        0.0000065428  -0.0000099015   0.0000022248  -0.0000089756   0.0000077993
       -0.0000014248  -0.0000039473  -0.0000040303   0.0000013279   0.0000037334
       -0.0000081789  -0.0000057979   0.0000139067   0.0000024227  -0.0000002642
       -0.0000142286  -0.0000119844  -0.0000075265  -0.0000045908  -0.0000005254
        0.0000076328   0.0000087425  -0.0000020119   0.0000005011   0.0000235842
        0.0001075317  -0.0000089960   0.0015597826  -0.0004452698   0.0008863934
       -0.0346263976  -0.0066119097  -0.0095345646  -0.0527519221   0.0934577369
       -0.0939314310  -0.0725098947  -0.0100295564  -0.0574867872   0.0038890317
        0.0121384901  -0.0011809633  -0.0041354370   0.0012234581   0.0063176159
       -0.0000083473  -0.0000096062  -0.0000018912  -0.0000077430   0.0000021973
       -0.0000032423   0.0000010746  -0.0000064616   0.0000003131   0.0000069845
       -0.0000081325   0.0000031230  -0.0000002006  -0.0000192149   0.0000067695
        0.0000146608   0.0000091849   0.0000115669   0.0000019291   0.0000050606
       -0.0000001786   0.0000024654   0.0000013407  -0.0000068535  -0.0000106337
       -0.0000047613  -0.0000070833  -0.0000185851  -0.0000059398  -0.0000092849
       -0.0000724253   0.0000874200   0.0000774071   0.0000499556   0.0000007541
       -0.0000035965  -0.0000020201  -0.0000136137   0.0000091263   0.0000062696
        0.0000019707  -0.0000007515   0.0000037808   0.0000031048  -0.0000005564
       -0.0000018136   0.0000028744  -0.0000008016  -0.0000047003  -0.0000018341
       -0.0000003465  -0.0000010092   0.0000022796   0.0000024940  -0.0000025284
       -0.0000021899   0.0000010440  -0.0000027890  -0.0000059779   0.0000036508
        0.0000030269  -0.0000018642   0.0000025240  -0.0000063807  -0.0000043360
       -0.0000016307  -0.0000000381  -0.0000077376  -0.0000018497   0.0000063924
       -0.0000033171  -0.0000016524   0.0000066933   0.0000006280  -0.0000002372
        0.0000060396   0.0000004613   0.0000000689   0.0000034138   0.0000067461
        0.0000017270  -0.0000045826   0.0000085414   0.0000034912  -0.0000078907
       -0.0000033184   0.0000005496   0.0000009659   0.0000026474  -0.0000064152
       -0.0000080439  -0.0000015512  -0.0000086057   0.0000336988  -0.0000188368
        0.0000187785  -0.0038746665   0.0014131489   0.0064181125  -0.0021286774
        0.0041648525  -0.0010309734
       -0.1265381714  -0.0512902493  -0.0132181164   0.6002544988   0.0334755793
        0.1669026647  -0.3031844702  -0.0784225969  -0.0726289258  -0.0458325695
        0.0612472243  -0.0342354078   0.0103091790   0.0053150301   0.0001609753
       -0.0063994276  -0.0060646325  -0.0018583574   0.0053738366   0.0016522541
        0.0021956856  -0.0003997779  -0.0014580753  -0.0000996341   0.0004695879
        0.0004213258   0.0001597283  -0.0000709944  -0.0003520022  -0.0000144727
        0.0000086899   0.0002255028  -0.0000031348  -0.0000765169  -0.0002633024
       -0.0000189551  -0.0001031763   0.0005120185  -0.0000813953  -0.0018102151
       -0.0024703300  -0.0007084096   0.0072474629   0.0030914609   0.0031182024
       -0.0008628106   0.0011975791  -0.0002511270   0.0006398468  -0.0002250849
        0.0003486003  -0.0001172698   0.0004345570  -0.0001134618   0.0000734461
       -0.0002661296  -0.0000161412  -0.0001374359   0.0000485516  -0.0001113644
        0.0000066063   0.0001467095   0.0000254553  -0.0000139883  -0.0000609934
       -0.0000304747   0.0000367791   0.0000383996   0.0000134189  -0.0000955788
       -0.0000207923  -0.0000123200   0.0000848333  -0.0000549057   0.0000464485
       -0.0000363538   0.0000050670  -0.0000177235   0.0000007050  -0.0000034374
       -0.0000144243   0.0000273186  -0.0000040813   0.0000385983  -0.0000066571
        0.0000148120  -0.0000051524  -0.0000350462  -0.0000234064   0.0000036117
       -0.0000238535   0.0000202113  -0.0000080066   0.0000218913  -0.0000115039
        0.0000043451  -0.0000200829   0.0000182903  -0.0000074105   0.0000108642
        0.0000154296  -0.0000109159  -0.0000059368  -0.0000217754   0.0000136432
        0.0000168326   0.0000562741  -0.0000366038  -0.0000013865  -0.0000032731
        0.0000064316   0.0000041676   0.0000016381   0.0000081779   0.0000192891
       -0.0000377425  -0.0000185800  -0.0000264802  -0.0000119126   0.0000096889
       -0.0000096420  -0.0000077433  -0.0000100272   0.0000060198   0.0000071863
        0.0000059657  -0.0000679705  -0.0000264889   0.0000046219   0.0000402153
       -0.0000092765  -0.0000110463  -0.0000086098  -0.0000077915  -0.0000112807
       -0.0000032235  -0.0000030483  -0.0000002457  -0.0000056812  -0.0000011231
       -0.0000033732   0.0000132267   0.0000229415   0.0000016217   0.0000157458
       -0.0000059255  -0.0000189969  -0.0000068644   0.0000277530   0.0000138037
       -0.0000139400  -0.0000094354  -0.0000145938   0.0000042608   0.0000143042
        0.0000197004   0.0000185672  -0.0000065547  -0.0000055364  -0.0000180231
        0.0000056945   0.0000067560  -0.0000205224   0.0000003366  -0.0000013320
        0.0000250105   0.0000255168   0.0000226144   0.0000118344  -0.0000014865
       -0.0000224114  -0.0000178376   0.0000076640   0.0000041324  -0.0000862609
       -0.0004403742   0.0000411147  -0.0094666718   0.0018086768  -0.0041121326
       -0.0365615649  -0.0289989809  -0.0029993680   0.0517465509  -0.0116282920
        0.0215855834  -0.0142010893  -0.0262488493   0.0018268781  -0.1168782721
        0.1010902969  -0.0584227109  -0.0131392661  -0.0044564241  -0.0039116125
        0.0000089886   0.0000054397   0.0000078900   0.0000196951   0.0000017236
        0.0000078079   0.0000014365   0.0000215554  -0.0000012141  -0.0000244854
        0.0000419803  -0.0000095595  -0.0000156762   0.0000020014   0.0000243407
       -0.0000104084  -0.0000054515  -0.0000066887   0.0000094158   0.0000026542
        0.0000101667  -0.0000089832  -0.0000188741   0.0000231413  -0.0000026792
       -0.0000050367   0.0000082777  -0.0000051713  -0.0000188925  -0.0000040788
        0.0000240925   0.0000010321   0.0000305623  -0.0000313727  -0.0000133788
       -0.0000200268  -0.0000052370  -0.0000111213   0.0000024719  -0.0000068374
       -0.0000032382  -0.0000012651  -0.0000035320  -0.0000056289   0.0000058672
        0.0000036399  -0.0000026265   0.0000044617  -0.0000019386   0.0000020863
        0.0000016903  -0.0000014774  -0.0000043526  -0.0000095651   0.0000090091
       -0.0000078844  -0.0000048903   0.0000018107   0.0000006467   0.0000030550
        0.0000032064   0.0000010362   0.0000058113  -0.0000001773   0.0000070048
        0.0000038841   0.0000000218  -0.0000016939   0.0000014101   0.0000037182
        0.0000013109   0.0000011883   0.0000000959  -0.0000014095   0.0000005552
        0.0000044368  -0.0000025845  -0.0000012153  -0.0000029756   0.0000018774
       -0.0000020973   0.0000010939  -0.0000087510  -0.0000062168   0.0000089900
        0.0000035525  -0.0000008180  -0.0000009180   0.0000049707   0.0000059349
        0.0000082375  -0.0000010487   0.0000136077  -0.0000221499  -0.0001120275
       -0.0000557864  -0.0000853842  -0.0004927673   0.0000723560  -0.0000621125
        0.0025876316  -0.0036343438
       -0.1239224165  -0.2832102172   0.0227514893   0.0334755793   0.6232344655
       -0.1325802942  -0.0057550729  -0.0986844082   0.0117171695   0.0084094211
        0.0377498054  -0.0065680678   0.0099204973  -0.0011764658   0.0062956340
       -0.0044090477  -0.0024437987  -0.0017568785   0.0038371511   0.0002552524
        0.0015930264  -0.0002904221  -0.0005835382  -0.0000493435   0.0001823564
        0.0001800273   0.0000536136  -0.0000213872  -0.0001626226  -0.0000065936
       -0.0000330377   0.0000743604  -0.0000149428  -0.0000789500  -0.0000628670
       -0.0000288515   0.0000378324   0.0001668366  -0.0000159380  -0.0021452442
       -0.0003752597  -0.0008852078   0.0044992217   0.0011161041   0.0013981711
       -0.0006432482   0.0006087910  -0.0002481190   0.0003576196  -0.0001093537
        0.0002225650  -0.0000748738   0.0002177448  -0.0000710887   0.0000975915
       -0.0001389687   0.0000243522  -0.0001260356   0.0000593920  -0.0000740214
       -0.0000407103   0.0001025517   0.0000204371  -0.0000186225   0.0000156709
       -0.0000312426  -0.0001302955  -0.0000001995   0.0000170821  -0.0000145577
       -0.0000149972  -0.0000229590   0.0000739260  -0.0000439220   0.0000811387
       -0.0000251870   0.0000281199  -0.0000395728  -0.0000222633  -0.0000075252
       -0.0000803247   0.0000809025   0.0000603584  -0.0000316400   0.0000436327
       -0.0000631195   0.0000612392  -0.0000825414   0.0000663589  -0.0000595178
       -0.0000592686  -0.0000697919   0.0000429311   0.0000098635   0.0000985315
       -0.0000679906   0.0000487995  -0.0000359540   0.0000371695  -0.0000073702
       -0.0000179803   0.0000055666   0.0000168695  -0.0000147979   0.0000130993
        0.0000593305   0.0000932883  -0.0000652592   0.0000375041  -0.0000320263
        0.0000287078  -0.0000298875  -0.0000601402  -0.0000029280   0.0000430146
       -0.0000181812  -0.0000183569  -0.0000291766  -0.0000142075   0.0000057969
       -0.0000146600  -0.0000266729  -0.0000017356   0.0000138459  -0.0000003947
        0.0000203176  -0.0001448393  -0.0000468723   0.0000120305  -0.0000177474
       -0.0000172997  -0.0000124438   0.0001153969  -0.0000622668  -0.0000474513
       -0.0000266997  -0.0000065533   0.0000032631   0.0000128670  -0.0000214227
       -0.0000101053   0.0000348948   0.0000261163   0.0000075777   0.0000677422
       -0.0000327372  -0.0000244596  -0.0000544146   0.0000201999   0.0000197239
       -0.0000330184  -0.0000459183  -0.0000179479   0.0000205517   0.0000749351
        0.0000241617   0.0000489046  -0.0000020970  -0.0000100703  -0.0000054932
        0.0000218911   0.0000119440  -0.0000343990  -0.0000133649  -0.0000025759
        0.0000599199   0.0001329327   0.0000504693   0.0000141666   0.0000019225
       -0.0000280080  -0.0000351923   0.0000226667  -0.0000045850  -0.0000577773
       -0.0002921818  -0.0000000191  -0.0050369876   0.0010624754  -0.0021007078
       -0.0311300230  -0.0209362020  -0.0066731434   0.0399860951  -0.0588298079
        0.0315342306  -0.0043516430  -0.0059916311   0.0003246653   0.1011538369
       -0.1835497792   0.0790152063  -0.0255403024  -0.0063252908  -0.0072116989
        0.0000120458  -0.0000059940   0.0000058936   0.0000026495  -0.0000043116
        0.0000028264  -0.0000100217  -0.0000018171  -0.0000038792  -0.0000010697
        0.0000180341  -0.0000031222   0.0000662791   0.0000996219   0.0000617112
        0.0000242654   0.0000077524   0.0000156485   0.0000059943   0.0000081836
        0.0000027007   0.0000011086  -0.0000052356   0.0000208709   0.0000026160
        0.0000014626   0.0000006038  -0.0000184993  -0.0000127840   0.0000008502
        0.0000132035  -0.0000612294   0.0001012046   0.0000209945  -0.0000348990
        0.0000096598  -0.0000003537  -0.0000090296   0.0000017426  -0.0000024283
       -0.0000010497   0.0000004918  -0.0000026404  -0.0000059006   0.0000040120
        0.0000012239  -0.0000025573   0.0000006816   0.0000095107   0.0000002479
        0.0000060705   0.0000034373  -0.0000045101  -0.0000163385   0.0000048003
        0.0000017107  -0.0000076001   0.0000066077   0.0000105977  -0.0000064561
       -0.0000046926   0.0000044791  -0.0000058776   0.0000153456   0.0000117726
        0.0000047146  -0.0000023478   0.0000157415   0.0000055991  -0.0000163652
        0.0000075073   0.0000052546  -0.0000155256  -0.0000051137   0.0000003980
       -0.0000149324  -0.0000040333   0.0000002470  -0.0000080159  -0.0000168551
       -0.0000048713   0.0000097675  -0.0000180069  -0.0000066505   0.0000218913
        0.0000010339  -0.0000032205  -0.0000004870  -0.0000067658   0.0000138596
        0.0000164432  -0.0000065806   0.0000171043   0.0000054046  -0.0000115678
        0.0000023849  -0.0005760794   0.0003271904  -0.0003660150   0.0021133488
       -0.0022470584   0.0036108117
        0.0072922050   0.0488376701  -0.0593843880   0.1669026647  -0.1325802942
        0.2145307581  -0.0920717449  -0.0141097841  -0.0768416938  -0.0199083658
        0.0115560584  -0.0089995095  -0.0017435945   0.0042126985   0.0058827604
       -0.0005803539  -0.0014555490  -0.0005394239   0.0010226555   0.0004584513
        0.0002301845  -0.0000909604  -0.0003496472   0.0000861488   0.0001154828
        0.0001037374   0.0000382043  -0.0000221790  -0.0000815352  -0.0000168188
        0.0000092767   0.0000613746   0.0000015027   0.0000026482  -0.0000825654
       -0.0000036232  -0.0000418439   0.0001353534  -0.0000135091  -0.0001149547
       -0.0007504009   0.0000013150   0.0018431344   0.0008660218   0.0000569572
       -0.0001878550   0.0003241203  -0.0000933326   0.0001362968  -0.0000496557
        0.0001018975  -0.0000335519   0.0001147456  -0.0000183081   0.0000000564
       -0.0000697697  -0.0000113667  -0.0000247394   0.0000136333  -0.0000242413
        0.0000121662   0.0000219626   0.0000038964   0.0000004786  -0.0000319893
       -0.0000056741   0.0000376777   0.0000086801  -0.0000014055  -0.0000434720
       -0.0000047560  -0.0000002476   0.0000315424  -0.0000169811  -0.0000021202
       -0.0000008343   0.0000002422   0.0000089212  -0.0000139847   0.0000077320
        0.0000527372  -0.0000108694  -0.0000103498   0.0000263981  -0.0000059070
        0.0000108655  -0.0000101184  -0.0000041611  -0.0000251651   0.0000135302
        0.0000010725   0.0000224321  -0.0000116804   0.0000098336  -0.0000227332
        0.0000159876  -0.0000183355   0.0000166437  -0.0000117636   0.0000080718
        0.0000140002  -0.0000072058  -0.0000108153  -0.0000048212   0.0000023977
        0.0000021081   0.0000170067  -0.0000089031  -0.0000157954   0.0000119852
       -0.0000010078   0.0000062968   0.0000175452   0.0000026778  -0.0000137223
       -0.0000105055  -0.0000008255   0.0000120324   0.0000015416   0.0000000205
       -0.0000156881   0.0000067585  -0.0000031846   0.0000063335   0.0000157063
        0.0000011866  -0.0000342479  -0.0000159896   0.0000014963   0.0000270265
        0.0000029996  -0.0000032584  -0.0000105347   0.0000008832  -0.0000057371
        0.0000041444   0.0000029185   0.0000006644  -0.0000082114   0.0000038720
        0.0000014629   0.0000046034   0.0000168649   0.0000031182   0.0000055576
       -0.0000153670  -0.0000101973  -0.0000087286   0.0000185742   0.0000079475
       -0.0000040476  -0.0000145464  -0.0000079129  -0.0000047109   0.0000145886
        0.0000113818   0.0000115361  -0.0000089578  -0.0000042327  -0.0000091562
       -0.0000050026  -0.0000001580   0.0000020607   0.0000005578  -0.0000006853
        0.0000042234  -0.0000004467   0.0000090867   0.0000132598  -0.0000065278
       -0.0000072250  -0.0000100786  -0.0000117772   0.0000046992  -0.0000125699
       -0.0001100688   0.0000119526  -0.0027903997   0.0005602637  -0.0009933554
       -0.0023937865  -0.0061312876  -0.0046303639   0.0067852845   0.0128188721
        0.0001031501  -0.0042298193  -0.0073107959   0.0016955462  -0.0584935936
        0.0789599353  -0.0782722539   0.0018768461   0.0004992958   0.0017521159
       -0.0000008870   0.0000046592   0.0000018963   0.0000062008   0.0000018590
        0.0000035633   0.0000019110   0.0000098992   0.0000027092  -0.0000087317
        0.0000160163  -0.0000052132  -0.0000128522  -0.0000234684  -0.0000166615
       -0.0000112457  -0.0000037632  -0.0000092565   0.0000044005  -0.0000007650
       -0.0000001997  -0.0000027321  -0.0000049179   0.0000020659  -0.0000017859
       -0.0000014325   0.0000043602   0.0000011830  -0.0000004985  -0.0000033364
        0.0000187715   0.0000583504  -0.0000419412  -0.0000302442   0.0000025474
       -0.0000168644  -0.0000034808  -0.0000004732  -0.0000010168  -0.0000040392
       -0.0000017474  -0.0000010876  -0.0000019262  -0.0000024200   0.0000017307
        0.0000014333  -0.0000017706   0.0000021672  -0.0000011716   0.0000006092
       -0.0000006974  -0.0000011952  -0.0000014835   0.0000000294   0.0000032139
       -0.0000027907  -0.0000002874  -0.0000003954  -0.0000030965   0.0000012452
        0.0000022629  -0.0000009998   0.0000012235  -0.0000018064   0.0000014368
        0.0000009579   0.0000004572  -0.0000034905  -0.0000006904   0.0000040133
       -0.0000007526  -0.0000005149   0.0000025863   0.0000003662   0.0000001505
        0.0000039988  -0.0000002676  -0.0000007961   0.0000002785   0.0000037393
       -0.0000000721  -0.0000014107   0.0000003615  -0.0000011644   0.0000005711
        0.0000009931  -0.0000006968  -0.0000003076   0.0000029148   0.0000010850
        0.0000008646   0.0000010933   0.0000020250  -0.0000105262  -0.0000446590
       -0.0000256525   0.0002061444  -0.0003271457  -0.0001029637  -0.0033665162
        0.0038517747   0.0054895314
       -0.0259037576  -0.0840061775   0.0139014479  -0.3031844702  -0.0057550729
       -0.0920717449   0.6049562636   0.0671190053   0.1613048316  -0.1328999537
        0.0561786642  -0.0473088482  -0.0429747376   0.0123748854  -0.0203898854
        0.0112021740   0.0117858615   0.0028054995  -0.0087517024  -0.0022557842
       -0.0032107810   0.0010806878   0.0027714166   0.0002475833  -0.0008661796
       -0.0007380695  -0.0002965167   0.0001173068   0.0006295236   0.0000330637
       -0.0000438657  -0.0004407903   0.0000026014   0.0001909624   0.0004530786
        0.0000573711   0.0001758571  -0.0009851613   0.0001199843   0.0037385242
        0.0060761907   0.0011956017  -0.0150798933  -0.0050453498  -0.0055745636
        0.0011792650  -0.0020387558   0.0004108844  -0.0010991503   0.0005069641
       -0.0006402943   0.0001591201  -0.0006755242   0.0001676254  -0.0001683932
        0.0004231392   0.0000053438   0.0002527635  -0.0000766724   0.0001887344