$hessian                                                                        
        0.6137572905   0.0536186550   0.1620065466  -0.1290416086  -0.1252045313
        0.0110951368  -0.0252335094  -0.0294863143  -0.0002033296   0.0043349429
        0.0056754300   0.0023594846  -0.0023824322  -0.0003629853  -0.0006942883
        0.0007117092   0.0009551588   0.0000774245  -0.0005125517   0.0001083917
       -0.0002349463   0.0000356479   0.0001206757   0.0000075243  -0.0000487018
       -0.0000046233  -0.0000165689  -0.0000005151  -0.0000042184   0.0000008340
       -0.0000313264  -0.0000010471  -0.0000070741  -0.0000012001  -0.0000369783
        0.0000004494   0.0000791119  -0.0000433070   0.0000178187   0.0002055792
       -0.0000032781   0.0000986017  -0.0004092198  -0.0002503330  -0.0001841748
        0.0000535733  -0.0000908473   0.0000286738  -0.0000282527  -0.0000121554
       -0.0000129671  -0.0000037358   0.0000047880  -0.0000020665  -0.0000257047
       -0.0000059524  -0.0000228321  -0.0000017753   0.0000045373  -0.0000011560
       -0.0000167083   0.0000213981   0.0000079859   0.0000173176  -0.0000065632
       -0.0000085901  -0.0000315853   0.0000072036   0.0000109869   0.0000112812
       -0.0000670291   0.0000333311  -0.0000450133   0.0000164681   0.0000056612
       -0.0001122334  -0.0000521481   0.0000143173   0.0000708400   0.0000475557
       -0.0001987935   0.0000931280  -0.0000976306  -0.0000000552  -0.0000342083
        0.0000407823  -0.0000220820   0.0000605134   0.0000036210   0.0000095193
       -0.0000251857   0.0000163457  -0.0000167472   0.0000150063   0.0000067966
       -0.0000042826   0.0000045442  -0.0000123606   0.0000069445   0.0000085961
       -0.0000011592   0.0000012519  -0.0000141191   0.0000008239  -0.0000037374
        0.0000461547   0.0000272976  -0.0000099118  -0.0000122204   0.0000091583
        0.0000068960   0.0000078539   0.0000014090   0.0000009309  -0.0000038613
       -0.0000025652  -0.0000026690   0.0000013167  -0.0000020859  -0.0000005097
       -0.0000017645   0.0000016453  -0.0000006305   0.0000064703   0.0000088881
       -0.0000038944  -0.0000264354  -0.0000076092   0.0000007471   0.0000347631
        0.0000062879  -0.0000039837  -0.0000218949   0.0000125267   0.0000030862
        0.0000042049  -0.0000020533  -0.0000025140  -0.0000053970   0.0000037380
        0.0000016310  -0.0000017506   0.0000025038   0.0000000758  -0.0000040193
       -0.0000016966  -0.0000005728   0.0000036360   0.0000077093   0.0000015032
        0.0000011017  -0.0000039125  -0.0000026963  -0.0000029412   0.0000025610
        0.0000002738   0.0000013323  -0.0000005022  -0.0000010068  -0.0000069598
       -0.0000019281  -0.0000005295  -0.0000041310   0.0000039675   0.0000014574
       -0.0000025254  -0.0000142426  -0.0000006085   0.0000022314  -0.0000042640
        0.0000002307  -0.0000000918   0.0000018241  -0.0000065468   0.0000311733
        0.0000458922   0.0000415850   0.0007933802  -0.0005861148   0.0004574342
       -0.0396430853   0.0141117777  -0.0194454869  -0.1547573061   0.1209266480
       -0.0774406103  -0.2711054890  -0.0414400814  -0.0719147644   0.0057830139
        0.0139149751  -0.0026675330  -0.0041682221  -0.0019472068  -0.0039808464
        0.0000059379  -0.0000017379   0.0000036936   0.0000054524   0.0000020527
        0.0000056687   0.0000036436   0.0000003476   0.0000016863  -0.0000070802
        0.0000153807  -0.0000040764  -0.0000048222   0.0000466344   0.0000169824
        0.0000030778   0.0000044214   0.0000030497   0.0000040922   0.0000024549
        0.0000097892   0.0000039873  -0.0000001051   0.0000040623  -0.0000109865
       -0.0000218883  -0.0000045564  -0.0000127548  -0.0000203109  -0.0000085696
       -0.0000580125   0.0000195352   0.0001483848   0.0000628806  -0.0000220746
        0.0000252346  -0.0000120154  -0.0000328596   0.0000193830  -0.0000058290
        0.0000006613  -0.0000000377  -0.0000028354  -0.0000070907   0.0000056239
       -0.0000009241  -0.0000073999   0.0000040034   0.0000030772  -0.0000021355
        0.0000025163  -0.0000018245  -0.0000068668  -0.0000016104   0.0000060186
       -0.0000032139  -0.0000035150  -0.0000019898  -0.0000000197   0.0000021891
        0.0000003984  -0.0000004748   0.0000028356  -0.0000009825   0.0000003601
       -0.0000006907  -0.0000000526  -0.0000015272  -0.0000019486   0.0000021087
       -0.0000008457  -0.0000019576   0.0000012481   0.0000016271  -0.0000005310
        0.0000008257   0.0000011898  -0.0000009660  -0.0000000605   0.0000011217
        0.0000000237   0.0000009723  -0.0000011357  -0.0000020816   0.0000043275
       -0.0000000788  -0.0000017392  -0.0000007633   0.0000013157   0.0000003669
        0.0000046110  -0.0000043953   0.0000028728   0.0000141033  -0.0000411298
       -0.0000257169  -0.0043018367  -0.0015839662  -0.0040196328   0.0058879753
       -0.0083175627   0.0046399259
        0.0536186550   0.6032851650  -0.1368465195  -0.0532595778  -0.2800678460
        0.0553560229  -0.0832724051   0.0054548928  -0.0315190946   0.0059822101
       -0.0563014883   0.0172572752  -0.0004013566  -0.0008851517   0.0001600718
       -0.0005341991  -0.0002920597  -0.0002549427   0.0003062993  -0.0000902545
        0.0002700000  -0.0000209840  -0.0000419081  -0.0000175780   0.0000394740
        0.0000269954   0.0000100125  -0.0000321667  -0.0000312543  -0.0000043499
       -0.0000186442  -0.0000252727  -0.0000027399  -0.0000055214   0.0000251145
        0.0000009185  -0.0000173945  -0.0000067722  -0.0000069850   0.0000039170
        0.0005029108  -0.0001429645  -0.0004926222  -0.0002732717  -0.0000810422
        0.0000642542  -0.0000668939   0.0000042486  -0.0000444703   0.0000073964
       -0.0000286767   0.0000270456  -0.0000257142   0.0000227062   0.0000060968
       -0.0000152519   0.0000028486  -0.0000018945   0.0000234680   0.0000073664
       -0.0000001190   0.0000112748   0.0000122639   0.0000071274  -0.0000184323
       -0.0000095456   0.0000447215   0.0000253256   0.0000011842  -0.0000596702
        0.0000112131  -0.0000129351   0.0000388970  -0.0000716355   0.0000273337
       -0.0000348157   0.0000782571  -0.0000390727   0.0000126211  -0.0000515148
        0.0001121751  -0.0000693249   0.0000459111  -0.0000755815  -0.0000037541
        0.0000731835  -0.0000572048   0.0000317675  -0.0000285707   0.0000268386
        0.0000126697   0.0000102688  -0.0000033171  -0.0000093405  -0.0000200074
        0.0000097931  -0.0000111324   0.0000068578  -0.0000063987   0.0000143095
        0.0000088614  -0.0000027740  -0.0000038616  -0.0000106616   0.0000061253
        0.0000018893   0.0000063174   0.0000010479  -0.0000212304  -0.0000044817
       -0.0000005771   0.0000117783  -0.0000020335  -0.0000063502  -0.0000092736
        0.0000044332  -0.0000008587   0.0000085132   0.0000016202  -0.0000016223
       -0.0000022688  -0.0000025098  -0.0000000578   0.0000070257  -0.0000015665
        0.0000006012   0.0000058455   0.0000031321  -0.0000009186  -0.0000055691
       -0.0000055489   0.0000004243  -0.0000001436  -0.0000006287  -0.0000004094
        0.0000006571   0.0000010058   0.0000002931   0.0000001752   0.0000003732
       -0.0000000355   0.0000001035  -0.0000013114  -0.0000003494   0.0000007840
        0.0000003259   0.0000002878   0.0000005363  -0.0000010472  -0.0000002614
       -0.0000033198  -0.0000002133   0.0000006254   0.0000019801   0.0000000832
        0.0000005818   0.0000004469   0.0000004499   0.0000009391   0.0000006476
        0.0000004094   0.0000008836  -0.0000012884  -0.0000017932   0.0000002824
        0.0000025589   0.0000047819   0.0000013317  -0.0000062745  -0.0000020142
       -0.0000004628  -0.0000024834   0.0000054448  -0.0000048093   0.0000229846
        0.0000081181   0.0000201878   0.0009438505  -0.0003205039   0.0003257042
        0.0676588188   0.0407039057   0.0120574379   0.0490440413  -0.2176189422
        0.0725864918  -0.0415135083  -0.0504419203  -0.0097822065  -0.0076190742
       -0.0232710785   0.0049436417  -0.0016130385   0.0014489159   0.0016209107
       -0.0000053191  -0.0000122017  -0.0000024798   0.0000093011  -0.0000033703
        0.0000005325  -0.0000051422   0.0000065915  -0.0000002911  -0.0000089946
       -0.0000091275  -0.0000027298  -0.0000165223   0.0000657404  -0.0000108383
        0.0000111123  -0.0000076379  -0.0000004188  -0.0000022786  -0.0000016849
        0.0000028428   0.0000080690   0.0000053523   0.0000029833   0.0000072363
        0.0000022800   0.0000015389   0.0000460992  -0.0000115944   0.0000043024
       -0.0000199498  -0.0001431441  -0.0000635207   0.0000635106   0.0000200818
        0.0000396508   0.0000264635   0.0000084540  -0.0000120471   0.0000051007
        0.0000027466  -0.0000036279   0.0000027311   0.0000039432  -0.0000004169
       -0.0000032317   0.0000042798   0.0000009727  -0.0000023117  -0.0000001996
       -0.0000010132  -0.0000004018  -0.0000002931  -0.0000020881  -0.0000035977
        0.0000009684  -0.0000007955   0.0000002727  -0.0000001961   0.0000008035
       -0.0000008907   0.0000005216   0.0000003245  -0.0000003941  -0.0000000964
       -0.0000005264   0.0000001747  -0.0000001374  -0.0000004209   0.0000001490
       -0.0000003969  -0.0000002571  -0.0000002559  -0.0000006498   0.0000000193
       -0.0000001370  -0.0000001374   0.0000002494   0.0000005985  -0.0000013818
        0.0000003753   0.0000012873  -0.0000018037  -0.0000006178   0.0000000608
       -0.0000000157  -0.0000011533  -0.0000017855  -0.0000018836   0.0000017635
        0.0000058467  -0.0000015696   0.0000022532   0.0000040208   0.0000498013
       -0.0000051496  -0.0019445890   0.0014480225   0.0015949233   0.0129917924
       -0.0232081192   0.0125166413
        0.1620065466  -0.1368465195   0.2208785449  -0.0119225269   0.0291823862
       -0.0622305530   0.0169288554  -0.0121474951   0.0112394080   0.0021021245
        0.0179467906  -0.0114599070  -0.0006292198   0.0001709805  -0.0005622702
        0.0004958037   0.0004266674   0.0001194762  -0.0003176734   0.0000609519
       -0.0001296412   0.0000197599   0.0000530275  -0.0000039952  -0.0000304059
       -0.0000123306  -0.0000086603   0.0000099179   0.0000114900   0.0000029063
       -0.0000057903   0.0000075641  -0.0000011788   0.0000063210  -0.0000217442
        0.0000024854   0.0000333751  -0.0000122347   0.0000068786   0.0000690158
       -0.0002098581   0.0000675437   0.0000511330   0.0000362296   0.0000270305
        0.0000022515  -0.0000044331  -0.0000018027   0.0000071540  -0.0000082389
        0.0000066750  -0.0000143748   0.0000068248  -0.0000098101  -0.0000127435
        0.0000091715  -0.0000092006  -0.0000002813  -0.0000096936  -0.0000029688
       -0.0000015106   0.0000028862  -0.0000024871   0.0000038589   0.0000063866
        0.0000009584  -0.0000304523  -0.0000109747   0.0000013208   0.0000292353
       -0.0000271656   0.0000207958  -0.0000366617   0.0000204709   0.0000023869
       -0.0000282721  -0.0000494841   0.0000304935   0.0000281224  -0.0000031850
       -0.0001342389   0.0000223483  -0.0000502945   0.0000244666   0.0000037276
        0.0000044189   0.0000101126   0.0000168874   0.0000070282  -0.0000024700
       -0.0000110744   0.0000058273  -0.0000067095   0.0000121889   0.0000083559
       -0.0000026184   0.0000071526  -0.0000043310   0.0000041985  -0.0000043912
       -0.0000029590   0.0000011926  -0.0000044108   0.0000043827  -0.0000032200
        0.0000155225   0.0000018673  -0.0000028356   0.0000073643   0.0000041307
        0.0000027196  -0.0000022842   0.0000029628   0.0000039249   0.0000025132
       -0.0000027262  -0.0000005119  -0.0000044946  -0.0000016526   0.0000009453
       -0.0000003775   0.0000022410  -0.0000004273   0.0000000004   0.0000046349
       -0.0000016429  -0.0000146947  -0.0000047569   0.0000002794   0.0000161017
        0.0000046762  -0.0000008608  -0.0000074807   0.0000059294   0.0000008911
        0.0000006838  -0.0000015696  -0.0000008204  -0.0000019820   0.0000007780
        0.0000007145  -0.0000001358   0.0000019294   0.0000005296  -0.0000021770
       -0.0000009473  -0.0000001000   0.0000015709   0.0000029940   0.0000006142
        0.0000028095  -0.0000009456  -0.0000011234  -0.0000022756   0.0000002303
       -0.0000001106   0.0000007140  -0.0000005485  -0.0000006202  -0.0000025509
       -0.0000001455  -0.0000001170  -0.0000023984   0.0000022192   0.0000010392
       -0.0000018303  -0.0000079364  -0.0000010643   0.0000041656  -0.0000006464
        0.0000003508   0.0000001708  -0.0000012713  -0.0000000127   0.0000031189
        0.0000099560   0.0000098812  -0.0000963309  -0.0001463785   0.0000212409
       -0.0363885427  -0.0076367953  -0.0095938221  -0.0542392675   0.0984073738
       -0.0999654913  -0.0718967682  -0.0099179547  -0.0577957148   0.0042530780
        0.0128239220  -0.0017368998  -0.0041164691   0.0014394276   0.0063070638
        0.0000039008   0.0000037810   0.0000014717  -0.0000011103   0.0000015509
        0.0000017273   0.0000039030  -0.0000012037   0.0000005251  -0.0000001915
        0.0000094633  -0.0000012970  -0.0000046543  -0.0000106624   0.0000107744
       -0.0000032710   0.0000036289  -0.0000000032   0.0000024628   0.0000021064
        0.0000025891  -0.0000015242  -0.0000023593  -0.0000001499  -0.0000073974
       -0.0000088492  -0.0000005314  -0.0000128352  -0.0000086411  -0.0000092706
       -0.0000578537   0.0000934473   0.0000644798   0.0000320159   0.0000029712
       -0.0000144055  -0.0000132646  -0.0000178463   0.0000099877  -0.0000051581
       -0.0000006587  -0.0000001611  -0.0000025673  -0.0000056408   0.0000027267
        0.0000014881  -0.0000051003   0.0000017647   0.0000030550  -0.0000009665
        0.0000012445  -0.0000013879  -0.0000012016   0.0000000552   0.0000031302
       -0.0000013843  -0.0000011974  -0.0000008573  -0.0000002604   0.0000004374
        0.0000008035  -0.0000005966   0.0000010590  -0.0000000009   0.0000003901
       -0.0000001953  -0.0000001988  -0.0000002349  -0.0000005286   0.0000005766
       -0.0000001768  -0.0000006632   0.0000006977   0.0000008762  -0.0000002602
        0.0000002105   0.0000005323  -0.0000004542  -0.0000003449   0.0000008800
       -0.0000001504   0.0000000127  -0.0000000906  -0.0000007728   0.0000022133
       -0.0000000690  -0.0000005797   0.0000001748   0.0000007935  -0.0000005565
        0.0000002347  -0.0000014517  -0.0000002391   0.0000122489  -0.0000340740
       -0.0000054174  -0.0038503449   0.0016116917   0.0063701343  -0.0024379105
        0.0048274589  -0.0015553048
       -0.1290416086  -0.0532595778  -0.0119225269   0.6019697758   0.0395371168
        0.1658123247  -0.3057265276  -0.0782336048  -0.0710926056  -0.0409764820
        0.0616818533  -0.0348800221   0.0041151284   0.0029317039  -0.0024048256
        0.0000024060  -0.0008680378   0.0004572477   0.0002074067   0.0001016437
        0.0001731323   0.0000678715   0.0000012965  -0.0000020867   0.0000037283
        0.0000222996   0.0000003312  -0.0000288961   0.0000129415  -0.0000066492
        0.0000156364  -0.0000394011   0.0000076208   0.0000090168   0.0000104182
        0.0000008342  -0.0000099891   0.0000123874  -0.0000186266  -0.0002432103
       -0.0004226845  -0.0001303929   0.0005523548   0.0004775184   0.0004557392
       -0.0001073690   0.0000399607  -0.0000434603   0.0000364454   0.0000270297
        0.0000172519  -0.0000040740   0.0000395287   0.0000000489  -0.0000269941
       -0.0000101508  -0.0000193348  -0.0000069056  -0.0000237147  -0.0000178055
       -0.0000253122  -0.0000129567  -0.0000119708   0.0000124220   0.0000360892
        0.0000033282  -0.0001014309  -0.0000210526   0.0000076164   0.0001191915
       -0.0000476309   0.0000455989  -0.0000857252   0.0000783712  -0.0000352478
       -0.0000550017  -0.0000271243  -0.0000098329   0.0000039577   0.0000340191
       -0.0001013911   0.0000433776  -0.0000034152   0.0000086264  -0.0000315568
        0.0000232893  -0.0000170194   0.0000421163   0.0000143634  -0.0000034313
       -0.0000028485  -0.0000096837   0.0000039698   0.0000126417   0.0000122914
       -0.0000057031   0.0000138088  -0.0000009483   0.0000021779  -0.0000122328
       -0.0000072907   0.0000034326  -0.0000102623   0.0000122091  -0.0000096250
        0.0000199136  -0.0000298585   0.0000080601   0.0000157475  -0.0000009166
        0.0000037475  -0.0000023733  -0.0000056430   0.0000013530   0.0000147964
        0.0000066262   0.0000048520  -0.0000065366  -0.0000021873  -0.0000023786
        0.0000049705   0.0000012165   0.0000016619  -0.0000003682   0.0000027957
       -0.0000008046  -0.0000120935  -0.0000054178  -0.0000004326   0.0000162156
        0.0000120368   0.0000004607  -0.0000042667   0.0000038673  -0.0000005641
        0.0000005021  -0.0000017534  -0.0000010811  -0.0000030509   0.0000003886
        0.0000003487   0.0000005045   0.0000003506  -0.0000003538   0.0000015574
       -0.0000010692  -0.0000005639  -0.0000015016   0.0000032531   0.0000014653
        0.0000034973   0.0000006775  -0.0000003394  -0.0000024532  -0.0000027728
       -0.0000006845   0.0000011374   0.0000001755  -0.0000000069  -0.0000006663
       -0.0000021759  -0.0000006014   0.0000040056   0.0000012932  -0.0000000223
       -0.0000038458  -0.0000163849  -0.0000022646   0.0000028376   0.0000010272
        0.0000013597   0.0000058023  -0.0000026481   0.0000053075  -0.0000228350
        0.0000148124   0.0000019423  -0.0022837247   0.0012437145  -0.0009357696
       -0.0391160583  -0.0312681117  -0.0022519479   0.0534425328  -0.0119995283
        0.0227762663  -0.0144073149  -0.0260793478   0.0025562327  -0.1150973769
        0.0985498690  -0.0610507927  -0.0131097066  -0.0043486897  -0.0038929890
        0.0000031880  -0.0000007170  -0.0000001963   0.0000038088  -0.0000029056
       -0.0000013649  -0.0000047592   0.0000059604   0.0000007451  -0.0000042779
       -0.0000009153   0.0000032410   0.0000270174  -0.0000185447   0.0000422174
        0.0000080188   0.0000076079   0.0000093061  -0.0000051955   0.0000085038
       -0.0000014560  -0.0000021792   0.0000027652  -0.0000012661  -0.0000161283
       -0.0000182907  -0.0000092611  -0.0000130527  -0.0000088290  -0.0000056839
        0.0000108639  -0.0000210259   0.0001074636  -0.0000000026  -0.0000116498
        0.0000097393  -0.0000031629  -0.0000110711   0.0000086159   0.0000010108
        0.0000035798  -0.0000011325   0.0000000772  -0.0000044876   0.0000040892
        0.0000021480  -0.0000032784   0.0000057341   0.0000064779  -0.0000032904
        0.0000040705   0.0000006606   0.0000024016   0.0000014282   0.0000039564
        0.0000027451  -0.0000027113  -0.0000009977   0.0000008762  -0.0000021920
        0.0000006747   0.0000002695  -0.0000001505   0.0000009316   0.0000002401
       -0.0000005168  -0.0000003152   0.0000002067  -0.0000000727   0.0000004192
        0.0000000497  -0.0000003183   0.0000004937  -0.0000001050  -0.0000001455
        0.0000003223   0.0000002352   0.0000002115   0.0000000940   0.0000000892
        0.0000008403   0.0000019173   0.0000009799   0.0000012982   0.0000021994
       -0.0000015467  -0.0000002950   0.0000030526   0.0000014077  -0.0000019483
        0.0000023975  -0.0000030472  -0.0000049356  -0.0000123300  -0.0000775591
       -0.0000186094  -0.0001460151  -0.0004779592   0.0000633916  -0.0000620203
        0.0024326485  -0.0036983199
       -0.1252045313  -0.2800678460   0.0291823862   0.0395371168   0.6149372892
       -0.1461911175  -0.0079393518  -0.0983040983   0.0126915127   0.0108611441
        0.0384361813  -0.0068454631   0.0051963549  -0.0017380273   0.0049690125
       -0.0012171972  -0.0011501007  -0.0005106158   0.0009122006   0.0002234369
        0.0000889412  -0.0000781208  -0.0001956221  -0.0000069507   0.0000851101
       -0.0000049016   0.0000337174   0.0000285779  -0.0000379475   0.0000070116
       -0.0000064213   0.0000067742  -0.0000004156  -0.0001002998   0.0000365704
       -0.0000336217   0.0000284294   0.0000302984  -0.0000302387  -0.0007596829
       -0.0002468277  -0.0000275628   0.0014709148   0.0000349626   0.0000943132
       -0.0000609972   0.0001999251   0.0000168723   0.0001088066   0.0000199434
        0.0000654441   0.0000002299   0.0000516937  -0.0000009990   0.0000096641
        0.0000181942   0.0000164062  -0.0000122729  -0.0000271247  -0.0000330853
       -0.0000103070  -0.0000526159  -0.0000340790  -0.0000142578   0.0000647641
        0.0000152786  -0.0001204489  -0.0000580697  -0.0000028362   0.0001364414
        0.0000094902   0.0000187320  -0.0001066130   0.0000777910  -0.0000311770
       -0.0000343714  -0.0000110547  -0.0000152399  -0.0000345230   0.0000070251
       -0.0001141506   0.0000595990  -0.0000143059  -0.0000049776   0.0000242155
        0.0000354954  -0.0000149139   0.0000065593   0.0000408444  -0.0000265490
        0.0000060961   0.0000014125  -0.0000013306   0.0000121922   0.0000096360
       -0.0000041945   0.0000173542  -0.0000016688   0.0000049007  -0.0000262895
       -0.0000205377   0.0000092962   0.0000037494   0.0000196240  -0.0000111241
       -0.0000087224  -0.0000656170   0.0000263577   0.0000479081  -0.0000011786
        0.0000025564  -0.0000197898  -0.0000130683   0.0000028107   0.0000311655
        0.0000066849   0.0000111160  -0.0000156172  -0.0000024353  -0.0000013330
        0.0000132968  -0.0000037746   0.0000058964  -0.0000104948  -0.0000070865
        0.0000033451   0.0000285806   0.0000091680  -0.0000031494  -0.0000371239
        0.0000063189   0.0000071058   0.0000283337  -0.0000139422  -0.0000042512
       -0.0000060000   0.0000027505   0.0000033699   0.0000038115  -0.0000042382
       -0.0000012630   0.0000030268  -0.0000014195   0.0000002536   0.0000068650
        0.0000021496   0.0000002473  -0.0000087818  -0.0000091387  -0.0000011348
        0.0000020808   0.0000073882   0.0000034099   0.0000015097  -0.0000061503
       -0.0000016212  -0.0000030947   0.0000045343   0.0000020441   0.0000094286
        0.0000004823  -0.0000014675   0.0000106406  -0.0000032202  -0.0000030644
       -0.0000037676  -0.0000010729  -0.0000041839   0.0000051511   0.0000072279
        0.0000044803   0.0000107102   0.0000011501   0.0000134569  -0.0000957312
       -0.0000589568  -0.0000653569  -0.0007146046   0.0012475847  -0.0005693106
       -0.0321747873  -0.0222868736  -0.0062581784   0.0397941323  -0.0574955662
        0.0332148755  -0.0044431473  -0.0058763433   0.0006265682   0.0985411391
       -0.1799971765   0.0828958726  -0.0252161974  -0.0060350450  -0.0069072526
       -0.0000004516   0.0000077905  -0.0000050877  -0.0000242968  -0.0000141458
       -0.0000112456  -0.0000208145  -0.0000217542  -0.0000065704   0.0000084460
       -0.0000220154   0.0000030292   0.0000458479   0.0001428306   0.0000635724
        0.0000056536  -0.0000013158   0.0000137312  -0.0000105448   0.0000060075
       -0.0000170653  -0.0000153354   0.0000076939  -0.0000096413  -0.0000170082
       -0.0000122679  -0.0000047881  -0.0000241496  -0.0000101753  -0.0000034868
        0.0000058662  -0.0000760633   0.0001199622   0.0000484912  -0.0000360333
        0.0000226226   0.0000018583  -0.0000059946   0.0000049814   0.0000057586
        0.0000032590   0.0000006542   0.0000022684  -0.0000036752   0.0000005301
        0.0000038654  -0.0000015288  -0.0000000991   0.0000052976  -0.0000039976
        0.0000034860   0.0000032647   0.0000111649   0.0000059626   0.0000017813
        0.0000081656   0.0000027869  -0.0000007326   0.0000033267  -0.0000054278
       -0.0000009401   0.0000008927  -0.0000039183   0.0000014563  -0.0000006485
        0.0000007367  -0.0000004949   0.0000029501   0.0000027555  -0.0000032626
        0.0000019834   0.0000026134  -0.0000014824  -0.0000018139   0.0000003582
       -0.0000034170  -0.0000003303   0.0000013120  -0.0000008947  -0.0000013320
       -0.0000004056   0.0000001180   0.0000044577   0.0000037380  -0.0000065974
       -0.0000033761   0.0000021025   0.0000049228  -0.0000010736  -0.0000037965
       -0.0000096188  -0.0000007942  -0.0000088034  -0.0000016620  -0.0000393853
        0.0000168137  -0.0005357109   0.0003390817  -0.0003559151   0.0019735269
       -0.0020256230   0.0038891200
        0.0110951368   0.0553560229  -0.0622305530   0.1658123247  -0.1461911175
        0.2241425454  -0.0926979856  -0.0124396108  -0.0776443035  -0.0193648543
        0.0101954731  -0.0084871816  -0.0031771522   0.0041884719   0.0055504366
        0.0012246848   0.0001121737  -0.0000165551  -0.0001982631   0.0000376850
       -0.0004907244   0.0000367247   0.0000784365   0.0000929744  -0.0000384836
        0.0000149481  -0.0000054643  -0.0000208232   0.0000236332  -0.0000153277
        0.0000098983  -0.0000195580   0.0000049406   0.0000377075  -0.0000152712
        0.0000028504   0.0000050500  -0.0000021604   0.0000118209   0.0000520393
       -0.0001779466   0.0003564202   0.0000833472   0.0003016792  -0.0008402265
       -0.0000779879  -0.0000702847   0.0000206286  -0.0000327340   0.0000145953
       -0.0000011225   0.0000053722   0.0000035702  -0.0000073812  -0.0000192231
       -0.0000145952  -0.0000157294   0.0000050894  -0.0000018772  -0.0000065557
       -0.0000082971   0.0000126609   0.0000070729   0.0000126819  -0.0000072225
       -0.0000034098   0.0000017838   0.0000141467   0.0000042303  -0.0000029316
       -0.0000237661   0.0000123327   0.0000026006   0.0000109351  -0.0000134587
       -0.0000028648   0.0000008792   0.0000046501  -0.0000060543   0.0000173965
        0.0000335753  -0.0000039944   0.0000079624   0.0000083157  -0.0000204740
       -0.0000078597  -0.0000002963   0.0000098845  -0.0000080197   0.0000066968
       -0.0000047480  -0.0000050461   0.0000031228   0.0000010372   0.0000015881
       -0.0000002418  -0.0000009776   0.0000003378  -0.0000005184   0.0000046922
        0.0000046636  -0.0000016550  -0.0000058769  -0.0000022420   0.0000009185
        0.0000134617   0.0000147006  -0.0000083067  -0.0000117517  -0.0000019905
        0.0000007430   0.0000090113   0.0000024588  -0.0000002668  -0.0000042865
        0.0000023271  -0.0000009309   0.0000022018   0.0000001244  -0.0000008982
       -0.0000047009   0.0000017225  -0.0000010785   0.0000052439   0.0000029428
       -0.0000002908  -0.0000156141  -0.0000046498  -0.0000001524   0.0000187015
        0.0000025600  -0.0000008341  -0.0000084134   0.0000059018   0.0000000604
        0.0000016838  -0.0000016637  -0.0000010194  -0.0000022757   0.0000010721
        0.0000007575  -0.0000004573   0.0000008935   0.0000002184  -0.0000020678
       -0.0000011926   0.0000000430   0.0000022410   0.0000034440   0.0000008146
        0.0000012702  -0.0000020079  -0.0000011447  -0.0000014348   0.0000004505
        0.0000002910   0.0000015423  -0.0000012575  -0.0000003713  -0.0000030823
       -0.0000006065   0.0000006030  -0.0000021449   0.0000012923   0.0000013866
       -0.0000002701  -0.0000050037   0.0000004872  -0.0000017473  -0.0000014464
       -0.0000011171  -0.0000020538  -0.0000012841  -0.0000015047   0.0000248076
        0.0000311198   0.0000237145  -0.0010778335  -0.0000106388  -0.0004702580
       -0.0018968962  -0.0061090326  -0.0045452340   0.0061884425   0.0143695703
       -0.0010487717  -0.0042530294  -0.0070941536   0.0020429653  -0.0610541122
        0.0828253883  -0.0837416776   0.0026482221   0.0007757117   0.0020645544
       -0.0000018964  -0.0000022517   0.0000032792   0.0000091449   0.0000045505
        0.0000013907   0.0000035055   0.0000098274   0.0000043625  -0.0000038888
        0.0000133429  -0.0000021924   0.0000094183  -0.0000495663  -0.0000103956
       -0.0000023766   0.0000037982  -0.0000007152   0.0000020683   0.0000023981
        0.0000029240   0.0000027019  -0.0000013893   0.0000057674  -0.0000017893
       -0.0000019960  -0.0000023528  -0.0000032759   0.0000019757  -0.0000011558
        0.0000130364   0.0000601821  -0.0000205938  -0.0000251542   0.0000045221
       -0.0000086125  -0.0000015976  -0.0000010287   0.0000008655  -0.0000017907
        0.0000001171  -0.0000010452  -0.0000009011  -0.0000009303   0.0000013788
       -0.0000004666  -0.0000011604   0.0000022140   0.0000007853  -0.0000000274
        0.0000002276  -0.0000005368  -0.0000028576  -0.0000018267   0.0000007528
       -0.0000018980  -0.0000021086   0.0000002163  -0.0000011332   0.0000009054
        0.0000007329  -0.0000002170   0.0000011798   0.0000000231   0.0000004379
       -0.0000005801  -0.0000000570  -0.0000005369  -0.0000008027   0.0000009812
       -0.0000005620  -0.0000009253   0.0000007595   0.0000006192  -0.0000002467
        0.0000008507   0.0000002517  -0.0000003977   0.0000001183   0.0000003550
        0.0000002285   0.0000006846  -0.0000011165  -0.0000010335   0.0000030928
        0.0000005212  -0.0000011350  -0.0000003752   0.0000003733   0.0000004191
        0.0000048074  -0.0000016374   0.0000004347  -0.0000109023  -0.0000190438
       -0.0000110065   0.0001892186  -0.0003424482  -0.0000994823  -0.0034788777
        0.0041090937   0.0053454222
       -0.0252335094  -0.0832724051   0.0169288554  -0.3057265276  -0.0079393518
       -0.0926979856   0.6100974258   0.0716332855   0.1592594215  -0.1393414430
        0.0531403644  -0.0508837194  -0.0302314186   0.0179501572  -0.0164446582
       -0.0003682259   0.0035847405  -0.0015151698  -0.0003372215   0.0008394284
        0.0002608806   0.0001010400   0.0000640942   0.0000168464  -0.0000000434
        0.0000231829  -0.0000060998  -0.0000171505  -0.0000285755  -0.0000004691
       -0.0000060427  -0.0000203991  -0.0000007399   0.0000477787   0.0000066692
        0.0000207269  -0.0000986157  -0.0000043402  -0.0000105858   0.0008263882
        0.0008477991  -0.0000848646  -0.0032757104   0.0003459121  -0.0007344770
       -0.0002080255  -0.0003015884  -0.0000290846  -0.0001637535   0.0000573855
       -0.0000978401  -0.0000374972  -0.0000520972  -0.0000480601   0.0000182534
        0.0000294821   0.0000130773   0.0000258494   0.0000122782   0.0000293171