$hessian                                                                        
        0.6168344652   0.0626490128   0.0795511702  -0.2949819798  -0.0228052168
       -0.0450363957  -0.0196091631  -0.0729882095   0.0503341396  -0.0467826584
        0.0167202056  -0.0233770394   0.0472201068   0.0455748713  -0.0223331711
       -0.1887865445   0.0447560840  -0.0709688396   0.0063750998  -0.0038174582
        0.0026750409  -0.0054291701  -0.0027483948   0.0005737327  -0.0009236255
       -0.0063879784   0.0046480408   0.0014557829   0.0026977095  -0.0015720658
        0.0013708178  -0.0018603193   0.0017615195  -0.0026418616  -0.0005610196
       -0.0003106908   0.0000173925  -0.0000923800   0.0000363478  -0.0000829835
       -0.0000257974  -0.0000112365  -0.0000604238  -0.0000482193   0.0000165281
       -0.0000134719   0.0000229010  -0.0000228650   0.0000971159  -0.0000544585
        0.0000345907  -0.0000539828   0.0002940773  -0.0002256506   0.0006912886
       -0.0002114959   0.0003545468  -0.0000434795   0.0000292669  -0.0000410003
       -0.0000775144   0.0000718133   0.0000465213  -0.0000053627  -0.0000072500
        0.0000037052  -0.0000412881  -0.0000342916  -0.0000339439   0.0000112407
       -0.0000079025   0.0000247199   0.0000010381  -0.0000058758  -0.0000022977
        0.0000053025  -0.0000011884   0.0000126398   0.0000079743   0.0000088463
        0.0000068486   0.0000067848  -0.0000040123   0.0000000442  -0.0000015087
        0.0000009864   0.0000055637   0.0000105799   0.0000002155  -0.0000004711
       -0.0000033693   0.0000034793   0.0000044624   0.0000089272  -0.0000057210
       -0.0000015108   0.0000023263  -0.0000005342   0.0000031001  -0.0000010951
       -0.0000009208   0.0000001259   0.0000021984  -0.0000017637  -0.0000012509
        0.0000028167  -0.0000028394  -0.0000029279  -0.0000005341  -0.0000020899
       -0.0000012694   0.0000068039  -0.0000044462  -0.0000039689   0.0000048944
       -0.0000054001   0.0000009236   0.0000136251  -0.0000120678  -0.0000155838
       -0.0000336412   0.0000019471   0.0000161560   0.0000108206   0.0000153372
        0.0000045558   0.0000001346  -0.0000007721  -0.0000034133  -0.0000129829
        0.0000386963  -0.0000106124   0.0000283796  -0.0000553978   0.0000067907
        0.0001582936   0.0027029186  -0.0018048756  -0.0753068417  -0.0730528026
        0.0447602151  -0.0203498746  -0.0029182777  -0.0029447909   0.0006437152
       -0.0026131421   0.0000761460  -0.0199784227   0.0145822900  -0.0160790512
        0.0001834293   0.0000951661  -0.0000273522   0.0000476446   0.0000030720
       -0.0000245707   0.0000217074   0.0000145320  -0.0000062323   0.0000054053
        0.0000230814  -0.0000175436  -0.0000045449   0.0000215120  -0.0000105612
       -0.0000144269   0.0000140674  -0.0000174818   0.0000290439   0.0000050833
       -0.0000525972  -0.0000093675  -0.0000029424  -0.0000062182  -0.0000033243
       -0.0000048031  -0.0000015066  -0.0000026113  -0.0000046758   0.0000005377
       -0.0000014377  -0.0000041513   0.0000010404  -0.0000041616  -0.0000003076
        0.0000020122  -0.0000023587   0.0000003322   0.0000027492  -0.0000028772
        0.0000008764   0.0000021341  -0.0000028271   0.0000023082   0.0000015995
       -0.0000015846   0.0000038206  -0.0000000673  -0.0000041564   0.0000054512
       -0.0000005946   0.0000003023  -0.0000054372   0.0000013996
        0.0626490128   0.4757215990  -0.2584365913  -0.0849625429  -0.0898216544
        0.0099325433  -0.0265793733  -0.0060565533  -0.0011310023   0.0096989515
       -0.0006279536  -0.0010002458   0.0025966594  -0.0385707656   0.0290999939
        0.1052065958  -0.1448008493   0.1038797996  -0.0048680139   0.0011365974
        0.0026643940  -0.0004152603  -0.0010939807   0.0013864521   0.0004260491
       -0.0009764280   0.0006956541   0.0000999915   0.0000707902  -0.0001266726
        0.0001805453   0.0001203446  -0.0000263224   0.0002353176   0.0001576131
       -0.0001268864   0.0000700220  -0.0001527316   0.0001370253   0.0000305225
        0.0000959005  -0.0000480455   0.0000825895  -0.0000257174   0.0000338734
       -0.0000433129  -0.0000504593   0.0000277064  -0.0000206343   0.0000465756
       -0.0000366234  -0.0000953869  -0.0002084008   0.0001091967  -0.0002874622
        0.0001983471  -0.0002021689  -0.0000363168  -0.0000141623   0.0000376614
       -0.0000222393  -0.0000182846   0.0000286673   0.0000503352   0.0000435956
       -0.0000446610   0.0000886415   0.0000043982   0.0000295199  -0.0000279373
        0.0000150060  -0.0000239134   0.0000066146   0.0000010690   0.0000081508
        0.0000043250  -0.0000017408  -0.0000151092  -0.0000054414   0.0000002871
       -0.0000055086  -0.0000077880   0.0000013287   0.0000057827  -0.0000024700
       -0.0000041957  -0.0000101964  -0.0000037050   0.0000044181   0.0000088812
       -0.0000056901  -0.0000111660  -0.0000040564  -0.0000007332   0.0000061425
        0.0000045275  -0.0000016451  -0.0000047524  -0.0000011444   0.0000013822
        0.0000051884  -0.0000002490  -0.0000035269  -0.0000047959   0.0000034303
        0.0000001562   0.0000014865   0.0000017073  -0.0000000606  -0.0000000084
        0.0000001509  -0.0000044468   0.0000025897   0.0000044303  -0.0000025792
        0.0000046186  -0.0000011116   0.0000022668  -0.0000016309   0.0000064224
        0.0000100439   0.0000077966  -0.0000023542  -0.0000086059  -0.0000110738
       -0.0000030538   0.0000247653  -0.0000069059  -0.0000006384  -0.0000114498
       -0.0000443082   0.0000069373   0.0000263884   0.0000334434  -0.0000058839
       -0.0001905217  -0.0008993340   0.0005351099  -0.0733363486  -0.2004742892
        0.1083626616   0.0157459814   0.0029636521   0.0019058538  -0.0029915872
       -0.0005482976   0.0059566230  -0.0032866899   0.0038165114  -0.0036598327
        0.0000283468   0.0000313564  -0.0000144929  -0.0000131856   0.0000222248
        0.0000020515  -0.0000031193   0.0000007197   0.0000008759   0.0000022444
       -0.0000076197   0.0000060765  -0.0000034341  -0.0000040727   0.0000003583
        0.0000012506  -0.0000106183   0.0000076943  -0.0000260486  -0.0000589586
        0.0000116038  -0.0000005236  -0.0000038190   0.0000152362   0.0000022164
        0.0000053099   0.0000050059   0.0000013660  -0.0000005862   0.0000021052
       -0.0000034207   0.0000026582   0.0000002340  -0.0000005318  -0.0000029491
        0.0000008714  -0.0000009358  -0.0000005150   0.0000018311   0.0000008666
       -0.0000005724  -0.0000003594   0.0000003447  -0.0000013361   0.0000009466
       -0.0000004104  -0.0000006410  -0.0000014756  -0.0000012035  -0.0000050640
        0.0000007583   0.0000007895   0.0000056236  -0.0000002065
        0.0795511702  -0.2584365913   0.3325141731   0.0022338186   0.0257795888
       -0.0679391272   0.0148962432  -0.0129634971   0.0150718207  -0.0180205164
        0.0007834682  -0.0103909290   0.0105222881   0.0400226725  -0.0291864494
       -0.1170892604   0.0883869440  -0.1405566924   0.0036837467   0.0029416760
        0.0047281738  -0.0012534796   0.0007544074  -0.0000903812  -0.0005282167
       -0.0010633046   0.0004087954   0.0003427807   0.0005495068  -0.0004376496
        0.0002306026  -0.0005567120   0.0005073245  -0.0008415616  -0.0003594864
       -0.0001067771  -0.0000536700   0.0000988473  -0.0000755667  -0.0000469555
       -0.0000667630   0.0000428987  -0.0000721380   0.0000032470  -0.0000207354
        0.0000241589   0.0000432610  -0.0000158860   0.0000427732  -0.0000484677
        0.0000298535   0.0000560691   0.0002128774  -0.0001436883   0.0004013239
       -0.0001878453   0.0002618942   0.0000041054  -0.0000048028  -0.0000321972
       -0.0000143943   0.0000148946  -0.0000070432   0.0000074475  -0.0000251995
        0.0000349531  -0.0000809361   0.0000169193  -0.0000451760   0.0000150994
       -0.0000034803   0.0000348067  -0.0000134254  -0.0000162224  -0.0000187806
        0.0000049675  -0.0000042327   0.0000168940   0.0000074109   0.0000061764
       -0.0000035266   0.0000080344  -0.0000019444  -0.0000034491  -0.0000044092
        0.0000066235  -0.0000046165   0.0000093745   0.0000003331  -0.0000039676
        0.0000005179   0.0000016436   0.0000035370   0.0000067741  -0.0000051811
       -0.0000033234   0.0000016742   0.0000010557   0.0000046971   0.0000003437
        0.0000004132  -0.0000045207  -0.0000004453  -0.0000023161   0.0000001108
        0.0000031312  -0.0000086477  -0.0000017960   0.0000007536   0.0000001909
        0.0000009117   0.0000039709  -0.0000044345  -0.0000000137  -0.0000005968
       -0.0000086438  -0.0000002980   0.0000031826  -0.0000029891  -0.0000114048
       -0.0000086021   0.0000050762   0.0000178957  -0.0000063093   0.0000023616
       -0.0000040694  -0.0000105817   0.0000077154  -0.0000079284  -0.0000224203
        0.0000203412  -0.0000130909   0.0000074199  -0.0000117267   0.0000124402
        0.0001991626   0.0013623301  -0.0009059566   0.0450263947   0.1085219012
       -0.1041590294  -0.0171579503  -0.0028331542  -0.0020208082   0.0003393229
        0.0060485565   0.0037433957  -0.0024781537   0.0009277138  -0.0012320151
        0.0000221021   0.0000012684   0.0000063361   0.0000112426   0.0000053379
        0.0000334066   0.0000052952   0.0000086842   0.0000020790   0.0000021476
        0.0000130583  -0.0000058267   0.0000022178   0.0000116789  -0.0000014801
       -0.0000033756   0.0000125395  -0.0000102493   0.0000401178   0.0000323546
        0.0000110496  -0.0000004179  -0.0000000909  -0.0000111276  -0.0000015136
        0.0000005341  -0.0000018771   0.0000018450   0.0000008229  -0.0000025550
       -0.0000016021   0.0000025892  -0.0000047528   0.0000001682  -0.0000020446
       -0.0000015467  -0.0000014573  -0.0000005393  -0.0000015682  -0.0000017244
        0.0000016628  -0.0000009560  -0.0000020113  -0.0000000871   0.0000011889
       -0.0000023955   0.0000034590   0.0000014026   0.0000002106   0.0000060245
       -0.0000013563  -0.0000008899  -0.0000023527   0.0000001506
       -0.2949819798  -0.0849625429   0.0022338186   0.6192904655   0.0540164308
        0.0871175525  -0.1281223477  -0.0492343251   0.0161854540   0.0472473711
       -0.0063655502   0.0165757611  -0.0316405290  -0.0304347644   0.0166755397
       -0.0472803333   0.0490187368  -0.0497949742  -0.0048130441   0.0010119663
       -0.0016945498   0.0045458022   0.0014376897  -0.0000411604  -0.0012094293
        0.0085664913  -0.0085519725  -0.0018991157  -0.0026594309   0.0014415518
       -0.0010641564   0.0018235718  -0.0015400300   0.0020759309   0.0001685720
        0.0004782510  -0.0000490051   0.0001508013  -0.0001038653   0.0000651915
        0.0000156278   0.0000114612   0.0000853733   0.0000490288  -0.0000105613
       -0.0000378453  -0.0000666202   0.0000419375  -0.0001010658   0.0001186120
       -0.0000910430   0.0001093476  -0.0003774052   0.0002471438  -0.0001484067
        0.0003031996  -0.0002201989  -0.0002270825  -0.0001726614   0.0000227795
        0.0000870619  -0.0000716727  -0.0000331840  -0.0000131587   0.0000747135
       -0.0000483218   0.0000059428  -0.0001125083   0.0000474669   0.0000485972
        0.0000506622  -0.0000284777   0.0000076781  -0.0000227578   0.0000117548
        0.0000040831   0.0000060463  -0.0000092188  -0.0000082482   0.0000052964
       -0.0000035631   0.0000011577   0.0000017536  -0.0000023892  -0.0000016472
        0.0000024903  -0.0000038280   0.0000095010  -0.0000021187  -0.0000057818
       -0.0000023707   0.0000087155   0.0000039357   0.0000035558  -0.0000012867
       -0.0000048198  -0.0000011581   0.0000035418  -0.0000016950  -0.0000007221
        0.0000009536  -0.0000002017  -0.0000068460   0.0000006025   0.0000028883
        0.0000005418   0.0000017770  -0.0000033972   0.0000003301   0.0000011533
       -0.0000010463  -0.0000005312  -0.0000000595  -0.0000007492  -0.0000073722
        0.0000018132   0.0000000449   0.0000146652  -0.0000206108  -0.0000088927
       -0.0000107921   0.0000133608  -0.0000102700   0.0000121195   0.0000009134
        0.0000073308  -0.0000005370  -0.0000002762  -0.0000001131   0.0000172411
        0.0000511117   0.0000164917  -0.0000014799   0.0000355526   0.0000009357
       -0.0005368722  -0.0015543128   0.0010271765  -0.0119846154  -0.0045867158
        0.0001703159  -0.1354148345   0.0851211506  -0.0906356470  -0.0133815005
       -0.0228582758   0.0138204327  -0.0006188883   0.0013791035  -0.0033134805
       -0.0000146601   0.0000928604  -0.0001054639  -0.0000155788   0.0000109717
        0.0000184659  -0.0000112936  -0.0000059074   0.0000010661  -0.0000044541
       -0.0000252684   0.0000185558   0.0000130086  -0.0000181467   0.0000128319
        0.0000243386  -0.0000152969   0.0000195251  -0.0000537556   0.0000045817
        0.0000488252  -0.0000012687   0.0000010998   0.0000133328  -0.0000013439
       -0.0000002996  -0.0000009463  -0.0000008872  -0.0000010351  -0.0000006649
       -0.0000003763  -0.0000004405  -0.0000022376  -0.0000021685   0.0000016458
       -0.0000002402  -0.0000019068   0.0000007896  -0.0000002896   0.0000000162
        0.0000007057   0.0000000433  -0.0000010235   0.0000013587   0.0000014379
       -0.0000009557   0.0000037261   0.0000030541   0.0000024538  -0.0000021405
        0.0000009116   0.0000038128   0.0000132508  -0.0000047993
       -0.0228052168  -0.0898216544   0.0257795888   0.0540164308   0.4731919163
       -0.2591265359  -0.1092228486  -0.2265492770   0.1103737485   0.0368177196
       -0.0415375485   0.0421540570  -0.0242105570  -0.0227019307   0.0066030196
        0.0045403477   0.0328381236  -0.0230578182  -0.0037646141  -0.0008977253
       -0.0003936761   0.0046705917   0.0009484294   0.0006225385   0.0021686960
        0.0089580037  -0.0011617603  -0.0018222397  -0.0026047266   0.0015233498
       -0.0011930420   0.0015495736  -0.0018045149   0.0019450213   0.0001835998
        0.0004141798  -0.0001077605   0.0002312099  -0.0001562477   0.0000185684
       -0.0000636073   0.0000500877  -0.0000329224   0.0000406898  -0.0000364359
        0.0000436049  -0.0000191938   0.0000272073  -0.0000339860   0.0000209596
        0.0000038359   0.0001231575  -0.0001112524   0.0001298725  -0.0002349932
        0.0000213955  -0.0000942627  -0.0000575396  -0.0000572823   0.0000217577
        0.0000029837  -0.0000282957   0.0000141356   0.0000414867   0.0000527228
       -0.0000063517   0.0000277533  -0.0000358459   0.0000117102   0.0000045125
        0.0000221287  -0.0000085139   0.0000001356  -0.0000134395  -0.0000012628
        0.0000000583   0.0000011354  -0.0000003879   0.0000013685   0.0000042394
       -0.0000055099  -0.0000001982  -0.0000006622   0.0000014036  -0.0000034852
        0.0000011042  -0.0000074903   0.0000063740   0.0000023089   0.0000036912
       -0.0000016296  -0.0000037328  -0.0000010060   0.0000041059   0.0000006001
       -0.0000006186   0.0000000016  -0.0000014834  -0.0000007594   0.0000018487
        0.0000038405  -0.0000022732  -0.0000015587  -0.0000043238   0.0000012936
        0.0000028116  -0.0000014677  -0.0000037648   0.0000011533  -0.0000001799
       -0.0000028491  -0.0000020890  -0.0000000077  -0.0000001936  -0.0000054629
       -0.0000012719  -0.0000050660   0.0000083842  -0.0000099904  -0.0000019514
       -0.0000051705   0.0000166853   0.0000046256  -0.0000045104  -0.0000080405
       -0.0000015725   0.0000074616   0.0000033542   0.0000001257  -0.0000167598
       -0.0000063747  -0.0000023700   0.0000359623   0.0000350902  -0.0000046615
       -0.0000993277  -0.0016360588   0.0008198203  -0.0231402911  -0.0070398207
        0.0000916889   0.0851549684  -0.1205887409   0.0878082529  -0.0045544054
       -0.0059108517   0.0037640275   0.0017341369   0.0016161504   0.0055097551
       -0.0000546315   0.0000074750   0.0001128290  -0.0000013259  -0.0000153799
       -0.0000053848  -0.0000045085  -0.0000040926   0.0000036565   0.0000005347
       -0.0000114965   0.0000104351   0.0000034162  -0.0000094689  -0.0000023607
        0.0000069240  -0.0000094442   0.0000099763  -0.0000130471  -0.0000390379
        0.0000115985  -0.0000009673  -0.0000052714   0.0000048696   0.0000011265
        0.0000000430   0.0000037114   0.0000035319  -0.0000021342   0.0000023778
       -0.0000009648   0.0000004984  -0.0000004554  -0.0000004445  -0.0000030179
        0.0000009984  -0.0000007117  -0.0000013103   0.0000007634  -0.0000000472
       -0.0000001446  -0.0000008326  -0.0000011961  -0.0000002315   0.0000003769
       -0.0000019016   0.0000024565  -0.0000008602  -0.0000006265  -0.0000011297
        0.0000013047   0.0000058024   0.0000032118   0.0000010772
       -0.0450363957   0.0099325433  -0.0679391272   0.0871175525  -0.2591265359
        0.3346923040   0.0619743622   0.1255557795  -0.1249062925  -0.0164918447
        0.0312116842  -0.0266021011   0.0119461737   0.0049827093  -0.0066999727
       -0.0158106429  -0.0116439937   0.0060313585   0.0017336068   0.0006760833
       -0.0005144269  -0.0023956975  -0.0002499220  -0.0002221798  -0.0037367342
        0.0004548501   0.0053623809   0.0009132089   0.0014606931  -0.0007295254
        0.0007666390  -0.0010572531   0.0005661975  -0.0009892088  -0.0000717237
       -0.0001946026   0.0000636431  -0.0001263879   0.0001225637  -0.0000016950
        0.0000588556  -0.0000352638   0.0000478277  -0.0000203183   0.0000250018
       -0.0000451194  -0.0000036617  -0.0000092502  -0.0000039820   0.0000243357
       -0.0000086383  -0.0000826674   0.0000081625  -0.0000131947   0.0001855915
        0.0000414051   0.0000004258  -0.0000322362  -0.0000110683  -0.0000043468
        0.0000377798  -0.0000089239  -0.0000152868  -0.0000437028  -0.0000164578
       -0.0000020505  -0.0000150752  -0.0000076066  -0.0000028354   0.0000148288
        0.0000050479   0.0000057532  -0.0000055351  -0.0000048472  -0.0000000400
        0.0000033029  -0.0000072438   0.0000069082  -0.0000045971  -0.0000019307
       -0.0000013431   0.0000012847  -0.0000030444   0.0000034351  -0.0000036569
        0.0000039803  -0.0000024845  -0.0000015125  -0.0000026318   0.0000010260
        0.0000017085   0.0000007483   0.0000057697   0.0000015686  -0.0000015198
        0.0000030486   0.0000016392   0.0000003521   0.0000053694  -0.0000022062
        0.0000017555  -0.0000009681  -0.0000014345   0.0000001214   0.0000036230
        0.0000009437  -0.0000028476   0.0000028122   0.0000010531   0.0000028481
        0.0000024561   0.0000012738  -0.0000001541   0.0000009125   0.0000005460
        0.0000017917   0.0000004186   0.0000001312  -0.0000009805  -0.0000019045
        0.0000015281  -0.0000024338  -0.0000014392   0.0000017736   0.0000030376
        0.0000025982  -0.0000083336   0.0000019034  -0.0000026029   0.0000178251
        0.0000231180   0.0000017300  -0.0000277185  -0.0000199664   0.0000063777
        0.0000529999   0.0005939104  -0.0008231782   0.0142502185   0.0047678533
        0.0007064408  -0.0906952805   0.0878106953  -0.1232773780  -0.0000849408
       -0.0008214743   0.0011956361  -0.0036132579   0.0054208172   0.0032459944
       -0.0000068735   0.0001368876   0.0000477341   0.0000095291  -0.0000213754
       -0.0000309366  -0.0000038828   0.0000058685  -0.0000049716  -0.0000018954
        0.0000012449  -0.0000060807   0.0000016823  -0.0000023472  -0.0000051571
        0.0000014015   0.0000033757  -0.0000047739  -0.0000019760   0.0000317806
        0.0000101241   0.0000008492   0.0000027755   0.0000013147  -0.0000010701
        0.0000001497   0.0000010820   0.0000002718  -0.0000005914   0.0000027681
       -0.0000027977   0.0000029534   0.0000002879  -0.0000003080  -0.0000023481
        0.0000026389  -0.0000003805   0.0000000644   0.0000012152   0.0000004950
        0.0000028144   0.0000006093   0.0000009865   0.0000012083   0.0000007860
        0.0000000080   0.0000033783  -0.0000006750   0.0000019326   0.0000011728
       -0.0000027849  -0.0000035072   0.0000008329  -0.0000032897
       -0.0196091631  -0.0265793733   0.0148962432  -0.1281223477  -0.1092228486
        0.0619743622   0.6566428569   0.0754474889   0.0811305214  -0.1850585116
        0.0943406568  -0.1078747424  -0.0396900750   0.0065518420  -0.0147083701
        0.0028221780   0.0054371436  -0.0028490731  -0.0075791507  -0.0004935085
       -0.0027915847   0.0021553205  -0.0019721450   0.0011868265   0.0066177177
        0.0064216622  -0.0025266786  -0.0009629330  -0.0023367387   0.0014837924
       -0.0009044979   0.0009960217  -0.0010083658   0.0009223869  -0.0000561945
        0.0003505340  -0.0001855689   0.0002345748  -0.0002086591   0.0001243951
        0.0000556179  -0.0000026265   0.0000638802   0.0000127852   0.0000103596
       -0.0000512353  -0.0000638294   0.0000409273  -0.0001178771   0.0001153581
       -0.0000948850   0.0002638476  -0.0001134765   0.0000677947   0.0007735589
       -0.0001812433   0.0003845317  -0.0005299962  -0.0003339531   0.0000064090
        0.0001056233   0.0000224552  -0.0000734667  -0.0000343850   0.0000348624
       -0.0000414304  -0.0001832789  -0.0002252649   0.0000391027   0.0002197111
        0.0001166992  -0.0000215628  -0.0000106499  -0.0001123258  -0.0000180940
        0.0000025137   0.0000248955   0.0000128568  -0.0000204207  -0.0000110636
       -0.0000119631   0.0000191385  -0.0000030564  -0.0000065983  -0.0000070373
        0.0000152480   0.0000068244   0.0000300406  -0.0000182302  -0.0000223211
        0.0000008883   0.0000364130   0.0000231665   0.0000079065  -0.0000159847
       -0.0000123986   0.0000127679   0.0000204466   0.0000080079  -0.0000278048
       -0.0000097143   0.0000034909   0.0000049091   0.0000078227   0.0000040984
       -0.0000063229  -0.0000000543  -0.0000028733   0.0000005405   0.0000028099
       -0.0000009383   0.0000028179   0.0000001558  -0.0000031278   0.0000026271
       -0.0000010720  -0.0000057549  -0.0000116806   0.0000025262   0.0000106651
       -0.0000009982  -0.0000192144  -0.0000334967   0.0000317589   0.0000048960
        0.0000010285  -0.0000988086   0.0000471164   0.0000341989   0.0000330419
        0.0002044709   0.0000130698   0.0000383376  -0.0000705588   0.0000355907
       -0.0004433427   0.0003171026  -0.0004069733  -0.0051857121  -0.0024546868
       -0.0011528085   0.0056126826   0.0135623726  -0.0089050094  -0.2880676372
       -0.0592628278  -0.0194876507   0.0006370338   0.0002482884   0.0000168416
       -0.0001059723  -0.0005093561   0.0003703027  -0.0000633216  -0.0001369467
        0.0000977735  -0.0000445129  -0.0000097210  -0.0000055088  -0.0000067603
       -0.0000350577   0.0000225519   0.0000118140  -0.0000284022   0.0000167587
        0.0000263539  -0.0000019846   0.0000120095  -0.0000534968   0.0000041767
        0.0000091496  -0.0000005767  -0.0000069920   0.0000040492  -0.0000023412
       -0.0000013683   0.0000012689   0.0000006323  -0.0000013279   0.0000031689
        0.0000019113  -0.0000002587  -0.0000010345  -0.0000002848   0.0000004938
        0.0000008666  -0.0000012209  -0.0000005639  -0.0000017690  -0.0000015732
        0.0000012370  -0.0000001581  -0.0000025677   0.0000008093  -0.0000006654
       -0.0000033494   0.0000029347   0.0000005280  -0.0000033253   0.0000028008
        0.0000027092   0.0000095461  -0.0000048411  -0.0000017921
       -0.0729882095  -0.0060565533  -0.0129634971  -0.0492343251  -0.2265492770
        0.1255557795   0.0754474889   0.4581526309  -0.2437066877   0.0550413371
       -0.1301174003   0.0791246247   0.0394657436   0.0299238676  -0.0143069961
        0.0089053166  -0.0360135559   0.0280470010   0.0009924987   0.0033470709
        0.0014685667  -0.0075808845  -0.0039014761   0.0036190466   0.0125695078
       -0.0252287775   0.0203637416   0.0035596073   0.0046933832  -0.0025003269
        0.0017410429  -0.0024691250   0.0023928692  -0.0025396977   0.0001145305
       -0.0008528535   0.0002239653  -0.0003668782   0.0003077280   0.0000011707
        0.0001535997  -0.0000934601   0.0000805209  -0.0000610124   0.0000589409
       -0.0000686350   0.0000151578  -0.0000242277   0.0000252377  -0.0000653009
        0.0000092233  -0.0001415121   0.0000937619  -0.0001218965   0.0003263214
       -0.0001765722   0.0003664399  -0.0001215448  -0.0000668395  -0.0000154858
       -0.0000277829   0.0000817130  -0.0000128473   0.0000008721  -0.0000385373
        0.0000076709  -0.0001209331  -0.0000064421  -0.0000122865   0.0001136698
        0.0000509978   0.0000159042  -0.0000129104  -0.0000553431  -0.0000282833
       -0.0000052433   0.0000075136   0.0000154793  -0.0000115535  -0.0000098253
       -0.0000118407   0.0000078348  -0.0000012570  -0.0000025230  -0.0000069422
        0.0000079551  -0.0000009284   0.0000133273  -0.0000062913  -0.0000069630
        0.0000004163   0.0000132514   0.0000101599   0.0000066304  -0.0000080066
       -0.0000024287   0.0000048560   0.0000057539   0.0000079735  -0.0000107896
       -0.0000018771   0.0000019372   0.0000046501   0.0000010979   0.0000052554
       -0.0000000542  -0.0000024648   0.0000026896   0.0000017747  -0.0000014660
        0.0000028430  -0.0000028400   0.0000014893   0.0000086410  -0.0000015108
       -0.0000069426   0.0000013120  -0.0000154021   0.0000187631   0.0000167529
        0.0000348760  -0.0000054189  -0.0000053145  -0.0000067177  -0.0000164545
       -0.0000143071  -0.0000461451   0.0000324920   0.0000182721  -0.0000060234
        0.0000074507   0.0000006661   0.0000389229  -0.0000293009   0.0000160446
        0.0010927338   0.0015132395  -0.0005192946  -0.0022011285   0.0025342827
        0.0025790993  -0.0050927362  -0.0154620793   0.0105160494  -0.0598549825
       -0.0537098101   0.0006344654   0.0000908753  -0.0004497486   0.0001891724
        0.0001348245   0.0001066717  -0.0001632661   0.0000608363  -0.0000479002
       -0.0000033042   0.0000158682   0.0000103948  -0.0000008487   0.0000020784
        0.0000011790   0.0000012130   0.0000014388   0.0000031458   0.0000106479
       -0.0000004223   0.0000040286  -0.0000050195   0.0000514424   0.0000118288
       -0.0000029858   0.0000055278   0.0000008212  -0.0000074298  -0.0000001215
        0.0000055468  -0.0000001171   0.0000047073   0.0000048826   0.0000013720
        0.0000021160   0.0000053350  -0.0000017745   0.0000011391   0.0000015979
        0.0000014864   0.0000032843   0.0000010686   0.0000009998   0.0000042661
        0.0000008667   0.0000019028   0.0000043939  -0.0000016808   0.0000022862
        0.0000027013   0.0000007908   0.0000008008   0.0000075569   0.0000044468
        0.0000000516   0.0000056681   0.0000010073   0.0000020841
        0.0503341396  -0.0011310023   0.0150718207   0.0161854540   0.1103737485
       -0.1249062925   0.0811305214  -0.2437066877   0.3200243381  -0.0777920148
        0.0888586729  -0.1329233360  -0.0396865915  -0.0227303021   0.0052587192
       -0.0054414045   0.0271231368  -0.0244826844  -0.0041461066   0.0013827885
        0.0033449019   0.0055087179   0.0050978464   0.0007400500  -0.0073160214
        0.0189559087  -0.0189743064  -0.0030246665  -0.0041009995   0.0023706439
       -0.0015885869   0.0022325732  -0.0020121582   0.0022356024  -0.0001802553
        0.0006483094  -0.0002183074   0.0003409403  -0.0002817543   0.0000271340
       -0.0000970400   0.0000764324  -0.0000393226   0.0000469517  -0.0000452174
        0.0000351856  -0.0000287480   0.0000328917  -0.0000398321   0.0000626183
       -0.0000666104   0.0001684433  -0.0001052453   0.0001099105  -0.0000744228
        0.0002271344  -0.0000267670  -0.0000669894  -0.0000649967   0.0000131378
        0.0000501311  -0.0000701374   0.0000141927   0.0000191458   0.0000516219
       -0.0000163265   0.0000414155  -0.0000277929   0.0000035618  -0.0000368244
       -0.0000003010  -0.0000064756  -0.0000014463   0.0000048790   0.0000083390
        0.0000097438  -0.0000024526  -0.0000054598   0.0000013273   0.0000092266
        0.0000007690  -0.0000039729   0.0000005369   0.0000018253  -0.0000047394
        0.0000016719  -0.0000064216  -0.0000012136   0.0000051029   0.0000034163
       -0.0000029397  -0.0000045234   0.0000009238   0.0000009014   0.0000033536
        0.0000019103  -0.0000007655   0.0000003015   0.0000015348   0.0000031605
        0.0000041490  -0.0000014512  -0.0000035743  -0.0000008716   0.0000030210
        0.0000028784  -0.0000026924   0.0000003592   0.0000034037   0.0000037652
        0.0000028111   0.0000029316  -0.0000017090  -0.0000017966  -0.0000004054
        0.0000020192  -0.0000021478   0.0000110051  -0.0000155669  -0.0000094379
       -0.0000186547   0.0000086495   0.0000055590   0.0000004665   0.0000057308
        0.0000077474   0.0000149203  -0.0000092999  -0.0000100189  -0.0000148924
        0.0000238206  -0.0000021030   0.0000021332   0.0000280807   0.0000002082
       -0.0010510571  -0.0008821830   0.0006085307  -0.0013474168   0.0025201133
        0.0044297056   0.0052823580   0.0152392146  -0.0102422571  -0.0190874723
        0.0006869880  -0.0385169359   0.0001545776   0.0002197837  -0.0003845978
       -0.0000890746  -0.0003054797   0.0000675200  -0.0000506754  -0.0000235951
       -0.0000082775  -0.0000253053  -0.0000070858  -0.0000005890  -0.0000024218
       -0.0000089087   0.0000056639   0.0000004535  -0.0000020936   0.0000034303
        0.0000070158  -0.0000029528   0.0000061050  -0.0000220459  -0.0000135172
        0.0000430173  -0.0000056487  -0.0000021758   0.0000074834  -0.0000027334
        0.0000005999   0.0000012623  -0.0000038229  -0.0000011593   0.0000007206
       -0.0000061809   0.0000020516  -0.0000003473  -0.0000025959  -0.0000018789
        0.0000018850  -0.0000029354   0.0000002530   0.0000018072  -0.0000020897
        0.0000016461   0.0000016779  -0.0000012824   0.0000013356   0.0000030729
       -0.0000016837   0.0000033117   0.0000030120  -0.0000022102  -0.0000009998
        0.0000009453  -0.0000028196   0.0000021268   0.0000005963
       -0.0467826584   0.0096989515  -0.0180205164   0.0472473711   0.0368177196
       -0.0164918447  -0.1850585116   0.0550413371  -0.0777920148   0.6079156010