 Entering Gaussian System
 *********************************************
 Gaussian 98:
 frequency output generated by the xtb code
 *********************************************
                         Standard orientation:
 --------------------------------------------------------------------
  Center     Atomic     Atomic              Coordinates (Angstroms)
  Number     Number      Type              X           Y           Z
 --------------------------------------------------------------------
    1          6             0        5.302289    2.793538    1.127154
    2          6             0        3.953767    3.047395    1.362670
    3          6             0        2.978948    2.112617    1.048963
    4          6             0        3.386648    0.916705    0.476527
    5          6             0        4.760830    0.633853    0.275929
    6          6             0        5.720022    1.584851    0.596296
    7          6             0        4.833271   -0.705699   -0.238992
    8          6             0        5.885768   -1.513833   -0.646079
    9          6             0        5.599675   -2.775014   -1.141036
   10          6             0        4.285775   -3.221636   -1.252824
   11          6             0        3.219125   -2.429905   -0.855813
   12          6             0        3.500394   -1.180729   -0.322198
   13          7             0        2.634076   -0.188261    0.109386
   14          6             0        1.254034   -0.276850    0.152333
   15          6             0        0.651639   -1.464811    0.669193
   16          6             0       -0.719215   -1.585190    0.737648
   17          6             0       -1.511155   -0.546241    0.272332
   18          6             0       -0.905519    0.687104   -0.261848
   19          6             0        0.474469    0.787716   -0.295159
   20          6             0       -1.972894    1.553068   -0.667405
   21          6             0       -2.246905    2.816309   -1.228370
   22          6             0       -3.592140    3.174043   -1.408939
   23          6             0       -4.694708    2.393133   -1.083286
   24          6             0       -4.457816    1.116375   -0.514526
   25          6             0       -5.117998   -0.061629   -0.012228
   26          6             0       -6.450314   -0.433008    0.118515
   27          6             0       -6.759835   -1.673905    0.650734
   28          6             0       -5.763302   -2.562387    1.059558
   29          6             0       -4.421407   -2.228099    0.944671
   30          6             0       -4.095505   -0.993882    0.415278
   31          7             0       -2.864471   -0.407980    0.187699
   32          6             0       -3.114741    0.827942   -0.361031
   33          1             0        6.033252    3.547558    1.379025
   34          1             0        3.658952    3.987539    1.803766
   35          1             0        1.939961    2.310753    1.261585
   36          1             0        6.768166    1.380444    0.441069
   37          1             0        6.903664   -1.160811   -0.584076
   38          1             0        6.405755   -3.419200   -1.459626
   39          1             0        4.090751   -4.200292   -1.664696
   40          1             0        2.204265   -2.774450   -0.977536
   41          1             0        1.286606   -2.233798    1.076470
   42          1             0       -1.165916   -2.472577    1.159534
   43          1             0        0.943804    1.659673   -0.724641
   44          1             0       -1.462808    3.497098   -1.520708
   45          1             0       -3.784999    4.146441   -1.844688
   46          1             0       -5.693985    2.757910   -1.263779
   47          1             0       -7.234295    0.242028   -0.192765
   48          1             0       -7.795540   -1.964257    0.753099
   49          1             0       -6.040538   -3.521470    1.469852
   50          1             0       -3.653695   -2.918512    1.260732
 --------------------------------------------------------------------
     1 basis functions        1 primitive gaussians
     1 alpha electrons        1 beta electrons
 
 Harmonic frequencies (cm**-1), IR intensities (km*mol⁻¹),
 Raman scattering activities (A**4/amu), Raman depolarization ratios,
 reduced masses (AMU), force constants (mDyne/A) and normal coordinates:
                      1                      2                      3
                        a                      a                      a 
 Frequencies --    22.0982                29.3337                38.2320
 Red. masses --    10.9999                10.8181                10.7695
 Frc consts  --     0.0000                 0.0000                 0.0000
 IR Inten    --     1.1347                 0.9181                 0.0744
 Raman Activ --     0.0000                 0.0000                 0.0000
 Depolar     --     0.0000                 0.0000                 0.0000
 Atom AN      X      Y      Z        X      Y      Z        X      Y      Z
   1   6    -0.15  -0.01   0.21     0.08  -0.10   0.21    -0.17   0.12  -0.15
   2   6    -0.18  -0.05   0.11     0.08  -0.08   0.24    -0.17  -0.02   0.03
   3   6    -0.13  -0.07   0.00     0.06  -0.04   0.18    -0.11  -0.12   0.14
   4   6    -0.05  -0.04  -0.01     0.03  -0.00   0.10    -0.06  -0.07   0.07
   5   6    -0.03   0.00   0.09     0.02  -0.02   0.05    -0.06   0.07  -0.09
   6   6    -0.08   0.02   0.20     0.04  -0.06   0.11    -0.12   0.17  -0.21
   7   6     0.04   0.02   0.05    -0.02   0.02  -0.06     0.01   0.07  -0.10
   8   6     0.09   0.06   0.11    -0.06   0.03  -0.17     0.04   0.18  -0.22
   9   6     0.16   0.07   0.05    -0.10   0.08  -0.26     0.11   0.15  -0.18
  10   6     0.18   0.03  -0.05    -0.11   0.10  -0.23     0.14   0.01  -0.01
  11   6     0.13  -0.01  -0.11    -0.08   0.09  -0.12     0.11  -0.10   0.12
  12   6     0.06  -0.01  -0.06    -0.03   0.05  -0.04     0.05  -0.06   0.06
  13   7     0.00  -0.05  -0.11     0.00   0.04   0.05     0.00  -0.15   0.16
  14   6     0.00  -0.08  -0.17    -0.00   0.05   0.08     0.00  -0.15   0.13
  15   6    -0.00  -0.09  -0.19     0.01   0.06   0.10    -0.04  -0.13   0.11
  16   6    -0.00  -0.07  -0.18     0.01   0.06   0.13    -0.05  -0.09   0.08
  17   6    -0.00  -0.06  -0.15     0.01   0.05   0.09    -0.01  -0.07   0.07
  18   6     0.00  -0.07  -0.18     0.00   0.02   0.03     0.04  -0.09   0.08
  19   6     0.00  -0.08  -0.18     0.00   0.04   0.05     0.04  -0.13   0.11
  20   6     0.01  -0.06  -0.15    -0.00  -0.03  -0.07     0.08  -0.06   0.04
  21   6     0.01  -0.04  -0.13    -0.01  -0.09  -0.20     0.15  -0.05   0.02
  22   6     0.01   0.00  -0.04    -0.01  -0.14  -0.30     0.17  -0.01  -0.03
  23   6     0.01   0.04   0.04    -0.00  -0.13  -0.27     0.13   0.03  -0.05
  24   6     0.00   0.03   0.02     0.00  -0.07  -0.13     0.06   0.03  -0.03
  25   6    -0.00   0.06   0.09     0.01  -0.03  -0.05     0.01   0.06  -0.04
  26   6    -0.01   0.13   0.23     0.01  -0.04  -0.05    -0.01   0.12  -0.08
  27   6    -0.02   0.16   0.29     0.01   0.01   0.07    -0.08   0.14  -0.07
  28   6    -0.02   0.12   0.22     0.02   0.06   0.19    -0.13   0.10  -0.03
  29   6    -0.01   0.06   0.09     0.02   0.07   0.19    -0.11   0.05   0.01
  30   6    -0.01   0.03   0.02     0.01   0.02   0.08    -0.04   0.03   0.01
  31   7    -0.00  -0.03  -0.10     0.01   0.03   0.07    -0.01  -0.02   0.04
  32   6     0.00  -0.03  -0.09     0.00  -0.03  -0.05     0.05  -0.02   0.02
  33   1    -0.06  -0.00   0.09     0.03  -0.04   0.08    -0.06   0.06  -0.07
  34   1    -0.07  -0.02   0.04     0.03  -0.03   0.09    -0.06  -0.02   0.02
  35   1    -0.04  -0.03  -0.02     0.02  -0.01   0.06    -0.03  -0.07   0.08
  36   1    -0.02   0.01   0.08     0.01  -0.02   0.02    -0.03   0.08  -0.10
  37   1     0.02   0.03   0.06    -0.01   0.00  -0.06     0.00   0.08  -0.10
  38   1     0.06   0.03   0.03    -0.04   0.03  -0.10     0.04   0.07  -0.08
  39   1     0.07   0.01  -0.03    -0.04   0.04  -0.09     0.06  -0.00   0.01
  40   1     0.04  -0.01  -0.05    -0.03   0.04  -0.03     0.04  -0.06   0.07
  41   1    -0.00  -0.03  -0.06     0.00   0.02   0.03    -0.02  -0.05   0.03
  42   1    -0.00  -0.02  -0.05     0.00   0.02   0.05    -0.02  -0.02   0.02
  43   1     0.00  -0.02  -0.05     0.00   0.01   0.01     0.02  -0.04   0.03
  44   1     0.00  -0.02  -0.05    -0.00  -0.03  -0.07     0.05  -0.03   0.01
  45   1     0.00   0.00  -0.00    -0.00  -0.05  -0.12     0.06  -0.00  -0.01
  46   1     0.00   0.02   0.03    -0.00  -0.05  -0.10     0.04   0.02  -0.03
  47   1    -0.00   0.05   0.08     0.00  -0.03  -0.04     0.01   0.04  -0.03
  48   1    -0.01   0.06   0.12     0.00   0.00   0.02    -0.03   0.05  -0.03
  49   1    -0.01   0.04   0.08     0.01   0.03   0.08    -0.05   0.03  -0.01
  50   1    -0.00   0.01   0.01     0.01   0.03   0.08    -0.04   0.01   0.01
                      4                      5                      6
                        a                      a                      a 
 Frequencies --    70.6205                96.7621               103.4068
 Red. masses --    11.3256                10.3957                10.2818
 Frc consts  --     0.0000                 0.0000                 0.0000
 IR Inten    --     0.3944                 0.3069                 0.2781
 Raman Activ --     0.0000                 0.0000                 0.0000
 Depolar     --     0.0000                 0.0000                 0.0000
 Atom AN      X      Y      Z        X      Y      Z        X      Y      Z
   1   6    -0.12  -0.04   0.08    -0.05  -0.08   0.13     0.01  -0.01  -0.03
   2   6    -0.14  -0.05  -0.04    -0.04  -0.18   0.32     0.03  -0.05   0.08
   3   6    -0.11  -0.06  -0.14    -0.03  -0.14   0.19     0.02  -0.05   0.07
   4   6    -0.04  -0.04  -0.13    -0.02  -0.02  -0.06     0.00  -0.00  -0.04
   5   6    -0.03  -0.03  -0.02    -0.03   0.05  -0.21    -0.00   0.02  -0.09
   6   6    -0.06  -0.02   0.09    -0.05   0.05  -0.16     0.00   0.02  -0.11
   7   6     0.03  -0.02  -0.02    -0.03   0.05  -0.21     0.00   0.01  -0.06
   8   6     0.08  -0.01   0.08    -0.02   0.05  -0.19     0.03  -0.01   0.04
   9   6     0.13  -0.02   0.07     0.01  -0.07   0.09     0.06  -0.05   0.13
  10   6     0.15  -0.03  -0.05     0.02  -0.17   0.31     0.06  -0.05   0.09
  11   6     0.10  -0.04  -0.15     0.01  -0.14   0.22     0.04  -0.02  -0.03
  12   6     0.04  -0.04  -0.13    -0.02  -0.02  -0.05     0.00   0.01  -0.07
  13   7    -0.00  -0.05  -0.21    -0.02  -0.01  -0.07    -0.00   0.00  -0.07
  14   6    -0.00  -0.05  -0.15    -0.02   0.03  -0.06    -0.00   0.01  -0.03
  15   6     0.00  -0.02  -0.08    -0.02   0.08   0.02    -0.01  -0.05  -0.19
  16   6     0.00   0.06   0.11    -0.02   0.11   0.02    -0.00  -0.06  -0.19
  17   6    -0.00   0.11   0.21     0.02   0.10  -0.05    -0.01   0.01  -0.02
  18   6    -0.00   0.06   0.11     0.00   0.09  -0.10    -0.02   0.08   0.14
  19   6    -0.00  -0.02  -0.08     0.01   0.05  -0.10    -0.02   0.08   0.14
  20   6    -0.01   0.08   0.15    -0.02   0.08  -0.08    -0.02   0.08   0.15
  21   6    -0.00   0.00  -0.03    -0.08   0.06  -0.10    -0.03   0.15   0.30
  22   6    -0.00  -0.04  -0.12    -0.09   0.04  -0.03    -0.03   0.06   0.13
  23   6    -0.00  -0.02  -0.07    -0.07   0.04   0.03    -0.03  -0.06  -0.15
  24   6    -0.00   0.06   0.10    -0.03   0.05   0.04    -0.02  -0.09  -0.22
  25   6    -0.00   0.04   0.06     0.02   0.02   0.05    -0.01  -0.11  -0.24
  26   6     0.00  -0.07  -0.19     0.04  -0.06   0.08    -0.01  -0.11  -0.24
  27   6     0.01  -0.10  -0.26     0.13  -0.10   0.03    -0.01   0.01   0.05
  28   6     0.01  -0.02  -0.08     0.18  -0.08  -0.05    -0.01   0.14   0.33
  29   6    -0.00   0.08   0.16     0.15  -0.00  -0.06    -0.01   0.10   0.24
  30   6    -0.00   0.10   0.20     0.06   0.04  -0.00    -0.01  -0.03  -0.08
  31   7    -0.01   0.16   0.33     0.03   0.10  -0.03    -0.01  -0.03  -0.09
  32   6    -0.01   0.13   0.26    -0.01   0.08  -0.02    -0.02  -0.02  -0.07
  33   1    -0.04  -0.01   0.05    -0.02  -0.03   0.06     0.00  -0.00  -0.01
  34   1    -0.06  -0.02  -0.01    -0.01  -0.08   0.16     0.01  -0.03   0.05
  35   1    -0.04  -0.02  -0.06    -0.01  -0.07   0.09     0.01  -0.02   0.04
  36   1    -0.01  -0.00   0.05    -0.01   0.04  -0.08    -0.00   0.01  -0.05
  37   1     0.02  -0.00   0.05    -0.01   0.03  -0.10     0.01   0.00   0.02
  38   1     0.05  -0.00   0.04     0.00  -0.02   0.04     0.02  -0.02   0.07
  39   1     0.06  -0.01  -0.02     0.01  -0.08   0.16     0.02  -0.02   0.04
  40   1     0.03  -0.02  -0.06     0.01  -0.07   0.11     0.01  -0.01  -0.02
  41   1     0.00  -0.02  -0.05    -0.01   0.03   0.02    -0.00  -0.03  -0.09
  42   1     0.00   0.02   0.05    -0.02   0.04   0.02     0.00  -0.04  -0.09
  43   1    -0.00  -0.02  -0.05     0.01   0.01  -0.03    -0.01   0.04   0.07
  44   1    -0.00  -0.01  -0.03    -0.03   0.02  -0.05    -0.01   0.07   0.15
  45   1    -0.00  -0.03  -0.07    -0.04   0.01  -0.01    -0.01   0.03   0.07
  46   1     0.00  -0.02  -0.06    -0.02   0.01   0.02    -0.01  -0.04  -0.08
  47   1     0.00  -0.04  -0.10    -0.00  -0.03   0.04    -0.00  -0.06  -0.12
  48   1     0.00  -0.06  -0.14     0.04  -0.05   0.01    -0.00   0.01   0.03
  49   1     0.00  -0.01  -0.04     0.07  -0.04  -0.03    -0.00   0.07   0.18
  50   1    -0.00   0.04   0.08     0.06   0.01  -0.04    -0.00   0.06   0.13
                      7                      8                      9
                        a                      a                      a 
 Frequencies --   117.9333               127.1000               142.4251
 Red. masses --    11.0180                10.0035                10.5667
 Frc consts  --     0.0000                 0.0000                 0.0000
 IR Inten    --     0.0922                 0.1713                 4.8317
 Raman Activ --     0.0000                 0.0000                 0.0000
 Depolar     --     0.0000                 0.0000                 0.0000
 Atom AN      X      Y      Z        X      Y      Z        X      Y      Z
   1   6    -0.20   0.07  -0.16     0.04   0.08  -0.22     0.14   0.01  -0.07
   2   6    -0.20   0.03  -0.14     0.07  -0.02   0.09     0.15   0.03   0.00
   3   6    -0.15  -0.08   0.03     0.06  -0.07   0.26     0.11   0.03   0.10
   4   6    -0.08  -0.11   0.13     0.02  -0.03   0.13     0.04  -0.01   0.13
   5   6    -0.07  -0.09   0.16     0.00   0.00   0.01     0.04  -0.02   0.08
   6   6    -0.13   0.01   0.03     0.01   0.08  -0.23     0.08  -0.03  -0.03
   7   6    -0.05  -0.10   0.16    -0.01  -0.01   0.05     0.01  -0.01   0.07
   8   6    -0.07  -0.07   0.06     0.00  -0.06   0.18     0.01   0.06  -0.06
   9   6    -0.09   0.00  -0.12    -0.00  -0.06   0.16     0.02   0.07  -0.10
  10   6    -0.09   0.02  -0.17    -0.02   0.04  -0.05     0.03   0.03   0.04
  11   6    -0.08  -0.03  -0.03    -0.02   0.08  -0.14     0.03  -0.03   0.15
  12   6    -0.05  -0.10   0.12    -0.01   0.03  -0.01     0.02  -0.02   0.14
  13   7    -0.05  -0.12   0.15    -0.01   0.00   0.08     0.02  -0.01   0.16
  14   6    -0.04  -0.06   0.04    -0.00   0.00   0.01    -0.00  -0.01  -0.02
  15   6    -0.06  -0.04   0.02    -0.02  -0.12  -0.27    -0.03  -0.05  -0.16
  16   6    -0.06   0.04  -0.02    -0.02  -0.11  -0.26    -0.03  -0.07  -0.22
  17   6     0.04   0.10  -0.04    -0.01   0.01  -0.02    -0.03  -0.04  -0.16
  18   6     0.05   0.09  -0.04    -0.01   0.05   0.09    -0.02  -0.07  -0.22
  19   6     0.05  -0.01  -0.01    -0.01   0.08   0.17    -0.01  -0.03  -0.10
  20   6     0.05   0.11  -0.04    -0.01   0.05   0.09    -0.04  -0.05  -0.16
  21   6     0.02   0.12   0.01    -0.02  -0.04  -0.13    -0.07  -0.06  -0.17
  22   6     0.00   0.09   0.03    -0.02  -0.11  -0.26    -0.08   0.03   0.07
  23   6     0.01   0.06  -0.01    -0.02  -0.06  -0.13    -0.08   0.09   0.23
  24   6     0.03   0.04  -0.05    -0.02   0.05   0.10    -0.05   0.06   0.14
  25   6     0.08   0.00  -0.05    -0.01   0.05   0.12    -0.04   0.04   0.10
  26   6     0.12  -0.13  -0.01    -0.01   0.06   0.17    -0.03  -0.11  -0.22
  27   6     0.24  -0.14   0.05     0.01   0.01   0.06    -0.03  -0.13  -0.26
  28   6     0.31  -0.05   0.09     0.02  -0.06  -0.12    -0.03   0.03   0.09
  29   6     0.27   0.06   0.04     0.02  -0.05  -0.11    -0.03   0.13   0.29
  30   6     0.12   0.06  -0.03    -0.00   0.02   0.04    -0.03   0.07   0.17
  31   7     0.07   0.12  -0.07    -0.01   0.06   0.09    -0.04   0.03   0.04
  32   6     0.04   0.10  -0.06    -0.01   0.08   0.15    -0.04   0.02   0.02
  33   1    -0.07   0.05  -0.09     0.01   0.04  -0.12     0.05   0.00  -0.05
  34   1    -0.07   0.02  -0.08     0.03  -0.01   0.05     0.06   0.02  -0.01
  35   1    -0.05  -0.04   0.01     0.03  -0.04   0.13     0.04   0.02   0.04
  36   1    -0.03   0.02   0.01    -0.00   0.04  -0.12     0.02  -0.02  -0.03
  37   1    -0.02  -0.03   0.03     0.00  -0.03   0.09     0.00   0.03  -0.04
  38   1    -0.03   0.01  -0.07     0.00  -0.03   0.08     0.00   0.04  -0.06
  39   1    -0.03   0.02  -0.09    -0.01   0.02  -0.04     0.01   0.01   0.01
  40   1    -0.02   0.00  -0.02    -0.01   0.04  -0.08     0.01  -0.02   0.06
  41   1    -0.03  -0.02   0.01    -0.01  -0.06  -0.12    -0.02  -0.02  -0.04
  42   1    -0.04   0.02  -0.01    -0.01  -0.05  -0.13    -0.01  -0.03  -0.08
  43   1     0.04  -0.02  -0.01     0.00   0.04   0.10     0.00   0.00  -0.00
  44   1    -0.00   0.05   0.01    -0.01  -0.03  -0.07    -0.02  -0.03  -0.10
  45   1    -0.01   0.03   0.02    -0.01  -0.06  -0.14    -0.03   0.01   0.03
  46   1     0.00   0.02  -0.00    -0.01  -0.03  -0.07    -0.02   0.04   0.11
  47   1     0.01  -0.07  -0.01    -0.00   0.03   0.08    -0.01  -0.06  -0.13
  48   1     0.08  -0.06   0.02     0.00   0.00   0.03    -0.01  -0.07  -0.15
  49   1     0.11  -0.01   0.04     0.01  -0.03  -0.07    -0.01   0.02   0.05
  50   1     0.10   0.05   0.02     0.01  -0.02  -0.06    -0.01   0.06   0.14
                     10                     11                     12
                        a                      a                      a 
 Frequencies --   144.8072               161.9463               212.2359
 Red. masses --    10.3559                10.6404                10.6490
 Frc consts  --     0.0000                 0.0000                 0.0000
 IR Inten    --     1.0006                 0.2310                 2.7445
 Raman Activ --     0.0000                 0.0000                 0.0000
 Depolar     --     0.0000                 0.0000                 0.0000
 Atom AN      X      Y      Z        X      Y      Z        X      Y      Z
   1   6    -0.11   0.09  -0.03    -0.06  -0.00   0.19    -0.15   0.14  -0.06
   2   6    -0.10  -0.02   0.17    -0.08   0.10  -0.04    -0.15   0.02   0.03
   3   6    -0.06  -0.05   0.15    -0.08   0.15  -0.17    -0.03  -0.12   0.10
   4   6    -0.01   0.04  -0.01    -0.06   0.11  -0.09     0.12  -0.05   0.09
   5   6    -0.02   0.08  -0.09    -0.06   0.07  -0.05     0.13  -0.04   0.12
   6   6    -0.07   0.15  -0.16    -0.06   0.01   0.16     0.00   0.13   0.05
   7   6    -0.02   0.05  -0.07    -0.07   0.07  -0.07     0.12  -0.07   0.10
   8   6    -0.07  -0.13   0.17    -0.15   0.03  -0.19     0.01  -0.14  -0.10
   9   6    -0.17  -0.14   0.22    -0.22  -0.02  -0.03    -0.12  -0.09  -0.16
  10   6    -0.20   0.03  -0.05    -0.23  -0.05   0.18    -0.14  -0.08   0.02
  11   6    -0.15   0.17  -0.23    -0.17   0.02   0.17    -0.04  -0.02   0.15
  12   6    -0.03   0.11  -0.14    -0.07   0.06   0.03     0.10  -0.03   0.10
  13   7     0.00   0.08  -0.08    -0.04   0.08  -0.00     0.12   0.02  -0.01
  14   6     0.02   0.01  -0.01     0.00  -0.02  -0.01     0.11   0.08  -0.18
  15   6     0.08   0.03   0.10     0.04  -0.13  -0.22     0.14   0.11  -0.09
  16   6     0.08  -0.01   0.12     0.05  -0.20  -0.27     0.15   0.07  -0.05
  17   6     0.06  -0.08  -0.01     0.04  -0.10  -0.05     0.11   0.04  -0.04
  18   6     0.04  -0.12  -0.11     0.04  -0.05   0.06     0.06   0.06  -0.08
  19   6     0.02  -0.05  -0.10     0.01   0.01   0.07     0.08   0.04  -0.25
  20   6     0.07  -0.12  -0.12     0.08  -0.01   0.11    -0.01   0.06   0.07
  21   6     0.12  -0.09  -0.05     0.16  -0.05   0.02    -0.15   0.06   0.13
  22   6     0.13   0.03   0.13     0.18  -0.05  -0.09    -0.17  -0.06   0.02
  23   6     0.12   0.06   0.18     0.16  -0.01  -0.06    -0.11  -0.18  -0.07
  24   6     0.08  -0.01   0.03     0.09   0.03   0.07     0.04  -0.09   0.03
  25   6     0.06   0.00   0.02     0.07   0.02   0.04     0.07  -0.07   0.01
  26   6     0.05  -0.01  -0.13     0.07   0.00  -0.01     0.02   0.09  -0.03
  27   6     0.00  -0.00  -0.14     0.07  -0.00  -0.03    -0.11   0.14  -0.03
  28   6    -0.03   0.04   0.04     0.06  -0.00   0.01    -0.16   0.08  -0.05
  29   6    -0.02   0.03   0.13     0.05  -0.00   0.05    -0.11  -0.05  -0.01
  30   6     0.03  -0.01   0.06     0.05  -0.00   0.04     0.05  -0.07   0.03
  31   7     0.06  -0.08  -0.01     0.06  -0.02   0.06     0.08  -0.03   0.08
  32   6     0.07  -0.09  -0.06     0.07   0.02   0.13     0.04  -0.01   0.11
  33   1    -0.04   0.04  -0.02    -0.01  -0.02   0.11    -0.06   0.07  -0.06
  34   1    -0.03  -0.03   0.09    -0.03   0.03  -0.02    -0.07   0.00   0.00
  35   1    -0.02  -0.05   0.07    -0.03   0.05  -0.08    -0.02  -0.08   0.03
  36   1    -0.02   0.08  -0.08    -0.01  -0.01   0.09     0.01   0.08   0.02
  37   1    -0.01  -0.08   0.09    -0.04   0.00  -0.11     0.01  -0.06  -0.07
  38   1    -0.05  -0.08   0.13    -0.08  -0.01  -0.02    -0.05  -0.02  -0.09
  39   1    -0.07   0.02  -0.02    -0.08  -0.03   0.09    -0.07  -0.02   0.01
  40   1    -0.06   0.10  -0.10    -0.05   0.02   0.07    -0.02   0.02   0.07
  41   1     0.03   0.03   0.05     0.01  -0.04  -0.08     0.05   0.05  -0.00
  42   1     0.03   0.01   0.06     0.02  -0.08  -0.13     0.05   0.02   0.00
  43   1     0.00  -0.02  -0.04    -0.00   0.01   0.04     0.02   0.01  -0.09
  44   1     0.04  -0.04  -0.02     0.06  -0.03  -0.01    -0.06   0.05   0.05
  45   1     0.04   0.02   0.07     0.06  -0.03  -0.06    -0.07  -0.03  -0.01
  46   1     0.04   0.04   0.09     0.05  -0.00  -0.05    -0.04  -0.10  -0.06
  47   1     0.02  -0.01  -0.07     0.02  -0.00  -0.01     0.04   0.06  -0.01
  48   1    -0.00  -0.01  -0.08     0.02  -0.00  -0.02    -0.04   0.06  -0.01
  49   1    -0.02   0.02   0.02     0.01   0.00   0.00    -0.07   0.03  -0.02
  50   1    -0.01   0.01   0.07     0.02   0.00   0.02    -0.06  -0.04   0.01
                     13                     14                     15
                        a                      a                      a 
 Frequencies --   239.5452               259.3189               267.5644
 Red. masses --    10.4798                10.5538                10.5743
 Frc consts  --     0.0000                 0.0000                 0.0000
 IR Inten    --     0.0956                 0.4364                 0.0814
 Raman Activ --     0.0000                 0.0000                 0.0000
 Depolar     --     0.0000                 0.0000                 0.0000
 Atom AN      X      Y      Z        X      Y      Z        X      Y      Z
   1   6     0.13  -0.02  -0.03     0.03  -0.00  -0.01    -0.04   0.15  -0.09
   2   6     0.15  -0.02   0.11     0.03  -0.03   0.07    -0.05   0.10  -0.12
   3   6     0.06   0.07   0.06     0.01   0.01   0.00     0.05  -0.11   0.18
   4   6    -0.05   0.05   0.03    -0.01   0.02  -0.03     0.13  -0.08   0.19
   5   6    -0.05   0.03   0.02    -0.01   0.01   0.00     0.15  -0.05   0.18
   6   6     0.02  -0.01  -0.13     0.00   0.02  -0.08     0.07   0.03   0.24
   7   6    -0.04   0.02   0.08    -0.00  -0.02   0.08     0.12   0.03  -0.10
   8   6    -0.03   0.06   0.09    -0.00  -0.01   0.07     0.04  -0.02  -0.24
   9   6    -0.02   0.10   0.00    -0.01   0.04  -0.05    -0.02  -0.12   0.01
  10   6    -0.02   0.09  -0.02    -0.01   0.04  -0.04    -0.03  -0.12   0.16
  11   6    -0.03   0.03   0.06    -0.01  -0.01   0.07     0.02   0.07  -0.09
  12   6    -0.03   0.02   0.09    -0.00  -0.01   0.07     0.09   0.09  -0.17
  13   7    -0.05   0.03   0.01    -0.01   0.02  -0.03     0.09   0.04  -0.06
  14   6    -0.05  -0.09  -0.18    -0.01  -0.00  -0.09     0.04   0.04  -0.09
  15   6    -0.05  -0.02   0.00    -0.00   0.04   0.02    -0.01   0.06  -0.08
  16   6    -0.05  -0.02   0.05     0.00   0.01   0.03    -0.02   0.05   0.05
  17   6    -0.06  -0.08  -0.06    -0.02  -0.02   0.00    -0.12  -0.01   0.07
  18   6    -0.04  -0.15  -0.19    -0.02  -0.01   0.02    -0.07  -0.06   0.04
  19   6    -0.05  -0.22  -0.43    -0.02  -0.05  -0.16    -0.06   0.00  -0.02
  20   6    -0.00  -0.02   0.07    -0.01   0.07   0.20    -0.04  -0.06   0.00
  21   6     0.12   0.10   0.32     0.05  -0.10  -0.19     0.15  -0.05  -0.01
  22   6     0.14   0.04   0.03     0.06  -0.02  -0.07     0.18   0.07  -0.00
  23   6     0.10  -0.05  -0.31     0.04   0.12   0.20     0.10   0.15  -0.04
  24   6    -0.03   0.02  -0.05    -0.02   0.09   0.17    -0.11   0.06  -0.06
  25   6    -0.06   0.04   0.02    -0.02  -0.11  -0.28    -0.17   0.04  -0.06
  26   6    -0.04  -0.03   0.09    -0.01  -0.14  -0.25    -0.14  -0.13   0.05
  27   6     0.03  -0.07   0.05    -0.00   0.04   0.19    -0.02  -0.16   0.10
  28   6     0.05  -0.09  -0.04     0.00   0.07   0.23     0.03  -0.12   0.05
  29   6     0.02   0.01   0.00     0.00  -0.10  -0.22    -0.01   0.02  -0.03
  30   6    -0.05   0.06   0.07    -0.02  -0.13  -0.32    -0.15   0.05  -0.04
  31   7    -0.06   0.05   0.11    -0.02   0.01   0.05    -0.14   0.03   0.02
  32   6    -0.04   0.05   0.10    -0.02   0.14   0.34    -0.11   0.01  -0.02
  33   1     0.05  -0.01  -0.02     0.01  -0.00  -0.01    -0.03   0.08  -0.09
  34   1     0.06  -0.01   0.06     0.02  -0.02   0.04    -0.04   0.05  -0.10
  35   1     0.02   0.05   0.01     0.00   0.01  -0.00     0.01  -0.06   0.06
  36   1    -0.00  -0.02  -0.08    -0.00   0.01  -0.04     0.03   0.03   0.10
  37   1    -0.01   0.02   0.03    -0.00  -0.00   0.03     0.02  -0.02  -0.11
  38   1    -0.01   0.04  -0.02    -0.01   0.02  -0.04    -0.01  -0.06   0.03
  39   1    -0.00   0.03  -0.02    -0.00   0.02  -0.03    -0.02  -0.06   0.12
  40   1    -0.01   0.01   0.02    -0.00  -0.01   0.03    -0.00   0.05  -0.03
  41   1    -0.01   0.02   0.04     0.00   0.03   0.03    -0.01   0.01  -0.03
  42   1    -0.01   0.01   0.06     0.01   0.01   0.03     0.02   0.01   0.03
  43   1    -0.01  -0.07  -0.15    -0.01  -0.02  -0.06    -0.04   0.02  -0.00
  44   1     0.05   0.04   0.17     0.03  -0.09  -0.16     0.07  -0.04   0.00
  45   1     0.05   0.02   0.01     0.02  -0.03  -0.08     0.07   0.03   0.01
  46   1     0.04  -0.03  -0.19     0.02   0.05   0.06     0.05   0.08  -0.01
  47   1    -0.03  -0.02   0.04    -0.01  -0.05  -0.09    -0.07  -0.07   0.03
  48   1     0.01  -0.03   0.02    -0.00   0.05   0.14     0.00  -0.06   0.04
  49   1     0.03  -0.04  -0.04     0.00   0.06   0.16     0.04  -0.04   0.02
  50   1     0.02   0.02  -0.01     0.01  -0.03  -0.08     0.03   0.03  -0.02
                     16                     17                     18
                        a                      a                      a 
 Frequencies --   273.6988               276.5258               294.6607
 Red. masses --    10.6115                10.9114                10.9346
 Frc consts  --     0.0000                 0.0000                 0.0000
 IR Inten    --     5.5383                 1.6124                 0.6771
 Raman Activ --     0.0000                 0.0000                 0.0000
 Depolar     --     0.0000                 0.0000                 0.0000
 Atom AN      X      Y      Z        X      Y      Z        X      Y      Z
   1   6    -0.07   0.07   0.16     0.01   0.03   0.10    -0.06  -0.06  -0.12
   2   6    -0.09  -0.03   0.15    -0.02   0.07  -0.10    -0.04  -0.06  -0.04
   3   6     0.01  -0.01  -0.21     0.03   0.01  -0.04    -0.05  -0.09   0.08
   4   6     0.14   0.05  -0.22     0.06  -0.04   0.07    -0.03  -0.03  -0.01
   5   6     0.17   0.07  -0.17     0.07   0.05  -0.07    -0.05  -0.09   0.05
   6   6     0.04   0.22  -0.13     0.04   0.04   0.09    -0.04  -0.12   0.04
   7   6     0.18  -0.06   0.10     0.08   0.09  -0.21    -0.09  -0.06   0.02
   8   6     0.10  -0.23   0.14     0.05  -0.01  -0.11    -0.02   0.04   0.05
   9   6    -0.02  -0.11  -0.14     0.00  -0.12   0.15     0.08   0.07  -0.05
  10   6    -0.06   0.00  -0.19    -0.02  -0.02   0.01     0.10  -0.01  -0.00
  11   6     0.06  -0.02   0.16     0.01   0.12  -0.19     0.02  -0.10   0.00
  12   6     0.15  -0.05   0.18     0.08   0.07  -0.12    -0.10  -0.03  -0.08
  13   7     0.11  -0.01   0.01     0.07  -0.09   0.19    -0.05   0.06  -0.14
  14   6     0.08   0.04   0.10     0.03  -0.16   0.23    -0.03   0.24   0.03
  15   6    -0.01   0.06   0.06    -0.05  -0.08   0.31     0.05   0.30   0.22
  16   6    -0.03  -0.01  -0.09    -0.09  -0.08  -0.08     0.07   0.01  -0.07
  17   6    -0.09  -0.04  -0.06    -0.00  -0.08  -0.25     0.02  -0.15  -0.32
  18   6    -0.04  -0.03   0.05     0.03  -0.06  -0.15    -0.02  -0.02  -0.07
  19   6    -0.02   0.01   0.13     0.06  -0.23  -0.03    -0.04   0.23   0.06
  20   6    -0.04  -0.01   0.02     0.01   0.10   0.10    -0.02   0.03   0.15
  21   6     0.05  -0.00   0.02    -0.14   0.09   0.09     0.10   0.03   0.13
  22   6     0.07   0.03  -0.05    -0.17  -0.03  -0.09     0.12  -0.06  -0.16
  23   6     0.01   0.09  -0.05    -0.14  -0.05  -0.07     0.11  -0.00  -0.05
  24   6    -0.10   0.07  -0.00    -0.03   0.08   0.16     0.01   0.08   0.22
  25   6    -0.14   0.08   0.05    -0.00   0.03   0.02    -0.00   0.05   0.16
  26   6    -0.12  -0.07   0.08    -0.00   0.01  -0.06    -0.00  -0.01   0.03
  27   6    -0.02  -0.15  -0.00     0.01   0.02  -0.03    -0.01  -0.08  -0.12
  28   6     0.03  -0.08   0.02     0.03   0.07   0.05    -0.03  -0.00   0.08
  29   6    -0.01   0.07   0.04     0.03   0.04  -0.02    -0.03   0.00   0.10
  30   6    -0.12   0.08   0.00     0.01   0.02  -0.07    -0.00  -0.05  -0.02
  31   7    -0.11   0.01  -0.09    -0.00   0.03  -0.08     0.01  -0.15  -0.23
  32   6    -0.09   0.02  -0.05    -0.00   0.13   0.17    -0.01  -0.00   0.08
  33   1    -0.03   0.01   0.11    -0.00   0.00   0.06    -0.02  -0.00  -0.07
  34   1    -0.05  -0.05   0.11    -0.02   0.03  -0.07    -0.00  -0.01  -0.02
  35   1    -0.01  -0.03  -0.08     0.00  -0.00  -0.02    -0.01  -0.04   0.05
  36   1     0.02   0.11  -0.04     0.02   0.01   0.05    -0.01  -0.04   0.03
  37   1     0.04  -0.11   0.06     0.02  -0.02  -0.04    -0.01   0.03   0.04
  38   1    -0.02  -0.03  -0.09    -0.00  -0.07   0.12     0.03   0.04  -0.02
  39   1    -0.05   0.04  -0.12    -0.01  -0.01   0.03     0.05  -0.01   0.01
  40   1     0.01   0.02   0.07    -0.01   0.06  -0.06     0.01  -0.07   0.02
  41   1    -0.02   0.01   0.03    -0.04  -0.02   0.13     0.04   0.14   0.12
  42   1     0.00  -0.02  -0.05    -0.06  -0.01  -0.04     0.04  -0.00  -0.01
  43   1    -0.02   0.01   0.03     0.05  -0.09  -0.01    -0.04   0.09   0.04
  44   1     0.02  -0.01   0.02    -0.06   0.04   0.01     0.04  -0.01   0.05
  45   1     0.03   0.00  -0.03    -0.05  -0.03  -0.08     0.04  -0.05  -0.12
  46   1     0.01   0.04  -0.03    -0.05  -0.06  -0.08     0.04  -0.01  -0.08
  47   1    -0.06  -0.05   0.03    -0.00  -0.00  -0.03     0.00  -0.01   0.00
  48   1     0.00  -0.07  -0.02     0.01  -0.00  -0.01    -0.00  -0.04  -0.09
  49   1     0.03  -0.03   0.00     0.01   0.03   0.04    -0.01   0.01   0.04
  50   1     0.02   0.05   0.01     0.01   0.01  -0.01    -0.01   0.01   0.04
                     19                     20                     21
                        a                      a                      a 
 Frequencies --   355.8683               366.2839               377.0589
 Red. masses --    11.3734                 9.8539                10.0993
 Frc consts  --     0.0000                 0.0000                 0.0000
 IR Inten    --     0.1853                 0.6735                 1.8157
 Raman Activ --     0.0000                 0.0000                 0.0000
 Depolar     --     0.0000                 0.0000                 0.0000
 Atom AN      X      Y      Z        X      Y      Z        X      Y      Z
   1   6    -0.06  -0.11   0.08     0.00   0.07  -0.06    -0.00   0.05  -0.13
   2   6    -0.08  -0.02  -0.08     0.01   0.04  -0.00     0.00   0.01  -0.05
   3   6    -0.06  -0.02  -0.07     0.03  -0.03   0.09     0.03  -0.10   0.19
   4   6     0.03  -0.04   0.06    -0.01   0.05  -0.12     0.01   0.05  -0.14
   5   6    -0.00  -0.01  -0.13     0.01   0.03  -0.02     0.01   0.03  -0.07
   6   6    -0.02  -0.04  -0.05     0.00  -0.00   0.11     0.03  -0.07   0.18
   7   6    -0.06  -0.01  -0.12     0.02   0.01   0.01    -0.01   0.04  -0.09
   8   6    -0.01   0.01  -0.03     0.01  -0.06   0.10     0.01  -0.06   0.19
   9   6     0.07  -0.05   0.10    -0.02   0.02  -0.10    -0.01   0.06  -0.11
  10   6     0.07   0.01  -0.08    -0.01  -0.02  -0.01    -0.01   0.04  -0.05
  11   6     0.02  -0.03  -0.08     0.01  -0.05   0.11    -0.00  -0.08   0.18
  12   6    -0.06  -0.06   0.07     0.01   0.03  -0.08    -0.02   0.08  -0.16
  13   7     0.02  -0.05   0.30    -0.02   0.06  -0.19    -0.01   0.09  -0.20
  14   6     0.01   0.24   0.17     0.00  -0.07  -0.01    -0.01   0.01   0.15
  15   6     0.02   0.21   0.03     0.00  -0.12  -0.08     0.02   0.03   0.23
  16   6     0.03   0.03  -0.21    -0.00   0.01   0.18     0.00  -0.17  -0.22
  17   6     0.03   0.06  -0.07    -0.02  -0.14  -0.15    -0.01  -0.07  -0.00
  18   6     0.03   0.00  -0.20    -0.03  -0.17  -0.22    -0.03  -0.06   0.02
  19   6     0.04   0.19  -0.03    -0.05   0.04   0.30    -0.04  -0.09  -0.03
  20   6    -0.00  -0.06  -0.15    -0.00  -0.07  -0.13    -0.00  -0.02   0.00
  21   6     0.09  -0.01  -0.04    -0.06   0.01   0.07    -0.04  -0.07  -0.11
  22   6     0.10   0.08   0.17    -0.06   0.02   0.07    -0.05   0.05   0.14
  23   6     0.10  -0.04  -0.10    -0.06  -0.06  -0.11    -0.05  -0.00  -0.01
  24   6    -0.00  -0.08  -0.10     0.00   0.04   0.04     0.00  -0.06  -0.17
  25   6    -0.01  -0.07  -0.04     0.01   0.11   0.15     0.01  -0.07  -0.25
  26   6    -0.02  -0.12  -0.09     0.02  -0.05  -0.28     0.00   0.10   0.11
  27   6    -0.09   0.01   0.18     0.07   0.11   0.12     0.05   0.05   0.01
  28   6    -0.09  -0.08  -0.01     0.07   0.09   0.08     0.07  -0.03  -0.17
  29   6    -0.08  -0.10  -0.11     0.07  -0.08  -0.26     0.05   0.10   0.14
  30   6    -0.01   0.01   0.17     0.00   0.13   0.19     0.00   0.02  -0.06
  31   7     0.00   0.12   0.32    -0.01   0.05   0.12    -0.01   0.09   0.21
  32   6    -0.01   0.03   0.12    -0.00   0.02   0.03    -0.00   0.05   0.12
  33   1    -0.02  -0.05   0.07     0.00   0.03  -0.04    -0.01   0.03  -0.07
  34   1    -0.02   0.01  -0.04    -0.00   0.00   0.01    -0.00   0.00  -0.02
  35   1    -0.02  -0.02  -0.03     0.02  -0.03   0.08     0.01  -0.07   0.12
  36   1    -0.00   0.00  -0.01     0.00  -0.02   0.08     0.01  -0.05   0.13
  37   1    -0.01   0.03  -0.00     0.01  -0.04   0.06     0.01  -0.05   0.14
  38   1     0.03  -0.03   0.08    -0.01   0.02  -0.06    -0.00   0.03  -0.05
  39   1     0.02   0.01  -0.04    -0.01  -0.01  -0.00    -0.00   0.01  -0.01
  40   1     0.01  -0.03  -0.04     0.00  -0.03   0.07     0.00  -0.06   0.14
  41   1     0.01   0.06  -0.01    -0.00  -0.03  -0.01     0.00   0.02   0.09
  42   1     0.02  -0.02  -0.10     0.00   0.05   0.15     0.00  -0.08  -0.14
  43   1    -0.00   0.06  -0.01    -0.02   0.06   0.19    -0.01  -0.04  -0.04
  44   1     0.04  -0.02  -0.01    -0.02   0.02   0.04    -0.02  -0.03  -0.07
  45   1     0.02   0.05   0.11    -0.01   0.01   0.04    -0.01   0.04   0.09
  46   1     0.03  -0.00  -0.04    -0.02  -0.04  -0.06    -0.02   0.00   0.02
  47   1    -0.00  -0.05  -0.07     0.01  -0.07  -0.20    -0.00   0.06   0.11
  48   1    -0.03   0.04   0.10     0.02   0.03   0.06     0.02   0.02   0.04
  49   1    -0.02  -0.03  -0.02     0.02   0.03   0.02     0.02  -0.02  -0.08
  50   1    -0.03  -0.06  -0.07     0.03  -0.07  -0.20     0.02   0.07   0.12
                     22                     23                     24
                        a                      a                      a 
 Frequencies --   388.9171               392.1815               415.0490
 Red. masses --     9.7033                10.2222                10.1955
 Frc consts  --     0.0000                 0.0000                 0.0000
 IR Inten    --     5.7183                 0.5739                 5.5001
 Raman Activ --     0.0000                 0.0000                 0.0000
 Depolar     --     0.0000                 0.0000                 0.0000
 Atom AN      X      Y      Z        X      Y      Z        X      Y      Z
   1   6     0.00  -0.00   0.07    -0.03  -0.00  -0.02    -0.04  -0.12  -0.18
   2   6    -0.01   0.07  -0.07    -0.01  -0.09   0.18    -0.05  -0.22  -0.10
   3   6     0.01   0.02   0.03    -0.03   0.08  -0.22    -0.07  -0.23   0.07
   4   6    -0.02   0.01   0.01     0.02  -0.02   0.02     0.02   0.05  -0.35
   5   6    -0.02   0.06  -0.12     0.03  -0.13   0.27     0.03   0.05  -0.20
   6   6    -0.02   0.01   0.03    -0.02   0.07  -0.18     0.11  -0.18   0.11
   7   6    -0.01   0.03  -0.08     0.02  -0.13   0.28     0.07  -0.03   0.21
   8   6    -0.01  -0.03   0.02    -0.01   0.07  -0.19     0.08   0.19  -0.11
   9   6     0.00  -0.05   0.03     0.03  -0.01  -0.02    -0.06   0.13   0.17
  10   6    -0.00   0.00  -0.09     0.04  -0.09   0.18    -0.09   0.21   0.12
  11   6     0.02  -0.03   0.03     0.01   0.08  -0.23    -0.11   0.22  -0.06
  12   6     0.01  -0.03   0.05    -0.01  -0.03   0.05     0.07  -0.04   0.32
  13   7     0.00  -0.06   0.14    -0.01   0.06  -0.15     0.04  -0.00  -0.02
  14   6     0.01  -0.04  -0.13    -0.00   0.06   0.07     0.06  -0.04   0.01
  15   6    -0.02  -0.08  -0.24     0.05   0.04   0.11     0.06  -0.04   0.01
  16   6    -0.01   0.17   0.30     0.05  -0.09   0.00     0.05   0.02   0.01
  17   6     0.01  -0.06  -0.23    -0.03  -0.17  -0.11     0.03   0.01  -0.02
  18   6     0.02  -0.08  -0.27    -0.05  -0.15  -0.08     0.04   0.01  -0.02
  19   6     0.02   0.13   0.21    -0.08   0.04   0.16     0.05  -0.03   0.04
  20   6     0.00   0.03   0.03    -0.02  -0.06  -0.01     0.02   0.02  -0.01
  21   6     0.02   0.01  -0.02    -0.07  -0.07  -0.04    -0.01   0.02  -0.01
  22   6     0.02   0.02   0.04    -0.06   0.03   0.11    -0.01   0.01  -0.01
  23   6     0.03  -0.01  -0.02    -0.07  -0.02  -0.05    -0.01   0.02  -0.01
  24   6     0.00  -0.00   0.02    -0.00  -0.00  -0.08    -0.02   0.01  -0.01
  25   6     0.01  -0.13  -0.23    -0.00   0.00  -0.16    -0.05   0.01  -0.01
  26   6    -0.00   0.06   0.20     0.01   0.10   0.02    -0.05  -0.04   0.02
  27   6    -0.03  -0.05  -0.07     0.10   0.08   0.00    -0.05  -0.05   0.02
  28   6    -0.03  -0.07  -0.09     0.11   0.03  -0.11    -0.03  -0.02   0.01
  29   6    -0.04   0.07   0.22     0.09   0.09   0.05    -0.04   0.03  -0.01
  30   6     0.01  -0.12  -0.22    -0.01   0.05  -0.04    -0.03   0.03  -0.01
  31   7     0.00   0.02   0.05    -0.02   0.05   0.15     0.01   0.02  -0.01
  32   6     0.00   0.08   0.18    -0.02   0.04   0.13     0.00   0.02  -0.00
  33   1     0.01  -0.02   0.05    -0.01   0.01  -0.03    -0.04  -0.02  -0.03
  34   1    -0.00   0.03  -0.04    -0.00  -0.05   0.10    -0.00  -0.08   0.02
  35   1     0.01  -0.00   0.05    -0.02   0.06  -0.15    -0.01  -0.14   0.13
  36   1    -0.00  -0.01   0.04    -0.01   0.06  -0.14     0.04  -0.10   0.16
  37   1    -0.00  -0.02   0.01    -0.01   0.07  -0.15     0.01   0.10  -0.16
  38   1     0.00  -0.02   0.03     0.01   0.01  -0.03    -0.04   0.02   0.03
  39   1    -0.01   0.01  -0.05     0.01  -0.04   0.09    -0.02   0.08  -0.01
  40   1     0.01  -0.01   0.02    -0.00   0.07  -0.16    -0.04   0.14  -0.13
  41   1    -0.01  -0.01  -0.05     0.03   0.02   0.03     0.01  -0.02  -0.00
  42   1    -0.00   0.12   0.23     0.03  -0.03   0.01     0.01   0.01   0.01
  43   1     0.00   0.10   0.19    -0.05   0.03   0.06     0.02  -0.01   0.02
  44   1     0.01  -0.02  -0.04    -0.02  -0.03  -0.04    -0.01   0.01  -0.00
  45   1     0.00   0.00   0.01    -0.01   0.02   0.06    -0.00   0.00  -0.00
  46   1     0.01  -0.02  -0.04    -0.02  -0.02  -0.02    -0.00   0.00  -0.00
  47   1     0.00   0.07   0.18    -0.01   0.04   0.05    -0.02  -0.02   0.01
  48   1    -0.01  -0.00  -0.01     0.03   0.02   0.03    -0.01  -0.02   0.01
  49   1    -0.01  -0.01  -0.02     0.03   0.01  -0.05     0.01  -0.01   0.00
  50   1    -0.02   0.07   0.19     0.04   0.06   0.06    -0.01   0.01  -0.01
                     25                     26                     27
                        a                      a                      a 
 Frequencies --   419.2877               435.3722               453.5726
 Red. masses --    11.0279                10.5579                11.0293
 Frc consts  --     0.0000                 0.0000                 0.0000
 IR Inten    --     0.1899                 1.2601                 5.9924
 Raman Activ --     0.0000                 0.0000                 0.0000
 Depolar     --     0.0000                 0.0000                 0.0000
 Atom AN      X      Y      Z        X      Y      Z        X      Y      Z
   1   6     0.04   0.09  -0.06    -0.05  -0.25   0.04     0.01  -0.02   0.01
   2   6     0.06  -0.01   0.12    -0.08  -0.23  -0.11    -0.03  -0.14  -0.05
   3   6     0.03   0.06  -0.05    -0.14  -0.10  -0.18     0.02  -0.15  -0.09
   4   6    -0.06   0.03  -0.08     0.06  -0.17   0.24     0.09  -0.11  -0.02
   5   6    -0.03  -0.02   0.15     0.06  -0.09   0.15     0.14  -0.01   0.02
   6   6    -0.03   0.04   0.01     0.10  -0.07  -0.20     0.12   0.03  -0.01
   7   6     0.03  -0.01   0.12     0.04   0.10  -0.15     0.13   0.03  -0.02
   8   6    -0.00  -0.00   0.02     0.11   0.09   0.18     0.13  -0.00   0.01
   9   6    -0.04   0.04  -0.10    -0.09   0.23  -0.02    -0.01   0.03  -0.01
  10   6    -0.02  -0.07   0.10    -0.11   0.22   0.11    -0.04   0.13   0.07
  11   6    -0.01   0.01  -0.04    -0.14   0.09   0.19    -0.01   0.15   0.07
  12   6     0.03   0.04  -0.13     0.03   0.17  -0.23     0.08   0.11  -0.01
  13   7    -0.02   0.01  -0.24     0.08  -0.00  -0.00    -0.06  -0.01  -0.01
  14   6    -0.00  -0.18   0.09     0.09  -0.04  -0.01    -0.15   0.05  -0.04
  15   6    -0.08  -0.14   0.14     0.13  -0.06  -0.05    -0.37   0.10  -0.03
  16   6    -0.11   0.09  -0.08     0.12   0.03   0.03    -0.35   0.01  -0.01
  17   6     0.08   0.17  -0.17     0.05  -0.02  -0.03    -0.18   0.04  -0.03
  18   6     0.10   0.18  -0.11     0.05  -0.01  -0.01    -0.12   0.01  -0.01
  19   6     0.13  -0.06   0.13     0.07  -0.02   0.10    -0.14   0.07  -0.01
  20   6     0.06   0.15  -0.08     0.03   0.00  -0.00    -0.07  -0.01  -0.00
  21   6     0.10   0.17  -0.11    -0.02   0.00  -0.01     0.05  -0.01  -0.00
  22   6     0.07   0.11   0.00    -0.03   0.01   0.00     0.08  -0.01   0.01
  23   6     0.12   0.01  -0.03    -0.04   0.02  -0.01     0.08  -0.03   0.01
  24   6     0.02  -0.05  -0.01    -0.02   0.01  -0.01     0.03  -0.04   0.02
  25   6     0.04  -0.13   0.03    -0.07   0.03  -0.02     0.20  -0.10   0.05
  26   6     0.03  -0.18   0.07    -0.08  -0.04   0.02     0.21   0.12  -0.04
  27   6    -0.21  -0.13   0.08    -0.05  -0.06   0.03     0.14   0.15  -0.07
  28   6    -0.24  -0.17   0.04    -0.01  -0.01   0.00     0.02   0.01  -0.00
  29   6    -0.21  -0.11   0.05    -0.03   0.07  -0.03     0.07  -0.22   0.10
  30   6     0.05  -0.10   0.08    -0.05   0.06  -0.03     0.11  -0.19   0.08
  31   7     0.06   0.08   0.02     0.02   0.02   0.00    -0.08  -0.02   0.01
  32   6     0.05   0.09   0.01     0.01   0.01   0.00    -0.04  -0.01   0.01
  33   1     0.01   0.04  -0.06    -0.04  -0.05   0.02    -0.03   0.02   0.01
  34   1     0.01  -0.02   0.07    -0.01  -0.04  -0.08    -0.03  -0.04  -0.02
  35   1     0.01   0.05  -0.03    -0.05   0.00  -0.14     0.00  -0.06  -0.04
  36   1    -0.01   0.00  -0.02     0.02   0.03  -0.16     0.04   0.03  -0.01
  37   1     0.00  -0.01   0.00     0.04  -0.03   0.15     0.04  -0.02   0.01
  38   1    -0.01   0.03  -0.06    -0.05   0.04  -0.02    -0.03  -0.02  -0.01
  39   1    -0.00  -0.04   0.07    -0.01   0.04   0.07    -0.03   0.03   0.03
  40   1    -0.01   0.02  -0.01    -0.04   0.00   0.15    -0.01   0.06   0.04
  41   1    -0.06  -0.07   0.05     0.03  -0.01   0.01    -0.12   0.02  -0.01
  42   1    -0.11   0.06  -0.04     0.04   0.02   0.03    -0.11   0.01  -0.01
  43   1     0.11  -0.05   0.05     0.02  -0.00   0.03    -0.06   0.03  -0.00
  44   1     0.03   0.04  -0.04    -0.01   0.01  -0.01     0.03  -0.02   0.01
  45   1    -0.01   0.03   0.02    -0.01   0.00   0.00     0.01  -0.00   0.01
  46   1     0.04   0.01  -0.01    -0.01   0.00  -0.00     0.03  -0.00  -0.00
  47   1     0.02  -0.04   0.01    -0.03  -0.02   0.01     0.09   0.06  -0.02
  48   1    -0.07   0.00   0.02    -0.01  -0.02   0.01     0.03   0.07  -0.03
  49   1    -0.05  -0.06   0.00     0.02  -0.01   0.00    -0.06   0.02  -0.01
  50   1    -0.09  -0.06   0.03     0.00   0.03  -0.01    -0.01  -0.09   0.04
                     28                     29                     30
                        a                      a                      a 
 Frequencies --   472.5383               492.7643               500.5289
 Red. masses --    10.6692                11.3462                10.2678
 Frc consts  --     0.0000                 0.0000                 0.0000
 IR Inten    --     3.3832                 6.8714                 0.1751
 Raman Activ --     0.0000                 0.0000                 0.0000
 Depolar     --     0.0000                 0.0000                 0.0000
 Atom AN      X      Y      Z        X      Y      Z        X      Y      Z
   1   6     0.03  -0.00   0.05     0.03   0.05  -0.02    -0.03   0.02  -0.04
   2   6     0.02   0.02  -0.04     0.03  -0.01   0.03    -0.02  -0.02   0.05
   3   6     0.00   0.01   0.02     0.02   0.00  -0.03     0.01  -0.02  -0.04
   4   6    -0.04  -0.03   0.06    -0.03  -0.01  -0.05     0.07   0.03  -0.07
   5   6    -0.04   0.03  -0.01    -0.02   0.02   0.03     0.06  -0.03   0.00
   6   6    -0.03   0.01  -0.02    -0.00   0.02   0.03     0.04   0.00   0.03
   7   6     0.03   0.03  -0.01     0.01   0.03   0.03    -0.05  -0.03   0.01
   8   6     0.01   0.01  -0.03     0.00   0.03   0.03    -0.03  -0.00   0.04
   9   6    -0.02  -0.02   0.05    -0.04   0.05  -0.01     0.02   0.03  -0.06
  10   6    -0.02   0.01  -0.05    -0.02  -0.02   0.03     0.03  -0.02   0.06
  11   6     0.01   0.01   0.01    -0.03  -0.01  -0.03    -0.02  -0.02  -0.03
  12   6     0.05  -0.03   0.06     0.02  -0.01  -0.06    -0.08   0.02  -0.07
  13   7     0.00  -0.06   0.01     0.01  -0.07  -0.03    -0.00   0.05   0.04
  14   6    -0.01  -0.08  -0.23     0.01  -0.01  -0.03     0.00   0.07   0.22
  15   6    -0.01   0.05   0.07    -0.20   0.10  -0.01     0.00  -0.04  -0.08
  16   6    -0.01  -0.01   0.02    -0.21   0.11  -0.06    -0.01   0.03   0.01
  17   6     0.00  -0.14  -0.29    -0.00   0.15  -0.08    -0.00   0.07   0.10
  18   6     0.00   0.04   0.09     0.18   0.04  -0.01     0.00  -0.08  -0.20
  19   6     0.01   0.02  -0.01     0.19   0.11  -0.02    -0.01  -0.02  -0.02
  20   6     0.00   0.16   0.37     0.13  -0.11   0.04    -0.00  -0.07  -0.16
  21   6    -0.00  -0.02  -0.04     0.15  -0.20   0.07     0.01   0.14   0.34
  22   6    -0.00  -0.06  -0.13     0.08  -0.39   0.20     0.02  -0.19  -0.36
  23   6    -0.00   0.09   0.21    -0.01  -0.28   0.11    -0.00   0.10   0.29
  24   6     0.01  -0.13  -0.29    -0.04  -0.19   0.08    -0.01   0.06   0.17
  25   6     0.00  -0.03  -0.07    -0.16  -0.05   0.02    -0.00  -0.10  -0.21
  26   6     0.00  -0.05  -0.12    -0.23   0.03  -0.01    -0.01  -0.04  -0.12
  27   6    -0.00   0.10   0.23    -0.09   0.00  -0.01    -0.01   0.08   0.17
  28   6     0.01  -0.10  -0.23     0.10   0.20  -0.07     0.01  -0.07  -0.19
  29   6     0.00   0.05   0.10     0.11   0.18  -0.08     0.01   0.04   0.11
  30   6    -0.01   0.16   0.36    -0.02   0.13  -0.07     0.01  -0.00  -0.00
  31   7     0.00  -0.03  -0.06     0.01   0.13  -0.06    -0.01   0.06   0.11
  32   6     0.01  -0.04  -0.09     0.03   0.01   0.02    -0.00  -0.06  -0.15
  33   1     0.01  -0.01   0.02     0.01   0.02  -0.01    -0.02   0.01  -0.02
  34   1     0.00   0.01  -0.03     0.00  -0.01   0.02    -0.01  -0.02   0.04
  35   1     0.00   0.02   0.01     0.01   0.01   0.00    -0.00  -0.03  -0.01
  36   1    -0.01  -0.01  -0.02    -0.00  -0.01   0.01     0.02   0.01   0.03
  37   1     0.01  -0.00  -0.02     0.00  -0.00   0.01    -0.01   0.01   0.03
  38   1    -0.01  -0.01   0.03    -0.01   0.02  -0.01     0.01   0.02  -0.03
  39   1    -0.01   0.01  -0.03     0.01  -0.01   0.02     0.01  -0.02   0.04
  40   1    -0.00   0.02   0.01    -0.01   0.01   0.00     0.00  -0.03  -0.01
  41   1     0.00   0.06   0.10    -0.08   0.01  -0.00    -0.01  -0.05  -0.08
  42   1    -0.00   0.03   0.07    -0.08   0.04  -0.02    -0.01  -0.00  -0.02
  43   1    -0.00   0.04   0.05     0.07   0.02  -0.01     0.00  -0.02  -0.02
  44   1    -0.00  -0.03  -0.06     0.01  -0.03   0.00     0.00   0.08   0.18
  45   1    -0.00  -0.03  -0.06     0.01  -0.11   0.06     0.01  -0.11  -0.22
  46   1    -0.00   0.06   0.15     0.01  -0.05   0.01     0.00   0.03   0.08
  47   1     0.00  -0.05  -0.10    -0.06   0.01  -0.00    -0.00   0.00  -0.00
  48   1    -0.00   0.05   0.11    -0.01  -0.06   0.02    -0.00   0.06   0.14
  49   1     0.01  -0.07  -0.16     0.07   0.05  -0.01     0.00  -0.03  -0.07
  50   1     0.00  -0.00  -0.01     0.03   0.05  -0.03    -0.00   0.04   0.09
                     31                     32                     33
                        a                      a                      a 
 Frequencies --   512.2034               529.1909               538.0934
 Red. masses --    10.9372                 9.8455                11.1628
 Frc consts  --     0.0000                 0.0000                 0.0000
 IR Inten    --     0.8782                 0.6166                 0.2967
 Raman Activ --     0.0000                 0.0000                 0.0000
 Depolar     --     0.0000                 0.0000                 0.0000
 Atom AN      X      Y      Z        X      Y      Z        X      Y      Z
   1   6     0.11   0.24   0.14    -0.03   0.12  -0.30     0.09  -0.03   0.19
   2   6     0.03  -0.04  -0.06     0.02  -0.15   0.32     0.05   0.04  -0.19
   3   6     0.22  -0.22  -0.10    -0.02   0.09  -0.23    -0.00  -0.05   0.13
   4   6     0.21  -0.18  -0.05     0.01   0.02  -0.06    -0.11  -0.11   0.18
   5   6     0.22   0.07   0.01     0.03  -0.10   0.25    -0.09   0.06   0.05
   6   6     0.16   0.26   0.06     0.02  -0.08   0.20    -0.04   0.06  -0.11
   7   6    -0.22   0.03   0.03    -0.02   0.10  -0.26     0.09   0.08   0.03
   8   6    -0.19   0.23   0.08    -0.01   0.08  -0.19     0.02   0.07  -0.13
   9   6    -0.13   0.23   0.14     0.01  -0.11   0.29    -0.06  -0.05   0.22
  10   6    -0.03  -0.04  -0.05    -0.02   0.15  -0.30    -0.07   0.04  -0.20
  11   6    -0.20  -0.25  -0.09     0.00  -0.09   0.21     0.02  -0.05   0.13
  12   6    -0.19  -0.21  -0.04     0.00  -0.02   0.05     0.13  -0.10   0.18
  13   7     0.01  -0.12  -0.07     0.00  -0.01   0.03    -0.02  -0.02  -0.41
  14   6     0.00  -0.00  -0.00     0.01   0.00  -0.00    -0.00  -0.08  -0.18
  15   6     0.01  -0.02  -0.01    -0.00  -0.01  -0.03    -0.00   0.07   0.18
  16   6     0.01  -0.02   0.03     0.00   0.00   0.01    -0.01  -0.06  -0.13
  17   6     0.00  -0.03  -0.01    -0.00  -0.00  -0.00     0.00   0.02   0.03
  18   6     0.00  -0.00   0.01     0.00  -0.00  -0.00     0.00   0.02   0.04
  19   6     0.00  -0.01  -0.01     0.00   0.01   0.02    -0.00   0.06   0.14
  20   6     0.00   0.02   0.04     0.01  -0.00  -0.00     0.01  -0.11  -0.26
  21   6    -0.02  -0.00  -0.04    -0.00   0.00   0.00     0.00   0.05   0.10
  22   6    -0.02   0.04   0.01    -0.00  -0.00  -0.00     0.00  -0.04  -0.07
  23   6    -0.01   0.02  -0.03    -0.00   0.00  -0.00     0.00   0.00   0.03
  24   6     0.01   0.01  -0.03     0.00   0.00   0.00     0.00   0.06   0.15
  25   6     0.01   0.02   0.01     0.00   0.00  -0.00     0.00  -0.03  -0.06
  26   6     0.02  -0.01   0.01     0.00  -0.00   0.00    -0.00  -0.02  -0.02
  27   6     0.00  -0.01  -0.00    -0.00  -0.00   0.00    -0.01  -0.00   0.01
  28   6    -0.01  -0.02   0.02    -0.00  -0.00   0.00    -0.00  -0.00  -0.02
  29   6    -0.02  -0.01  -0.00    -0.00   0.00  -0.00    -0.00   0.01  -0.00
  30   6    -0.01   0.00   0.01    -0.00   0.00  -0.00     0.01  -0.03  -0.09
  31   7     0.00  -0.02  -0.02    -0.00   0.00   0.00     0.00   0.08   0.16
  32   6     0.01   0.01   0.01     0.00   0.00  -0.00     0.01  -0.01  -0.05
  33   1    -0.00   0.09   0.06    -0.02   0.09  -0.21     0.03  -0.02   0.07
  34   1    -0.08  -0.03  -0.03     0.01  -0.07   0.15    -0.00   0.05  -0.13
  35   1     0.06  -0.09  -0.04    -0.01   0.05  -0.12     0.01   0.04   0.02
  36   1     0.06   0.11   0.02     0.01  -0.01   0.04    -0.03   0.00  -0.10
  37   1    -0.07   0.10   0.03    -0.00   0.01  -0.03     0.02   0.01  -0.11
  38   1    -0.00   0.10   0.06     0.01  -0.09   0.21    -0.02  -0.03   0.09
  39   1     0.08  -0.02  -0.03    -0.01   0.07  -0.14    -0.02   0.05  -0.14
  40   1    -0.05  -0.10  -0.04     0.00  -0.06   0.12    -0.01   0.04   0.02
  41   1     0.01  -0.00  -0.00    -0.00   0.00   0.01    -0.00   0.03   0.07
  42   1     0.01  -0.00   0.01     0.00   0.00   0.01    -0.01  -0.02  -0.05
  43   1    -0.00  -0.00  -0.00    -0.00   0.00   0.00    -0.00   0.01   0.03
  44   1    -0.00  -0.01  -0.02    -0.00   0.00   0.00    -0.00   0.05   0.09
  45   1    -0.00   0.02   0.01    -0.00  -0.00  -0.00    -0.00  -0.02  -0.03
  46   1    -0.00   0.00  -0.00    -0.00  -0.00   0.00     0.00  -0.01  -0.01
  47   1     0.00  -0.01  -0.00    -0.00  -0.00   0.00    -0.00   0.01   0.02
  48   1    -0.00  -0.00  -0.01    -0.00   0.00   0.00    -0.00   0.01   0.03
  49   1    -0.00  -0.01   0.00     0.00  -0.00   0.00     0.00   0.01   0.02
  50   1    -0.00  -0.00  -0.01    -0.00   0.00   0.00    -0.00   0.02   0.04
                     34                     35                     36
                        a                      a                      a 
 Frequencies --   550.9618               557.8699               565.6241
 Red. masses --    10.9895                11.4742                11.2434
 Frc consts  --     0.0000                 0.0000                 0.0000
 IR Inten    --     0.9788                 5.0166                 2.0182
 Raman Activ --     0.0000                 0.0000                 0.0000
 Depolar     --     0.0000                 0.0000                 0.0000
 Atom AN      X      Y      Z        X      Y      Z        X      Y      Z
   1   6    -0.00  -0.01   0.01    -0.08  -0.10   0.09    -0.04   0.00   0.05
   2   6    -0.00   0.01  -0.01    -0.07   0.09  -0.07    -0.03   0.04  -0.02
   3   6    -0.00  -0.00   0.02     0.01  -0.03   0.09     0.08  -0.06   0.00
   4   6     0.01  -0.00   0.02     0.14   0.02   0.10     0.09  -0.04   0.01
   5   6     0.00  -0.00  -0.00     0.11  -0.10  -0.01     0.09  -0.08  -0.02
   6   6     0.00  -0.00  -0.01     0.04   0.00  -0.09     0.01   0.03  -0.02
   7   6    -0.00  -0.00  -0.00    -0.08  -0.10  -0.02    -0.02  -0.09  -0.03
   8   6    -0.00  -0.00  -0.01    -0.03  -0.01  -0.10     0.02  -0.06  -0.05
   9   6     0.01  -0.01   0.01     0.11  -0.10   0.09     0.12  -0.09  -0.01
  10   6     0.00   0.01  -0.02     0.05   0.12  -0.08     0.05   0.12   0.02
  11   6     0.01  -0.00   0.02     0.00  -0.01   0.11     0.03   0.08   0.06
  12   6    -0.00  -0.00   0.02    -0.13   0.02   0.12    -0.10   0.08   0.06
  13   7    -0.01   0.02  -0.04    -0.05   0.27  -0.25    -0.13   0.12  -0.04
  14   6    -0.00   0.01   0.04    -0.02  -0.01   0.28    -0.17   0.11  -0.03
  15   6     0.00  -0.03  -0.04     0.11  -0.19  -0.06    -0.17  -0.00  -0.03
  16   6     0.00   0.03   0.04     0.07   0.15   0.03    -0.13  -0.31   0.16
  17   6    -0.00   0.06   0.12     0.02   0.09  -0.06    -0.00  -0.20   0.10
  18   6    -0.01   0.04   0.08    -0.12   0.03  -0.11     0.01  -0.10   0.02
  19   6    -0.00  -0.01  -0.01    -0.15  -0.19  -0.02    -0.07   0.11  -0.08
  20   6    -0.00  -0.04  -0.10    -0.12   0.14   0.12     0.21   0.15  -0.04
  21   6     0.01  -0.05  -0.12     0.12   0.08  -0.07     0.01   0.18  -0.08
  22   6     0.00   0.09   0.22     0.10  -0.05   0.04    -0.10  -0.01   0.00
  23   6     0.01  -0.10  -0.21     0.11  -0.11   0.07     0.06  -0.14   0.07
  24   6    -0.01   0.15   0.35    -0.11  -0.17  -0.07     0.23  -0.07   0.03
  25   6    -0.00  -0.02  -0.03    -0.07  -0.12   0.08     0.02   0.05  -0.02
  26   6    -0.00  -0.09  -0.22    -0.13   0.06   0.01     0.02  -0.15   0.07
  27   6    -0.01   0.13   0.29    -0.06   0.04  -0.05    -0.14  -0.14   0.05
  28   6     0.01  -0.13  -0.31     0.07   0.16  -0.03    -0.08  -0.04   0.02
  29   6    -0.00   0.10   0.23     0.12  -0.04  -0.01    -0.13   0.21  -0.10
  30   6     0.00   0.03   0.06     0.08  -0.02   0.06    -0.00   0.16  -0.07
  31   7     0.01  -0.17  -0.40     0.01   0.02  -0.08     0.09   0.04  -0.03
  32   6    -0.01   0.05   0.12    -0.08   0.03   0.02     0.25   0.07  -0.03
  33   1    -0.00  -0.00   0.00    -0.02  -0.03   0.03    -0.01  -0.00   0.02
  34   1     0.00   0.01  -0.01    -0.01   0.05  -0.07    -0.03   0.01  -0.02
  35   1    -0.00  -0.00  -0.00    -0.01  -0.04  -0.02     0.01  -0.04  -0.02
  36   1     0.00   0.00  -0.01     0.02   0.06  -0.05     0.01   0.04  -0.01
  37   1    -0.00   0.00  -0.01    -0.03   0.05  -0.05    -0.01   0.02  -0.01
  38   1     0.00  -0.00   0.01     0.03  -0.04   0.03     0.02  -0.04  -0.01
  39   1    -0.00   0.01  -0.01    -0.01   0.06  -0.07    -0.02   0.05  -0.00
  40   1     0.00  -0.00  -0.00     0.02  -0.03  -0.01     0.02  -0.00   0.00
  41   1    -0.00  -0.02  -0.04    -0.00  -0.10  -0.05     0.01   0.04  -0.03
  42   1    -0.00  -0.01  -0.02    -0.02   0.05  -0.01    -0.01  -0.10   0.05
  43   1     0.00  -0.02  -0.04    -0.01  -0.08  -0.02    -0.05   0.05  -0.02
  44   1     0.00  -0.03  -0.07     0.05  -0.00  -0.05    -0.05   0.10  -0.05
  45   1    -0.00   0.03   0.07    -0.02  -0.02   0.01    -0.08  -0.01   0.00
  46   1     0.00  -0.07  -0.17     0.04   0.01   0.02    -0.01  -0.10   0.04
  47   1     0.00  -0.03  -0.08    -0.01   0.03  -0.02    -0.00  -0.05   0.02
  48   1    -0.00   0.07   0.17    -0.00  -0.04  -0.02    -0.05  -0.02   0.00
  49   1     0.00  -0.06  -0.14     0.01   0.04  -0.02     0.05  -0.03   0.02
  50   1    -0.00   0.04   0.10     0.01  -0.04  -0.01    -0.03   0.07  -0.03
                     37                     38                     39
                        a                      a                      a 
 Frequencies --   581.8901               585.2568               615.0886
 Red. masses --    11.4036                11.3966                11.4716
 Frc consts  --     0.0000                 0.0000                 0.0000
 IR Inten    --     0.6292                 5.2807                 0.8834
 Raman Activ --     0.0000                 0.0000                 0.0000
 Depolar     --     0.0000                 0.0000                 0.0000
 Atom AN      X      Y      Z        X      Y      Z        X      Y      Z
   1   6    -0.12  -0.02   0.05    -0.03   0.12  -0.01    -0.10  -0.10  -0.06
   2   6    -0.03   0.29   0.08     0.03   0.15   0.12    -0.08   0.03   0.04
   3   6     0.18   0.07   0.06     0.23  -0.01  -0.08    -0.09   0.08   0.02
   4   6     0.11   0.01   0.01     0.03  -0.09  -0.06     0.14   0.13   0.04
   5   6    -0.00  -0.24  -0.08    -0.02  -0.15  -0.09     0.13  -0.01  -0.04
   6   6    -0.24  -0.06  -0.04    -0.23  -0.00   0.06     0.17  -0.04  -0.01
   7   6    -0.00  -0.24  -0.07     0.05  -0.15  -0.10    -0.14  -0.03  -0.01
   8   6     0.23   0.04  -0.04     0.23  -0.01   0.03    -0.15  -0.01   0.02
   9   6     0.07   0.06   0.07     0.05   0.08  -0.04     0.05  -0.02  -0.03
  10   6    -0.02   0.24   0.05    -0.02   0.18   0.14     0.06  -0.03   0.00
  11   6    -0.24  -0.06   0.03    -0.18   0.03  -0.04     0.02  -0.01  -0.05
  12   6    -0.09  -0.09  -0.00    -0.04  -0.04  -0.04    -0.12   0.02   0.02
  13   7     0.07   0.08  -0.14    -0.04  -0.13   0.18     0.08   0.13   0.13
  14   6     0.10  -0.00   0.06    -0.07  -0.11  -0.26     0.09  -0.12  -0.28
  15   6    -0.07   0.04  -0.05     0.10  -0.04   0.13     0.04   0.04   0.05
  16   6    -0.10   0.08  -0.02     0.11  -0.06  -0.06     0.02  -0.00  -0.05
  17   6    -0.05   0.05  -0.02     0.05  -0.03  -0.03    -0.09  -0.10  -0.13
  18   6     0.14  -0.06  -0.00    -0.13   0.14   0.10    -0.05  -0.04   0.30
  19   6     0.16  -0.02  -0.01    -0.12   0.01   0.06    -0.06  -0.14   0.07
  20   6     0.11  -0.12   0.09    -0.14   0.04  -0.18     0.11  -0.04  -0.14
  21   6    -0.05  -0.19   0.08     0.04   0.16  -0.06     0.13   0.00  -0.01
  22   6    -0.03  -0.07   0.03     0.04   0.09  -0.04     0.04  -0.17   0.08
  23   6    -0.17   0.11  -0.05     0.16  -0.08   0.01    -0.16   0.02  -0.04
  24   6     0.00   0.12  -0.08    -0.05  -0.08   0.14    -0.16   0.06   0.08
  25   6     0.09   0.09  -0.03    -0.10  -0.10   0.03     0.12  -0.12   0.07
  26   6     0.16  -0.01   0.01    -0.18   0.03  -0.04     0.13  -0.09   0.01
  27   6     0.08  -0.01   0.00    -0.06   0.04   0.00    -0.11  -0.01   0.02
  28   6    -0.07  -0.13   0.06     0.09   0.13  -0.08    -0.06   0.04  -0.04
  29   6    -0.09  -0.03   0.01     0.12  -0.01   0.02    -0.02   0.01   0.01
  30   6    -0.04  -0.01   0.01     0.04  -0.04  -0.03     0.16  -0.04  -0.05
  31   7    -0.06   0.03  -0.03     0.05  -0.01   0.11    -0.03   0.29   0.02
  32   6    -0.01   0.03  -0.00    -0.04  -0.06  -0.02    -0.07   0.20  -0.17
  33   1     0.03  -0.06  -0.01     0.04  -0.01  -0.02    -0.04  -0.02  -0.01
  34   1    -0.02   0.09   0.01    -0.04   0.02   0.05     0.02   0.02   0.02
  35   1     0.04  -0.02  -0.01     0.06  -0.03  -0.02    -0.04  -0.03  -0.00
  36   1    -0.06   0.03  -0.01    -0.06   0.01   0.04     0.06   0.03   0.02
  37   1     0.05   0.05  -0.01     0.06   0.01   0.03    -0.06   0.03   0.02
  38   1    -0.03  -0.04   0.00    -0.03  -0.03  -0.03     0.04   0.02   0.00
  39   1     0.03   0.07  -0.01     0.02   0.04   0.06     0.01  -0.01   0.01
  40   1    -0.05  -0.05  -0.02    -0.04  -0.01  -0.00     0.02  -0.04  -0.01
  41   1    -0.05  -0.02  -0.02     0.05   0.04   0.11     0.00   0.05   0.11
  42   1    -0.03   0.02  -0.01     0.02   0.00   0.02     0.03   0.02   0.06
  43   1     0.05  -0.01  -0.01    -0.03   0.02   0.05    -0.06  -0.00   0.05
  44   1    -0.03  -0.05   0.01     0.03   0.04   0.03    -0.00   0.06   0.03
  45   1     0.06  -0.01   0.00    -0.04   0.02   0.00     0.02  -0.04   0.04
  46   1    -0.05   0.04  -0.01     0.04  -0.02  -0.00    -0.02   0.06  -0.03
  47   1     0.03  -0.01   0.01    -0.04   0.03  -0.00     0.08   0.02  -0.00
  48   1     0.01   0.04  -0.02    -0.00  -0.03   0.04    -0.04   0.03   0.01
  49   1    -0.03  -0.04   0.01     0.02   0.04  -0.01    -0.00   0.01   0.00
  50   1    -0.01   0.00  -0.01     0.02  -0.01   0.03    -0.04  -0.03   0.04
                     40                     41                     42
                        a                      a                      a 
 Frequencies --   620.8708               624.6948               653.4856
 Red. masses --    11.3223                11.3161                11.7245
 Frc consts  --     0.0000                 0.0000                 0.0000
 IR Inten    --     0.6823                 6.9630                 0.8310
 Raman Activ --     0.0000                 0.0000                 0.0000
 Depolar     --     0.0000                 0.0000                 0.0000
 Atom AN      X      Y      Z        X      Y      Z        X      Y      Z
   1   6     0.06   0.09   0.04     0.06   0.06  -0.00     0.06   0.05   0.02
   2   6     0.03  -0.07  -0.04     0.06  -0.00   0.01     0.05  -0.04  -0.02
   3   6     0.09  -0.11  -0.05     0.03   0.00  -0.01     0.03  -0.04  -0.00
   4   6    -0.04  -0.11  -0.04    -0.12  -0.07  -0.00    -0.08  -0.06  -0.02
   5   6     0.00  -0.00   0.02    -0.14   0.03  -0.00    -0.09   0.02   0.01
   6   6    -0.03   0.07   0.02    -0.15  -0.01   0.03    -0.10   0.01   0.02
   7   6    -0.00   0.00  -0.01     0.14   0.05  -0.00     0.08   0.03   0.00
   8   6    -0.03  -0.07  -0.03     0.18   0.06   0.03     0.09   0.01   0.00
   9   6     0.07  -0.09  -0.04    -0.12   0.11   0.04    -0.05   0.02   0.01
  10   6     0.03   0.08   0.03    -0.08  -0.06  -0.00    -0.03  -0.03  -0.01
  11   6     0.08   0.12   0.06    -0.08  -0.08  -0.03    -0.01  -0.01   0.00
  12   6    -0.05   0.11   0.04     0.16  -0.12  -0.04     0.08  -0.03  -0.01
  13   7    -0.18  -0.01  -0.00     0.07  -0.16  -0.02    -0.02  -0.05  -0.05
  14   6    -0.19   0.00   0.01     0.05   0.14   0.13    -0.01   0.17   0.35
  15   6     0.02  -0.15   0.05     0.07   0.12  -0.06     0.02  -0.04  -0.20
  16   6     0.03  -0.14   0.07     0.08  -0.08   0.03     0.03   0.08   0.17
  17   6     0.24   0.03  -0.00    -0.09  -0.05   0.23    -0.01  -0.19  -0.39
  18   6     0.05   0.09  -0.06    -0.10  -0.28  -0.15    -0.03   0.12   0.33
  19   6     0.04   0.16  -0.06    -0.14  -0.03   0.02    -0.04  -0.06  -0.21
  20   6    -0.15  -0.18   0.08     0.07   0.13   0.07     0.01   0.01  -0.00
  21   6    -0.04  -0.26   0.12     0.13   0.12  -0.04     0.01  -0.02  -0.07
  22   6     0.05   0.01  -0.00     0.03  -0.10   0.04     0.00  -0.02   0.03
  23   6    -0.15   0.23  -0.10    -0.10   0.01   0.02    -0.01  -0.04  -0.06
  24   6    -0.22   0.10  -0.06    -0.16  -0.05  -0.07     0.00   0.02   0.05
  25   6     0.09  -0.08   0.04     0.10  -0.16   0.06     0.02   0.09   0.20
  26   6     0.10  -0.12   0.06     0.08  -0.07   0.06     0.03  -0.06  -0.10
  27   6    -0.18  -0.06   0.02    -0.15  -0.02  -0.01    -0.01   0.03   0.08
  28   6    -0.03   0.13  -0.06    -0.03   0.10  -0.02    -0.01  -0.04  -0.08
  29   6    -0.00   0.14  -0.06     0.02   0.00  -0.01    -0.02   0.05   0.06
  30   6     0.24   0.05  -0.01     0.19   0.00   0.07     0.02  -0.09  -0.25
  31   7     0.22   0.05  -0.02    -0.00   0.17  -0.22    -0.01   0.13   0.25
  32   6    -0.19  -0.03   0.02    -0.06   0.25  -0.04     0.01  -0.06  -0.18
  33   1     0.01   0.03   0.01     0.04  -0.00  -0.01     0.02   0.01  -0.00
  34   1    -0.04  -0.03  -0.02     0.00  -0.00   0.00    -0.01  -0.01  -0.01
  35   1     0.03  -0.02  -0.01     0.02   0.04   0.00     0.01   0.02  -0.01
  36   1    -0.01   0.01  -0.00    -0.05  -0.05  -0.01    -0.04  -0.03  -0.01
  37   1    -0.01  -0.01   0.00     0.07  -0.04  -0.01     0.04  -0.02  -0.01
  38   1     0.02  -0.03  -0.01    -0.05   0.01   0.00    -0.02  -0.00  -0.00
  39   1    -0.04   0.03   0.01     0.02  -0.02  -0.01     0.00  -0.01  -0.01
  40   1     0.03   0.02   0.01    -0.04   0.02  -0.00    -0.01   0.02  -0.00
  41   1     0.05  -0.01  -0.00     0.04   0.01  -0.10     0.01  -0.01  -0.07
  42   1    -0.04  -0.02   0.00     0.09  -0.07  -0.02     0.02   0.01   0.03
  43   1     0.06   0.02  -0.01    -0.11   0.02  -0.02    -0.02  -0.03  -0.09
  44   1     0.03  -0.12   0.05     0.00   0.04  -0.07    -0.00   0.04   0.06
  45   1     0.11   0.02  -0.01    -0.01  -0.04  -0.01    -0.00   0.02   0.05
  46   1    -0.02   0.12  -0.05    -0.01   0.05  -0.03    -0.00   0.02   0.06
  47   1     0.07   0.00  -0.00     0.07   0.02  -0.01     0.01  -0.01  -0.02
  48   1    -0.05  -0.01   0.00    -0.04  -0.01  -0.02    -0.01   0.03   0.04
  49   1     0.05   0.02  -0.01     0.01   0.02  -0.02     0.00   0.00   0.02
  50   1    -0.04   0.00  -0.00    -0.04  -0.05  -0.00    -0.01   0.03   0.05
                     43                     44                     45
                        a                      a                      a 
 Frequencies --   665.4857               667.6214               670.4043
 Red. masses --    11.5922                11.5007                11.3394
 Frc consts  --     0.0000                 0.0000                 0.0000
 IR Inten    --     6.0578                 4.7734                 5.8638
 Raman Activ --     0.0000                 0.0000                 0.0000
 Depolar     --     0.0000                 0.0000                 0.0000
 Atom AN      X      Y      Z        X      Y      Z        X      Y      Z
   1   6     0.06   0.10  -0.02    -0.03  -0.10   0.07     0.09   0.05   0.14
   2   6     0.05  -0.08   0.03    -0.03   0.09  -0.09     0.04  -0.02  -0.17
   3   6     0.05  -0.06  -0.08    -0.04   0.03   0.13     0.09  -0.16   0.05
   4   6    -0.05  -0.13   0.09     0.00   0.16  -0.22    -0.09   0.02  -0.34
   5   6    -0.06   0.04  -0.08     0.02  -0.06   0.18    -0.05  -0.10   0.26
   6   6    -0.07   0.01   0.09     0.03   0.02  -0.14    -0.11   0.10  -0.13
   7   6    -0.01   0.05  -0.11     0.05  -0.07   0.21    -0.01  -0.06   0.18
   8   6    -0.00  -0.06   0.06     0.04   0.09  -0.12    -0.06   0.01  -0.15
   9   6     0.02  -0.01  -0.08    -0.04   0.01   0.13     0.06  -0.10   0.05
  10   6     0.01   0.00   0.08    -0.03  -0.00  -0.14     0.02   0.11  -0.09
  11   6     0.03   0.09  -0.03    -0.03  -0.12   0.07     0.06   0.06   0.12
  12   6    -0.00  -0.02   0.15     0.03   0.05  -0.27    -0.05   0.18  -0.23
  13   7    -0.08  -0.01  -0.05     0.08  -0.03   0.10    -0.09  -0.08   0.22
  14   6    -0.04   0.02   0.10     0.04   0.08   0.09    -0.04  -0.05  -0.05
  15   6     0.09  -0.03  -0.06    -0.09  -0.02  -0.10     0.14   0.01   0.02
  16   6     0.09   0.19  -0.01    -0.08  -0.14   0.15     0.14   0.18  -0.14
  17   6    -0.03  -0.00  -0.19     0.02  -0.15  -0.12    -0.04   0.11   0.04
  18   6    -0.09   0.10   0.23     0.07   0.08   0.21    -0.10  -0.04  -0.05
  19   6    -0.12  -0.09  -0.03     0.11   0.05  -0.11    -0.14  -0.09   0.05
  20   6     0.00  -0.10  -0.25     0.01  -0.07  -0.16     0.02   0.04   0.03
  21   6     0.04  -0.00   0.06    -0.04   0.05   0.01     0.07  -0.01   0.00
  22   6     0.02  -0.15   0.03    -0.02   0.13  -0.07     0.03  -0.18   0.08
  23   6    -0.02  -0.05   0.09     0.01   0.09  -0.01    -0.03  -0.10   0.04
  24   6     0.05   0.03   0.04    -0.05   0.02   0.07     0.04  -0.00  -0.02
  25   6     0.06  -0.07  -0.37    -0.04  -0.20  -0.22     0.05   0.12   0.02
  26   6     0.13   0.05   0.14    -0.12   0.04   0.09     0.13  -0.00  -0.02
  27   6     0.07  -0.05  -0.10    -0.08  -0.04  -0.08     0.11   0.02   0.02
  28   6    -0.05  -0.04   0.16     0.04   0.14   0.05    -0.05  -0.13   0.03
  29   6    -0.09   0.03  -0.14     0.10  -0.11  -0.05    -0.11   0.07  -0.01
  30   6    -0.06   0.21   0.31     0.05   0.04   0.27    -0.07   0.04  -0.08
  31   7    -0.03  -0.04  -0.14     0.03  -0.04  -0.06    -0.06   0.04  -0.01
  32   6     0.02   0.09   0.18    -0.02   0.04   0.09     0.02   0.03  -0.03
  33   1     0.02   0.04  -0.03    -0.00  -0.05   0.06     0.03  -0.01   0.09
  34   1    -0.03  -0.02  -0.02     0.03   0.01   0.02    -0.03  -0.05   0.01
  35   1     0.01   0.01  -0.05    -0.01  -0.02   0.08     0.04  -0.06   0.08
  36   1    -0.03  -0.01  -0.00     0.01  -0.00  -0.00    -0.04  -0.01  -0.01
  37   1    -0.00  -0.01   0.01     0.02  -0.00  -0.02    -0.02  -0.01   0.01
  38   1     0.00   0.00  -0.04    -0.01  -0.01   0.07     0.02  -0.05   0.07
  39   1    -0.02   0.01   0.01     0.02  -0.02  -0.00    -0.03   0.01   0.05
  40   1     0.01   0.04  -0.03    -0.01  -0.05   0.07     0.02  -0.03   0.10
  41   1     0.01  -0.01   0.00    -0.01   0.02   0.00     0.02   0.01   0.05
  42   1     0.02   0.06  -0.00    -0.01  -0.05   0.04     0.03   0.06  -0.02
  43   1    -0.04  -0.04  -0.04     0.03   0.01  -0.03    -0.04  -0.01   0.04
  44   1     0.00   0.01   0.02    -0.00   0.01   0.02     0.00   0.01  -0.01
  45   1    -0.00  -0.05  -0.00    -0.00   0.03  -0.03    -0.00  -0.05   0.02
  46   1    -0.00  -0.04  -0.04     0.00   0.01  -0.04    -0.01  -0.02   0.02
  47   1     0.03   0.00   0.04    -0.02   0.03   0.02     0.02  -0.02  -0.00
  48   1     0.01   0.02  -0.06    -0.01  -0.05  -0.01     0.02   0.05  -0.02
  49   1    -0.00  -0.03  -0.00     0.00   0.03  -0.02    -0.01  -0.03   0.01
  50   1    -0.00   0.01  -0.09     0.00  -0.07  -0.03     0.00   0.05  -0.01
                     46                     47                     48
                        a                      a                      a 
 Frequencies --   680.6131               684.0977               704.9392
 Red. masses --    11.8251                11.1209                11.4992
 Frc consts  --     0.0000                 0.0000                 0.0000
 IR Inten    --     0.1908                 1.2141                 0.3735
 Raman Activ --     0.0000                 0.0000                 0.0000
 Depolar     --     0.0000                 0.0000                 0.0000
 Atom AN      X      Y      Z        X      Y      Z        X      Y      Z
   1   6    -0.01  -0.02  -0.01    -0.07  -0.09  -0.05     0.00   0.08  -0.13
   2   6    -0.01   0.02   0.01    -0.04   0.08   0.04     0.02  -0.07   0.09
   3   6    -0.02   0.02   0.01    -0.10   0.12   0.05    -0.01   0.05  -0.16
   4   6     0.01   0.02   0.00     0.04   0.10   0.04     0.02  -0.18   0.36
   5   6     0.01   0.00  -0.01     0.06   0.02  -0.04    -0.03   0.17  -0.43
   6   6     0.02  -0.01  -0.01     0.13  -0.04  -0.03    -0.01  -0.03   0.10
   7   6     0.01  -0.01   0.02     0.09  -0.02   0.08     0.04  -0.18   0.45
   8   6     0.02   0.01  -0.01     0.15   0.08  -0.01    -0.02   0.03  -0.11
   9   6    -0.01   0.01   0.02    -0.09   0.09   0.07     0.02  -0.07   0.13
  10   6    -0.01  -0.01  -0.01    -0.04  -0.09  -0.07    -0.00   0.07  -0.10
  11   6    -0.01  -0.03  -0.00    -0.09  -0.15  -0.04     0.01  -0.05   0.16
  12   6     0.01  -0.01  -0.03     0.07  -0.09  -0.11    -0.04   0.18  -0.37
  13   7     0.01  -0.00   0.01     0.08  -0.01   0.04    -0.02  -0.00   0.00
  14   6     0.00  -0.00  -0.01    -0.00  -0.02  -0.01    -0.04  -0.00   0.00
  15   6    -0.02  -0.01  -0.02    -0.07   0.02   0.01     0.03  -0.02   0.01
  16   6    -0.02   0.01   0.03    -0.06   0.12  -0.07     0.03  -0.00  -0.00
  17   6     0.00   0.00  -0.01     0.02   0.10  -0.03     0.01   0.00   0.00
  18   6    -0.02   0.06   0.12    -0.19   0.03  -0.04     0.01   0.01  -0.01
  19   6    -0.02  -0.00   0.01    -0.22  -0.10   0.04     0.01   0.01  -0.01
  20   6    -0.02  -0.16  -0.34    -0.24  -0.05   0.07     0.02   0.01  -0.00
  21   6    -0.02   0.06   0.16    -0.10  -0.11   0.02     0.03   0.01  -0.00
  22   6     0.00  -0.04  -0.15     0.01   0.07  -0.01     0.00  -0.04   0.02
  23   6     0.02   0.06   0.15     0.17  -0.09   0.02    -0.03   0.00  -0.00
  24   6     0.02  -0.19  -0.42     0.10  -0.02   0.07    -0.01   0.01  -0.00
  25   6     0.01   0.13   0.30     0.15   0.02  -0.04    -0.01   0.02  -0.01
  26   6     0.02  -0.04  -0.04     0.25  -0.15   0.08    -0.01   0.02  -0.01
  27   6    -0.02   0.03   0.10    -0.10  -0.08   0.02     0.03   0.01  -0.00
  28   6     0.00  -0.01  -0.07    -0.02   0.08  -0.03    -0.01  -0.03   0.02
  29   6    -0.01   0.09   0.10    -0.10   0.33  -0.16    -0.01  -0.03   0.01
  30   6     0.02  -0.07  -0.20     0.10   0.18  -0.06    -0.02  -0.01   0.00
  31   7     0.02  -0.08  -0.15     0.11  -0.09   0.06    -0.01   0.02  -0.01
  32   6    -0.01   0.20   0.51    -0.01  -0.21   0.01     0.00   0.02  -0.01
  33   1    -0.00  -0.01   0.00    -0.02  -0.03   0.01     0.01  -0.02   0.06
  34   1     0.01   0.01   0.01     0.04   0.03   0.03    -0.00  -0.04   0.06
  35   1    -0.01   0.00   0.00    -0.03   0.01   0.02     0.01   0.00  -0.00
  36   1     0.01   0.00   0.01     0.04   0.01   0.02     0.00  -0.05   0.12
  37   1     0.01   0.00  -0.00     0.05  -0.01  -0.02    -0.01   0.05  -0.11
  38   1    -0.00   0.00   0.00    -0.03   0.02   0.02    -0.00   0.01  -0.05
  39   1     0.01  -0.01  -0.00     0.05  -0.04  -0.02    -0.01   0.03  -0.05
  40   1    -0.00  -0.01   0.00    -0.03  -0.03   0.00     0.01  -0.00   0.01
  41   1    -0.01   0.00   0.01    -0.05  -0.02   0.01     0.02   0.00   0.01
  42   1    -0.01   0.00   0.00    -0.06   0.05  -0.02     0.01   0.00   0.00
  43   1    -0.01  -0.01  -0.02    -0.08  -0.01   0.02     0.01  -0.00  -0.00
  44   1     0.00  -0.01   0.01     0.02  -0.08   0.03    -0.00   0.01  -0.01
  45   1    -0.00   0.01   0.00    -0.01   0.01  -0.01     0.00  -0.01   0.00
  46   1     0.00   0.01   0.04     0.03  -0.06   0.02    -0.00   0.01  -0.00
  47   1     0.01  -0.04  -0.09     0.09  -0.02   0.02    -0.01  -0.00  -0.00
  48   1    -0.00  -0.02  -0.05    -0.04   0.03  -0.01     0.01   0.01  -0.00
  49   1     0.01  -0.03  -0.06     0.10   0.00   0.01    -0.02  -0.01   0.00
  50   1    -0.00   0.00  -0.02    -0.02   0.11  -0.04     0.00  -0.00   0.00
                     49                     50                     51
                        a                      a                      a 
 Frequencies --   735.5640               739.8955               750.7875
 Red. masses --     3.1997                11.1381                 3.4424
 Frc consts  --     0.0000                 0.0000                 0.0000
 IR Inten    --    19.2910                 2.3167                31.3228
 Raman Activ --     0.0000                 0.0000                 0.0000
 Depolar     --     0.0000                 0.0000                 0.0000
 Atom AN      X      Y      Z        X      Y      Z        X      Y      Z
   1   6    -0.00  -0.00  -0.00    -0.01   0.02   0.01    -0.00  -0.00   0.00
   2   6    -0.00   0.00   0.00     0.03  -0.01   0.01    -0.00   0.00   0.00
   3   6    -0.01   0.01   0.00     0.17  -0.12  -0.07     0.00   0.00   0.00
   4   6    -0.00   0.00   0.00     0.03  -0.10  -0.01     0.00   0.00  -0.00
   5   6     0.01   0.00   0.00    -0.09  -0.05  -0.04     0.00   0.00  -0.00
   6   6     0.01   0.00  -0.00    -0.23  -0.05   0.01     0.00  -0.00   0.00
   7   6     0.01   0.00  -0.00    -0.10   0.03   0.05    -0.00  -0.00   0.00
   8   6     0.01   0.00   0.00    -0.25   0.01   0.01    -0.00  -0.00   0.00
   9   6    -0.00   0.00   0.00     0.00  -0.03  -0.00     0.00  -0.00   0.00
  10   6    -0.00  -0.00  -0.00     0.03   0.03  -0.00    -0.00   0.00   0.00
  11   6    -0.01  -0.01  -0.00     0.16   0.15   0.06     0.00  -0.00   0.01
  12   6     0.00  -0.01  -0.00     0.01   0.11   0.01    -0.00   0.00  -0.01
  13   7    -0.00   0.00   0.00     0.09   0.01  -0.01     0.00  -0.00   0.01
  14   6    -0.01  -0.00  -0.00     0.19  -0.02  -0.00    -0.00  -0.01  -0.01
  15   6     0.00  -0.01   0.02    -0.06   0.23  -0.08     0.00   0.00   0.01
  16   6     0.00  -0.02   0.00    -0.05   0.22  -0.09     0.00   0.01   0.02
  17   6     0.01   0.02   0.04    -0.15   0.00  -0.01     0.00  -0.00  -0.01
  18   6     0.00  -0.02  -0.07     0.02  -0.19   0.08    -0.00   0.01   0.01
  19   6    -0.00   0.02   0.01     0.04  -0.21   0.09    -0.00   0.00  -0.00
  20   6    -0.01   0.03   0.06     0.10  -0.09   0.04    -0.00  -0.01  -0.02
  21   6     0.01  -0.10  -0.24    -0.16  -0.07   0.02     0.00   0.01   0.01
  22   6     0.01  -0.09  -0.16    -0.08   0.26  -0.13     0.00  -0.01  -0.02
  23   6    -0.00  -0.08  -0.17     0.10   0.05  -0.03    -0.00   0.00   0.00
  24   6    -0.01   0.04   0.07     0.14  -0.02   0.02    -0.00  -0.04  -0.09
  25   6    -0.00  -0.01  -0.06     0.04  -0.10   0.04    -0.00   0.06   0.14
[...]
  29   6    -0.00   0.00  -0.00    -0.00   0.00  -0.00     0.10  -0.09   0.04
  30   6    -0.00  -0.00   0.00    -0.00  -0.00   0.00     0.00   0.00  -0.00
  31   7    -0.00  -0.00   0.00     0.00  -0.00   0.00     0.00  -0.00   0.00
  32   6     0.00   0.00  -0.00     0.00   0.00  -0.00     0.00  -0.00   0.00
  33   1    -0.23  -0.23  -0.08     0.48   0.49   0.17     0.00   0.00   0.00
  34   1    -0.05   0.16   0.07     0.11  -0.37  -0.17     0.00  -0.01  -0.00
  35   1     0.04  -0.01  -0.01    -0.10   0.02   0.02    -0.00   0.00   0.00
  36   1     0.15  -0.03  -0.02    -0.26   0.05   0.04    -0.00   0.00   0.00
  37   1    -0.27  -0.09  -0.02    -0.10  -0.03  -0.01    -0.00  -0.00  -0.00
  38   1     0.53  -0.42  -0.21     0.25  -0.20  -0.10    -0.00   0.00   0.00
  39   1     0.07   0.37   0.16     0.04   0.19   0.08     0.00   0.01   0.00
  40   1    -0.09  -0.03  -0.01    -0.04  -0.01  -0.00    -0.00  -0.00  -0.00
  41   1    -0.00   0.00  -0.00     0.00  -0.00   0.00    -0.01   0.02  -0.01
  42   1    -0.00  -0.00   0.00     0.00   0.01  -0.00    -0.05  -0.10   0.05
  43   1     0.00   0.00  -0.00    -0.01  -0.01   0.01    -0.00  -0.01   0.00
  44   1    -0.00  -0.00   0.00     0.01   0.01  -0.00     0.03   0.03  -0.01
  45   1    -0.00   0.00  -0.00    -0.00   0.00  -0.00     0.00  -0.01   0.00
  46   1     0.00  -0.00   0.00     0.00  -0.00   0.00     0.11  -0.04   0.02
  47   1    -0.00   0.00  -0.00    -0.00   0.00  -0.00    -0.44   0.38  -0.17
  48   1    -0.00  -0.00   0.00     0.00   0.00  -0.00    -0.49  -0.14   0.05
  49   1     0.00   0.01  -0.00     0.00   0.01  -0.01     0.04   0.13  -0.06
  50   1     0.01  -0.01   0.00     0.02  -0.01   0.01    -0.35   0.32  -0.15
                    133                    134                    135
                        a                      a                      a 
 Frequencies --  3083.5621              3086.9977              3087.3565
 Red. masses --     1.8210                 1.8081                 1.8074
 Frc consts  --     0.0000                 0.0000                 0.0000
 IR Inten    --   165.5938                21.8720                87.8695
 Raman Activ --     0.0000                 0.0000                 0.0000
 Depolar     --     0.0000                 0.0000                 0.0000
 Atom AN      X      Y      Z        X      Y      Z        X      Y      Z
   1   6     0.00   0.00   0.00    -0.01  -0.02  -0.01     0.04   0.04   0.01
   2   6    -0.00   0.00   0.00     0.02  -0.06  -0.03    -0.04   0.12   0.06
   3   6     0.01  -0.00  -0.00    -0.04   0.01   0.01     0.09  -0.02  -0.02
   4   6     0.00  -0.00  -0.00    -0.00   0.00   0.00     0.00   0.00  -0.00
   5   6    -0.00   0.00   0.00     0.00  -0.00  -0.00    -0.00   0.00   0.00
   6   6    -0.00   0.00   0.00     0.06  -0.01  -0.01    -0.10   0.02   0.01
   7   6     0.00  -0.00  -0.00    -0.00  -0.00  -0.00     0.00   0.00   0.00
   8   6     0.00   0.00   0.00    -0.07  -0.02  -0.00     0.04   0.01   0.00
   9   6     0.00  -0.00  -0.00     0.03  -0.02  -0.01    -0.00   0.00   0.00
  10   6     0.00   0.00   0.00    -0.02  -0.09  -0.04     0.01   0.04   0.02
  11   6    -0.00  -0.00  -0.00     0.06   0.02   0.01    -0.01  -0.00  -0.00
  12   6    -0.00   0.00   0.00     0.00   0.00  -0.00    -0.00  -0.00  -0.00
  13   7    -0.00  -0.00   0.00     0.00  -0.00  -0.00     0.00   0.00   0.00
  14   6     0.00   0.00  -0.00     0.00  -0.00   0.00     0.00  -0.00   0.00
  15   6    -0.00   0.00  -0.00     0.02  -0.02   0.01     0.01  -0.02   0.01
  16   6    -0.00  -0.01   0.00     0.08   0.15  -0.07     0.06   0.12  -0.06
  17   6    -0.00  -0.00   0.00     0.01   0.00  -0.00     0.01   0.00  -0.00
  18   6    -0.00   0.00  -0.00    -0.00  -0.00   0.00    -0.00  -0.00  -0.00
  19   6     0.01   0.02  -0.01    -0.01  -0.02   0.01     0.01   0.02  -0.01
  20   6    -0.01   0.00  -0.00     0.00   0.00  -0.00     0.00   0.00  -0.00
  21   6    -0.14  -0.12   0.05     0.02   0.02  -0.01     0.01   0.01  -0.00
  22   6    -0.00   0.00  -0.00    -0.00   0.01  -0.00    -0.00   0.00  -0.00
  23   6    -0.17   0.07  -0.03    -0.04   0.01  -0.01    -0.00   0.00  -0.00
  24   6    -0.01  -0.00   0.00    -0.00  -0.00   0.00     0.00  -0.00   0.00
  25   6     0.00   0.00  -0.00     0.00   0.00  -0.00     0.00   0.00  -0.00
  26   6    -0.02   0.02  -0.01    -0.01   0.01  -0.00    -0.01   0.01  -0.00
  27   6    -0.01  -0.00   0.00    -0.02  -0.01   0.00    -0.01  -0.00   0.00
  28   6     0.00   0.01  -0.01    -0.01  -0.02   0.01    -0.01  -0.02   0.01
  29   6    -0.01   0.01  -0.00    -0.02   0.02  -0.01    -0.01   0.01  -0.01
  30   6    -0.00  -0.00   0.00    -0.00   0.00  -0.00    -0.00   0.00  -0.00
  31   7    -0.00  -0.00   0.00     0.00  -0.00   0.00     0.00  -0.00   0.00
  32   6     0.01   0.00  -0.00    -0.00   0.00  -0.00    -0.00   0.00  -0.00
  33   1    -0.01  -0.01  -0.00     0.05   0.05   0.02    -0.13  -0.13  -0.05
  34   1     0.00  -0.01  -0.00    -0.07   0.21   0.10     0.14  -0.44  -0.21
  35   1    -0.02   0.00   0.00     0.16  -0.03  -0.03    -0.34   0.07   0.07
  36   1     0.01  -0.00  -0.00    -0.20   0.04   0.03     0.36  -0.07  -0.05
  37   1    -0.00  -0.00  -0.00     0.25   0.09   0.01    -0.14  -0.05  -0.01
  38   1    -0.00   0.00   0.00    -0.10   0.08   0.04     0.01  -0.01  -0.00
  39   1    -0.00  -0.00  -0.00     0.07   0.34   0.14    -0.03  -0.14  -0.06
  40   1     0.00   0.00   0.00    -0.22  -0.08  -0.03     0.05   0.02   0.01
  41   1     0.00  -0.00   0.00    -0.09   0.10  -0.05    -0.06   0.07  -0.04
  42   1     0.01   0.02  -0.01    -0.27  -0.54   0.26    -0.22  -0.44   0.21
  43   1    -0.04  -0.07   0.03     0.04   0.08  -0.04    -0.04  -0.08   0.04
  44   1     0.49   0.43  -0.18    -0.06  -0.05   0.02    -0.03  -0.02   0.01
  45   1     0.00  -0.00   0.00     0.01  -0.03   0.01     0.00  -0.00   0.00
  46   1     0.62  -0.23   0.11     0.12  -0.04   0.02     0.01  -0.00   0.00
  47   1     0.07  -0.06   0.03     0.04  -0.03   0.01     0.02  -0.02   0.01
  48   1     0.04   0.01  -0.00     0.06   0.02  -0.01     0.05   0.01  -0.00
  49   1    -0.01  -0.04   0.02     0.03   0.09  -0.04     0.02   0.08  -0.03
  50   1     0.03  -0.03   0.01     0.07  -0.06   0.03     0.05  -0.05   0.02
                    136                    137                    138
                        a                      a                      a 
 Frequencies --  3087.9385              3089.3257              3091.8019
 Red. masses --     1.8114                 1.8445                 1.8313
 Frc consts  --     0.0000                 0.0000                 0.0000
 IR Inten    --    49.3475               127.4313               112.0266
 Raman Activ --     0.0000                 0.0000                 0.0000
 Depolar     --     0.0000                 0.0000                 0.0000
 Atom AN      X      Y      Z        X      Y      Z        X      Y      Z
   1   6    -0.03  -0.03  -0.01     0.00   0.01   0.00    -0.00  -0.00  -0.00
   2   6     0.02  -0.07  -0.03    -0.01   0.03   0.02    -0.01   0.03   0.02
   3   6    -0.06   0.01   0.01     0.01  -0.00  -0.00    -0.03   0.01   0.01
   4   6    -0.00  -0.00  -0.00     0.00   0.00  -0.00     0.00  -0.00  -0.00
   5   6     0.00  -0.00  -0.00    -0.00   0.00   0.00    -0.00   0.00   0.00
   6   6     0.05  -0.01  -0.01    -0.04   0.01   0.01    -0.04   0.01   0.01
   7   6     0.00   0.00   0.00    -0.00  -0.00  -0.00    -0.00   0.00   0.00
   8   6     0.10   0.03   0.01    -0.01  -0.00  -0.00     0.02   0.01   0.00
   9   6    -0.05   0.04   0.02     0.00  -0.00  -0.00     0.01  -0.01  -0.00
  10   6     0.03   0.14   0.06    -0.00  -0.02  -0.01    -0.00  -0.01  -0.00
  11   6    -0.07  -0.03  -0.01     0.01   0.00   0.00     0.00   0.00   0.00
  12   6    -0.00  -0.00   0.00     0.00  -0.00   0.00     0.00  -0.00   0.00
  13   7     0.00   0.00  -0.00    -0.00  -0.00  -0.00     0.00  -0.00  -0.00
  14   6     0.00  -0.00   0.00    -0.00  -0.00   0.00    -0.01  -0.00   0.00
  15   6     0.01  -0.01   0.00    -0.01   0.01  -0.00     0.01  -0.01   0.00
  16   6     0.03   0.07  -0.03    -0.02  -0.04   0.02    -0.00  -0.00   0.00
  17   6     0.00   0.00  -0.00    -0.00   0.00  -0.00    -0.00   0.00  -0.00
  18   6     0.00  -0.00   0.00     0.00  -0.00   0.00     0.00  -0.01   0.00
  19   6    -0.02  -0.03   0.01    -0.04  -0.08   0.04    -0.10  -0.19   0.09
  20   6     0.00   0.00  -0.00     0.01  -0.00   0.00    -0.00  -0.00   0.00
  21   6     0.02   0.02  -0.01     0.12   0.10  -0.04    -0.06  -0.05   0.02
  22   6    -0.00   0.01  -0.01    -0.01   0.05  -0.02     0.00  -0.02   0.01
  23   6    -0.04   0.01  -0.01    -0.16   0.06  -0.03     0.05  -0.02   0.01
  24   6    -0.00  -0.00   0.00    -0.00  -0.00   0.00     0.00   0.00  -0.00
  25   6     0.00   0.00  -0.00    -0.00  -0.00   0.00     0.00   0.00  -0.00
  26   6    -0.01   0.00  -0.00    -0.00   0.00  -0.00    -0.00   0.00  -0.00
  27   6    -0.01  -0.00   0.00     0.01   0.00  -0.00    -0.02  -0.01   0.00
  28   6    -0.00  -0.01   0.00     0.01   0.03  -0.01    -0.01  -0.04   0.02
  29   6    -0.01   0.01  -0.00    -0.00   0.00  -0.00     0.02  -0.01   0.01
  30   6    -0.00   0.00  -0.00     0.00   0.00  -0.00     0.00   0.00  -0.00
  31   7    -0.00  -0.00   0.00    -0.00  -0.00   0.00     0.00  -0.00   0.00
  32   6    -0.00   0.00  -0.00    -0.00  -0.00   0.00    -0.00  -0.00  -0.00
  33   1     0.11   0.12   0.04    -0.02  -0.02  -0.01     0.01   0.01   0.00
  34   1    -0.08   0.25   0.12     0.04  -0.12  -0.06     0.04  -0.11  -0.05
  35   1     0.22  -0.04  -0.04    -0.05   0.01   0.01     0.11  -0.02  -0.02
  36   1    -0.17   0.03   0.02     0.13  -0.02  -0.02     0.15  -0.03  -0.02
  37   1    -0.36  -0.12  -0.02     0.05   0.02   0.00    -0.06  -0.02  -0.00
  38   1     0.17  -0.13  -0.07    -0.02   0.01   0.01    -0.04   0.03   0.01
  39   1    -0.10  -0.50  -0.21     0.01   0.06   0.02     0.00   0.02   0.01
  40   1     0.28   0.10   0.03    -0.04  -0.01  -0.00    -0.02  -0.01  -0.00
  41   1    -0.03   0.03  -0.02     0.03  -0.03   0.02    -0.02   0.03  -0.01
  42   1    -0.12  -0.23   0.11     0.08   0.16  -0.07     0.01   0.01  -0.01
  43   1     0.06   0.10  -0.05     0.15   0.28  -0.13     0.36   0.68  -0.33
  44   1    -0.09  -0.08   0.03    -0.41  -0.36   0.15     0.22   0.19  -0.08
  45   1     0.01  -0.04   0.02     0.03  -0.16   0.07    -0.01   0.07  -0.03
  46   1     0.14  -0.05   0.03     0.55  -0.20   0.10    -0.17   0.06  -0.03
  47   1     0.02  -0.02   0.01     0.01  -0.01   0.01     0.01  -0.01   0.01
  48   1     0.03   0.01  -0.00    -0.04  -0.01   0.00     0.06   0.02  -0.01
  49   1     0.01   0.04  -0.02    -0.03  -0.11   0.05     0.04   0.14  -0.06
  50   1     0.02  -0.02   0.01     0.01  -0.01   0.00    -0.05   0.04  -0.02
                    139                    140                    141
                        a                      a                      a 
 Frequencies --  3094.0680              3094.4309              3095.9558
 Red. masses --     1.8917                 1.8675                 1.8601
 Frc consts  --     0.0000                 0.0000                 0.0000
 IR Inten    --   197.1216                52.0829               401.6497
 Raman Activ --     0.0000                 0.0000                 0.0000
 Depolar     --     0.0000                 0.0000                 0.0000
 Atom AN      X      Y      Z        X      Y      Z        X      Y      Z
   1   6     0.01   0.02   0.01    -0.06  -0.07  -0.02     0.03   0.04   0.01
   2   6     0.00  -0.00  -0.00     0.01  -0.02  -0.01     0.00  -0.01  -0.01
   3   6     0.04  -0.01  -0.01    -0.10   0.02   0.02     0.09  -0.02  -0.02
   4   6     0.00   0.00   0.00    -0.00  -0.00  -0.00     0.00   0.00   0.00
   5   6    -0.00  -0.00  -0.00     0.00   0.01   0.00     0.00  -0.00  -0.00
   6   6     0.04  -0.01  -0.01    -0.15   0.03   0.02     0.12  -0.02  -0.02
   7   6     0.00  -0.00  -0.00    -0.00   0.00   0.00    -0.00   0.01   0.00
   8   6    -0.05  -0.02  -0.00     0.10   0.03   0.01     0.16   0.06   0.01
   9   6    -0.03   0.02   0.01     0.06  -0.05  -0.02     0.07  -0.06  -0.03
  10   6     0.00   0.01   0.01    -0.01  -0.03  -0.01    -0.01  -0.02  -0.01
  11   6    -0.02  -0.01  -0.00     0.07   0.02   0.01     0.10   0.03   0.01
  12   6    -0.00   0.00   0.00     0.00  -0.00  -0.00     0.00  -0.00  -0.00
  13   7    -0.00  -0.00   0.00    -0.00   0.00   0.00     0.00   0.00  -0.00
  14   6     0.00   0.00  -0.00     0.00   0.00  -0.00    -0.00   0.00  -0.00
  15   6    -0.01   0.01  -0.00    -0.00   0.00  -0.00     0.00  -0.00  -0.00
  16   6    -0.01  -0.02   0.01    -0.01  -0.01   0.01    -0.01  -0.01   0.01
  17   6    -0.00  -0.00   0.00    -0.00  -0.00   0.00    -0.00  -0.00   0.00
  18   6     0.00   0.00  -0.00    -0.00   0.00  -0.00     0.00   0.00  -0.00
  19   6     0.01   0.01  -0.01     0.03   0.05  -0.02    -0.01  -0.01   0.01
  20   6     0.00  -0.00   0.00     0.00   0.00  -0.00     0.00   0.00   0.00
  21   6     0.02   0.02  -0.01     0.01   0.01  -0.00     0.00   0.00  -0.00
  22   6    -0.00   0.01  -0.00    -0.00   0.00  -0.00    -0.00   0.00  -0.00
  23   6    -0.03   0.01  -0.00    -0.01   0.00  -0.00    -0.01   0.00  -0.00
  24   6    -0.00  -0.00   0.00    -0.00  -0.00   0.00    -0.00  -0.00   0.00
  25   6     0.00   0.00  -0.00     0.00   0.00  -0.00    -0.00   0.00  -0.00
  26   6    -0.04   0.04  -0.02    -0.01   0.01  -0.00    -0.00   0.00  -0.00
  27   6    -0.10  -0.03   0.01    -0.03  -0.01   0.00    -0.01  -0.00   0.00
  28   6    -0.05  -0.18   0.08    -0.02  -0.05   0.02    -0.00  -0.01   0.01
  29   6     0.08  -0.07   0.03     0.02  -0.02   0.01     0.01  -0.01   0.00
  30   6     0.00   0.00  -0.00     0.00   0.00  -0.00     0.00   0.00  -0.00
  31   7    -0.00  -0.00   0.00    -0.00   0.00  -0.00    -0.00   0.00  -0.00
  32   6    -0.00  -0.00   0.00     0.00  -0.00   0.00    -0.00  -0.00   0.00
  33   1    -0.05  -0.05  -0.02     0.21   0.22   0.07    -0.11  -0.12  -0.04
  34   1    -0.00   0.01   0.00    -0.02   0.07   0.03    -0.01   0.04   0.02
  35   1    -0.13   0.03   0.03     0.35  -0.07  -0.07    -0.33   0.06   0.07
  36   1    -0.12   0.02   0.02     0.52  -0.10  -0.08    -0.41   0.08   0.06
  37   1     0.18   0.06   0.01    -0.35  -0.12  -0.02    -0.56  -0.19  -0.03
  38   1     0.08  -0.07  -0.03    -0.19   0.15   0.07    -0.22   0.18   0.09
  39   1    -0.01  -0.04  -0.02     0.02   0.10   0.04     0.01   0.06   0.03
  40   1     0.07   0.03   0.01    -0.23  -0.08  -0.03    -0.34  -0.12  -0.04
  41   1     0.03  -0.04   0.02     0.01  -0.01   0.01     0.00  -0.00  -0.00
  42   1     0.04   0.09  -0.04     0.02   0.04  -0.02     0.02   0.04  -0.02
  43   1    -0.03  -0.05   0.03    -0.10  -0.18   0.09     0.03   0.05  -0.02
  44   1    -0.06  -0.05   0.02    -0.04  -0.03   0.01    -0.01  -0.01   0.01
  45   1     0.01  -0.03   0.01     0.00  -0.01   0.01     0.00  -0.01   0.00
  46   1     0.09  -0.03   0.02     0.04  -0.01   0.01     0.02  -0.01   0.00
  47   1     0.14  -0.12   0.05     0.04  -0.04   0.02     0.01  -0.01   0.00
  48   1     0.32   0.09  -0.03     0.09   0.03  -0.01     0.02   0.01  -0.00
  49   1     0.18   0.63  -0.27     0.05   0.18  -0.08     0.01   0.04  -0.02
  50   1    -0.26   0.24  -0.11    -0.08   0.07  -0.03    -0.02   0.02  -0.01
                    142                    143                    144
                        a                      a                      a 
 Frequencies --  3100.5780              3101.7714              3114.6335
 Red. masses --     1.8967                 1.8932                 1.8444
 Frc consts  --     0.0000                 0.0000                 0.0000
 IR Inten    --   122.7562                32.3859                23.3758
 Raman Activ --     0.0000                 0.0000                 0.0000
 Depolar     --     0.0000                 0.0000                 0.0000
 Atom AN      X      Y      Z        X      Y      Z        X      Y      Z
   1   6     0.06   0.06   0.02    -0.03  -0.03  -0.01     0.00   0.00   0.00
   2   6    -0.04   0.13   0.06     0.02  -0.05  -0.02    -0.00   0.01   0.00
   3   6    -0.17   0.03   0.04     0.06  -0.01  -0.01    -0.01   0.00   0.00
   4   6    -0.00  -0.00  -0.00     0.00   0.00   0.00    -0.00  -0.00   0.00
   5   6     0.00  -0.00  -0.00    -0.00   0.00   0.00     0.00  -0.00  -0.00
   6   6     0.08  -0.02  -0.01    -0.04   0.01   0.01     0.00  -0.00  -0.00
   7   6    -0.00  -0.00  -0.00    -0.00  -0.00  -0.00     0.00   0.00   0.00
   8   6    -0.01  -0.00  -0.00    -0.07  -0.02  -0.00     0.00   0.00   0.00
   9   6    -0.02   0.01   0.01    -0.06   0.05   0.02     0.00  -0.00  -0.00
  10   6     0.01   0.05   0.02     0.02   0.12   0.05    -0.00  -0.01  -0.00
  11   6     0.08   0.03   0.01     0.19   0.06   0.02    -0.02  -0.01  -0.00
  12   6     0.00  -0.00  -0.00     0.01  -0.00  -0.00    -0.00   0.00   0.00
  13   7    -0.00  -0.00  -0.00     0.00  -0.00  -0.00    -0.00  -0.00  -0.00
  14   6     0.00   0.00  -0.00    -0.00  -0.00   0.00     0.01  -0.00   0.00
  15   6    -0.00   0.00  -0.00     0.02  -0.02   0.01     0.16  -0.19   0.10
  16   6    -0.00  -0.00   0.00    -0.00  -0.01   0.00    -0.02  -0.05   0.02
  17   6    -0.00  -0.00   0.00     0.00   0.00  -0.00    -0.00   0.00  -0.00
  18   6    -0.00   0.00  -0.00     0.00  -0.00   0.00     0.00   0.00  -0.00
  19   6     0.01   0.02  -0.01    -0.01  -0.01   0.01     0.00   0.01  -0.01
  20   6     0.00   0.00  -0.00    -0.00   0.00  -0.00    -0.00  -0.00   0.00
  21   6     0.00   0.00  -0.00    -0.01  -0.01   0.00     0.00   0.00  -0.00
  22   6    -0.00   0.00  -0.00     0.00  -0.00   0.00    -0.00   0.00  -0.00
  23   6    -0.00   0.00  -0.00     0.01  -0.00   0.00    -0.00   0.00  -0.00
  24   6    -0.00  -0.00   0.00     0.00   0.00  -0.00    -0.00  -0.00   0.00
  25   6    -0.00   0.00  -0.00     0.00  -0.00   0.00     0.00   0.00  -0.00
  26   6    -0.00   0.00  -0.00     0.00  -0.00   0.00    -0.00   0.00  -0.00
  27   6    -0.00  -0.00   0.00     0.01   0.00  -0.00    -0.00  -0.00   0.00
  28   6    -0.00  -0.01   0.00     0.00   0.01  -0.00    -0.00  -0.00   0.00
  29   6     0.00  -0.00   0.00    -0.00   0.00  -0.00     0.00  -0.00   0.00
  30   6     0.00   0.00  -0.00    -0.00  -0.00   0.00     0.00  -0.00   0.00
  31   7    -0.00   0.00  -0.00    -0.00  -0.00   0.00     0.00  -0.00   0.00
  32   6     0.00  -0.00   0.00     0.00  -0.00   0.00     0.00  -0.00   0.00
  33   1    -0.20  -0.21  -0.07     0.09   0.09   0.03    -0.01  -0.01  -0.00
  34   1     0.13  -0.42  -0.20    -0.05   0.16   0.07     0.01  -0.02  -0.01
  35   1     0.59  -0.11  -0.12    -0.22   0.04   0.04     0.02  -0.00  -0.00
  36   1    -0.27   0.05   0.04     0.14  -0.03  -0.02    -0.02   0.00   0.00
  37   1     0.02   0.01   0.00     0.23   0.08   0.01    -0.02  -0.01  -0.00
  38   1     0.05  -0.04  -0.02     0.19  -0.15  -0.08    -0.01   0.01   0.00
  39   1    -0.03  -0.16  -0.07    -0.08  -0.40  -0.17     0.00   0.02   0.01
  40   1    -0.29  -0.10  -0.03    -0.64  -0.22  -0.08     0.07   0.03   0.01
  41   1     0.01  -0.01   0.00    -0.05   0.06  -0.03    -0.55   0.67  -0.35
  42   1     0.01   0.02  -0.01     0.01   0.02  -0.01     0.08   0.16  -0.07
  43   1    -0.04  -0.07   0.03     0.02   0.04  -0.02    -0.02  -0.03   0.02
  44   1    -0.01  -0.01   0.00     0.02   0.02  -0.01    -0.01  -0.01   0.01
  45   1     0.00  -0.01   0.00    -0.00   0.01  -0.00     0.00  -0.01   0.00
  46   1     0.02  -0.01   0.00    -0.02   0.01  -0.00     0.02  -0.01   0.00
  47   1     0.01  -0.01   0.00    -0.01   0.01  -0.00     0.01  -0.01   0.00
  48   1     0.01   0.00  -0.00    -0.02  -0.01   0.00     0.01   0.00  -0.00
  49   1     0.01   0.02  -0.01    -0.01  -0.03   0.01     0.00   0.01  -0.01
  50   1    -0.01   0.01  -0.00     0.01  -0.01   0.00    -0.01   0.01  -0.00
