$hessian                                                                        
        0.8901719365  -0.4660657921   0.2020943673  -0.8304072818   0.4267508891
       -0.1839900261  -0.0679881852   0.0429083533  -0.0163999361   0.0102008093
        0.0039677739   0.0073648718  -0.0010097762  -0.0002279843  -0.0001161671
       -0.0000000447  -0.0002279321  -0.0004510271   0.0000053713   0.0000585402
        0.0000926055   0.0001821628  -0.0001449227  -0.0001552217  -0.0002735813
        0.0001320227   0.0002437501   0.0004041684  -0.0004877993   0.0000417902
       -0.0004587538  -0.0050689150  -0.0044606716  -0.0151641176   0.0055228581
       -0.0007469313   0.0112001449  -0.0038900686   0.0003485109  -0.0035580684
        0.0041068437   0.0019670499   0.0036478524   0.0001576428   0.0012944236
       -0.0016715331   0.0005416018   0.0002717713  -0.0012699256   0.0000787607
       -0.0004674773   0.0000710418  -0.0009764859   0.0001399363   0.0001047834
        0.0001585353  -0.0000054479   0.0000375075  -0.0001230077   0.0000390843
        0.0001472775   0.0001049464  -0.0000364234   0.0000292534  -0.0004424491
        0.0001847700  -0.0003927452   0.0004806428  -0.0000830881  -0.0008932854
        0.0000104641  -0.0001845855   0.0005519814   0.0005323307  -0.0001766323
        0.0000911124  -0.0004821756   0.0001676321   0.0000721698   0.0002498483
       -0.0001699303   0.0000440087  -0.0008382869   0.0003872429  -0.0003711146
        0.0003655309  -0.0001782473   0.0003327311  -0.0000734036   0.0002653688
       -0.0001010251   0.0003219665  -0.0001322927  -0.0001481448   0.0000775227
       -0.0000283579   0.0000418168   0.0000113786  -0.0000110093   0.0000797739
       -0.0001702798   0.0000720611  -0.0003008814  -0.0004086359   0.0001436335
        0.0002139823   0.0000479929  -0.0000353657  -0.0000883237  -0.0000688972
       -0.0000437417   0.0000240350  -0.0000610710  -0.0000061039   0.0000764327
        0.0000674488   0.0000025868   0.0000328840   0.0001093091  -0.0000191935
       -0.0001219621  -0.0000688698   0.0000295648   0.0012741591   0.0012399359
        0.0000821174   0.0027279125  -0.0026282230  -0.0010128195  -0.0051908166
       -0.0006772859  -0.0023172977   0.0017899114   0.0044341356   0.0049055446
        0.0053014308  -0.0107675158  -0.0067695632  -0.0007141622   0.0004368458
        0.0003304293   0.0004763944  -0.0001811773   0.0002511879  -0.0003629927
       -0.0001760695  -0.0000373709   0.0003406180   0.0001187147   0.0000278692
        0.0001128898  -0.0001379152  -0.0000808993  -0.0000545925  -0.0001169054
        0.0006110973  -0.0002485908  -0.0000398626  -0.0019298529   0.0001126994
       -0.0000596014  -0.0000898839   0.0000408653   0.0000301556  -0.0000439075
        0.0000171196   0.0000166984  -0.0001166962   0.0001736291   0.0001315599
       -0.0000543582   0.0001140497   0.0000253094   0.0000264893  -0.0000774768
        0.0001080252   0.0001561203  -0.0000647958  -0.0000769973   0.0001096565
        0.0000132381   0.0000401115  -0.0001144895   0.0000205055   0.0000487170
       -0.0001057543  -0.0000464427   0.0000602998   0.0000771892  -0.0000673806
        0.0000197384   0.0000748155  -0.0000640756   0.0000051222   0.0000032268
       -0.0000298749  -0.0000224125  -0.0000860923   0.0000481956   0.0000154389
       -0.0000298149  -0.0000088814  -0.0000708390   0.0000015915  -0.0000620089
       -0.0000881502   0.0000087823  -0.0000060147   0.0000319758  -0.0000987141
       -0.0000311329  -0.0000081246   0.0000033440  -0.0000183054  -0.0000094611
       -0.0000079744  -0.0000208215  -0.0000145802  -0.0000127861   0.0000154063
       -0.0000022711  -0.0000138688  -0.0001152629   0.0000049582  -0.0001843593
        0.0001280810  -0.0000098203  -0.0000471403   0.0001316041   0.0000893522
       -0.0001975903   0.0000629422   0.0000898475  -0.0000338006   0.0000441536
        0.0000368595  -0.0000801940   0.0002132264   0.0000822392   0.0000346743
        0.0004801100   0.0010849453  -0.0004920505
       -0.4660657921   0.2665416628  -0.1075640777   0.4282360219  -0.2570094662
        0.0991692672   0.0410705023  -0.0077972712   0.0119311524  -0.0038996724
       -0.0022646932  -0.0050096111   0.0007181225   0.0000663838  -0.0003243801
       -0.0003456527   0.0002406587  -0.0005823771  -0.0000764141   0.0001556691
        0.0000394267  -0.0002092918   0.0001291619   0.0002045098   0.0002961263
       -0.0000948654  -0.0001961732  -0.0000818927   0.0004667118   0.0000707283
        0.0013062197   0.0012014130   0.0023697065   0.0078015417  -0.0018456394
        0.0011532327  -0.0054121370   0.0018081143  -0.0002025433   0.0017012499
       -0.0019430291  -0.0010047966  -0.0017581452  -0.0000457010  -0.0006215710
        0.0007778717  -0.0002274601  -0.0001094096   0.0006609374  -0.0000551952
        0.0002567245  -0.0000310679   0.0005410012  -0.0000966771  -0.0000599398
       -0.0001225182   0.0000217649  -0.0000442272   0.0000872063  -0.0000296546
       -0.0000692740  -0.0000423521   0.0000158215  -0.0000121225   0.0002146419
       -0.0000859983   0.0001798826  -0.0002423000   0.0000401302   0.0004060574
        0.0000361479   0.0000660505  -0.0002899910  -0.0002718932   0.0000897101
       -0.0000319287   0.0002545781  -0.0000875334  -0.0000522851  -0.0002422257
        0.0001332697  -0.0000177225   0.0004509787  -0.0002057454   0.0002204680
       -0.0001870792   0.0000981646  -0.0001850639   0.0000609381  -0.0001421482
        0.0000916068  -0.0001521210   0.0000861490   0.0000168229  -0.0000799190
        0.0000205935   0.0000105412  -0.0000198146   0.0000257079  -0.0001432320
        0.0001079045  -0.0000844464   0.0001853625   0.0002616661  -0.0000749207
       -0.0000696760   0.0000061683   0.0000125773   0.0000575056   0.0000312219
        0.0000033842  -0.0000022101   0.0000526659   0.0000085502  -0.0000540112
       -0.0000414845   0.0000011981   0.0000042107  -0.0000576764  -0.0000008874
        0.0000733347   0.0000463808  -0.0000048139  -0.0006078753  -0.0006875408
       -0.0000048508  -0.0012857228   0.0012188225   0.0004708235   0.0025166427
        0.0002953580   0.0010669222  -0.0024116637  -0.0024019396  -0.0021410066
       -0.0025127638   0.0062992446   0.0013402264  -0.0001922504  -0.0006278428
       -0.0006145486  -0.0001231062   0.0003356095  -0.0000434968  -0.0000009318
        0.0000259453  -0.0000330616  -0.0000885470   0.0000584308  -0.0001026972
        0.0002446180  -0.0002064186  -0.0002338563  -0.0005880485  -0.0013289549
        0.0010944462  -0.0001840024  -0.0002107184   0.0004111570  -0.0000854523
        0.0000016546   0.0000757144  -0.0000187034  -0.0000442387   0.0000231606
       -0.0000211858  -0.0000258228   0.0000713973  -0.0000549966  -0.0000903463
        0.0000408367  -0.0000674747  -0.0000017310   0.0000237009   0.0000338521
       -0.0000607439  -0.0000675322   0.0000332839   0.0000310222  -0.0000560077
       -0.0000050132  -0.0000146079   0.0000558372  -0.0000095147  -0.0000236308
        0.0000537361   0.0000230351  -0.0000290690  -0.0000408303   0.0000323491
       -0.0000048064  -0.0000400957   0.0000239879  -0.0000042722  -0.0000028537
        0.0000176865   0.0000063814   0.0000393249  -0.0000294644  -0.0000157704
       -0.0000005085   0.0000102526   0.0000512954  -0.0000117021   0.0000278623
        0.0000405414  -0.0000056876   0.0000008869  -0.0000109849   0.0000592060
        0.0000133296   0.0000034309   0.0000009381   0.0000089213   0.0000057545
        0.0000054676   0.0000099085   0.0000108764   0.0000079249  -0.0000082476
       -0.0000010512   0.0000051627   0.0000641785   0.0000051074   0.0001009420
       -0.0000417258   0.0000286633   0.0000552528   0.0000384374  -0.0000910869
        0.0000044327   0.0000397063  -0.0000863928  -0.0000123372   0.0000018748
       -0.0000668746  -0.0000783415   0.0000799797   0.0000320690   0.0000179172
        0.0002132616  -0.0024339328  -0.0009251677
        0.2020943673  -0.1075640777   0.0641659005  -0.1855652633   0.0996544036
       -0.0715121636  -0.0150810640   0.0118240512   0.0097437753   0.0011413526
       -0.0007870303   0.0024578656  -0.0000652933  -0.0005913405  -0.0004149681
        0.0005936073   0.0010093920  -0.0014576821  -0.0003645823  -0.0002038476
       -0.0001457680  -0.0000351590  -0.0001139259   0.0000758406   0.0000558211
       -0.0000085212  -0.0000136786   0.0000377850  -0.0000775685   0.0001867381
        0.0010090367  -0.0007121587  -0.0011589088  -0.0028424697   0.0013861054
        0.0002215986   0.0019776021  -0.0007434839  -0.0000088647  -0.0006296993
        0.0006703729   0.0003163727   0.0006026839   0.0000039651   0.0002177682
       -0.0002263202   0.0000944385   0.0000635073  -0.0001065746   0.0001986060
       -0.0000919599   0.0000228743  -0.0002837410   0.0000525198   0.0000278103
        0.0001188329  -0.0000281081   0.0001071543  -0.0000776278   0.0000409462
       -0.0000786894  -0.0000171171  -0.0000006443   0.0000241324  -0.0000003220
        0.0000043954  -0.0000884180   0.0000164071   0.0000104295   0.0000488497
       -0.0000171853   0.0000016112  -0.0000004442  -0.0000311127   0.0000043842
       -0.0000038850  -0.0000164183   0.0000045621   0.0000079059   0.0000727346
       -0.0000456678  -0.0000067514  -0.0000998948   0.0000518981  -0.0000872220
       -0.0000072314  -0.0000080699   0.0000566147  -0.0000158049   0.0000497239
       -0.0000575701   0.0000156406  -0.0000106564   0.0000668318   0.0000526323
        0.0000055274  -0.0000512374   0.0000596921  -0.0000413669   0.0001776356
       -0.0000510924   0.0000656357  -0.0001325417  -0.0000493119  -0.0000035409
        0.0000072585  -0.0000179177  -0.0000057993  -0.0000023847  -0.0000224144
       -0.0000034011  -0.0000024213  -0.0000109824   0.0000029030   0.0000080181
        0.0000080595   0.0000024122   0.0000051491   0.0000116217  -0.0000043884
       -0.0000225021  -0.0000000050   0.0000034065  -0.0000527524   0.0002132150
       -0.0000269386   0.0004928585  -0.0004524597  -0.0001713998  -0.0008736273
       -0.0001488287  -0.0003625604  -0.0002592782   0.0009733301  -0.0000103688
       -0.0004318178  -0.0028663963  -0.0008337046  -0.0003464277  -0.0001411285
        0.0001980801   0.0000947757   0.0000255199   0.0002168986  -0.0002124219
       -0.0000571500   0.0000108103   0.0001951574   0.0000870343   0.0000344084
        0.0001360555   0.0000755483   0.0001633705   0.0001161377  -0.0006383484
       -0.0000056662  -0.0012405039  -0.0008762624  -0.0017241672  -0.0001000551
        0.0000827898   0.0000933804  -0.0000513126  -0.0000777610  -0.0000349602
       -0.0000766763  -0.0000046681  -0.0000382517  -0.0000952238  -0.0000150080
       -0.0000094359   0.0000381043   0.0000492535   0.0000273982  -0.0000141302
        0.0000294231   0.0000293645  -0.0000204380  -0.0000101030   0.0000154485
       -0.0000009576   0.0000032965  -0.0000236902   0.0000087114   0.0000045738
       -0.0000204484  -0.0000025650   0.0000111784   0.0000179631  -0.0000058110
        0.0000005757   0.0000166546  -0.0000032819   0.0000035737  -0.0000015181
       -0.0000171651   0.0000012885  -0.0000208422   0.0000084946  -0.0000024253
       -0.0000019037  -0.0000061070  -0.0000200855  -0.0000003686  -0.0000061557
       -0.0000159695   0.0000017016  -0.0000022866   0.0000078492  -0.0000264387
       -0.0000059252  -0.0000018663  -0.0000012029  -0.0000017504   0.0000006787
       -0.0000024302  -0.0000051949   0.0000000820  -0.0000014229  -0.0000001809
        0.0000005427  -0.0000007770  -0.0000191917   0.0000041868  -0.0000304872
        0.0000426636   0.0000227733  -0.0000098095  -0.0000298800   0.0000490812
       -0.0000275084   0.0000125669   0.0000357101  -0.0000155962  -0.0000028820
        0.0000175392  -0.0000255541   0.0000410812   0.0000272451  -0.0000296230
        0.0000753958  -0.0000746504  -0.0001624893
       -0.8304072818   0.4282360219  -0.1855652633   1.1135710200  -0.5452513007
        0.2378742502  -0.2179765391   0.0871243908  -0.0414184815  -0.0481163076
       -0.0000272449  -0.0240365684   0.0015219207   0.0022328308   0.0016387402
        0.0004694988   0.0005763319  -0.0001347906  -0.0000740924   0.0000341071
       -0.0000795805  -0.0002425836   0.0001642956   0.0002295052   0.0004014993
        0.0000232187  -0.0002599903  -0.0009625282   0.0004927888  -0.0000310007
       -0.0007591037   0.0056075003   0.0029409383   0.0249036625  -0.0084952389
        0.0020500809  -0.0181121833   0.0063630603  -0.0004354758   0.0059976287
       -0.0067451875  -0.0032626539  -0.0061430176  -0.0002940861  -0.0021289076
        0.0029231385  -0.0009302158  -0.0004688942   0.0021800822   0.0000242609
        0.0007681095  -0.0000882662   0.0015152768  -0.0002497348  -0.0002056729
       -0.0001983383   0.0000181822   0.0000258986   0.0000446076  -0.0000493767
       -0.0003638931  -0.0002659705   0.0000793008   0.0000603873   0.0007386832
       -0.0003612204   0.0006796650  -0.0008157960   0.0002109572   0.0016708212
       -0.0000985449   0.0003412012  -0.0009372337  -0.0010099692   0.0003734331
       -0.0001013125   0.0008393454  -0.0003462842  -0.0002130672  -0.0003791073
        0.0002446079  -0.0000382801   0.0014326353  -0.0006290067   0.0005123784
       -0.0006012894   0.0002798364  -0.0005594979   0.0000523955  -0.0004107831
        0.0001155778  -0.0005193040   0.0002366361   0.0002359869  -0.0000159387
        0.0000281041  -0.0000292350   0.0000024444   0.0000048155   0.0000616647
        0.0002481487  -0.0000074447   0.0003685591   0.0006453982  -0.0002445646
       -0.0003062370  -0.0001473897   0.0000343998   0.0000921025   0.0000791998
        0.0000301515  -0.0000385219   0.0000462566   0.0000204037  -0.0000658752
       -0.0000520247  -0.0000013199  -0.0000388960  -0.0001089654  -0.0000020202
        0.0001288127   0.0000755269  -0.0000253658  -0.0026237790  -0.0020369908
       -0.0001898253  -0.0046275166   0.0044022306   0.0017073873   0.0087674962
        0.0012102410   0.0038407173  -0.0023770180  -0.0041698182  -0.0067314940
       -0.0284667326   0.0358185990   0.0144300940   0.0000254423  -0.0026734536
       -0.0023315470  -0.0009654151   0.0004609220   0.0001416328   0.0003018050
        0.0001706169  -0.0002325138  -0.0003415281  -0.0000887171  -0.0000095447
       -0.0003457207   0.0000968775  -0.0002080174   0.0008067971  -0.0006056404
       -0.0012655337   0.0003123710  -0.0006041027   0.0013081365  -0.0001688831
        0.0001338245   0.0001441806  -0.0000437548  -0.0001078875   0.0000416175
       -0.0000678031   0.0000103807   0.0002165349  -0.0001608277  -0.0001370247
        0.0001306975  -0.0001794814  -0.0001527049  -0.0001457161   0.0001553215
       -0.0001073594  -0.0002527670   0.0001005318   0.0001629013  -0.0001095743
       -0.0000282417  -0.0000965106   0.0001214522   0.0000314585  -0.0000742881
        0.0001216583   0.0001192966  -0.0000564936  -0.0000461641   0.0000843094
       -0.0000311661  -0.0000267264   0.0001384150   0.0000368679  -0.0000145618
        0.0000640207   0.0000066966   0.0002225529  -0.0000555858  -0.0000219307
        0.0000231601   0.0000187489   0.0001129001  -0.0000384971   0.0000838760
        0.0001072101  -0.0000127827   0.0000073323  -0.0000161741   0.0000788239
        0.0000440717   0.0000058269  -0.0000093613   0.0000386134   0.0000244546
        0.0000026633   0.0000213590   0.0000389182   0.0000166832  -0.0000175556
       -0.0000052045   0.0000013511   0.0001752943  -0.0000592057   0.0002840708
       -0.0001119538   0.0000860747   0.0001904722  -0.0001212942  -0.0001099371
        0.0002457215  -0.0001366115  -0.0001587155   0.0000378151  -0.0000133984
       -0.0000517361   0.0001699386  -0.0002523894  -0.0001073378  -0.0000706490
       -0.0003317488  -0.0020559573   0.0009629888
        0.4267508891  -0.2570094662   0.0996544036  -0.5452513007   0.3703043101
       -0.1081074658   0.0907210326  -0.0964774028   0.0063383007   0.0083426160
        0.0063248320   0.0111853297  -0.0018301362  -0.0013840298  -0.0004383158
       -0.0004236217  -0.0002114303  -0.0000709479   0.0001189697  -0.0003555122
       -0.0001106665   0.0001632781  -0.0000638721  -0.0000760078  -0.0002573597
       -0.0001521723   0.0000746406   0.0006460356  -0.0002071180   0.0000345390
       -0.0019485083  -0.0013437557  -0.0069269943  -0.0114429877   0.0052326934
        0.0010004100   0.0085434619  -0.0027900101   0.0007190979  -0.0028760081
        0.0031433527   0.0016865377   0.0029808165   0.0001882967   0.0010348861
       -0.0014404959   0.0003577206   0.0001436043  -0.0010873077  -0.0001279419
       -0.0003416524   0.0000211464  -0.0006398351   0.0000949611   0.0001040807
        0.0000521887   0.0000067420  -0.0000593331   0.0000140124  -0.0000000288
        0.0002444747   0.0001506405  -0.0000387316  -0.0000417696  -0.0004163865
        0.0001930532  -0.0002924513   0.0004415249  -0.0001180441  -0.0008799295
        0.0000000157  -0.0001610970   0.0005089265   0.0005471421  -0.0001873384
        0.0000838999  -0.0004602784   0.0001869301   0.0000825365   0.0001801762
       -0.0001097517   0.0000462308  -0.0007326343   0.0003223405  -0.0002537096
        0.0003392824  -0.0001608477   0.0002826149  -0.0000434903   0.0002027135
       -0.0000890661   0.0002780749  -0.0001542595  -0.0001493184   0.0000060937
       -0.0000309286   0.0000415836  -0.0000111134   0.0000083611  -0.0001301850
       -0.0001014861  -0.0000308397  -0.0001246196  -0.0003469544   0.0001472207
        0.0001636793   0.0000938235  -0.0000150801  -0.0000470518  -0.0000404111
       -0.0000191226   0.0000262315  -0.0000223252  -0.0000113568   0.0000355227
        0.0000266722   0.0000001639   0.0000232606   0.0000580867   0.0000020870
       -0.0000711807  -0.0000342651   0.0000212460   0.0013387301   0.0010118263
        0.0000862563   0.0021348849  -0.0020107767  -0.0007599900  -0.0041273023
       -0.0005725862  -0.0017076168   0.0033650335   0.0018805033  -0.0014246827
        0.0262517622  -0.0237498921  -0.0008127112   0.0002848224   0.0004495100
        0.0012872548   0.0004196854  -0.0001752211   0.0002790778  -0.0001552871
       -0.0000427102   0.0000449494   0.0001863257   0.0001356503   0.0000981373
       -0.0003866201  -0.0000438501  -0.0000621322   0.0007043042  -0.0015111202
       -0.0012014873  -0.0000269063   0.0007198191  -0.0015330479   0.0000614828
       -0.0000125341  -0.0000589154   0.0000178572   0.0000975364  -0.0000026678
        0.0000545199   0.0000134353  -0.0001022365   0.0000464697   0.0001004499
       -0.0000229001   0.0000421486   0.0000283716  -0.0000239322  -0.0000701080
        0.0000547551   0.0000919257  -0.0000374483  -0.0000735447   0.0000536464
        0.0000126904   0.0000392519  -0.0000549329  -0.0000189160   0.0000419498
       -0.0000591971  -0.0000610481   0.0000234495   0.0000190919  -0.0000438247
        0.0000171625   0.0000115395  -0.0000733916  -0.0000235457   0.0000073798
       -0.0000211546   0.0000093079  -0.0000999869   0.0000453843   0.0000195346
        0.0000069001  -0.0000090882  -0.0000757849   0.0000318407  -0.0000396714
       -0.0000539587   0.0000081312  -0.0000041584   0.0000059278  -0.0000378402
       -0.0000220805  -0.0000047512   0.0000043418  -0.0000189063  -0.0000144071
       -0.0000015839  -0.0000119952  -0.0000243403  -0.0000092239   0.0000107730
       -0.0000009529  -0.0000037949  -0.0000746298   0.0000258488  -0.0001536640
        0.0000520411  -0.0001188052  -0.0001750510   0.0000026251   0.0001158920
        0.0000325937   0.0000134351   0.0001465092   0.0000274089  -0.0000171447
        0.0000782861   0.0000377083   0.0000488624   0.0000257418   0.0000600041
       -0.0011091026  -0.0012989861   0.0001713155
       -0.1839900261   0.0991692672  -0.0715121636   0.2378742502  -0.1081074658
        0.1306617646  -0.0441709085   0.0071813651  -0.0552111585  -0.0165728855
        0.0074015134  -0.0068763101   0.0000525931   0.0006734998  -0.0003435412
       -0.0018562892  -0.0012219009  -0.0011244818   0.0003979128  -0.0002164509
       -0.0001354063  -0.0000040110   0.0001051369   0.0001027435   0.0000433389
       -0.0000520585  -0.0000056796  -0.0000006675   0.0003739126  -0.0000125886
       -0.0028415557  -0.0025487879   0.0019762982   0.0048281140   0.0001939853
        0.0009977058  -0.0027475072   0.0015587368   0.0000333742   0.0010076467
       -0.0009973149  -0.0004703876  -0.0009795642  -0.0000174052  -0.0002782151
        0.0005093568  -0.0002431762  -0.0001225084   0.0001621475  -0.0001453713
        0.0001759166  -0.0000335029   0.0003651494  -0.0001322169  -0.0000461442
       -0.0001316630   0.0000390568  -0.0000922593   0.0000595489  -0.0000461103
        0.0000115546  -0.0000281924   0.0000144893   0.0000056497   0.0000914766
       -0.0000518453   0.0001255086  -0.0001290527   0.0000383714   0.0000798526
        0.0000600559  -0.0000058216  -0.0000970909  -0.0001017069   0.0000458560
       -0.0000107004   0.0001180399  -0.0000665283   0.0000069473  -0.0001255830
        0.0000853082  -0.0000282212   0.0002294073  -0.0001093364   0.0001395142
       -0.0000524723   0.0000397956  -0.0001158075   0.0000373588  -0.0000843965
        0.0000485035  -0.0000738425   0.0000313126  -0.0000596184  -0.0000354446
       -0.0000147186   0.0000670014  -0.0000629084   0.0000470870  -0.0001684306
        0.0000770575  -0.0000717131   0.0001420774   0.0000968782  -0.0000043498
        0.0000036644   0.0000227086  -0.0000012734  -0.0000056396   0.0000210132
       -0.0000092715   0.0000065071   0.0000104446   0.0000029933  -0.0000036238
       -0.0000013566  -0.0000012770   0.0000065924  -0.0000020004  -0.0000056364
        0.0000133985  -0.0000055955   0.0000092626  -0.0001645378  -0.0003549991
        0.0000596579  -0.0007471663   0.0007626230   0.0002686077   0.0014380624
        0.0002483678   0.0005510295  -0.0003909628  -0.0048986893   0.0011878593
        0.0069147786   0.0018020475   0.0029367106   0.0008837293  -0.0002840926
       -0.0010048806  -0.0003120778   0.0001231644   0.0000293858   0.0000763247
       -0.0000259006  -0.0001515124  -0.0000934816   0.0000064454  -0.0000080209
       -0.0002050543  -0.0000867907  -0.0002640858   0.0001260833  -0.0000182827
        0.0000458979   0.0005823249   0.0000304331  -0.0020337913   0.0000303698
        0.0000108012  -0.0000280388   0.0000559808   0.0000685946   0.0000404246
        0.0000629243   0.0000242135   0.0000777944   0.0000772124   0.0000870663
        0.0000458321  -0.0001158036  -0.0001109494  -0.0001088143   0.0000220954
       -0.0000225616  -0.0000551321   0.0000273642   0.0000226340  -0.0000029495
       -0.0000016297  -0.0000158652   0.0000121970   0.0000044688  -0.0000026855
        0.0000111860   0.0000148185  -0.0000063412  -0.0000026252   0.0000060925
       -0.0000005217   0.0000002866   0.0000103058   0.0000051653  -0.0000023564
        0.0000227347  -0.0000016996   0.0000522682   0.0000015044   0.0000057404
       -0.0000000699   0.0000074629   0.0000161737  -0.0000038806   0.0000049847
        0.0000109628  -0.0000000491   0.0000026981  -0.0000015558   0.0000115932
        0.0000071635  -0.0000001265   0.0000000604   0.0000050055   0.0000016917
        0.0000006766   0.0000027309   0.0000033885   0.0000008005   0.0000019713
       -0.0000039078  -0.0000070491   0.0000313874  -0.0000212768   0.0000473792
       -0.0000210208  -0.0000858175   0.0000145897   0.0000416421   0.0000012998
        0.0000191380  -0.0000322645  -0.0000335581   0.0000201092   0.0000230906
       -0.0000002650   0.0000539825   0.0000004014  -0.0000165035   0.0000185359
       -0.0001093924  -0.0007852290   0.0005628532
       -0.0679881852   0.0410705023  -0.0150810640  -0.2179765391   0.0907210326
       -0.0441709085   0.5475189811  -0.1706748194   0.1182217300  -0.0953371773
       -0.0352147801  -0.0534752775   0.0027042652  -0.0125304239  -0.0089061017
       -0.0030584779   0.0028602557   0.0015325022  -0.0002125067  -0.0012707450
       -0.0007677592  -0.0002078233   0.0006193109   0.0005164929   0.0004727350
       -0.0011986923  -0.0007263548   0.0023517629   0.0036150175   0.0024651394
       -0.0669540410  -0.0090740061  -0.0441434989  -0.0171911983   0.0185452556
        0.0109835201   0.0198473521  -0.0065152823   0.0015416647  -0.0068840046
        0.0076075590   0.0037439493   0.0074180519   0.0005451453   0.0025825016
       -0.0036692654   0.0008230853   0.0002925713  -0.0025922364  -0.0006130296
       -0.0007755260  -0.0000587727  -0.0013453449   0.0001363970   0.0003455034
       -0.0000322732   0.0000746209  -0.0001850037   0.0001785084  -0.0000548911
        0.0006532342   0.0004966112  -0.0001400153  -0.0002637587  -0.0010409220
        0.0004457306  -0.0006023316   0.0011608375  -0.0002910985  -0.0024265984
        0.0001524089  -0.0004778947   0.0012103629   0.0015660723  -0.0005587048
        0.0000007602  -0.0012244044   0.0004376597   0.0003106998   0.0003191043
       -0.0002550518   0.0001418995  -0.0017378828   0.0007719466  -0.0005352679
        0.0008702825  -0.0003828367   0.0007501871  -0.0000130316   0.0004638512
       -0.0000155977   0.0007171832  -0.0003171590  -0.0004601481  -0.0001641169
       -0.0000158423   0.0001409852  -0.0002445170   0.0001219600  -0.0003551847
       -0.0002115068  -0.0000435527  -0.0001036979  -0.0006268948   0.0003026239
        0.0000418463  -0.0000486999  -0.0000271100  -0.0000926477  -0.0000065763
       -0.0000247030  -0.0000149426  -0.0000734942  -0.0000095161   0.0000760013
        0.0000618990  -0.0000014043   0.0000092209   0.0000851492  -0.0000076271
       -0.0000781429  -0.0001024727   0.0000060954   0.0036104885   0.0022789939
        0.0003486854   0.0049551171  -0.0048609097  -0.0018421941  -0.0092792425
       -0.0015430668  -0.0043136803  -0.0367281651   0.0382180964   0.0121902688
       -0.0599087169   0.0471455451   0.0303657038   0.0017686246  -0.0090382187
       -0.0076628043  -0.0012151720  -0.0002668027  -0.0006666071  -0.0010372517
       -0.0003320988  -0.0007126125   0.0005826739   0.0003761898   0.0003866144
       -0.0000407028  -0.0003557093  -0.0006884817   0.0012987734  -0.0003198319
       -0.0005514525  -0.0000703597   0.0008091367   0.0004738398  -0.0000337567
        0.0000050272   0.0001156333  -0.0000203622   0.0001433454  -0.0000132662
        0.0001314740   0.0001441815  -0.0000557128  -0.0000343927   0.0002843925
       -0.0000818594   0.0002711231  -0.0000176817   0.0000439998  -0.0001430715
        0.0000966478   0.0002652490  -0.0001443555  -0.0001848733   0.0001562418
        0.0000102742   0.0000623738  -0.0001374565  -0.0000134632   0.0000275584
       -0.0001314646  -0.0000937300   0.0000580451   0.0000836754  -0.0000489327
        0.0000074465   0.0000747889  -0.0000951185  -0.0000075679   0.0000180989
       -0.0000779208  -0.0000017605  -0.0002176384   0.0000008228   0.0000394929
       -0.0000261765  -0.0000412706  -0.0000788925   0.0000225115  -0.0000737826
       -0.0000866426   0.0000137788  -0.0000007696   0.0000191042  -0.0000892612
       -0.0000128103   0.0000008090   0.0000032181  -0.0000201071  -0.0000093634
       -0.0000029063  -0.0000079375  -0.0000111916  -0.0000143026   0.0000119478
        0.0000119104  -0.0000152257  -0.0001881729   0.0000636098  -0.0003349495
        0.0003896110  -0.0000519816  -0.0001091482  -0.0001610841   0.0001061722
       -0.0000304590   0.0000182680  -0.0000951670  -0.0000951762   0.0000229597
       -0.0000109148  -0.0000041176   0.0000645256   0.0000270280   0.0000033992
       -0.0003763335  -0.0007037363  -0.0007558124
        0.0429083533  -0.0077972712   0.0118240512   0.0871243908  -0.0964774028
        0.0071813651  -0.1706748194   0.3189706178   0.0984423673  -0.0012053648
       -0.0450648949  -0.0062568076  -0.0051700627  -0.0275102615  -0.0303069617
       -0.0078366833   0.0037157050   0.0025593780  -0.0005667423  -0.0034206798
       -0.0016196429  -0.0009070882   0.0020240673   0.0017365307   0.0025391270
       -0.0038053815  -0.0020695025   0.0046352195   0.0046408274   0.0024664913
       -0.0024004279  -0.0093668071  -0.0231350353   0.0206417538   0.0335323555
        0.0389844310  -0.0079078463   0.0052358823   0.0014222661   0.0018119110
       -0.0028712330  -0.0016852590  -0.0019765928   0.0000258934  -0.0006898014
        0.0012437815  -0.0013831566  -0.0009346148   0.0010494124   0.0001739438
        0.0002708794   0.0000236524   0.0005786752  -0.0000028734  -0.0001069307
        0.0000115365  -0.0000482993   0.0000598236  -0.0000718457   0.0000204834
       -0.0002447151  -0.0001840220   0.0000454179   0.0000938902   0.0003883917
       -0.0001695519   0.0002664704  -0.0004257561   0.0001068383   0.0009677059
       -0.0001007162   0.0002110423  -0.0004473752  -0.0006012287   0.0002159357
        0.0000158273   0.0004732725  -0.0001586352  -0.0001370034  -0.0000823434
        0.0000826682  -0.0000548585   0.0006583158  -0.0003016728   0.0001729112
       -0.0003324838   0.0001418588  -0.0002642573  -0.0000028104  -0.0001991915
        0.0000402009  -0.0002963202   0.0001081809   0.0002032146   0.0000795440
       -0.0000093402  -0.0000616188   0.0001054302  -0.0000796499   0.0001448484
        0.0000594064   0.0000646149   0.0000403070   0.0002065035  -0.0001421095
       -0.0000006885   0.0000096213   0.0000280678   0.0000368585   0.0000055597
        0.0000227805   0.0000069918   0.0000260873   0.0000011711  -0.0000194292
       -0.0000257219  -0.0000002197  -0.0000148501  -0.0000295339   0.0000115061
        0.0000204093   0.0000526176  -0.0000064992  -0.0014639532  -0.0008830568
       -0.0001890154  -0.0029062388   0.0028560182   0.0012717515   0.0051358446
        0.0002789990   0.0019051339   0.0314962790  -0.0546361729  -0.0350319294
        0.0108309008  -0.0979058885  -0.0401115013  -0.0121588970  -0.0247604708