      -----------------------------------------------------------      
     |                   =====================                   |     
     |                           x T B                           |     
     |                   =====================                   |     
     |                         S. Grimme                         |     
     |          Mulliken Center for Theoretical Chemistry        |     
     |                    University of Bonn                     |     
      -----------------------------------------------------------      

   * xtb version 6.7.1 (edcfbbe) compiled by 'albert@albert-system' on 2024-07-22

   xtb is free software: you can redistribute it and/or modify it under
   the terms of the GNU Lesser General Public License as published by
   the Free Software Foundation, either version 3 of the License, or
   (at your option) any later version.
   
   xtb is distributed in the hope that it will be useful,
   but WITHOUT ANY WARRANTY; without even the implied warranty of
   MERCHANTABILITY or FITNESS FOR A PARTICULAR PURPOSE.  See the
   GNU Lesser General Public License for more details.
   
   Cite this work as:
   * C. Bannwarth, E. Caldeweyher, S. Ehlert, A. Hansen, P. Pracht,
     J. Seibert, S. Spicher, S. Grimme, WIREs Comput. Mol. Sci., 2020, 11,
     e01493. DOI: 10.1002/wcms.1493
   
   for GFN2-xTB:
   * C. Bannwarth, S. Ehlert and S. Grimme., J. Chem. Theory Comput., 2019,
     15, 1652-1671. DOI: 10.1021/acs.jctc.8b01176
   for GFN1-xTB:
   * S. Grimme, C. Bannwarth, P. Shushkov, J. Chem. Theory Comput., 2017,
     13, 1989-2009. DOI: 10.1021/acs.jctc.7b00118
   for GFN0-xTB:
   * P. Pracht, E. Caldeweyher, S. Ehlert, S. Grimme, ChemRxiv, 2019, preprint.
     DOI: 10.26434/chemrxiv.8326202.v1
   for GFN-FF:
   * S. Spicher and S. Grimme, Angew. Chem. Int. Ed., 2020, 59, 15665-15673.
     DOI: 10.1002/anie.202004239
   
   for ALPB and GBSA implicit solvation:
   * S. Ehlert, M. Stahn, S. Spicher, S. Grimme, J. Chem. Theory Comput.,
     2021, 17, 4250-4261. DOI: 10.1021/acs.jctc.1c00471
   
   for ddCOSMO and CPCM-X implicit solvation:
   * M. Stahn, S. Ehlert, S. Grimme, J. Phys. Chem. A,
     2023, XX, XXXX-XXXX. DOI: 10.1021/acs.jpca.3c04382
   
   for DFT-D4:
   * E. Caldeweyher, C. Bannwarth and S. Grimme, J. Chem. Phys., 2017,
     147, 034112. DOI: 10.1063/1.4993215
   * E. Caldeweyher, S. Ehlert, A. Hansen, H. Neugebauer, S. Spicher,
     C. Bannwarth and S. Grimme, J. Chem. Phys., 2019, 150, 154122.
     DOI: 10.1063/1.5090222
   * E. Caldeweyher, J.-M. Mewes, S. Ehlert and S. Grimme, Phys. Chem. Chem. Phys.
     2020, 22, 8499-8512. DOI: 10.1039/D0CP00502A
   
   for sTDA-xTB:
   * S. Grimme and C. Bannwarth, J. Chem. Phys., 2016, 145, 054103.
     DOI: 10.1063/1.4959605
   
   in the mass-spec context:
   * V. Asgeirsson, C. Bauer and S. Grimme, Chem. Sci., 2017, 8, 4879.
     DOI: 10.1039/c7sc00601b
   * J. Koopman and S. Grimme, ACS Omega 2019, 4, 12, 15120-15133.
     DOI: 10.1021/acsomega.9b02011
   
   for metadynamics refer to:
   * S. Grimme, J. Chem. Theory Comput., 2019, 155, 2847-2862
     DOI: 10.1021/acs.jctc.9b00143
   
   for SPH calculations refer to:
   * S. Spicher and S. Grimme, J. Chem. Theory Comput., 2021, 17, 1701-1714
     DOI: 10.1021/acs.jctc.0c01306
   
   for ONIOM refer to:
   * C. Plett, A. Katbashev, S. Ehlert, S. Grimme, M. Bursch,
     Phys. Chem. Chem. Phys., 2023, 25, 17860-17868. DOI: 10.1039/D3CP02178E
   
   for DIPRO refer to:
   * J. Kohn, N. Gildemeister, S. Grimme, D. Fazzi, A. Hansen,
     J. Chem. Phys., 2023, just accepted.
   
   for PTB refer to:
   * S. Grimme, M. Mueller, A. Hansen, J. Chem. Phys., 2023, 158, 124111.
     DOI: 10.1063/5.0137838
   
   with help from (in alphabetical order)
   P. Atkinson, C. Bannwarth, F. Bohle, G. Brandenburg, E. Caldeweyher
   M. Checinski, S. Dohm, S. Ehlert, S. Ehrlich, I. Gerasimov, C. Hölzer
   A. Katbashev, J. Kohn, J. Koopman, C. Lavigne, S. Lehtola, F. März, M. Müller,
   F. Musil, H. Neugebauer, J. Pisarek, C. Plett, P. Pracht, F. Pultar,
   J. Seibert, P. Shushkov, S. Spicher, M. Stahn, M. Steiner, T. Strunk,
   J. Stückrath, T. Rose, and J. Unsleber
   
 * started run on 2025/08/26 at 00:31:34.253     
   ID    Z sym.   atoms
    1    8 O      1, 10, 11
    2    6 C      2-8, 13-15, 17-28
    3   16 S      9
    4    7 N      12, 16
    5    1 H      29-46

           -------------------------------------------------
          |                Calculation Setup                |
           -------------------------------------------------

          program call               : xtb data2507/toluene/CzPrSBI/CzPrSBI_toluene_T1_crest.xyz --gfn 2 --uhf 2 --gbsa toluene --ohess vtight --parallel 40 --molden --ceasefiles --namespace data2507/toluene/CzPrSBI/CzPrSBI_toluene_T1_finalOpt
          calculation namespace      : data2507/toluene/CzPrSBI/CzPrSBI_toluene_T1_finalOpt
          coordinate file            : data2507/toluene/CzPrSBI/CzPrSBI_toluene_T1_crest.xyz
          omp threads                :                    40


           -------------------------------------------------
          |                 G F N 2 - x T B                 |
           -------------------------------------------------

        Reference                      10.1021/acs.jctc.8b01176
      * Hamiltonian:
        H0-scaling (s, p, d)           1.850000    2.230000    2.230000
        zeta-weighting                 0.500000
      * Dispersion:
        s8                             2.700000
        a1                             0.520000
        a2                             5.000000
        s9                             5.000000
      * Repulsion:
        kExp                           1.500000    1.000000
        rExp                           1.000000
      * Coulomb:
        alpha                          2.000000
        third order                    shell-resolved
        anisotropic                    true
        a3                             3.000000
        a5                             4.000000
        cn-shift                       1.200000
        cn-exp                         4.000000
        max-rad                        5.000000

      * Solvation model:               GBSA
        Solvent                        toluene
        Parameter file                 internal GFN2-xTB/GBSA
        Dielectric constant                7.0000E+00
        Reference state                gsolv [1 M gas/solution]
        Free energy shift                  4.5239E-03 Eh       2.8388E+00 kcal/mol
        Temperature                        2.9815E+02 K
        Density                            8.6700E-01 kg/L
        Solvent mass                       9.2140E+01 g/mol
        Interaction kernel             Still
        Born radius scaling (c1)           1.5686E+00
        Born radii integrator          GBOBC
        Born offset                        0.0000E+00 a0       0.0000E+00 AA
        H-bond correction              false
        Ion screening                  false
        Surface tension                    1.0000E-05 Eh       1.5569E+01 dyn/cm
        Grid points                               230 per atom

          ...................................................
          :                      SETUP                      :
          :.................................................:
          :  # basis functions                 136          :
          :  # atomic orbitals                 135          :
          :  # shells                           75          :
          :  # electrons                       140          :
          :  max. iterations                   250          :
          :  Hamiltonian                  GFN2-xTB          :
          :  restarted?                      false          :
          :  GBSA solvation                   true          :
          :  PC potential                    false          :
          :  electronic temp.          300.0000000     K    :
          :  accuracy                    1.0000000          :
          :  -> integral cutoff          0.2500000E+02      :
          :  -> integral neglect         0.1000000E-07      :
          :  -> SCF convergence          0.1000000E-05 Eh   :
          :  -> wf. convergence          0.1000000E-03 e    :
          :  Broyden damping             0.4000000          :
          :  net charge                          0          :
          :  unpaired electrons                  2          :
          ...................................................

 iter      E             dE          RMSdq      gap      omega  full diag
   1    -78.5799238 -0.785799E+02  0.454E+00    1.39       0.0  T
   2    -78.6855154 -0.105592E+00  0.300E+00    1.85       1.0  T
   3    -78.6770461  0.846927E-02  0.135E+00    1.57       1.0  T
   4    -78.7045990 -0.275528E-01  0.514E-01    1.82       1.0  T
   5    -78.7126640 -0.806499E-02  0.235E-01    1.71       1.0  T
   6    -78.7135027 -0.838726E-03  0.118E-01    1.75       1.0  T
   7    -78.7137536 -0.250891E-03  0.662E-02    1.73       1.0  T
   8    -78.7138171 -0.635089E-04  0.343E-02    1.74       1.0  T
   9    -78.7138286 -0.114945E-04  0.139E-02    1.74       1.1  T
  10    -78.7138320 -0.338477E-05  0.507E-03    1.74       2.9  T
  11    -78.7138323 -0.308759E-06  0.271E-03    1.74       5.5  T
  12    -78.7138324 -0.717528E-07  0.114E-03    1.74      12.9  T
  13    -78.7138324 -0.329036E-07  0.363E-04    1.74      40.7  T
  14    -78.7138324 -0.190833E-08  0.155E-04    1.74      94.9  T

   *** convergence criteria satisfied after 14 iterations ***

         #    Occupation            Energy/Eh            Energy/eV
      -------------------------------------------------------------
         1        2.0000           -0.7877041             -21.4345
       ...           ...                  ...                  ...
        65        2.0000           -0.4186659             -11.3925
        66        2.0000           -0.4157870             -11.3141
        67        2.0000           -0.4136325             -11.2555
        68        2.0000           -0.3874597             -10.5433
        69        2.0000           -0.3802447             -10.3470
        70        1.0000           -0.3225762              -8.7777
        71        1.0000           -0.3088009              -8.4029 (HOMO)
        72                         -0.2448288              -6.6621 (LUMO)
        73                         -0.2369919              -6.4489
        74                         -0.2127766              -5.7899
        75                         -0.2041747              -5.5559
        76                         -0.1915214              -5.2116
       ...                                ...                  ...
       135                          1.2406961              33.7611
      -------------------------------------------------------------
                  HL-Gap            0.0639721 Eh            1.7408 eV
             Fermi-level           -0.3141127 Eh           -8.5474 eV
 
 transition dipole moment (au) for excitation:          70          71
     X       Y       Z   
   1.1134   2.2846   0.2288  total (au/Debye):    2.552   6.486
 dE (eV)             :    0.375
 oscillator strength :  0.84565E-01

 SCC (total)                   0 d,  0 h,  0 min,  0.206 sec
 SCC setup                      ...        0 min,  0.001 sec (  0.640%)
 Dispersion                     ...        0 min,  0.002 sec (  1.214%)
 classical contributions        ...        0 min,  0.000 sec (  0.153%)
 integral evaluation            ...        0 min,  0.011 sec (  5.368%)
 iterations                     ...        0 min,  0.168 sec ( 81.806%)
 molecular gradient             ...        0 min,  0.010 sec (  4.884%)
 printout                       ...        0 min,  0.012 sec (  5.898%)

         :::::::::::::::::::::::::::::::::::::::::::::::::::::
         ::                     SUMMARY                     ::
         :::::::::::::::::::::::::::::::::::::::::::::::::::::
         :: total energy             -77.577693913128 Eh    ::
         :: total w/o Gsasa/hb       -77.556002402561 Eh    ::
         :: gradient norm              0.015511337656 Eh/a0 ::
         :: HOMO-LUMO gap              1.740768863959 eV    ::
         ::.................................................::
         :: SCC energy               -78.710957211781 Eh    ::
         :: -> isotropic ES            0.090597232308 Eh    ::
         :: -> anisotropic ES         -0.008875449685 Eh    ::
         :: -> anisotropic XC          0.027522346218 Eh    ::
         :: -> dispersion             -0.073393989827 Eh    ::
         :: -> Gsolv                  -0.028810422835 Eh    ::
         ::    -> Gelec               -0.007118912268 Eh    ::
         ::    -> Gsasa               -0.026215390439 Eh    ::
         ::    -> Ghb                  0.000000000000 Eh    ::
         ::    -> Gshift               0.004523879872 Eh    ::
         :: repulsion energy           1.133263298653 Eh    ::
         :: add. restraining           0.000000000000 Eh    ::
         :: total charge              -0.000000000000 e     ::
         :::::::::::::::::::::::::::::::::::::::::::::::::::::

      ----------------------------------------------------------- 
     |                   =====================                   |
     |                        A N C O P T                        |
     |                   =====================                   |
     |               Approximate Normal Coordinate               |
     |                Rational Function Optimizer                |
      ----------------------------------------------------------- 

Optimization log is written to '/dev/null'
      ----------------------------------------------------------- 
     |                   =====================                   |
     |                        A N C O P T                        |
     |                   =====================                   |
     |               Approximate Normal Coordinate               |
     |                Rational Function Optimizer                |
      ----------------------------------------------------------- 

          ...................................................
          :                      SETUP                      :
          :.................................................:
          :   optimization level         verytight          :
          :   max. optcycles                   920          :
          :   ANC micro-cycles                  20          :
          :   degrees of freedom               132          :
          :.................................................:
          :   RF solver                   davidson          :
          :   write xtbopt.log                true          :
          :   linear?                        false          :
          :   energy convergence         0.1000000E-06 Eh   :
          :   grad. convergence          0.2000000E-03 Eh/α :
          :   maxmium RF displ.          1.0000000          :
          :   Hlow (freq-cutoff)         0.1000000E-01      :
          :   Hmax (freq-cutoff)         5.0000000          :
          :   S6 in model hess.         20.0000000          :
          ...................................................

generating ANC from exact Hessian ...
Using Lindh-Hessian (1995)
 Shifting diagonal of input Hessian by   9.450784729573633E-003
 Lowest  eigenvalues of input Hessian
    0.000000    0.000000    0.000000    0.000000    0.000000    0.000000
    0.010000    0.010618    0.011451    0.012486    0.013123    0.015078
    0.016470    0.017346    0.018129    0.018840    0.020380    0.022734
 Highest eigenvalues
    2.073016    2.073362    2.131550    2.166290    2.830708    3.471704
 

........................................................................
.............................. CYCLE    1 ..............................
........................................................................

 iter      E             dE          RMSdq      gap      omega  full diag
   1    -78.7138324 -0.787138E+02  0.661E-05    1.74       0.0  T
   2    -78.7138324 -0.200089E-10  0.430E-05    1.74     342.7  T
   3    -78.7138324 -0.211884E-10  0.284E-05    1.74     519.5  T
     SCC iter.                  ...        0 min,  0.021 sec
     gradient                   ...        0 min,  0.008 sec
 * total energy  :   -77.5776939 Eh     change       -0.4139054E-09 Eh
   gradient norm :     0.0155109 Eh/α   predicted     0.0000000E+00 (-100.00%)
   displ. norm   :     0.1102848 α      lambda       -0.3669306E-03
   maximum displ.:     0.0547266 α      in ANC's #2, #9, #4, ...

........................................................................
.............................. CYCLE    2 ..............................
........................................................................

 iter      E             dE          RMSdq      gap      omega  full diag
   1    -78.7123405 -0.787123E+02  0.401E-02    1.74       0.0  T
   2    -78.7123448 -0.428076E-05  0.188E-02    1.74       1.0  T
   3    -78.7123429  0.193616E-05  0.101E-02    1.74       1.5  T
   4    -78.7123462 -0.333252E-05  0.406E-03    1.74       3.6  T
   5    -78.7123464 -0.187350E-06  0.216E-03    1.74       6.8  T
   6    -78.7123465 -0.141034E-06  0.645E-04    1.74      22.8  T
   7    -78.7123465 -0.796396E-08  0.163E-04    1.74      90.7  T
     SCC iter.                  ...        0 min,  0.045 sec
     gradient                   ...        0 min,  0.007 sec
 * total energy  :   -77.5780010 Eh     change       -0.3070567E-03 Eh
   gradient norm :     0.0103302 Eh/α   predicted    -0.1857237E-03 ( -39.51%)
   displ. norm   :     0.2912923 α      lambda       -0.6397455E-03
   maximum displ.:     0.1573051 α      in ANC's #2, #9, #4, ...

........................................................................
.............................. CYCLE    3 ..............................
........................................................................

 iter      E             dE          RMSdq      gap      omega  full diag
   1    -78.7094594 -0.787095E+02  0.959E-02    1.75       0.0  T
   2    -78.7094852 -0.258158E-04  0.436E-02    1.74       1.0  T
   3    -78.7094779  0.728950E-05  0.220E-02    1.75       1.0  T
   4    -78.7094916 -0.137172E-04  0.999E-03    1.74       1.5  T
   5    -78.7094932 -0.155819E-05  0.498E-03    1.75       3.0  T
   6    -78.7094939 -0.667902E-06  0.163E-03    1.74       9.0  T
   7    -78.7094939 -0.531094E-07  0.364E-04    1.74      40.5  T
   8    -78.7094939 -0.124166E-08  0.221E-04    1.74      66.8  T
     SCC iter.                  ...        0 min,  0.048 sec
     gradient                   ...        0 min,  0.007 sec
 * total energy  :   -77.5783771 Eh     change       -0.3761497E-03 Eh
   gradient norm :     0.0067306 Eh/α   predicted    -0.3470284E-03 (  -7.74%)
   displ. norm   :     0.1135679 α      lambda       -0.1051115E-03
   maximum displ.:     0.0718322 α      in ANC's #2, #1, #9, ...

........................................................................
.............................. CYCLE    4 ..............................
........................................................................

 iter      E             dE          RMSdq      gap      omega  full diag
   1    -78.7096462 -0.787096E+02  0.310E-02    1.74       0.0  T
   2    -78.7096483 -0.212548E-05  0.148E-02    1.74       1.0  T
   3    -78.7096479  0.434161E-06  0.663E-03    1.74       2.2  T
   4    -78.7096486 -0.685861E-06  0.345E-03    1.74       4.3  T
   5    -78.7096489 -0.304588E-06  0.135E-03    1.74      10.9  T
   6    -78.7096489 -0.381633E-07  0.513E-04    1.74      28.8  T
   7    -78.7096489 -0.772910E-08  0.120E-04    1.74     122.7  T
     SCC iter.                  ...        0 min,  0.041 sec
     gradient                   ...        0 min,  0.006 sec
 * total energy  :   -77.5784646 Eh     change       -0.8751257E-04 Eh
   gradient norm :     0.0073489 Eh/α   predicted    -0.5323762E-04 ( -39.17%)
   displ. norm   :     0.2120522 α      lambda       -0.2083509E-03
   maximum displ.:     0.1395953 α      in ANC's #2, #1, #9, ...

........................................................................
.............................. CYCLE    5 ..............................
........................................................................

 iter      E             dE          RMSdq      gap      omega  full diag
   1    -78.7108193 -0.787108E+02  0.547E-02    1.74       0.0  T
   2    -78.7108243 -0.497461E-05  0.275E-02    1.74       1.0  T
   3    -78.7108234  0.862696E-06  0.111E-02    1.74       1.3  T
   4    -78.7108245 -0.106635E-05  0.568E-03    1.74       2.6  T
   5    -78.7108254 -0.955785E-06  0.193E-03    1.74       7.6  T
   6    -78.7108255 -0.415161E-07  0.786E-04    1.74      18.8  T
   7    -78.7108255 -0.220108E-07  0.228E-04    1.74      64.8  T
     SCC iter.                  ...        0 min,  0.029 sec
     gradient                   ...        0 min,  0.005 sec
 * total energy  :   -77.5786168 Eh     change       -0.1521524E-03 Eh
   gradient norm :     0.0059867 Eh/α   predicted    -0.1088731E-03 ( -28.44%)
   displ. norm   :     0.1977633 α      lambda       -0.1234172E-03
   maximum displ.:     0.1372890 α      in ANC's #2, #1, #4, ...

........................................................................
.............................. CYCLE    6 ..............................
........................................................................

 iter      E             dE          RMSdq      gap      omega  full diag
   1    -78.7114328 -0.787114E+02  0.473E-02    1.74       0.0  T
   2    -78.7114356 -0.282202E-05  0.243E-02    1.74       1.0  T
   3    -78.7114350  0.637735E-06  0.905E-03    1.74       1.6  T
   4    -78.7114358 -0.771662E-06  0.444E-03    1.74       3.3  T
   5    -78.7114363 -0.570052E-06  0.149E-03    1.74       9.9  T
   6    -78.7114364 -0.245499E-07  0.559E-04    1.74      26.4  T
   7    -78.7114364 -0.119106E-07  0.191E-04    1.74      77.1  T
     SCC iter.                  ...        0 min,  0.027 sec
     gradient                   ...        0 min,  0.005 sec
 * total energy  :   -77.5787076 Eh     change       -0.9078172E-04 Eh
   gradient norm :     0.0053233 Eh/α   predicted    -0.6412845E-04 ( -29.36%)
   displ. norm   :     0.1785742 α      lambda       -0.8268952E-04
   maximum displ.:     0.1282692 α      in ANC's #2, #1, #10, ...

........................................................................
.............................. CYCLE    7 ..............................
........................................................................

 iter      E             dE          RMSdq      gap      omega  full diag
   1    -78.7117219 -0.787117E+02  0.402E-02    1.74       0.0  T
   2    -78.7117235 -0.157348E-05  0.213E-02    1.74       1.0  T
   3    -78.7117229  0.612860E-06  0.720E-03    1.74       2.0  T
   4    -78.7117236 -0.738679E-06  0.352E-03    1.74       4.2  T
   5    -78.7117240 -0.329474E-06  0.114E-03    1.74      13.0  T
   6    -78.7117240 -0.220736E-07  0.441E-04    1.74      33.4  T
   7    -78.7117240 -0.809803E-08  0.157E-04    1.74      93.8  T
     SCC iter.                  ...        0 min,  0.026 sec
     gradient                   ...        0 min,  0.005 sec
 * total energy  :   -77.5787728 Eh     change       -0.6518346E-04 Eh
   gradient norm :     0.0045940 Eh/α   predicted    -0.4267236E-04 ( -34.53%)
   displ. norm   :     0.1993850 α      lambda       -0.7636203E-04
   maximum displ.:     0.1444296 α      in ANC's #2, #1, #10, ...

........................................................................
.............................. CYCLE    8 ..............................
........................................................................

 iter      E             dE          RMSdq      gap      omega  full diag
   1    -78.7117263 -0.787117E+02  0.446E-02    1.74       0.0  T
   2    -78.7117280 -0.168739E-05  0.241E-02    1.74       1.0  T
   3    -78.7117273  0.753105E-06  0.734E-03    1.73       2.0  T
   4    -78.7117282 -0.953281E-06  0.370E-03    1.74       4.0  T
   5    -78.7117285 -0.303293E-06  0.110E-03    1.74      13.5  T
   6    -78.7117285 -0.321314E-07  0.432E-04    1.74      34.1  T
   7    -78.7117285 -0.758742E-08  0.165E-04    1.74      89.3  T
     SCC iter.                  ...        0 min,  0.027 sec
     gradient                   ...        0 min,  0.005 sec
 * total energy  :   -77.5788317 Eh     change       -0.5893079E-04 Eh
   gradient norm :     0.0035583 Eh/α   predicted    -0.3969951E-04 ( -32.63%)
   displ. norm   :     0.1778872 α      lambda       -0.5017428E-04
   maximum displ.:     0.1300314 α      in ANC's #2, #1, #10, ...

........................................................................
.............................. CYCLE    9 ..............................
........................................................................

 iter      E             dE          RMSdq      gap      omega  full diag
   1    -78.7116784 -0.787117E+02  0.407E-02    1.74       0.0  T
   2    -78.7116797 -0.129306E-05  0.222E-02    1.74       1.0  T
   3    -78.7116793  0.443497E-06  0.614E-03    1.74       2.4  T
   4    -78.7116799 -0.608345E-06  0.320E-03    1.74       4.6  T
   5    -78.7116801 -0.198961E-06  0.850E-04    1.74      17.3  T
   6    -78.7116801 -0.239690E-07  0.339E-04    1.74      43.5  T
     SCC iter.                  ...        0 min,  0.023 sec
     gradient                   ...        0 min,  0.005 sec
 * total energy  :   -77.5788672 Eh     change       -0.3555762E-04 Eh
   gradient norm :     0.0024228 Eh/α   predicted    -0.2588559E-04 ( -27.20%)
   displ. norm   :     0.0978897 α      lambda       -0.2043558E-04
   maximum displ.:     0.0721943 α      in ANC's #2, #1, #9, ...

........................................................................
.............................. CYCLE   10 ..............................
........................................................................

 iter      E             dE          RMSdq      gap      omega  full diag
   1    -78.7118195 -0.787118E+02  0.237E-02    1.74       0.0  T
   2    -78.7118200 -0.462044E-06  0.130E-02    1.74       1.1  T
   3    -78.7118199  0.149478E-06  0.360E-03    1.74       4.1  T
   4    -78.7118201 -0.199116E-06  0.188E-03    1.74       7.8  T
   5    -78.7118201 -0.637753E-07  0.546E-04    1.74      27.0  T
   6    -78.7118201 -0.788798E-08  0.189E-04    1.74      77.8  T
     SCC iter.                  ...        0 min,  0.023 sec
     gradient                   ...        0 min,  0.005 sec
 * total energy  :   -77.5788826 Eh     change       -0.1539777E-04 Eh
   gradient norm :     0.0016124 Eh/α   predicted    -0.1032321E-04 ( -32.96%)
   displ. norm   :     0.1079370 α      lambda       -0.1412140E-04
   maximum displ.:     0.0774176 α      in ANC's #2, #1, #6, ...

........................................................................
.............................. CYCLE   11 ..............................
........................................................................

 iter      E             dE          RMSdq      gap      omega  full diag
   1    -78.7118101 -0.787118E+02  0.280E-02    1.74       0.0  T
   2    -78.7118107 -0.695596E-06  0.150E-02    1.74       1.0  T
   3    -78.7118105  0.242135E-06  0.441E-03    1.74       3.3  T
   4    -78.7118108 -0.338583E-06  0.225E-03    1.74       6.6  T
   5    -78.7118109 -0.691749E-07  0.747E-04    1.74      19.7  T
   6    -78.7118109 -0.114348E-07  0.188E-04    1.74      78.4  T
     SCC iter.                  ...        0 min,  0.023 sec
     gradient                   ...        0 min,  0.005 sec
 * total energy  :   -77.5788966 Eh     change       -0.1399210E-04 Eh
   gradient norm :     0.0011415 Eh/α   predicted    -0.7097604E-05 ( -49.27%)
   displ. norm   :     0.0521943 α      lambda       -0.6908105E-05
   maximum displ.:     0.0330757 α      in ANC's #1, #2, #8, ...

........................................................................
.............................. CYCLE   12 ..............................
........................................................................

 iter      E             dE          RMSdq      gap      omega  full diag
   1    -78.7118323 -0.787118E+02  0.131E-02    1.74       0.0  T
   2    -78.7118324 -0.128179E-06  0.712E-03    1.74       2.1  T
   3    -78.7118323  0.536062E-07  0.188E-03    1.74       7.8  T
   4    -78.7118324 -0.668523E-07  0.934E-04    1.74      15.8  T
   5    -78.7118324 -0.141866E-07  0.333E-04    1.74      44.3  T
     SCC iter.                  ...        0 min,  0.019 sec
     gradient                   ...        0 min,  0.005 sec
 * total energy  :   -77.5789049 Eh     change       -0.8247392E-05 Eh
   gradient norm :     0.0012893 Eh/α   predicted    -0.3459551E-05 ( -58.05%)
   displ. norm   :     0.0716671 α      lambda       -0.8853969E-05
   maximum displ.:     0.0449755 α      in ANC's #1, #2, #3, ...

........................................................................
.............................. CYCLE   13 ..............................
........................................................................

 iter      E             dE          RMSdq      gap      omega  full diag
   1    -78.7116199 -0.787116E+02  0.175E-02    1.74       0.0  T
   2    -78.7116201 -0.182504E-06  0.972E-03    1.74       1.5  T
   3    -78.7116200  0.827235E-07  0.224E-03    1.74       6.6  T
   4    -78.7116201 -0.987087E-07  0.113E-03    1.74      13.0  T
   5    -78.7116201 -0.240175E-07  0.404E-04    1.74      36.5  T
   6    -78.7116201 -0.402619E-08  0.128E-04    1.74     114.9  T
     SCC iter.                  ...        0 min,  0.023 sec
     gradient                   ...        0 min,  0.005 sec
 * total energy  :   -77.5789144 Eh     change       -0.9549658E-05 Eh
   gradient norm :     0.0011389 Eh/α   predicted    -0.4440076E-05 ( -53.51%)
   displ. norm   :     0.0818929 α      lambda       -0.7536712E-05
   maximum displ.:     0.0518789 α      in ANC's #1, #2, #3, ...

........................................................................
.............................. CYCLE   14 ..............................
........................................................................

 iter      E             dE          RMSdq      gap      omega  full diag
   1    -78.7118676 -0.787119E+02  0.184E-02    1.74       0.0  T
   2    -78.7118678 -0.132384E-06  0.107E-02    1.74       1.4  T
   3    -78.7118677  0.789845E-07  0.179E-03    1.74       8.2  T
   4    -78.7118678 -0.102935E-06  0.769E-04    1.74      19.2  T
   5    -78.7118678 -0.111803E-07  0.327E-04    1.74      45.1  T
     SCC iter.                  ...        0 min,  0.022 sec
     gradient                   ...        0 min,  0.005 sec
 * total energy  :   -77.5789224 Eh     change       -0.7932385E-05 Eh
   gradient norm :     0.0016993 Eh/α   predicted    -0.3781255E-05 ( -52.33%)
   displ. norm   :     0.0858302 α      lambda       -0.7460832E-05
   maximum displ.:     0.0576830 α      in ANC's #1, #2, #3, ...

........................................................................
.............................. CYCLE   15 ..............................
........................................................................

 iter      E             dE          RMSdq      gap      omega  full diag
   1    -78.7116279 -0.787116E+02  0.199E-02    1.74       0.0  T
   2    -78.7116281 -0.110522E-06  0.114E-02    1.74       1.3  T
   3    -78.7116280  0.932259E-07  0.201E-03    1.74       7.3  T
   4    -78.7116281 -0.101255E-06  0.932E-04    1.74      15.8  T
   5    -78.7116281 -0.239902E-07  0.276E-04    1.74      53.3  T
     SCC iter.                  ...        0 min,  0.022 sec
     gradient                   ...        0 min,  0.005 sec
 * total energy  :   -77.5789312 Eh     change       -0.8855314E-05 Eh
   gradient norm :     0.0011022 Eh/α   predicted    -0.3745591E-05 ( -57.70%)
   displ. norm   :     0.1127270 α      lambda       -0.9036259E-05
   maximum displ.:     0.0772995 α      in ANC's #1, #2, #3, ...

........................................................................
.............................. CYCLE   16 ..............................
........................................................................

 iter      E             dE          RMSdq      gap      omega  full diag
   1    -78.7116592 -0.787117E+02  0.255E-02    1.74       0.0  T
   2    -78.7116593 -0.117856E-06  0.148E-02    1.74       1.0  T
   3    -78.7116592  0.721621E-07  0.186E-03    1.74       7.9  T
   4    -78.7116593 -0.743396E-07  0.886E-04    1.74      16.6  T
   5    -78.7116593 -0.321689E-07  0.296E-04    1.74      49.9  T
     SCC iter.                  ...        0 min,  0.022 sec
     gradient                   ...        0 min,  0.005 sec
 * total energy  :   -77.5789418 Eh     change       -0.1053734E-04 Eh
   gradient norm :     0.0009172 Eh/α   predicted    -0.4546797E-05 ( -56.85%)
   displ. norm   :     0.1059566 α      lambda       -0.6552958E-05
   maximum displ.:     0.0748895 α      in ANC's #1, #2, #3, ...

........................................................................
.............................. CYCLE   17 ..............................
........................................................................

 iter      E             dE          RMSdq      gap      omega  full diag
   1    -78.7116070 -0.787116E+02  0.240E-02    1.74       0.0  T
   2    -78.7116071 -0.146245E-06  0.140E-02    1.74       1.1  T
   3    -78.7116071  0.385129E-07  0.165E-03    1.74       8.9  T
   4    -78.7116071 -0.446008E-07  0.634E-04    1.74      23.3  T
   5    -78.7116072 -0.192834E-07  0.208E-04    1.74      70.9  T
     SCC iter.                  ...        0 min,  0.022 sec
     gradient                   ...        0 min,  0.005 sec
 * total energy  :   -77.5789489 Eh     change       -0.7133721E-05 Eh
   gradient norm :     0.0007600 Eh/α   predicted    -0.3293292E-05 ( -53.83%)
   displ. norm   :     0.0581855 α      lambda       -0.2762239E-05
   maximum displ.:     0.0437646 α      in ANC's #1, #2, #9, ...

........................................................................
.............................. CYCLE   18 ..............................
........................................................................

 iter      E             dE          RMSdq      gap      omega  full diag
   1    -78.7116944 -0.787117E+02  0.129E-02    1.74       0.0  T
   2    -78.7116945 -0.659687E-07  0.755E-03    1.74       2.0  T
   3    -78.7116944  0.181609E-07  0.113E-03    1.74      13.1  T
   4    -78.7116945 -0.168039E-07  0.432E-04    1.74      34.1  T
   5    -78.7116945 -0.987120E-08  0.119E-04    1.74     123.6  T
     SCC iter.                  ...        0 min,  0.022 sec
     gradient                   ...        0 min,  0.005 sec
 * total energy  :   -77.5789521 Eh     change       -0.3170204E-05 Eh
   gradient norm :     0.0005226 Eh/α   predicted    -0.1385800E-05 ( -56.29%)
   displ. norm   :     0.0289056 α      lambda       -0.1482059E-05
   maximum displ.:     0.0243078 α      in ANC's #1, #2, #3, ...

........................................................................
.............................. CYCLE   19 ..............................
........................................................................

 iter      E             dE          RMSdq      gap      omega  full diag
   1    -78.7116969 -0.787117E+02  0.626E-03    1.74       0.0  T
   2    -78.7116969 -0.199630E-07  0.366E-03    1.74       4.0  T
   3    -78.7116969  0.111847E-07  0.710E-04    1.74      20.8  T
   4    -78.7116969 -0.970806E-08  0.332E-04    1.74      44.4  T
     SCC iter.                  ...        0 min,  0.018 sec
     gradient                   ...        0 min,  0.005 sec
 * total energy  :   -77.5789538 Eh     change       -0.1764930E-05 Eh
   gradient norm :     0.0003486 Eh/α   predicted    -0.7429827E-06 ( -57.90%)
   displ. norm   :     0.0181104 α      lambda       -0.1055372E-05
   maximum displ.:     0.0161308 α      in ANC's #1, #5, #8, ...

........................................................................
.............................. CYCLE   20 ..............................
........................................................................

 iter      E             dE          RMSdq      gap      omega  full diag
   1    -78.7117221 -0.787117E+02  0.360E-03    1.74       0.0  T
   2    -78.7117221 -0.668966E-08  0.206E-03    1.74       7.2  T
   3    -78.7117221  0.110334E-07  0.607E-04    1.74      24.3  T
   4    -78.7117221 -0.119215E-07  0.233E-04    1.74      63.2  T
     SCC iter.                  ...        0 min,  0.018 sec
     gradient                   ...        0 min,  0.005 sec
 * total energy  :   -77.5789551 Eh     change       -0.1277967E-05 Eh
   gradient norm :     0.0003169 Eh/α   predicted    -0.5286234E-06 ( -58.64%)
   displ. norm   :     0.0173672 α      lambda       -0.8868724E-06
   maximum displ.:     0.0140273 α      in ANC's #1, #2, #10, ...
 * RMSD in coord.:     0.2991793 α      energy gain  -0.1261184E-02 Eh

generating ANC from exact Hessian ...
Using Lindh-Hessian (1995)
 Shifting diagonal of input Hessian by   9.524648239390976E-003
 Lowest  eigenvalues of input Hessian
    0.000000    0.000000    0.000000    0.000000    0.000000    0.000000
    0.010000    0.010556    0.011367    0.012435    0.013105    0.015061
    0.016213    0.017233    0.018124    0.018759    0.020307    0.022797
 Highest eigenvalues
    2.070392    2.075557    2.135042    2.165300    2.800136    3.383564
 

........................................................................
.............................. CYCLE   21 ..............................
........................................................................

 iter      E             dE          RMSdq      gap      omega  full diag
   1    -78.7117185 -0.787117E+02  0.336E-03    1.74       0.0  T
   2    -78.7117185 -0.454681E-08  0.195E-03    1.74       7.6  T
   3    -78.7117185  0.745769E-08  0.501E-04    1.74      29.4  T
   4    -78.7117185 -0.821761E-08  0.181E-04    1.74      81.5  T
     SCC iter.                  ...        0 min,  0.022 sec
     gradient                   ...        0 min,  0.005 sec
 * total energy  :   -77.5789562 Eh     change       -0.1143027E-05 Eh
   gradient norm :     0.0003717 Eh/α   predicted     0.0000000E+00 (-100.00%)
   displ. norm   :     0.0006202 α      lambda        0.5534177E-07
   maximum displ.:     0.0004124 α      in ANC's #132, #1, #131, ...

........................................................................
.............................. CYCLE   22 ..............................
........................................................................

 iter      E             dE          RMSdq      gap      omega  full diag
   1    -78.7117505 -0.787118E+02  0.101E-03    1.74       0.0  T
   2    -78.7117506 -0.287319E-07  0.890E-04    1.74      16.6  T
   3    -78.7117506 -0.982538E-09  0.630E-04    1.74      23.4  T
     SCC iter.                  ...        0 min,  0.014 sec
     gradient                   ...        0 min,  0.005 sec
 * total energy  :   -77.5789563 Eh     change       -0.7598258E-07 Eh
   gradient norm :     0.0003050 Eh/α   predicted     0.2741810E-07 (-136.08%)
   displ. norm   :     0.0107376 α      lambda       -0.6160972E-06
   maximum displ.:     0.0085084 α      in ANC's #1, #2, #8, ...

........................................................................
.............................. CYCLE   23 ..............................
........................................................................

 iter      E             dE          RMSdq      gap      omega  full diag
   1    -78.7117086 -0.787117E+02  0.250E-03    1.74       0.0  T
   2    -78.7117086 -0.630182E-08  0.146E-03    1.74      10.1  T
   3    -78.7117086  0.176948E-07  0.730E-04    1.74      20.2  T
   4    -78.7117086 -0.205896E-07  0.205E-04    1.74      72.0  T
     SCC iter.                  ...        0 min,  0.018 sec
     gradient                   ...        0 min,  0.005 sec
 * total energy  :   -77.5789572 Eh     change       -0.8710340E-06 Eh
   gradient norm :     0.0001504 Eh/α   predicted    -0.3126534E-06 ( -64.11%)
   displ. norm   :     0.0242608 α      lambda       -0.1224586E-05
   maximum displ.:     0.0175601 α      in ANC's #1, #2, #6, ...

........................................................................
.............................. CYCLE   24 ..............................
........................................................................

 iter      E             dE          RMSdq      gap      omega  full diag
   1    -78.7116898 -0.787117E+02  0.556E-03    1.74       0.0  T
   2    -78.7116898 -0.150399E-07  0.322E-03    1.74       4.6  T
   3    -78.7116898  0.136470E-07  0.711E-04    1.74      20.7  T
   4    -78.7116898 -0.143775E-07  0.280E-04    1.74      52.6  T
     SCC iter.                  ...        0 min,  0.018 sec
     gradient                   ...        0 min,  0.005 sec
 * total energy  :   -77.5789588 Eh     change       -0.1620339E-05 Eh
   gradient norm :     0.0001696 Eh/α   predicted    -0.6127841E-06 ( -62.18%)
   displ. norm   :     0.0357144 α      lambda       -0.1470294E-05
   maximum displ.:     0.0258008 α      in ANC's #1, #2, #6, ...

........................................................................
.............................. CYCLE   25 ..............................
........................................................................

 iter      E             dE          RMSdq      gap      omega  full diag
   1    -78.7116658 -0.787117E+02  0.741E-03    1.74       0.0  T
   2    -78.7116659 -0.185193E-07  0.432E-03    1.74       3.4  T
   3    -78.7116658  0.295756E-07  0.903E-04    1.74      16.3  T
   4    -78.7116659 -0.332737E-07  0.302E-04    1.74      48.7  T
     SCC iter.                  ...        0 min,  0.018 sec
     gradient                   ...        0 min,  0.005 sec
 * total energy  :   -77.5789607 Eh     change       -0.1910875E-05 Eh
   gradient norm :     0.0002689 Eh/α   predicted    -0.7367082E-06 ( -61.45%)
   displ. norm   :     0.0397130 α      lambda       -0.1394726E-05
   maximum displ.:     0.0288501 α      in ANC's #1, #2, #6, ...

........................................................................
.............................. CYCLE   26 ..............................
........................................................................

 iter      E             dE          RMSdq      gap      omega  full diag
   1    -78.7116297 -0.787116E+02  0.783E-03    1.74       0.0  T
   2    -78.7116297 -0.165690E-07  0.459E-03    1.74       3.2  T
   3    -78.7116297  0.282766E-07  0.848E-04    1.74      17.4  T
   4    -78.7116297 -0.321447E-07  0.261E-04    1.74      56.5  T
     SCC iter.                  ...        0 min,  0.018 sec
     gradient                   ...        0 min,  0.005 sec
 * total energy  :   -77.5789626 Eh     change       -0.1862524E-05 Eh
   gradient norm :     0.0003176 Eh/α   predicted    -0.6982920E-06 ( -62.51%)
   displ. norm   :     0.0437445 α      lambda       -0.1443826E-05
   maximum displ.:     0.0318446 α      in ANC's #1, #2, #6, ...

........................................................................
.............................. CYCLE   27 ..............................
........................................................................

 iter      E             dE          RMSdq      gap      omega  full diag
   1    -78.7116303 -0.787116E+02  0.817E-03    1.74       0.0  T
   2    -78.7116304 -0.145163E-07  0.480E-03    1.74       3.1  T
   3    -78.7116303  0.191839E-07  0.753E-04    1.74      19.6  T
   4    -78.7116304 -0.232909E-07  0.231E-04    1.74      63.7  T
     SCC iter.                  ...        0 min,  0.018 sec
     gradient                   ...        0 min,  0.005 sec
 * total energy  :   -77.5789646 Eh     change       -0.1973921E-05 Eh
   gradient norm :     0.0002831 Eh/α   predicted    -0.7231720E-06 ( -63.36%)
   displ. norm   :     0.0518326 α      lambda       -0.1631197E-05
   maximum displ.:     0.0377917 α      in ANC's #1, #2, #5, ...

........................................................................
.............................. CYCLE   28 ..............................
........................................................................

 iter      E             dE          RMSdq      gap      omega  full diag
   1    -78.7116166 -0.787116E+02  0.960E-03    1.74       0.0  T
   2    -78.7116167 -0.169983E-07  0.562E-03    1.74       2.6  T
   3    -78.7116166  0.257781E-07  0.912E-04    1.74      16.2  T
   4    -78.7116167 -0.314956E-07  0.278E-04    1.74      53.1  T
     SCC iter.                  ...        0 min,  0.018 sec
     gradient                   ...        0 min,  0.005 sec
 * total energy  :   -77.5789667 Eh     change       -0.2168659E-05 Eh
   gradient norm :     0.0002097 Eh/α   predicted    -0.8172083E-06 ( -62.32%)
   displ. norm   :     0.0523555 α      lambda       -0.1447119E-05
   maximum displ.:     0.0385791 α      in ANC's #1, #2, #5, ...

........................................................................
.............................. CYCLE   29 ..............................
........................................................................

 iter      E             dE          RMSdq      gap      omega  full diag
   1    -78.7116288 -0.787116E+02  0.970E-03    1.74       0.0  T
   2    -78.7116289 -0.145802E-07  0.567E-03    1.73       2.6  T
   3    -78.7116288  0.324002E-07  0.101E-03    1.74      14.6  T
   4    -78.7116289 -0.384797E-07  0.306E-04    1.73      48.2  T
   5    -78.7116289 -0.101402E-08  0.137E-04    1.73     107.3  T
     SCC iter.                  ...        0 min,  0.022 sec
     gradient                   ...        0 min,  0.005 sec
 * total energy  :   -77.5789686 Eh     change       -0.1870389E-05 Eh
   gradient norm :     0.0001363 Eh/α   predicted    -0.7268448E-06 ( -61.14%)
   displ. norm   :     0.0435765 α      lambda       -0.1014374E-05
   maximum displ.:     0.0328137 α      in ANC's #1, #2, #5, ...

........................................................................
.............................. CYCLE   30 ..............................
........................................................................

 iter      E             dE          RMSdq      gap      omega  full diag
   1    -78.7116455 -0.787116E+02  0.806E-03    1.73       0.0  T
   2    -78.7116455 -0.108699E-07  0.469E-03    1.73       3.1  T
   3    -78.7116455  0.228451E-07  0.870E-04    1.73      16.9  T
   4    -78.7116455 -0.266263E-07  0.288E-04    1.73      51.3  T
     SCC iter.                  ...        0 min,  0.018 sec
     gradient                   ...        0 min,  0.005 sec
 * total energy  :   -77.5789699 Eh     change       -0.1308041E-05 Eh
   gradient norm :     0.0001246 Eh/α   predicted    -0.5077542E-06 ( -61.18%)
   displ. norm   :     0.0295829 α      lambda       -0.6278780E-06
   maximum displ.:     0.0229490 α      in ANC's #1, #2, #3, ...

........................................................................
.............................. CYCLE   31 ..............................
........................................................................

 iter      E             dE          RMSdq      gap      omega  full diag
   1    -78.7116539 -0.787117E+02  0.549E-03    1.73       0.0  T
   2    -78.7116539 -0.520745E-08  0.318E-03    1.73       4.6  T
   3    -78.7116539  0.106483E-07  0.602E-04    1.73      24.5  T
   4    -78.7116539 -0.111925E-07  0.244E-04    1.73      60.5  T
     SCC iter.                  ...        0 min,  0.018 sec
     gradient                   ...        0 min,  0.005 sec
 * total energy  :   -77.5789708 Eh     change       -0.8634577E-06 Eh
   gradient norm :     0.0001168 Eh/α   predicted    -0.3179379E-06 ( -63.18%)
   displ. norm   :     0.0223531 α      lambda       -0.5205242E-06
   maximum displ.:     0.0175187 α      in ANC's #1, #2, #3, ...

........................................................................
.............................. CYCLE   32 ..............................
........................................................................

 iter      E             dE          RMSdq      gap      omega  full diag
   1    -78.7116747 -0.787117E+02  0.420E-03    1.73       0.0  T
   2    -78.7116747 -0.482972E-08  0.241E-03    1.73       6.1  T
   3    -78.7116747  0.747295E-08  0.523E-04    1.73      28.2  T
   4    -78.7116747 -0.709069E-08  0.238E-04    1.73      61.9  T
     SCC iter.                  ...        0 min,  0.018 sec
     gradient                   ...        0 min,  0.005 sec
 * total energy  :   -77.5789715 Eh     change       -0.7474346E-06 Eh
   gradient norm :     0.0001114 Eh/α   predicted    -0.2637490E-06 ( -64.71%)
   displ. norm   :     0.0230411 α      lambda       -0.6004986E-06
   maximum displ.:     0.0178240 α      in ANC's #1, #3, #2, ...

........................................................................
.............................. CYCLE   33 ..............................
........................................................................

 iter      E             dE          RMSdq      gap      omega  full diag
   1    -78.7116789 -0.787117E+02  0.439E-03    1.73       0.0  T
   2    -78.7116789 -0.717513E-08  0.251E-03    1.73       5.9  T
   3    -78.7116789  0.625670E-08  0.544E-04    1.73      27.1  T
   4    -78.7116789 -0.512576E-08  0.269E-04    1.73      54.9  T
     SCC iter.                  ...        0 min,  0.018 sec
     gradient                   ...        0 min,  0.005 sec
 * total energy  :   -77.5789724 Eh     change       -0.8561951E-06 Eh
   gradient norm :     0.0001010 Eh/α   predicted    -0.3014301E-06 ( -64.79%)
   displ. norm   :     0.0286263 α      lambda       -0.7516927E-06
   maximum displ.:     0.0215122 α      in ANC's #1, #3, #6, ...

........................................................................
.............................. CYCLE   34 ..............................
........................................................................

 iter      E             dE          RMSdq      gap      omega  full diag
   1    -78.7116785 -0.787117E+02  0.564E-03    1.73       0.0  T
   2    -78.7116785 -0.125823E-07  0.322E-03    1.73       4.6  T
   3    -78.7116785  0.845364E-08  0.686E-04    1.73      21.5  T
   4    -78.7116785 -0.633034E-08  0.341E-04    1.73      43.3  T
     SCC iter.                  ...        0 min,  0.018 sec
     gradient                   ...        0 min,  0.005 sec
 * total energy  :   -77.5789734 Eh     change       -0.1033818E-05 Eh
   gradient norm :     0.0000945 Eh/α   predicted    -0.3775633E-06 ( -63.48%)
   displ. norm   :     0.0343347 α      lambda       -0.8016194E-06
   maximum displ.:     0.0255325 α      in ANC's #1, #3, #6, ...

........................................................................
.............................. CYCLE   35 ..............................
........................................................................

 iter      E             dE          RMSdq      gap      omega  full diag
   1    -78.7116806 -0.787117E+02  0.684E-03    1.73       0.0  T
   2    -78.7116806 -0.167702E-07  0.392E-03    1.73       3.8  T
   3    -78.7116806  0.102045E-07  0.782E-04    1.73      18.9  T
   4    -78.7116806 -0.813468E-08  0.375E-04    1.73      39.3  T
     SCC iter.                  ...        0 min,  0.018 sec
     gradient                   ...        0 min,  0.005 sec
 * total energy  :   -77.5789745 Eh     change       -0.1048982E-05 Eh
   gradient norm :     0.0001017 Eh/α   predicted    -0.4021591E-06 ( -61.66%)
   displ. norm   :     0.0291230 α      lambda       -0.5547010E-06
   maximum displ.:     0.0220880 α      in ANC's #1, #3, #6, ...

........................................................................
.............................. CYCLE   36 ..............................
........................................................................

 iter      E             dE          RMSdq      gap      omega  full diag
   1    -78.7116661 -0.787117E+02  0.580E-03    1.73       0.0  T
   2    -78.7116661 -0.118376E-07  0.334E-03    1.73       4.4  T
   3    -78.7116661  0.991581E-08  0.697E-04    1.73      21.2  T
   4    -78.7116661 -0.832085E-08  0.328E-04    1.73      44.9  T
     SCC iter.                  ...        0 min,  0.018 sec
     gradient                   ...        0 min,  0.005 sec
 * total energy  :   -77.5789752 Eh     change       -0.7110086E-06 Eh
   gradient norm :     0.0000929 Eh/α   predicted    -0.2796021E-06 ( -60.68%)
   displ. norm   :     0.0177963 α      lambda       -0.2945210E-06
   maximum displ.:     0.0142919 α      in ANC's #1, #3, #6, ...

........................................................................
.............................. CYCLE   37 ..............................
........................................................................

 iter      E             dE          RMSdq      gap      omega  full diag
   1    -78.7116691 -0.787117E+02  0.351E-03    1.73       0.0  T
   2    -78.7116691 -0.413488E-08  0.202E-03    1.73       7.3  T
   3    -78.7116691  0.365020E-08  0.410E-04    1.73      36.0  T
   4    -78.7116691 -0.365621E-08  0.175E-04    1.73      84.3  T
     SCC iter.                  ...        0 min,  0.018 sec
     gradient                   ...        0 min,  0.005 sec
 * total energy  :   -77.5789756 Eh     change       -0.4067965E-06 Eh
   gradient norm :     0.0000795 Eh/α   predicted    -0.1485603E-06 ( -63.48%)
   displ. norm   :     0.0097966 α      lambda       -0.1854689E-06
   maximum displ.:     0.0085301 α      in ANC's #1, #3, #4, ...

........................................................................
.............................. CYCLE   38 ..............................
........................................................................

 iter      E             dE          RMSdq      gap      omega  full diag
   1    -78.7116674 -0.787117E+02  0.190E-03    1.73       0.0  T
   2    -78.7116674 -0.165323E-08  0.110E-03    1.73      13.5  T
   3    -78.7116674  0.212606E-08  0.274E-04    1.73      53.8  T
   4    -78.7116674 -0.245188E-08  0.963E-05    1.73     153.2  T
     SCC iter.                  ...        0 min,  0.018 sec
     gradient                   ...        0 min,  0.005 sec
 * total energy  :   -77.5789758 Eh     change       -0.2696716E-06 Eh
   gradient norm :     0.0000622 Eh/α   predicted    -0.9403302E-07 ( -65.13%)
   displ. norm   :     0.0077733 α      lambda       -0.1838388E-06
   maximum displ.:     0.0068397 α      in ANC's #1, #2, #4, ...

........................................................................
.............................. CYCLE   39 ..............................
........................................................................

 iter      E             dE          RMSdq      gap      omega  full diag
   1    -78.7116606 -0.787117E+02  0.155E-03    1.73       0.0  T
   2    -78.7116606 -0.187039E-08  0.872E-04    1.73      16.9  T
   3    -78.7116606  0.160465E-08  0.251E-04    1.73      58.7  T
     SCC iter.                  ...        0 min,  0.014 sec
     gradient                   ...        0 min,  0.005 sec
 * total energy  :   -77.5789761 Eh     change       -0.2657221E-06 Eh
   gradient norm :     0.0000536 Eh/α   predicted    -0.9263042E-07 ( -65.14%)
   displ. norm   :     0.0103792 α      lambda       -0.2466741E-06
   maximum displ.:     0.0083229 α      in ANC's #1, #2, #4, ...

........................................................................
.............................. CYCLE   40 ..............................
........................................................................

 iter      E             dE          RMSdq      gap      omega  full diag
   1    -78.7116553 -0.787117E+02  0.216E-03    1.73       0.0  T
   2    -78.7116553 -0.393776E-08  0.119E-03    1.73      12.4  T
   3    -78.7116553  0.173509E-08  0.317E-04    1.73      46.5  T
   4    -78.7116553 -0.223358E-08  0.154E-04    1.73      95.8  T
     SCC iter.                  ...        0 min,  0.018 sec
     gradient                   ...        0 min,  0.005 sec
 * total energy  :   -77.5789765 Eh     change       -0.3612339E-06 Eh
   gradient norm :     0.0000619 Eh/α   predicted    -0.1268522E-06 ( -64.88%)
   displ. norm   :     0.0158925 α      lambda       -0.3556921E-06
   maximum displ.:     0.0121225 α      in ANC's #1, #2, #3, ...

........................................................................
.............................. CYCLE   41 ..............................
........................................................................

 iter      E             dE          RMSdq      gap      omega  full diag
   1    -78.7116374 -0.787116E+02  0.328E-03    1.73       0.0  T
   2    -78.7116375 -0.890327E-08  0.176E-03    1.73       8.4  T
   3    -78.7116374  0.574391E-08  0.541E-04    1.73      27.2  T
   4    -78.7116375 -0.686330E-08  0.269E-04    1.73      54.9  T
     SCC iter.                  ...        0 min,  0.018 sec
     gradient                   ...        0 min,  0.005 sec
 * total energy  :   -77.5789770 Eh     change       -0.4921006E-06 Eh
   gradient norm :     0.0000807 Eh/α   predicted    -0.1782932E-06 ( -63.77%)
   displ. norm   :     0.0188417 α      lambda       -0.3659308E-06
   maximum displ.:     0.0141027 α      in ANC's #1, #2, #3, ...

........................................................................
.............................. CYCLE   42 ..............................
........................................................................

 iter      E             dE          RMSdq      gap      omega  full diag
   1    -78.7116309 -0.787116E+02  0.385E-03    1.73       0.0  T
   2    -78.7116309 -0.105240E-07  0.206E-03    1.73       7.1  T
   3    -78.7116309  0.626217E-08  0.607E-04    1.73      24.3  T
   4    -78.7116309 -0.721504E-08  0.314E-04    1.73      46.9  T
     SCC iter.                  ...        0 min,  0.018 sec
     gradient                   ...        0 min,  0.005 sec
 * total energy  :   -77.5789775 Eh     change       -0.4959114E-06 Eh
   gradient norm :     0.0000968 Eh/α   predicted    -0.1842658E-06 ( -62.84%)
   displ. norm   :     0.0195481 α      lambda       -0.3254298E-06
   maximum displ.:     0.0146700 α      in ANC's #1, #2, #3, ...
 * RMSD in coord.:     0.0701741 α      energy gain  -0.2235712E-04 Eh

generating ANC from exact Hessian ...
Using Lindh-Hessian (1995)
 Shifting diagonal of input Hessian by   9.529843774798322E-003
 Lowest  eigenvalues of input Hessian
    0.000000    0.000000    0.000000    0.000000    0.000000    0.000000
    0.010000    0.010567    0.011353    0.012442    0.013119    0.015057
    0.016216    0.017225    0.018116    0.018766    0.020338    0.022811
 Highest eigenvalues
    2.070400    2.075634    2.134317    2.165325    2.799763    3.384368
 

........................................................................
.............................. CYCLE   43 ..............................
........................................................................

 iter      E             dE          RMSdq      gap      omega  full diag
   1    -78.7116203 -0.787116E+02  0.395E-03    1.73       0.0  T
   2    -78.7116203 -0.981503E-08  0.212E-03    1.73       7.0  T
   3    -78.7116203  0.563755E-08  0.603E-04    1.73      24.5  T
   4    -78.7116203 -0.634144E-08  0.316E-04    1.73      46.7  T
     SCC iter.                  ...        0 min,  0.018 sec
     gradient                   ...        0 min,  0.005 sec
 * total energy  :   -77.5789779 Eh     change       -0.4462438E-06 Eh
   gradient norm :     0.0000926 Eh/α   predicted     0.0000000E+00 (-100.00%)
   displ. norm   :     0.0001390 α      lambda        0.0000000E+00
   maximum displ.:     0.0000646 α      in ANC's #98, #110, #129, ...

........................................................................
.............................. CYCLE   44 ..............................
........................................................................

 iter      E             dE          RMSdq      gap      omega  full diag
   1    -78.7116223 -0.787116E+02  0.172E-04    1.73       0.0  T
   2    -78.7116223 -0.334268E-09  0.111E-04    1.73     133.2  T
   3    -78.7116223 -0.207336E-09  0.654E-05    1.73     225.4  T
     SCC iter.                  ...        0 min,  0.013 sec
     gradient                   ...        0 min,  0.005 sec
 * total energy  :   -77.5789779 Eh     change       -0.1267001E-07 Eh
   gradient norm :     0.0000651 Eh/α   predicted    -0.3688035E-08 ( -70.89%)
   displ. norm   :     0.0001390 α      lambda        0.0000000E+00
   maximum displ.:     0.0000646 α      in ANC's #98, #110, #129, ...

   *** GEOMETRY OPTIMIZATION CONVERGED AFTER 44 ITERATIONS ***

------------------------------------------------------------------------
 total energy gain   :        -0.0012840 Eh       -0.8057 kcal/mol
 total RMSD          :         0.3313467 a0        0.1753 Å
 total power (kW/mol):        -0.0766169 (step)   -2.3567 (real)
------------------------------------------------------------------------

 ANCopt (total)                0 d,  0 h,  0 min,  1.431 sec
 optimizer setup                ...        0 min,  0.000 sec (  0.013%)
 model hessian                  ...        0 min,  0.099 sec (  6.930%)
 ANC generation                 ...        0 min,  0.009 sec (  0.611%)
 coordinate transformation      ...        0 min,  0.004 sec (  0.306%)
 single point calculation       ...        0 min,  1.300 sec ( 90.906%)
 optimization log               ...        0 min,  0.007 sec (  0.476%)
 hessian update                 ...        0 min,  0.004 sec (  0.310%)
 rational function              ...        0 min,  0.003 sec (  0.214%)

================
 final structure:
================
46
 xtb: 6.7.1 (edcfbbe)
O           -1.26151390649579        0.44616442201942        2.23077285360894
C           -1.26549228199978       -0.39807683905447        1.19348494842492
C           -2.07022940325373       -0.35583044021498        0.04996917408883
C           -3.13730420127545        0.52335354459331       -0.24267220574581
C           -3.80376969520914        0.39840909927847       -1.43625326478055
C           -3.45677580306412       -0.58260273683523       -2.37181890597446
C           -2.42325795410604       -1.47112053390089       -2.09840750811023
C           -1.75631241016849       -1.35278582258225       -0.90584291518847
S           -0.41956182432161       -2.31258282058025       -0.27754586917083
O           -0.76434224366305       -3.67102788442641        0.06029495016672
O            0.81320852565905       -2.15473509767269       -1.00494871944467
N           -0.32885449842690       -1.40952424817285        1.16046030130517
C            0.44825427027158       -1.85298650486421        2.28777425328097
C            1.92397237793430       -1.47222012553407        2.14958451855886
C            2.15208670944447        0.04305263446145        2.24316300080842
N            1.68436976631764        0.75007115555966        1.08097411009929
C            0.56208579933325        1.51707522820119        0.97150463100295
C           -0.47263497065636        1.73575302001847        2.00211678797215
C           -1.41367653394702        2.80970125688960        1.59192809146592
C           -1.46699045945652        3.30646498046958        0.32549309525325
C           -0.56800911451593        2.91052388458894       -0.67816769730752
C            0.45256264361025        2.02636398016752       -0.33005416154456
C            1.58182498547675        1.51192845435490       -1.05707478260510
C            2.01995909119944        1.64815616442885       -2.36699499318637
C            3.18736551275948        1.01164433047432       -2.74062448286412
C            3.91924958908028        0.25618670939326       -1.82637635884836
C            3.50249286697785        0.10522647112106       -0.51816298777910
C            2.32198294974542        0.73006236182550       -0.14128815424179
H           -3.41184661890073        1.27368649705687        0.48080333802294
H           -4.61839476125110        1.07041293386967       -1.66113675486687
H           -3.99567066501244       -0.65521935686526       -3.30249366398457
H           -2.14317811106353       -2.24182422044984       -2.79986566696104
H            0.35200286039239       -2.94350917855046        2.32622001981234
H            0.01454437874244       -1.41734574632359        3.19338410251554
H            2.28363601691388       -1.83869322179141        1.18671602719092
H            2.48359444900520       -1.96128930281937        2.94750806722120
H            3.22499391316587        0.23627443495118        2.34736855901261
H            1.64028928954077        0.43799060525203        3.12385855752554
H           -0.07486746250954        1.91009834885786        3.00976502015675
H           -2.11893975227165        3.13037548098375        2.34236397388404
H           -2.21647869451631        4.04694197196732        0.08561731112754
H           -0.64587320850205        3.30188834336440       -1.67831329725416
H            1.45691281916767        2.23603044711143       -3.07612771437186
H            3.54324868765988        1.09871667472985       -3.75674197641176
H            4.83047771286493       -0.22512773594810       -2.14984689276963
H            4.08109214052634       -0.48484336170140        0.17539033381017
 
 Bond Distances (Angstroems)
 ---------------------------
O1-C2=1.3374         O1-C18=1.5289        C2-O1=1.3374         C2-C3=1.3989         C2-N12=1.3789        C3-C2=1.3989         
C3-C4=1.4132         C3-C8=1.4163         C4-C3=1.4132         C4-C5=1.3727         C4-H29=1.0779        C5-C4=1.3727         
C5-C6=1.3993         C5-H30=1.0797        C6-C5=1.3993         C6-C7=1.3901         C6-H31=1.0779        C7-C6=1.3901         
C7-C8=1.3715         C7-H32=1.0791        C8-C3=1.4163         C8-C7=1.3715         C8-S9=1.7615         S9-C8=1.7615         
S9-O10=1.4417        S9-O11=1.4401        S9-N12=1.7005        O10-S9=1.4417        O11-S9=1.4401        N12-C2=1.3789        
N12-S9=1.7005        N12-C13=1.4392       C13-N12=1.4392       C13-C14=1.5303       C13-H33=1.0954       C13-H34=1.0945       
C14-C13=1.5303       C14-C15=1.5352       C14-H35=1.0912       C14-H36=1.0904       C15-C14=1.5352       C15-N16=1.4385       
C15-H37=1.0951       C15-H38=1.0925       N16-C15=1.4385       N16-C17=1.3637       N16-C28=1.3787       C17-N16=1.3637       
C17-C18=1.4767       C17-C22=1.4019       C18-O1=1.5289        C18-C17=1.4767       C18-C19=1.4857       C18-H39=1.0973       
C19-C18=1.4857       C19-C20=1.3614       C19-H40=1.0786       C20-C19=1.3614       C20-C21=1.4044       C20-H41=1.0805       
C21-C20=1.4044       C21-C22=1.3944       C21-H42=1.0768       C22-C17=1.4019       C22-C21=1.3944       C22-C23=1.4382       
C23-C22=1.4382       C23-C24=1.3880       C23-C28=1.4134       C24-C23=1.3880       C24-C25=1.3812       C24-H43=1.0796       
C25-C24=1.3812       C25-C26=1.3936       C25-H44=1.0802       C26-C25=1.3936       C26-C27=1.3813       C26-H45=1.0801       
C27-C26=1.3813       C27-C28=1.3878       C27-H46=1.0789       C28-N16=1.3787       C28-C23=1.4134       C28-C27=1.3878       
H29-C4=1.0779        H30-C5=1.0797        H31-C6=1.0779        H32-C7=1.0791        H33-C13=1.0954       H34-C13=1.0945       
H35-C14=1.0912       H36-C14=1.0904       H37-C15=1.0951       H38-C15=1.0925       H39-C18=1.0973       H40-C19=1.0786       
H41-C20=1.0805       H42-C21=1.0768       H43-C24=1.0796       H44-C25=1.0802       H45-C26=1.0801       H46-C27=1.0789       
 C  H  Rav=1.0848 sigma=0.0074  Rmin=1.0768  Rmax=1.0973    18
 C  C  Rav=1.4153 sigma=0.0475  Rmin=1.3614  Rmax=1.5352    22
 N  C  Rav=1.3998 sigma=0.0324  Rmin=1.3637  Rmax=1.4392     5
 O  C  Rav=1.4332 sigma=0.0958  Rmin=1.3374  Rmax=1.5289     2
 S  C  Rav=1.7615 sigma=0.0000  Rmin=1.7615  Rmax=1.7615     1
 S  N  Rav=1.7005 sigma=0.0000  Rmin=1.7005  Rmax=1.7005     1
 S  O  Rav=1.4409 sigma=0.0008  Rmin=1.4401  Rmax=1.4417     2
 
 selected bond angles (degree)
 --------------------
C18-O1-C2=114.71               C3-C2-O1=128.07                N12-C2-O1=118.66               N12-C2-C3=113.16               
C4-C3-C2=128.49                C8-C3-C2=113.76                C8-C3-C4=117.74                C5-C4-C3=119.34                
H29-C4-C3=119.10               H29-C4-C5=121.55               C6-C5-C4=121.65                H30-C5-C4=119.39               
H30-C5-C6=118.96               C7-C6-C5=120.06                H31-C6-C5=120.04               H31-C6-C7=119.90               
C8-C7-C6=118.52                H32-C7-C6=121.44               H32-C7-C8=120.04               C7-C8-C3=122.67                
S9-C8-C3=108.12                S9-C8-C7=129.21                O10-S9-C8=114.55               O11-S9-C8=114.19               
O11-S9-O10=115.24              N12-S9-C8= 93.02               N12-S9-O10=108.36              N12-S9-O11=108.86              
 
 selected dihedral angles (degree)
 ---------------------------------
C3-C2-O1-C18=278.74           N12-C2-O1-C18= 94.62          C4-C3-C2-O1=354.78            C4-C3-C2-N12=178.71           
C8-C3-C2-O1=175.84            C8-C3-C2-N12=359.77           C5-C4-C3-C2=179.82            C5-C4-C3-C8=358.73            
H29-C4-C3-C2=359.49           H29-C4-C3-C8=178.40           C6-C5-C4-C3=  0.24            C6-C5-C4-H29=180.58           
H30-C5-C4-C3=180.07           H30-C5-C4-H29=  0.41          C7-C6-C5-C4=  0.68            C7-C6-C5-H30=180.85           
H31-C6-C5-C4=180.21           H31-C6-C5-H30=  0.37          C8-C7-C6-C5=359.51            C8-C7-C6-H31=179.98           
H32-C7-C6-C5=179.43           H32-C7-C6-H31=359.90          C7-C8-C3-C2=180.55            C7-C8-C3-C4=  1.48            
S9-C8-C3-C2=  0.00            S9-C8-C3-C4=180.94            C3-C8-C7-C6=359.40            C3-C8-C7-H32=179.48           
S9-C8-C7-C6=180.06            S9-C8-C7-H32=  0.14           O10-S9-C8-C3=111.93           O10-S9-C8-C7=291.34           
O11-S9-C8-C3=247.91           O11-S9-C8-C7= 67.32           N12-S9-C8-C3=  0.16           N12-S9-C8-C7=179.57           
           -------------------------------------------------
          |                Final Singlepoint                |
           -------------------------------------------------

          ...................................................
          :                      SETUP                      :
          :.................................................:
          :  # basis functions                 136          :
          :  # atomic orbitals                 135          :
          :  # shells                           75          :
          :  # electrons                       140          :
          :  max. iterations                   250          :
          :  Hamiltonian                  GFN2-xTB          :
          :  restarted?                      false          :
          :  GBSA solvation                   true          :
          :  PC potential                    false          :
          :  electronic temp.          300.0000000     K    :
          :  accuracy                    1.0000000          :
          :  -> integral cutoff          0.2500000E+02      :
          :  -> integral neglect         0.1000000E-07      :
          :  -> SCF convergence          0.1000000E-05 Eh   :
          :  -> wf. convergence          0.1000000E-03 e    :
          :  Broyden damping             0.4000000          :
          :  net charge                          0          :
          :  unpaired electrons                  2          :
          ...................................................

 iter      E             dE          RMSdq      gap      omega  full diag
   1    -78.7116223 -0.787116E+02  0.225E-05    1.73       0.0  T
   2    -78.7116223 -0.525802E-11  0.170E-05    1.73     864.9  T
   3    -78.7116223 -0.102887E-10  0.820E-06    1.73    1797.1  T

   *** convergence criteria satisfied after 3 iterations ***

         #    Occupation            Energy/Eh            Energy/eV
      -------------------------------------------------------------
         1        2.0000           -0.7875528             -21.4304
       ...           ...                  ...                  ...
        65        2.0000           -0.4198807             -11.4255
        66        2.0000           -0.4178108             -11.3692
        67        2.0000           -0.4157227             -11.3124
        68        2.0000           -0.3899953             -10.6123
        69        2.0000           -0.3819863             -10.3944
        70        1.0000           -0.3247771              -8.8376
        71        1.0000           -0.3097709              -8.4293 (HOMO)
        72                         -0.2460933              -6.6965 (LUMO)
        73                         -0.2389405              -6.5019
        74                         -0.2133606              -5.8058
        75                         -0.2062541              -5.6125
        76                         -0.1928492              -5.2477
       ...                                ...                  ...
       135                          1.2133303              33.0164
      -------------------------------------------------------------
                  HL-Gap            0.0636776 Eh            1.7328 eV
             Fermi-level           -0.3156569 Eh           -8.5895 eV
 
 transition dipole moment (au) for excitation:          70          71
     X       Y       Z   
   1.3019   2.4372   0.2649  total (au/Debye):    2.776   7.056
 dE (eV)             :    0.408
 oscillator strength :  0.10901E+00

 SCC (total)                   0 d,  0 h,  0 min,  0.038 sec
 SCC setup                      ...        0 min,  0.000 sec (  0.982%)
 Dispersion                     ...        0 min,  0.000 sec (  0.960%)
 classical contributions        ...        0 min,  0.000 sec (  0.072%)
 integral evaluation            ...        0 min,  0.002 sec (  4.511%)
 iterations                     ...        0 min,  0.014 sec ( 36.086%)
 molecular gradient             ...        0 min,  0.005 sec ( 12.477%)
 printout                       ...        0 min,  0.017 sec ( 44.711%)

         :::::::::::::::::::::::::::::::::::::::::::::::::::::
         ::                     SUMMARY                     ::
         :::::::::::::::::::::::::::::::::::::::::::::::::::::
         :: total energy             -77.578977913387 Eh    ::
         :: total w/o Gsasa/hb       -77.556719321889 Eh    ::
         :: gradient norm              0.000068939402 Eh/a0 ::
         :: HOMO-LUMO gap              1.732755087525 eV    ::
         ::.................................................::
         :: SCC energy               -78.708850031138 Eh    ::
         :: -> isotropic ES            0.092976295780 Eh    ::
         :: -> anisotropic ES         -0.009167187593 Eh    ::
         :: -> anisotropic XC          0.027748920986 Eh    ::
         :: -> dispersion             -0.070890397397 Eh    ::
         :: -> Gsolv                  -0.030423264698 Eh    ::
         ::    -> Gelec               -0.008164673200 Eh    ::
         ::    -> Gsasa               -0.026782471370 Eh    ::
         ::    -> Ghb                  0.000000000000 Eh    ::
         ::    -> Gshift               0.004523879872 Eh    ::
         :: repulsion energy           1.129872117751 Eh    ::
         :: add. restraining           0.000000000000 Eh    ::
         :: total charge               0.000000000000 e     ::
         :::::::::::::::::::::::::::::::::::::::::::::::::::::

           ------------------------------------------------- 
          |                Numerical Hessian                |
           ------------------------------------------------- 
step length          :   0.00500
SCC accuracy         :   0.30000
Hessian scale factor :   1.00000
frozen atoms in %    :   0.00000    0
RMS gradient         :   0.00007
estimated CPU  time      1.53 min
estimated wall time      0.04 min

writing file <hessian>.

 projected vibrational frequencies (cm⁻¹)
eigval :       -0.00    -0.00    -0.00     0.00     0.00     0.00
eigval :       17.62    26.75    48.73    58.28    83.81   100.10
eigval :      117.82   134.25   143.76   164.43   184.88   207.31
eigval :      212.72   228.13   238.17   268.20   280.23   303.24
eigval :      330.91   350.60   359.07   371.09   387.39   401.08
eigval :      415.71   429.78   442.04   460.60   479.69   487.68
eigval :      503.82   512.64   528.58   531.84   541.03   551.37
eigval :      569.09   572.39   583.56   626.59   646.19   652.70
eigval :      677.83   694.54   700.80   725.32   731.12   753.72
eigval :      763.85   771.18   790.04   808.47   836.56   850.22
eigval :      865.52   885.26   890.95   896.71   900.44   918.51
eigval :      919.04   920.65   937.74   957.16   981.36  1011.52
eigval :     1012.89  1047.78  1057.29  1068.48  1079.98  1098.83
eigval :     1102.91  1113.68  1126.23  1148.85  1158.36  1167.76
eigval :     1171.27  1175.15  1190.17  1200.80  1202.55  1210.13
eigval :     1216.97  1230.42  1233.94  1242.14  1279.68  1288.46
eigval :     1316.62  1322.68  1328.23  1336.02  1341.26  1359.58
eigval :     1365.42  1373.04  1375.19  1407.07  1416.95  1429.53
eigval :     1431.71  1446.34  1447.61  1450.79  1472.03  1485.51
eigval :     1492.45  1521.65  1560.12  1571.71  1585.75  1602.92
eigval :     2873.38  2935.85  2945.10  2948.13  2981.39  3001.02
eigval :     3007.48  3073.65  3075.40  3081.55  3087.84  3089.17
eigval :     3090.86  3096.40  3098.05  3107.70  3112.02  3115.53
           -------------------------------------------------
          |                Property Printout                |
           -------------------------------------------------

    * Orbital Energies and Occupations

         #    Occupation            Energy/Eh            Energy/eV
      -------------------------------------------------------------
         1        2.0000           -0.7875527             -21.4304
       ...           ...                  ...                  ...
        59        2.0000           -0.4440707             -12.0838
        60        2.0000           -0.4404339             -11.9848
        61        2.0000           -0.4303383             -11.7101
        62        2.0000           -0.4262848             -11.5998
        63        2.0000           -0.4260475             -11.5933
        64        2.0000           -0.4225518             -11.4982
        65        2.0000           -0.4198807             -11.4255
        66        2.0000           -0.4178107             -11.3692
        67        2.0000           -0.4157227             -11.3124
        68        2.0000           -0.3899952             -10.6123
        69        2.0000           -0.3819863             -10.3944
        70        1.0000           -0.3247770              -8.8376
        71        1.0000           -0.3097709              -8.4293 (HOMO)
        72                         -0.2460934              -6.6965 (LUMO)
[...]
     4   6 C        2.914    -0.028    28.710     8.786
     5   6 C        2.915    -0.025    28.636     8.775
     6   6 C        2.922    -0.037    28.932     8.821
     7   6 C        2.925    -0.019    28.471     8.750
     8   6 C        2.998    -0.115    30.901     9.119
     9  16 S        3.999     1.114   103.447    17.118
    10   8 O        0.860    -0.586    25.770     6.806
    11   8 O        0.860    -0.578    25.574     6.780
    12   7 N        2.753    -0.248    26.456     7.639
    13   6 C        3.776     0.016    20.333     6.425
    14   6 C        3.802    -0.077    21.964     6.672
    15   6 C        3.740    -0.006    20.765     6.502
    16   7 N        2.802    -0.021    21.646     6.910
    17   6 C        3.079     0.016    27.559     8.607
    18   6 C        3.724     0.103    18.984     6.222
    19   6 C        2.906    -0.067    29.656     8.929
    20   6 C        2.907    -0.033    28.826     8.804
    21   6 C        2.909    -0.048    29.180     8.858
    22   6 C        3.063    -0.022    28.497     8.754
    23   6 C        3.081    -0.017    28.354     8.730
    24   6 C        2.912    -0.033    28.823     8.804
    25   6 C        2.920    -0.038    28.950     8.823
    26   6 C        2.924    -0.033    28.826     8.805
    27   6 C        2.910    -0.045    29.113     8.848
    28   6 C        3.090     0.041    26.978     8.514
    29   1 H        0.926     0.058     2.217     2.329
    30   1 H        0.926     0.060     2.197     2.318
    31   1 H        0.926     0.058     2.220     2.330
    32   1 H        0.926     0.047     2.362     2.403
    33   1 H        0.924     0.056     2.252     2.347
    34   1 H        0.924     0.077     2.010     2.217
    35   1 H        0.924     0.064     2.152     2.294
    36   1 H        0.924     0.075     2.036     2.231
    37   1 H        0.924     0.072     2.059     2.244
    38   1 H        0.924     0.070     2.090     2.261
    39   1 H        0.924     0.060     2.196     2.317
    40   1 H        0.926     0.042     2.420     2.433
    41   1 H        0.926     0.043     2.404     2.425
    42   1 H        0.926     0.038     2.470     2.458
    43   1 H        0.926     0.037     2.489     2.467
    44   1 H        0.926     0.035     2.514     2.480
    45   1 H        0.926     0.037     2.491     2.468
    46   1 H        0.926     0.039     2.464     2.455

 Mol. C6AA /au·bohr⁶  :      30807.349827
 Mol. C8AA /au·bohr⁸  :     791042.184304
 Mol. α(0) /au        :        277.052019


MOs/occ written to file <molden.input>


molecular dipole:
                 x           y           z       tot (Debye)
 q only:        0.241       1.860       1.007
   full:        0.308       1.587       1.137       5.022
molecular quadrupole (traceless):
                xx          xy          yy          xz          yz          zz
 q only:       11.020      -4.249     -21.019      16.397      -4.243       9.999
  q+dip:        9.410      -9.206     -24.599      16.338      -4.621      15.190
   full:        9.533      -4.906     -22.025      16.303      -4.328      12.492

           -------------------------------------------------
          |                Geometry Summary                 |
           -------------------------------------------------

      molecular mass/u    :      390.4555319
   center of mass at/Å    :       -0.0161212      -0.0146245      -0.0023998
  moments of inertia/u·Å² :        0.2106603E+04   0.2542699E+04   0.2835761E+04
rotational constants/cm⁻¹ :        0.8002281E-02   0.6629818E-02   0.5944660E-02

 * 50 selected distances

     #   Z          #   Z                                           value/Å
     1   8 O        2   6 C                                       1.3374325
     2   6 C        3   6 C                                       1.3989336
     3   6 C        4   6 C                                       1.4132418
     4   6 C        5   6 C                                       1.3727430
     5   6 C        6   6 C                                       1.3993114
     6   6 C        7   6 C                                       1.3900997
     3   6 C        8   6 C                                       1.4163478
     7   6 C        8   6 C                                       1.3715065
     8   6 C        9  16 S                                       1.7614966 (max)
     9  16 S       10   8 O                                       1.4416599
     9  16 S       11   8 O                                       1.4400534
     2   6 C       12   7 N                                       1.3789152
     9  16 S       12   7 N                                       1.7004720
    12   7 N       13   6 C                                       1.4392338
    13   6 C       14   6 C                                       1.5303019
    14   6 C       15   6 C                                       1.5352020
    15   6 C       16   7 N                                       1.4385123
    16   7 N       17   6 C                                       1.3637450
    17   6 C       18   6 C                                       1.4766953
    18   6 C       19   6 C                                       1.4856578
    19   6 C       20   6 C                                       1.3614237
    20   6 C       21   6 C                                       1.4043761
    17   6 C       22   6 C                                       1.4019365
    21   6 C       22   6 C                                       1.3944493
    22   6 C       23   6 C                                       1.4382061
    23   6 C       24   6 C                                       1.3879520
    24   6 C       25   6 C                                       1.3811533
    25   6 C       26   6 C                                       1.3936357
    26   6 C       27   6 C                                       1.3812667
    16   7 N       28   6 C                                       1.3787227
    23   6 C       28   6 C                                       1.4134405
    27   6 C       28   6 C                                       1.3878251
     4   6 C       29   1 H                                       1.0778637
     5   6 C       30   1 H                                       1.0797111
     6   6 C       31   1 H                                       1.0778852
     7   6 C       32   1 H                                       1.0791073
    13   6 C       33   1 H                                       1.0954371
    13   6 C       34   1 H                                       1.0945394
    14   6 C       35   1 H                                       1.0912270
    14   6 C       36   1 H                                       1.0904347
    15   6 C       37   1 H                                       1.0951363
    15   6 C       38   1 H                                       1.0924914
    18   6 C       39   1 H                                       1.0972559
    19   6 C       40   1 H                                       1.0786021
    20   6 C       41   1 H                                       1.0805459
    21   6 C       42   1 H                                       1.0768103 (min)
    24   6 C       43   1 H                                       1.0795771
    25   6 C       44   1 H                                       1.0801525
    26   6 C       45   1 H                                       1.0801082
    27   6 C       46   1 H                                       1.0788772

 * 7 distinct bonds (by element types)

   Z      Z             #   av. dist./Å        max./Å        min./Å
   1 H    6 C          18     1.0847646     1.0972559     1.0768103
   6 C    6 C          22     1.4152594     1.5352020     1.3614237
   6 C    7 N           5     1.3998258     1.4392338     1.3637450
   6 C    8 O           1     1.3374325     1.3374325     1.3374325
   6 C   16 S           1     1.7614966     1.7614966     1.7614966
   7 N   16 S           1     1.7004720     1.7004720     1.7004720
   8 O   16 S           2     1.4408567     1.4416599     1.4400534

           -------------------------------------------------
          |               Frequency Printout                |
           -------------------------------------------------
 projected vibrational frequencies (cm⁻¹)
eigval :       -0.00    -0.00    -0.00     0.00     0.00     0.00
eigval :       17.62    26.75    48.73    58.28    83.81   100.10
eigval :      117.82   134.25   143.76   164.43   184.88   207.31
eigval :      212.72   228.13   238.17   268.20   280.23   303.24
eigval :      330.91   350.60   359.07   371.09   387.39   401.08
eigval :      415.71   429.78   442.04   460.60   479.69   487.68
eigval :      503.82   512.64   528.58   531.84   541.03   551.37
eigval :      569.09   572.39   583.56   626.59   646.19   652.70
eigval :      677.83   694.54   700.80   725.32   731.12   753.72
eigval :      763.85   771.18   790.04   808.47   836.56   850.22
eigval :      865.52   885.26   890.95   896.71   900.44   918.51
eigval :      919.04   920.65   937.74   957.16   981.36  1011.52
eigval :     1012.89  1047.78  1057.29  1068.48  1079.98  1098.83
eigval :     1102.91  1113.68  1126.23  1148.85  1158.36  1167.76
eigval :     1171.27  1175.15  1190.17  1200.80  1202.55  1210.13
eigval :     1216.97  1230.42  1233.94  1242.14  1279.68  1288.46
eigval :     1316.62  1322.68  1328.23  1336.02  1341.26  1359.58
eigval :     1365.42  1373.04  1375.19  1407.07  1416.95  1429.53
eigval :     1431.71  1446.34  1447.61  1450.79  1472.03  1485.51
eigval :     1492.45  1521.65  1560.12  1571.71  1585.75  1602.92
eigval :     2873.38  2935.85  2945.10  2948.13  2981.39  3001.02
eigval :     3007.48  3073.65  3075.40  3081.55  3087.84  3089.17
eigval :     3090.86  3096.40  3098.05  3107.70  3112.02  3115.53
 reduced masses (amu)
   1: 12.36   2: 14.46   3: 13.00   4: 13.55   5: 13.73   6: 11.85   7: 11.75   8: 16.15
   9: 11.58  10: 13.11  11: 11.26  12: 11.82  13: 13.38  14: 11.07  15: 10.76  16: 10.81
  17: 11.20  18: 10.94  19: 13.15  20: 11.39  21:  9.62  22: 11.90  23: 11.90  24: 12.70
  25: 11.61  26: 10.45  27: 12.99  28: 12.56  29: 11.65  30: 10.55  31: 10.46  32: 11.79
  33: 12.69  34: 13.51  35: 11.53  36: 13.12  37: 13.57  38: 11.23  39: 13.81  40: 18.89
  41: 11.92  42: 11.21  43: 10.70  44: 11.30  45: 11.13  46: 12.81  47: 11.66  48: 12.37
  49: 10.54  50: 10.08  51: 14.44  52:  6.68  53: 10.48  54:  3.38  55:  9.95  56:  4.19
  57:  5.27  58: 11.04  59: 10.10  60:  3.63  61:  3.36  62:  9.10  63:  3.44  64:  3.36
  65:  3.94  66:  6.47  67:  3.52  68:  3.55  69:  7.78  70: 10.90  71: 10.62  72:  7.27
  73: 10.65  74: 10.08  75:  6.44  76:  6.52  77:  8.19  78: 12.03  79: 13.30  80:  6.45
  81:  7.56  82:  5.07  83:  4.79  84:  2.10  85:  2.68  86:  2.74  87:  4.83  88:  4.19
  89:  4.52  90: 22.56  91:  3.93  92:  5.12  93:  5.17  94:  3.71  95:  8.03  96:  6.20
  97:  3.84  98:  8.26  99:  5.06 100:  4.84 101: 11.10 102: 10.93 103: 10.82 104:  8.21
 105:  8.34 106: 10.42 107: 10.73 108: 10.88 109:  2.19 110:  6.05 111:  7.24 112:  2.00
 113: 11.15 114: 11.45 115: 11.02 116: 11.41 117: 11.34 118: 11.62 119: 11.57 120: 11.70
 121:  1.75 122:  1.75 123:  1.76 124:  1.70 125:  1.68 126:  1.78 127:  1.73 128:  1.79
 129:  1.75 130:  1.81 131:  1.79 132:  1.86 133:  1.82 134:  1.91 135:  1.84 136:  1.85
 137:  1.88 138:  1.85
 IR intensities (km·mol⁻¹)
   1:  0.05   2:  0.25   3:  0.13   4:  0.16   5:  0.06   6:  0.08   7:  0.86   8:  2.26
   9:  1.08  10:  1.96  11:  1.07  12:  0.68  13:  0.46  14:  0.52  15:  0.38  16:  3.64
  17:  3.11  18:  1.86  19:  3.58  20:  3.58  21:  2.89  22:  7.47  23:  1.32  24: 11.44
  25: 12.24  26: 14.77  27:  8.17  28: 13.74  29:  3.12  30:  5.03  31:  9.23  32:  3.68
  33:  6.00  34: 31.47  35: 14.37  36: 34.03  37: 32.83  38:  4.32  39: 45.17  40:123.66
  41: 11.30  42:  3.34  43:  4.12  44: 17.11  45: 25.05  46:174.32  47:  9.11  48: 19.13
  49:  8.68  50:  6.30  51: 35.89  52: 76.82  53: 10.75  54: 29.71  55:  3.88  56: 25.16
  57:  5.76  58:  6.95  59: 25.90  60:  2.03  61:  0.42  62: 10.69  63:  0.04  64:  6.63
  65:  0.04  66:  3.09  67:  0.17  68:  0.44  69:  7.69  70: 18.37  71:  8.27  72: 13.39
  73: 49.45  74: 16.71  75:  2.01  76:  5.44  77: 45.77  78:278.87  79:215.81  80:  1.51
  81: 63.37  82: 24.88  83: 34.63  84:  3.34  85:  3.41  86: 13.37  87: 26.01  88: 20.28
  89:  5.72  90:548.94  91:  7.16  92: 33.93  93: 43.74  94:  3.22  95:  8.96  96:  1.83
  97: 14.56  98: 35.61  99: 45.38 100:  4.33 101: 60.18 102:206.55 103: 22.17 104: 30.77
 105: 58.92 106: 13.98 107: 65.29 108: 99.30 109:  4.05 110:  7.86 111: 24.23 112:  0.70
 113: 87.57 114: 70.76 115:  3.55 116: 35.29 117: 81.56 118: 52.66 119:  0.68 120:  3.62
 121: 48.88 122: 27.33 123: 26.87 124: 10.54 125:  9.59 126: 53.23 127: 16.31 128: 45.76
 129:  4.03 130: 40.77 131: 15.10 132:103.43 133: 23.85 134:121.50 135: 55.64 136: 28.25
 137: 19.46 138: 45.05
 Raman intensities (Ä⁴*amu⁻¹)
   1:  0.00   2:  0.00   3:  0.00   4:  0.00   5:  0.00   6:  0.00   7:  0.00   8:  0.00
   9:  0.00  10:  0.00  11:  0.00  12:  0.00  13:  0.00  14:  0.00  15:  0.00  16:  0.00
  17:  0.00  18:  0.00  19:  0.00  20:  0.00  21:  0.00  22:  0.00  23:  0.00  24:  0.00
  25:  0.00  26:  0.00  27:  0.00  28:  0.00  29:  0.00  30:  0.00  31:  0.00  32:  0.00
  33:  0.00  34:  0.00  35:  0.00  36:  0.00  37:  0.00  38:  0.00  39:  0.00  40:  0.00
  41:  0.00  42:  0.00  43:  0.00  44:  0.00  45:  0.00  46:  0.00  47:  0.00  48:  0.00
  49:  0.00  50:  0.00  51:  0.00  52:  0.00  53:  0.00  54:  0.00  55:  0.00  56:  0.00
  57:  0.00  58:  0.00  59:  0.00  60:  0.00  61:  0.00  62:  0.00  63:  0.00  64:  0.00
  65:  0.00  66:  0.00  67:  0.00  68:  0.00  69:  0.00  70:  0.00  71:  0.00  72:  0.00
  73:  0.00  74:  0.00  75:  0.00  76:  0.00  77:  0.00  78:  0.00  79:  0.00  80:  0.00
  81:  0.00  82:  0.00  83:  0.00  84:  0.00  85:  0.00  86:  0.00  87:  0.00  88:  0.00
  89:  0.00  90:  0.00  91:  0.00  92:  0.00  93:  0.00  94:  0.00  95:  0.00  96:  0.00
  97:  0.00  98:  0.00  99:  0.00 100:  0.00 101:  0.00 102:  0.00 103:  0.00 104:  0.00
 105:  0.00 106:  0.00 107:  0.00 108:  0.00 109:  0.00 110:  0.00 111:  0.00 112:  0.00
 113:  0.00 114:  0.00 115:  0.00 116:  0.00 117:  0.00 118:  0.00 119:  0.00 120:  0.00
 121:  0.00 122:  0.00 123:  0.00 124:  0.00 125:  0.00 126:  0.00 127:  0.00 128:  0.00
 129:  0.00 130:  0.00 131:  0.00 132:  0.00 133:  0.00 134:  0.00 135:  0.00 136:  0.00
 137:  0.00 138:  0.00
 output can be read by thermo (or use thermo option).
 writing <g98.out> molden fake output.
 recommended (thermochemical) frequency scaling factor: 1.0
           -------------------------------------------------
          |             Thermodynamic Functions             |
           -------------------------------------------------

Molecule has no symmetry elements
It seems to be the C1 point group
c1  symmetry found (for desy threshold:  0.10E+00) used in thermo

          ...................................................
          :                      SETUP                      :
          :.................................................:
          :  # frequencies                         132      :
          :  # imaginary freq.                       0      :
          :  linear?                             false      :
          :  only rotor calc.                    false      :
          :  symmetry                               c1      :
          :  rotational number                       1      :
          :  scaling factor                  1.0000000      :
          :  rotor cutoff                   50.0000000 cm⁻¹ :
          :  imag. cutoff                  -20.0000000 cm⁻¹ :
          :.................................................:

    mode    ω/cm⁻¹     T·S(HO)/kcal·mol⁻¹    T·S(FR)/kcal·mol⁻¹   T·S(vib)
   ------------------------------------------------------------------------
       1     17.62    -2.05287 (  1.52%)    -1.36535 ( 98.48%)    -1.37580
       2     26.75    -1.80577 (  7.58%)    -1.24172 ( 92.42%)    -1.28446
       3     48.73    -1.45151 ( 47.42%)    -1.06415 ( 52.58%)    -1.24785
       4     58.28    -1.34599 ( 64.87%)    -1.01110 ( 35.13%)    -1.22833
       5     83.81    -1.13288 ( 88.75%)    -0.90352 ( 11.25%)    -1.10709
       6    100.10    -1.02935 ( 94.14%)    -0.85091 (  5.86%)    -1.01889
       7    117.82    -0.93496 ( 96.86%)    -0.80262 (  3.14%)    -0.93080
       8    134.25    -0.85993 ( 98.11%)    -0.76394 (  1.89%)    -0.85812
       9    143.76    -0.82088 ( 98.56%)    -0.74367 (  1.44%)    -0.81976
      10    164.43    -0.74483 ( 99.15%)    -0.70387 (  0.85%)    -0.74448
      11    184.88    -0.67935 ( 99.47%)    -0.66915 (  0.53%)    -0.67930
      12    207.31    -0.61634 ( 99.66%)    -0.63523 (  0.34%)    -0.61641
      13    212.72    -0.60232 ( 99.70%)    -0.62760 (  0.30%)    -0.60240
      14    228.13    -0.56458 ( 99.77%)    -0.60688 (  0.23%)    -0.56468
      15    238.17    -0.54160 ( 99.81%)    -0.59412 (  0.19%)    -0.54170
      16    268.20    -0.47935 ( 99.88%)    -0.55894 (  0.12%)    -0.47945
      17    280.23    -0.45684 ( 99.90%)    -0.54594 (  0.10%)    -0.45693
   ------------------------------------------------------------------------

   temp. (K)  partition function   enthalpy   heat capacity  entropy
                                   cal/mol     cal/K/mol   cal/K/mol   J/K/mol
 298.15  VIB  0.158E+09            12412.273     83.680     73.905
         ROT  0.941E+07              888.752      2.981     34.892
         INT  0.149E+16            13301.025     86.661    108.797
         TR   0.746E+28             1481.254      4.968     43.758
         TOT                       14782.2790    91.6290   152.5551   638.2907

       T/K    H(0)-H(T)+PV         H(T)/Eh          T*S/Eh         G(T)/Eh
   ------------------------------------------------------------------------
    298.15    0.235571E-01    0.369218E+00    0.724839E-01    0.296735E+00
   ------------------------------------------------------------------------

         :::::::::::::::::::::::::::::::::::::::::::::::::::::
         ::                  THERMODYNAMIC                  ::
         :::::::::::::::::::::::::::::::::::::::::::::::::::::
         :: total free energy         -77.282243341980 Eh   ::
         ::.................................................::
         :: total energy              -77.578977915480 Eh   ::
         :: zero point energy           0.345661381480 Eh   ::
         :: G(RRHO) w/o ZPVE           -0.048926807980 Eh   ::
         :: G(RRHO) contrib.            0.296734573500 Eh   ::
         :::::::::::::::::::::::::::::::::::::::::::::::::::::

optimized geometry written to: xtbopt.xyz


           -------------------------------------------------
          | TOTAL ENERGY              -77.578977915480 Eh   |
          | TOTAL ENTHALPY            -77.209759472947 Eh   |
          | TOTAL FREE ENERGY         -77.282243341980 Eh   |
          | GRADIENT NORM               0.000069069423 Eh/α |
          | HOMO-LUMO GAP               1.732752967913 eV   |
           -------------------------------------------------

------------------------------------------------------------------------
 * finished run on 2025/08/26 at 00:31:37.074     
------------------------------------------------------------------------
 total:
 * wall-time:     0 d,  0 h,  0 min,  2.819 sec
 *  cpu-time:     0 d,  0 h,  1 min, 45.026 sec
 * ratio c/w:    37.258 speedup
 SCF:
 * wall-time:     0 d,  0 h,  0 min,  0.206 sec
 *  cpu-time:     0 d,  0 h,  0 min,  6.202 sec
 * ratio c/w:    30.127 speedup
 ANC optimizer:
 * wall-time:     0 d,  0 h,  0 min,  1.470 sec
 *  cpu-time:     0 d,  0 h,  0 min, 57.629 sec
 * ratio c/w:    39.214 speedup
 analytical hessian:
 * wall-time:     0 d,  0 h,  0 min,  1.044 sec
 *  cpu-time:     0 d,  0 h,  0 min, 37.960 sec
 * ratio c/w:    36.345 speedup

