$hessian                                                                        
        0.0861793590   0.0275184107  -0.1343775792  -0.0917177625  -0.0099196327
        0.1177958767  -0.0053049011  -0.0104967765   0.0390367563   0.0011270470
        0.0011983173   0.0014834281   0.0001033271   0.0011069683  -0.0001185704
        0.0005627796   0.0003500791   0.0002686746  -0.0012492278   0.0003932773
        0.0018234679  -0.0037553774  -0.0038330500   0.0009966949  -0.0027902983
       -0.0046453253   0.0003159550   0.0009904234   0.0005666835   0.0003536276
        0.0017311166  -0.0002099692  -0.0018495298   0.0125030316  -0.0054614204
       -0.0243626534   0.0006121218   0.0015341800  -0.0012918712  -0.0000702992
        0.0005781202  -0.0000330826   0.0002747613  -0.0001445183   0.0000479101
       -0.0000559905   0.0000757161  -0.0001295397   0.0000647124  -0.0002071750
        0.0001221800  -0.0000412703   0.0000596718  -0.0001220939  -0.0000126109
       -0.0000806409  -0.0000167363  -0.0000155411   0.0000095130  -0.0000078509
        0.0000131472   0.0000077300  -0.0000258770  -0.0000141563   0.0000069547
       -0.0000030996  -0.0000202591   0.0000429961  -0.0000032730  -0.0000029569
       -0.0000048451  -0.0000170658  -0.0000157424   0.0000189848  -0.0000086184
        0.0000173922   0.0000102084  -0.0000158166  -0.0000497367  -0.0000226163
       -0.0000317483   0.0002018561   0.0000639205   0.0000608170   0.0003870025
        0.0003326277  -0.0000174601   0.0000339153  -0.0000355410   0.0000091017
        0.0001423204  -0.0001001187   0.0000618959  -0.0004746759  -0.0000928602
        0.0003020289  -0.0000492130   0.0012790017   0.0000273080   0.0002948356
        0.0006856803  -0.0005421242   0.0004676236  -0.0006313604   0.0000248572
        0.0002318137   0.0000005758   0.0000433622  -0.0001025593  -0.0000335626
       -0.0000561909  -0.0001276170   0.0000085107   0.0000738726  -0.0000473564
       -0.0000487867   0.0001181814  -0.0000006364   0.0000294645   0.0000044213
       -0.0000012446   0.0000181844   0.0000056159  -0.0000027406   0.0000123017
        0.0000065891  -0.0000059910   0.0000157028   0.0000058245  -0.0000129149
        0.0000088016   0.0000094018  -0.0000082155   0.0000018610   0.0000083181
        0.0000107091   0.0000337552   0.0000246144
        0.0275184107   0.0471625974  -0.0019569543  -0.0097303269  -0.0644166914
        0.0142420848  -0.0115943257   0.0088835667   0.0213274985   0.0004307546
        0.0004670950   0.0007160900   0.0009445443  -0.0003172722   0.0001302355
        0.0001365025   0.0002983836   0.0001484516   0.0002398169  -0.0003588954
        0.0014618907  -0.0036532738  -0.0011409219   0.0008018509  -0.0064350786
       -0.0013342930   0.0020210504   0.0004791631   0.0016431308  -0.0028803676
        0.0010300706   0.0004819918  -0.0000550199  -0.0041216708   0.0060560047
       -0.0349827281   0.0021480058   0.0002702403  -0.0014600585   0.0005284641
        0.0001310124  -0.0001999720   0.0001313686  -0.0000185265  -0.0000028258
       -0.0001401686   0.0001629153   0.0000311411  -0.0000241995  -0.0002988808
       -0.0000120866   0.0000548182   0.0000604340   0.0000722571   0.0000009640
       -0.0000053312   0.0000307293   0.0000102323   0.0000426017   0.0000148359
        0.0000016342  -0.0000032468   0.0000079615  -0.0000854183   0.0000242801
        0.0000117036   0.0000002954   0.0000294823   0.0000192532  -0.0000155719
       -0.0000161580  -0.0000020745  -0.0000043568   0.0000431858   0.0000181500
        0.0000345093  -0.0000010140  -0.0000172771  -0.0000335812  -0.0000401866
        0.0000022990   0.0000941615   0.0000628955  -0.0000506325   0.0005759405
        0.0005610752  -0.0000088116   0.0000075936   0.0000477426  -0.0000179594
       -0.0000698490   0.0001574064   0.0000068800  -0.0001668856  -0.0003001116
        0.0002676652   0.0012248536   0.0008840204   0.0004471446   0.0004452788
        0.0008962706  -0.0001337826  -0.0001708401  -0.0000839282   0.0000268662
        0.0001690918   0.0000342946   0.0000176827   0.0000595834   0.0000440234
        0.0000360362   0.0000397434  -0.0000852617   0.0000009810  -0.0000402004
       -0.0000870079  -0.0000731491  -0.0000091828   0.0000392964  -0.0000150241
       -0.0000116040   0.0000115405   0.0000026286  -0.0000044242  -0.0000010535
        0.0000035171  -0.0000159121   0.0000059935   0.0000020338  -0.0000048017
       -0.0000035105  -0.0000003667   0.0000066364  -0.0000037184  -0.0000028810
        0.0000192347   0.0000145287   0.0000030528
       -0.1343775792  -0.0019569543   0.7579566644   0.1242661022   0.0181396403
       -0.6153374134   0.0258607557   0.0111355051  -0.0458390028  -0.0032598741
       -0.0030550386  -0.0017833506   0.0001510742   0.0001504073  -0.0001179058
       -0.0010734674  -0.0008752648   0.0000403751   0.0015695793   0.0008328126
       -0.0013552668   0.0045030824   0.0034857298   0.0010364930  -0.0111597537
       -0.0052277980   0.0185542931  -0.0016685925   0.0042064972  -0.0069384018
        0.0044208931  -0.0046685128  -0.0058318064  -0.0118129692  -0.0231241856
       -0.1014358748   0.0008563789   0.0019016304  -0.0011981127   0.0001812885
       -0.0007658511   0.0001693028   0.0005880156  -0.0000424583   0.0007223319
       -0.0007801002   0.0005083322   0.0002915779  -0.0001599937  -0.0007729310
       -0.0001367038   0.0003032165   0.0001757153   0.0000885863  -0.0000089363
       -0.0001865597   0.0000753779  -0.0001438312   0.0000286517   0.0000491447
        0.0000627736   0.0000392880   0.0000213049  -0.0002731384  -0.0000209680
        0.0000651915  -0.0001358245   0.0003147702   0.0000280553   0.0000320701
       -0.0000497025   0.0000210219  -0.0000393269   0.0000871665   0.0000290934
        0.0001331987   0.0000018303   0.0000025681  -0.0002259674  -0.0001022449
        0.0000912084   0.0008723203   0.0002814777  -0.0003055138   0.0007880674
        0.0007684776   0.0006158642   0.0001960055   0.0001211597  -0.0000911633
        0.0000151268   0.0000493941   0.0000735446   0.0002993105   0.0002260303
       -0.0003558346   0.0000888008  -0.0013332641   0.0001234009   0.0001016383
       -0.0001532929   0.0012208759  -0.0005204616   0.0003520109  -0.0006417438
       -0.0004516297  -0.0000694477  -0.0000568766   0.0002227545   0.0000399420
       -0.0000010682   0.0006407845  -0.0003421884   0.0003861114  -0.0000232689
       -0.0002193846  -0.0000951480   0.0000657584   0.0000333789  -0.0000490007
       -0.0000180876   0.0000672365  -0.0000252753  -0.0000534615   0.0000376761
       -0.0000134456  -0.0000391549   0.0000300232  -0.0000088802  -0.0000462490
       -0.0000086282  -0.0000039603  -0.0000277189  -0.0000451738   0.0000010326
        0.0000803909   0.0000050653  -0.0000416707
       -0.0917177625  -0.0097303269   0.1242661022   0.3711280176   0.1519454989
       -0.0989506056  -0.1245578981  -0.0393362588   0.0307124928  -0.0205614394
       -0.0155783337   0.0000620143   0.0022455105  -0.0055702813  -0.0025797866
       -0.0025301843  -0.0017582272  -0.0007856566   0.0075442094  -0.0005884808
       -0.0012726323  -0.0067039729  -0.0004920181   0.0242670902   0.0210821174
        0.0132666759  -0.0251418974  -0.0034946271  -0.0037666438   0.0033844642
       -0.0071609331   0.0030091018   0.0076807283  -0.1228575566  -0.0770454849
       -0.0497835913  -0.0184303234  -0.0143069288  -0.0111991223  -0.0003179166
       -0.0020611539   0.0000391773  -0.0007839756   0.0001593397  -0.0003744679
        0.0006837508  -0.0003204346   0.0001135599  -0.0000006233   0.0007436110
       -0.0001492079  -0.0003047639  -0.0002119677   0.0003216989   0.0000659662
        0.0002940901  -0.0000110384   0.0001408836  -0.0000589034  -0.0000250847
       -0.0000625283  -0.0000764661   0.0000339984   0.0001649390   0.0000410701
       -0.0000399215   0.0002149473  -0.0003035163  -0.0000231648  -0.0000628887
        0.0000395429   0.0000265874   0.0000596197  -0.0000672365  -0.0000004508
       -0.0001123622  -0.0000041364   0.0000364025   0.0002685535   0.0000902776
        0.0000136661  -0.0010015078  -0.0003128635   0.0001001950  -0.0008603152
        0.0013717061  -0.0000910465  -0.0002600368  -0.0000208994   0.0002203074
       -0.0009580530   0.0007566481  -0.0003143114   0.0004109530  -0.0000031082
       -0.0002305278   0.0005886738  -0.0006134562  -0.0004371560  -0.0011306102
       -0.0008908415   0.0004700467  -0.0007724349   0.0006347091   0.0005980646
       -0.0002406791   0.0004178254   0.0001103239   0.0001056398   0.0000893692
        0.0000961352  -0.0002035806   0.0001665576  -0.0007090292   0.0001810078
        0.0003370779  -0.0003635477   0.0000106382  -0.0000847491   0.0000095271
        0.0000542137  -0.0000887205  -0.0000126039   0.0000648119  -0.0000460276
       -0.0000130585   0.0000502638  -0.0000356099  -0.0000107671   0.0000570656
        0.0000095909  -0.0000142551   0.0000403637   0.0000451514  -0.0000124731
       -0.0000751725  -0.0000447687  -0.0000171781
       -0.0099196327  -0.0644166914   0.0181396403   0.1519454989   0.2836336798
        0.0289305709  -0.0401663870  -0.0905258208   0.0215448898  -0.0163751372
       -0.0122206164   0.0022674917  -0.0052599622   0.0036303094  -0.0037747788
       -0.0014984879  -0.0017613348  -0.0005780900  -0.0000377771   0.0061947709
       -0.0040757131  -0.0007830271   0.0020108272   0.0134623916   0.0192724553
        0.0074348786  -0.0274967823   0.0001355407  -0.0059938106   0.0087027555
       -0.0037110264  -0.0008919333   0.0018711186  -0.0774673501  -0.1047316707
       -0.0480034755  -0.0148492953  -0.0168219007  -0.0095465257   0.0016037176
        0.0006224208  -0.0000813294  -0.0005295857   0.0001931084  -0.0005914877
        0.0005227225  -0.0005435030   0.0000009521   0.0000706030   0.0008725129
       -0.0000136642  -0.0000678598  -0.0002376561  -0.0000889014   0.0000035092
        0.0001028025  -0.0000651486   0.0000474485  -0.0000706771  -0.0000157727
       -0.0000379693   0.0000133395  -0.0000050689   0.0002541220  -0.0000870121
       -0.0000653541   0.0000717193  -0.0001845811  -0.0000085817   0.0000160472
        0.0000333694  -0.0000140678   0.0000438588  -0.0000993085   0.0000053395
       -0.0001187711  -0.0000001211   0.0000173021   0.0001732263   0.0001150165
        0.0000067640  -0.0005320337  -0.0002343980   0.0001112204   0.0009783090
       -0.0017901400   0.0005316966  -0.0002763674  -0.0002610766   0.0002902669
        0.0006398815  -0.0013315835   0.0001416156   0.0002279991   0.0005106491
       -0.0004325249  -0.0010900815  -0.0000179278  -0.0009902690  -0.0036565928
       -0.0036341363  -0.0002665232   0.0002628102   0.0002270209   0.0001269106
        0.0004598795  -0.0000097714  -0.0000661971  -0.0001153965  -0.0000302239
        0.0000225783  -0.0003410911   0.0002351585  -0.0001781951   0.0001221074
        0.0002431512   0.0001741711  -0.0000204347  -0.0000979935   0.0000324983
        0.0000087203  -0.0000327546  -0.0000022179   0.0000182433  -0.0000139012
       -0.0000051673   0.0000298514  -0.0000206582  -0.0000071493   0.0000190781
        0.0000026931  -0.0000046228  -0.0000015378   0.0000208173   0.0000005067
       -0.0000715450  -0.0000353233  -0.0000030722
        0.1177958767   0.0142420848  -0.6153374134  -0.0989506056   0.0289305709
        0.8867400425   0.0364673974   0.0252130331  -0.0759700848  -0.0046143192
       -0.0010654882   0.0109320120  -0.0025804651  -0.0037994650  -0.0000661287
        0.0006032399   0.0003973680  -0.0008227646  -0.0004364991  -0.0033453324
       -0.0060665342   0.0176377521   0.0088482998  -0.0220602705   0.0071548939
       -0.0017584760  -0.0490849605   0.0038426718  -0.0042755967   0.0040775759
       -0.0033474443   0.0065700236   0.0035890806  -0.0751442484  -0.0765680205
       -0.1441357540  -0.0026759410  -0.0008834605   0.0113724161   0.0019792878
        0.0021173405  -0.0003901643  -0.0010062850   0.0000346736  -0.0013783166
        0.0013809881  -0.0007055344  -0.0002834496   0.0002688252   0.0010936363
        0.0001598284  -0.0006929333  -0.0002396337   0.0000511213   0.0000136193
        0.0003555342  -0.0000953799   0.0002137162  -0.0000547467  -0.0000632828
       -0.0001248023  -0.0001184189  -0.0000084814   0.0004314561   0.0000891968
       -0.0001038552   0.0003109366  -0.0005881285  -0.0000503844  -0.0001209302
        0.0000960043  -0.0000102663   0.0000721166  -0.0001478734  -0.0000234284
       -0.0002312114  -0.0000058415  -0.0000005480   0.0004247739   0.0001392976
       -0.0001158314  -0.0015872436  -0.0004638682   0.0004522090  -0.0021894501
       -0.0010935072  -0.0001174801  -0.0011190705  -0.0006627641   0.0005585684
       -0.0004539901   0.0000413853  -0.0001816364   0.0008524437   0.0003522934
       -0.0005978661   0.0021568027   0.0039044111   0.0008107922   0.0026137527
        0.0033643300  -0.0021715413   0.0005943330  -0.0006399323   0.0012196199
        0.0013571308   0.0000639084   0.0000593626  -0.0002687512   0.0000165914
       -0.0000498136  -0.0009621938   0.0003986777  -0.0008913040   0.0001244994
        0.0003238824  -0.0000936732  -0.0000597212  -0.0000260017   0.0000605451
        0.0000679152  -0.0001382843   0.0000347390   0.0001270205  -0.0000690021
        0.0000172963   0.0000811820  -0.0000680654   0.0000097387   0.0000921592
        0.0000202097  -0.0000039599   0.0000548988   0.0000919380  -0.0000117151
       -0.0001535843   0.0000127506   0.0000413407
       -0.0053049011  -0.0115943257   0.0258607557  -0.1245578981  -0.0401663870
        0.0364673974   0.4453762457   0.2496689512  -0.0140495363  -0.1670655785
       -0.1104734871  -0.0930819190  -0.0422172658  -0.0298871863   0.0207360519
       -0.0054297954  -0.0026769031  -0.0179851363   0.0056766643   0.0079299627
        0.0229531300  -0.0670311267  -0.0067612981   0.0391805437  -0.0052883088
       -0.0072707976  -0.0107679905  -0.0033831038   0.0000844437  -0.0014560456
       -0.0011974040  -0.0030207986  -0.0007045251  -0.0329145213  -0.0319386137
       -0.0086176329   0.0027175986  -0.0024564075  -0.0038884095  -0.0002737750
        0.0002121295  -0.0000224133   0.0001320073   0.0000384485   0.0000944438
       -0.0001006257   0.0000404405   0.0000169996   0.0000088105  -0.0001508965
        0.0000321408   0.0000195438   0.0000545206   0.0000062926   0.0000095549
       -0.0000236324   0.0000048807  -0.0000129638   0.0000071995   0.0000064314
        0.0000074489   0.0000132466   0.0000009818  -0.0000380990   0.0000131459
        0.0000126362  -0.0000358379   0.0000458082   0.0000072896   0.0000042656
       -0.0000111770  -0.0000016980  -0.0000099553   0.0000177963  -0.0000017258
        0.0000105940   0.0000076893  -0.0000080694  -0.0000529609  -0.0000184065
       -0.0000090910   0.0001378918   0.0000462755  -0.0000127832   0.0014079648
        0.0003419378  -0.0014741764  -0.0003576088  -0.0056878405   0.0035066800
        0.0005643175   0.0004073778  -0.0006173776   0.0000947624  -0.0056107395
        0.0032607134   0.0001250506   0.0002774887   0.0000166585  -0.0012170798
       -0.0013830153   0.0003538783   0.0000451572   0.0000657817  -0.0000088779
        0.0000149252   0.0000184286   0.0000443308   0.0000680510  -0.0000001369
        0.0000252142   0.0000685386  -0.0000959434   0.0000895114  -0.0000192727
       -0.0000694310  -0.0000167187  -0.0000001150   0.0000103801   0.0000150744
       -0.0000051037   0.0000041778   0.0000155774  -0.0000085060  -0.0000021641
        0.0000131949  -0.0000037888   0.0000020993   0.0000065663  -0.0000023406
       -0.0000055789   0.0000031328   0.0000029717  -0.0000096590  -0.0000034063
        0.0000355724   0.0000070959  -0.0000029748
       -0.0104967765   0.0088835667   0.0111355051  -0.0393362588  -0.0905258208
        0.0252130331   0.2496689512   0.3314890150   0.0986015601  -0.0996108667
       -0.1450521632  -0.0921181711  -0.0394163177  -0.0209441585   0.0270822892
       -0.0033715039  -0.0143616638  -0.0215836562   0.0163053188   0.0167356432
        0.0084223595  -0.0138328438  -0.0633582939  -0.0288987669  -0.0065231675
       -0.0081631114  -0.0118725756  -0.0019513330  -0.0003189300  -0.0005506955
       -0.0015810334  -0.0031937551  -0.0011249327  -0.0313039325  -0.0189923119
       -0.0073263896  -0.0028114305   0.0032514128  -0.0035519543  -0.0013096635
       -0.0009409656   0.0003255279   0.0000541413  -0.0000122789   0.0001518961
       -0.0000811691   0.0001054868   0.0000189749  -0.0000082421  -0.0001998582
        0.0000039108  -0.0000599341   0.0000618887   0.0000308638   0.0000064834
        0.0000030519  -0.0000047705  -0.0000013281   0.0000137864  -0.0000045133
       -0.0000050518  -0.0000135135  -0.0000030331  -0.0000485586   0.0000297793
        0.0000044073  -0.0000033880   0.0000168242   0.0000051972  -0.0000102034
       -0.0000067623  -0.0000011332  -0.0000057495   0.0000185046   0.0000070508
        0.0000155459   0.0000046133  -0.0000034485  -0.0000291296  -0.0000195146
       -0.0000008783   0.0000750064   0.0000356713  -0.0000200758  -0.0036331758
       -0.0030331588  -0.0049088525  -0.0057546805   0.0039216471   0.0007190131
        0.0004787163  -0.0000506250  -0.0004660506  -0.0056051825   0.0042463430
        0.0005770005   0.0005865448   0.0007054969   0.0000851690  -0.0002293392
       -0.0002167592  -0.0000372762   0.0000457503  -0.0001213544  -0.0000092880
       -0.0003277498   0.0001429222   0.0000656441   0.0000730132   0.0000212103
        0.0000167680  -0.0000071269  -0.0001180795   0.0000765902   0.0000021190
       -0.0000590394  -0.0000534012   0.0000027935   0.0000195404  -0.0000050101
        0.0000023018  -0.0000061140  -0.0000054203   0.0000023753  -0.0000073214
       -0.0000017144  -0.0000014313  -0.0000005280  -0.0000013087   0.0000046733
       -0.0000030882   0.0000022152   0.0000079311  -0.0000015460   0.0000038984
        0.0000249022   0.0000143117   0.0000044421
        0.0390367563   0.0213274985  -0.0458390028   0.0307124928   0.0215448898
       -0.0759700848  -0.0140495363   0.0986015601   0.6321775628  -0.0432395807
       -0.0544215839  -0.1471623246  -0.0227601518  -0.0056720327   0.0548140467
       -0.0212164428  -0.0240047990  -0.0431791974   0.0631292252   0.0388948110
       -0.0385191152   0.0069185062  -0.0534700816  -0.3064097501  -0.0118831827
       -0.0136437221  -0.0215930655  -0.0004904737  -0.0020001682   0.0004540220
       -0.0023545444   0.0000001816  -0.0001554190  -0.0085062092  -0.0063541296
        0.0121478550  -0.0016906106  -0.0026241481  -0.0029188844   0.0000861947
        0.0000331203   0.0000872475  -0.0001653782   0.0000540295  -0.0001014877
        0.0000693866   0.0000383033   0.0000384117   0.0000247833  -0.0000366612
       -0.0000205430  -0.0000338145   0.0000253869   0.0000164183   0.0000088552
        0.0000158497  -0.0000040334  -0.0000022580   0.0000182525   0.0000038335
       -0.0000140153  -0.0000062438   0.0000095849   0.0000252787   0.0000172787
       -0.0000022927   0.0000226144  -0.0000414504  -0.0000032521  -0.0000258006
        0.0000152730   0.0000104870  -0.0000015762  -0.0000000266   0.0000049311
       -0.0000027557  -0.0000036500   0.0000009016   0.0000300403  -0.0000230846
        0.0000048934  -0.0000867955  -0.0000080132  -0.0000087006  -0.0187465554
       -0.0181674735  -0.0165192398   0.0032667194   0.0005265777  -0.0006212228
       -0.0006764905  -0.0004734786  -0.0002622066   0.0030653026   0.0004100084
       -0.0002769243   0.0002879426   0.0002166119  -0.0003506288  -0.0007118917
       -0.0007465958   0.0001882272   0.0000171209   0.0000257811  -0.0001041655
        0.0000441015  -0.0000194271  -0.0000737688   0.0000482188   0.0000519231
        0.0000220447  -0.0001491949  -0.0001088304   0.0001271289  -0.0000270153
       -0.0000442719   0.0000134756   0.0000024101   0.0000277983   0.0000003557
        0.0000105573  -0.0000071526  -0.0000016402   0.0000176955   0.0000022358
       -0.0000037953   0.0000036177  -0.0000058943  -0.0000019746   0.0000056612
        0.0000050918  -0.0000043582   0.0000018891   0.0000102035  -0.0000045548
       -0.0000010967   0.0000202528  -0.0000097943
        0.0011270470   0.0004307546  -0.0032598741  -0.0205614394  -0.0163751372
       -0.0046143192  -0.1670655785  -0.0996108667  -0.0432395807   0.4479401354
        0.2371581020  -0.0609388841  -0.1995897953  -0.0994281720   0.0644230256
        0.0113362836   0.0217991648   0.0665765471  -0.0401207277  -0.0263177215
        0.0023824948   0.0192620496  -0.0003294199  -0.0592905619   0.0042619210
       -0.0008815115   0.0008940911   0.0008238184  -0.0000329062   0.0003816445
       -0.0009409110  -0.0004452086  -0.0005243656  -0.0012223512  -0.0017262913
        0.0035075987  -0.0005745093  -0.0006100945  -0.0008821908   0.0000747815
       -0.0000138176  -0.0000121109  -0.0000000948  -0.0000140408   0.0000113149
       -0.0000255726   0.0000300019  -0.0000093224   0.0000010102  -0.0000297321
       -0.0000032156  -0.0000014145   0.0000085161   0.0000197031   0.0000138272
       -0.0000155874   0.0000025995  -0.0000050929   0.0000038713  -0.0000011370
       -0.0000033713   0.0000068748  -0.0000007368  -0.0000073082  -0.0000061161
       -0.0000017380   0.0000021935   0.0000099065  -0.0000010012  -0.0000053473
       -0.0000029339  -0.0000001167  -0.0000040500   0.0000087876  -0.0000004142
        0.0000067770  -0.0000008330   0.0000001495  -0.0000057124  -0.0000051098
        0.0000029895   0.0000224997   0.0000078536  -0.0000021375  -0.0417245357
        0.0002090447   0.0237051331  -0.0157451446  -0.0105641391   0.0097308898
        0.0031890605  -0.0031962638   0.0014287032  -0.0004035467  -0.0000850756
       -0.0001709341   0.0001176106   0.0001779280  -0.0000753952  -0.0002003786
       -0.0001770215   0.0000128339   0.0000362389  -0.0000109098   0.0000078934
        0.0000127991   0.0000042333  -0.0000166882   0.0000031781   0.0000031915
       -0.0000052279   0.0000112932   0.0000005339  -0.0000201400  -0.0000165078
        0.0000039739  -0.0000139362  -0.0000026238   0.0000077204  -0.0000030471
       -0.0000021610   0.0000007791  -0.0000023323  -0.0000009717   0.0000013733
       -0.0000006570  -0.0000035855   0.0000007093   0.0000002255  -0.0000044648
        0.0000008556   0.0000012615  -0.0000032000   0.0000003203   0.0000008235
       -0.0000021279   0.0000044136   0.0000001425
        0.0011983173   0.0004670950  -0.0030550386  -0.0155783337  -0.0122206164
       -0.0010654882  -0.1104734871  -0.1450521632  -0.0544215839   0.2371581020
        0.3150625143   0.0753901406  -0.0863058032  -0.1093856488   0.0244251046
        0.0122389802   0.0203466455   0.0414985745  -0.0264135764  -0.0244187837
        0.0038301394   0.0087388260  -0.0026604016  -0.0525698176  -0.0005971485
        0.0048346647  -0.0019732847  -0.0016044541  -0.0010349229  -0.0006366033
        0.0004735863   0.0009619176   0.0003756520  -0.0007435073   0.0004655304
        0.0025211048  -0.0005665271  -0.0000989439  -0.0005248496   0.0000236598
       -0.0000474351   0.0000181257  -0.0000123789  -0.0000067467  -0.0000218556
       -0.0000221448   0.0000246198   0.0000091564  -0.0000015514  -0.0000362172
       -0.0000100854   0.0000133334   0.0000007828   0.0000331586   0.0000053180
       -0.0000150811   0.0000078594  -0.0000033359   0.0000099665   0.0000087116
       -0.0000078094   0.0000004840   0.0000053243  -0.0000078683  -0.0000087688
       -0.0000025659   0.0000072375   0.0000005027   0.0000079524  -0.0000094435
       -0.0000049322  -0.0000001250   0.0000008084   0.0000018499   0.0000122414
        0.0000039439  -0.0000029607  -0.0000046781   0.0000005485  -0.0000024681
        0.0000077588   0.0000070509   0.0000076982  -0.0000159675   0.0002116064
       -0.0440058622  -0.0404742682  -0.0144976935  -0.0080057172   0.0085207840
       -0.0032158648   0.0049902477  -0.0018785048  -0.0000573917  -0.0003243279
        0.0000745337   0.0000981034   0.0001181315  -0.0000535603  -0.0000329766
        0.0000109440   0.0000230044  -0.0000030418  -0.0000093870   0.0000165490
        0.0000125368   0.0000103749  -0.0000052361   0.0000038537   0.0000104345
       -0.0000000168   0.0000080879   0.0000011161  -0.0000368903  -0.0000287262
       -0.0000048465  -0.0000378232  -0.0000022314   0.0000172689  -0.0000027336
       -0.0000055174   0.0000043902   0.0000021650  -0.0000031727  -0.0000014329
        0.0000050159  -0.0000042370   0.0000016142   0.0000015109  -0.0000015735
       -0.0000019759   0.0000012267  -0.0000005077  -0.0000006833  -0.0000007505
       -0.0000035965   0.0000015298  -0.0000040669
        0.0014834281   0.0007160900  -0.0017833506   0.0000620143   0.0022674917
        0.0109320120  -0.0930819190  -0.0921181711  -0.1471623246  -0.0609388841
        0.0753901406   0.6666912004   0.1245564226   0.0699259959  -0.1602682920
        0.0231219159   0.0085322490  -0.0383881238   0.0009005906   0.0027010234
        0.0041588616  -0.0184206361  -0.0217000184  -0.0323075221   0.0021569388
       -0.0012987098  -0.0069891335  -0.0010430763  -0.0001143469   0.0004467634
       -0.0010781925  -0.0013105416   0.0003052011   0.0049416989   0.0038044418
        0.0012375080   0.0002511759   0.0001891101   0.0007693819   0.0001892539
        0.0001002622   0.0000117629  -0.0000548489   0.0000035575  -0.0000655429
        0.0000735818  -0.0000171147   0.0000351231   0.0000082397   0.0000194643
       -0.0000126814  -0.0000376857  -0.0000007285   0.0000412398  -0.0000015275
       -0.0000009506  -0.0000034380   0.0000189835   0.0000006825  -0.0000129657
       -0.0000023163  -0.0000144097   0.0000012349   0.0000244503   0.0000162078
       -0.0000023946   0.0000188893  -0.0000370847  -0.0000110193  -0.0000069043
        0.0000135910   0.0000079035   0.0000074698  -0.0000070859  -0.0000038041
       -0.0000037418   0.0000007906   0.0000036242   0.0000247937   0.0000041893
       -0.0000040425  -0.0000901736  -0.0000137160   0.0000039535   0.0234304745
       -0.0406853497  -0.2989101196  -0.0080263339  -0.0049284067   0.0062935773
        0.0013414891  -0.0019352899  -0.0054541572   0.0000328670   0.0002406418
        0.0006191795  -0.0000715253  -0.0000854203   0.0000062496   0.0002254987
        0.0002655186  -0.0000732950  -0.0000804749   0.0000282567   0.0000570363
        0.0000827064   0.0000119447  -0.0000162070   0.0000015723   0.0000122826
       -0.0000050008  -0.0000225622   0.0000062229  -0.0000854778  -0.0000000418
        0.0000007129  -0.0000476763  -0.0000022711   0.0000182293  -0.0000041356
        0.0000081963  -0.0000076973  -0.0000039012   0.0000123929  -0.0000001950
       -0.0000046424   0.0000035258  -0.0000016594  -0.0000013886   0.0000023558
        0.0000053390  -0.0000016716  -0.0000023012   0.0000059337   0.0000013363
       -0.0000155097  -0.0000034741  -0.0000008411
        0.0001033271   0.0009445443   0.0001510742   0.0022455105  -0.0052599622
       -0.0025804651  -0.0422172658  -0.0394163177  -0.0227601518  -0.1995897953
       -0.0863058032   0.1245564226   0.4713422927   0.2576785675  -0.0411361905
       -0.0813331042  -0.0257876352  -0.0092293822   0.0239998733   0.0128635508
       -0.0192857454  -0.0137649482   0.0000560662   0.0265633291  -0.0016953950
       -0.0011326401  -0.0004149662   0.0005888920  -0.0000098811   0.0003284868
        0.0001600706   0.0006807137   0.0002647734  -0.0016012374  -0.0008820542
       -0.0003312211  -0.0004416816  -0.0000667175  -0.0001458015  -0.0000767301
       -0.0000516655   0.0000456096  -0.0000064404  -0.0000013775  -0.0000255181
        0.0000064011   0.0000128565   0.0000046683   0.0000015160  -0.0000390953
        0.0000040613   0.0000062242   0.0000133087   0.0000059953  -0.0000106049
       -0.0000052461   0.0000079026   0.0000035465   0.0000088458   0.0000011858
        0.0000003808  -0.0000001272   0.0000015517  -0.0000017165   0.0000104159
        0.0000001991  -0.0000008770  -0.0000081055   0.0000012429  -0.0000039373
        0.0000027255   0.0000001996  -0.0000003607   0.0000028842  -0.0000018732
        0.0000023955  -0.0000013714  -0.0000022706   0.0000030936  -0.0000100015
       -0.0000011990  -0.0000027461   0.0000070653  -0.0000003354  -0.0015262668
       -0.0016305331   0.0029070033  -0.1545950693  -0.1078728852  -0.0784733535
       -0.0019533149   0.0020728233   0.0209869237   0.0004053237  -0.0058912563
       -0.0014164714   0.0000150634   0.0000482527  -0.0000467700  -0.0000245534
        0.0000136041   0.0000240866   0.0000090431  -0.0000431583  -0.0000222209
       -0.0000214197   0.0000164000  -0.0000140303   0.0000015848   0.0000109544
        0.0000031732  -0.0000186587  -0.0000228459   0.0000272164  -0.0000037810
       -0.0000286349   0.0000028106  -0.0000033525   0.0000186060  -0.0000001314
        0.0000008049   0.0000012045   0.0000041834   0.0000038627   0.0000022321
        0.0000011238  -0.0000020782  -0.0000011737   0.0000010830  -0.0000021490
        0.0000001111  -0.0000012055  -0.0000015493  -0.0000009840  -0.0000029557
       -0.0000001730   0.0000037398  -0.0000020478
        0.0011069683  -0.0003172722   0.0001504073  -0.0055702813   0.0036303094
       -0.0037994650  -0.0298871863  -0.0209441585  -0.0056720327  -0.0994281720
       -0.1093856488   0.0699259959   0.2576785675   0.3334473871   0.0820379512
       -0.0122593418  -0.0738363051  -0.0661546898   0.0030113914  -0.0007031014
       -0.0213056015   0.0000522035  -0.0039579951   0.0107923423  -0.0009975841
       -0.0010857391  -0.0005598431   0.0005319304  -0.0000414417   0.0003286172
        0.0000050785   0.0003704989   0.0001809164  -0.0008855006  -0.0010282665
        0.0003412095   0.0000653566  -0.0005644451  -0.0002122737   0.0000539203
        0.0000701420   0.0000174420  -0.0000016741  -0.0000012233  -0.0000285214
        0.0000099867   0.0000079206   0.0000053526   0.0000041474  -0.0000293423