$hessian                                                                        
        0.4917980354   0.0211112361   0.0248195912  -0.1258951056   0.0463750587
        0.0483387024  -0.0170968526   0.0058921683   0.0145647166   0.0005190556
        0.0001532369  -0.0001050168   0.0001270689   0.0000613077   0.0000960313
        0.0000641997   0.0000359027   0.0000599871   0.0000118177   0.0000248666
       -0.0000618215  -0.0000192368   0.0000054653  -0.0000443876   0.0000320882
       -0.0000163679   0.0000010262  -0.0000141150   0.0000049590  -0.0000026124
        0.0000168882   0.0000001369   0.0000166332  -0.0000082680  -0.0000031014
        0.0000096072   0.0000062004  -0.0000014466  -0.0000121414  -0.0000130507
       -0.0000089923   0.0000044420   0.0000009023  -0.0000004527   0.0000000480
       -0.0000039483   0.0000007536   0.0000015416   0.0000017622  -0.0000005508
       -0.0000004547  -0.0000009761  -0.0000002471   0.0000011018   0.0000003776
        0.0000005940  -0.0000000524   0.0000006144  -0.0000080063   0.0000004833
        0.0000008154   0.0000093503  -0.0000008753  -0.0000001980   0.0000000667
        0.0000011111   0.0000004861  -0.0000022931   0.0000013568   0.0000016353
        0.0000013867  -0.0000012962  -0.0000006455  -0.0000016164  -0.0000001607
       -0.0000020860  -0.0000032267   0.0000000551  -0.0000007952   0.0000029363
       -0.0000004812   0.0000002138   0.0000016637  -0.0000006130   0.0000018979
       -0.0000020502  -0.0000014280  -0.0000045433   0.0000016086   0.0000014525
        0.0000016683  -0.0000003836  -0.0000007448   0.0000005400   0.0000023151
        0.0000014532  -0.0000007207   0.0000003698   0.0000008805   0.0000043350
        0.0000109819  -0.0000018223  -0.0000057555  -0.0000123025   0.0000006120
       -0.0000002936  -0.0000003119  -0.0000002847  -0.0000015050   0.0000001460
        0.0000006094   0.0000023567   0.0000004498  -0.0000003491  -0.0000101353
        0.0000149515   0.0000030275   0.0000100289   0.0000012580  -0.0000171558
        0.0000267346  -0.0000054515   0.0000002822   0.0000628329  -0.0000151740
        0.0000103778  -0.0000715545   0.0000182778   0.0000025534  -0.0000136745
       -0.0000001805   0.0000121966   0.0000310665  -0.0000032670  -0.0000195082
       -0.0000138150   0.0000020573   0.0000109286  -0.0000298497   0.0000404248
       -0.0000185122  -0.0000201655  -0.0000293036   0.0001121628  -0.1416755152
       -0.1026112210   0.0583015631  -0.1047344727   0.0771965037  -0.0694857186
       -0.0933391356  -0.0538066629  -0.0829370492   0.0075171867  -0.0054923950
       -0.0051680997  -0.0150363174   0.0127892298   0.0095492699   0.0008977354
        0.0004057205  -0.0010274240  -0.0022554728  -0.0020836653   0.0024951262
        0.0000555222   0.0002236435   0.0001013367  -0.0007420533  -0.0002342787
        0.0005500822   0.0000245317   0.0000011773  -0.0000515274  -0.0002151845
        0.0000161919  -0.0000642942  -0.0000040228  -0.0000006159  -0.0000246157
       -0.0000273783  -0.0000356903  -0.0000180600  -0.0000004354   0.0000079226
        0.0000055156   0.0000035505   0.0000070386  -0.0000039678   0.0000025535
       -0.0000097148  -0.0000027678   0.0000040393   0.0000012975  -0.0000071957
       -0.0000022662   0.0000003157   0.0000006390   0.0000007172  -0.0000001841
        0.0000000308   0.0000008867  -0.0000001270  -0.0000001672   0.0000007144
        0.0000005636  -0.0000002906   0.0000000675  -0.0000000587   0.0000000298
        0.0000004097   0.0000010517  -0.0000007950   0.0000017758   0.0000007635
       -0.0000002302   0.0000028354  -0.0000005307  -0.0000003677   0.0000025473
       -0.0000005098  -0.0000004801   0.0000010712  -0.0000018504  -0.0000001155
       -0.0000000468  -0.0000008775  -0.0000007799  -0.0000006992   0.0000003990
       -0.0000000011  -0.0000002035  -0.0000009608  -0.0000006244   0.0000003193
        0.0000000745  -0.0000004220   0.0000006380   0.0000003876   0.0000000942
       -0.0000044733  -0.0000004064   0.0000018274   0.0000092524  -0.0000028770
       -0.0000017318   0.0000003081  -0.0000016671   0.0000047829   0.0000098915
        0.0000050153  -0.0000298108   0.0000047915  -0.0000322071   0.0000329857
        0.0211112361   0.5106404368  -0.0159187651   0.0450178653  -0.1004161907
       -0.0375722927  -0.0095782621   0.0086754110   0.0087854462   0.0001813242
        0.0001378812  -0.0000144068  -0.0000361057  -0.0002492010   0.0001285146
        0.0000306676   0.0000525525   0.0000369505   0.0000502104   0.0000085183
       -0.0001180916  -0.0000772848   0.0000140212   0.0000175099  -0.0000030276
       -0.0000008718  -0.0000074031   0.0000074993  -0.0000027253  -0.0000225975
        0.0000156867   0.0000021862   0.0000070791   0.0000018488  -0.0000021536
        0.0000048307  -0.0000032682   0.0000006442  -0.0000053636  -0.0000044980
       -0.0000019047   0.0000008075   0.0000016325   0.0000012198  -0.0000010999
       -0.0000028028   0.0000005561   0.0000012096   0.0000001544  -0.0000004541
        0.0000002961  -0.0000003378  -0.0000017103   0.0000011740   0.0000010316
        0.0000015927  -0.0000014572   0.0000001012   0.0000027899   0.0000010834
        0.0000002702  -0.0000010698  -0.0000007928  -0.0000003612  -0.0000013643
        0.0000016029   0.0000001800  -0.0000005426   0.0000000638   0.0000006837
        0.0000024811  -0.0000000102   0.0000021530  -0.0000004290  -0.0000006146
       -0.0000008985  -0.0000013599   0.0000002565  -0.0000001968  -0.0000005459
        0.0000001519  -0.0000000874   0.0000007993   0.0000001050   0.0000011028
       -0.0000001775  -0.0000007517   0.0000010459  -0.0000012985  -0.0000001302
        0.0000009790   0.0000000972  -0.0000008762   0.0000004219   0.0000020002
        0.0000000809  -0.0000007920  -0.0000020498  -0.0000011920  -0.0000001800
        0.0000001055   0.0000001870  -0.0000006869  -0.0000005295  -0.0000002630
       -0.0000004299   0.0000007752   0.0000003551  -0.0000008814   0.0000004604
        0.0000003037  -0.0000013101   0.0000011647   0.0000000329  -0.0000027062
        0.0000050740  -0.0000002306   0.0000066859  -0.0000022190  -0.0000045776
       -0.0000155553  -0.0000023931   0.0000307699   0.0000616022  -0.0000102689
       -0.0000302149  -0.0000508784   0.0000292555  -0.0000360911  -0.0000002697
       -0.0000080480   0.0000236949   0.0000179429  -0.0000094555   0.0000022505
        0.0000120909   0.0000072256  -0.0000319720  -0.0000244305   0.0000546413
       -0.0000336312  -0.0000482417  -0.0000341969   0.0001379593  -0.1027159186
       -0.1492783285   0.0631722704   0.0772288252  -0.1451817228   0.0878292798
       -0.0537181113  -0.1013115538  -0.0864957428   0.0116003930  -0.0108479030
       -0.0133010630   0.0157554267  -0.0118848680  -0.0099205105  -0.0009920267
        0.0007673847   0.0002166062  -0.0030039751  -0.0012999219   0.0027113474
       -0.0001627743   0.0002012038   0.0000982247  -0.0006505160  -0.0001159430
        0.0004400651  -0.0000055629   0.0000046110  -0.0000528997  -0.0000303679
        0.0001250211  -0.0000411599   0.0000404499   0.0000380947  -0.0000116360
       -0.0000103758  -0.0000391275  -0.0000073643   0.0000053181   0.0000043438
        0.0000013500   0.0000083373   0.0000027061   0.0000009406   0.0000026835
       -0.0000072343  -0.0000022070   0.0000019147   0.0000009402  -0.0000031017
       -0.0000005821  -0.0000000558   0.0000003523   0.0000000067  -0.0000004981
        0.0000004392   0.0000007402  -0.0000000178  -0.0000006727   0.0000002152
        0.0000003274   0.0000000619  -0.0000001029   0.0000002371  -0.0000000793
       -0.0000003611   0.0000000508   0.0000003677   0.0000009897  -0.0000000199
        0.0000001311   0.0000010519  -0.0000002242   0.0000001540   0.0000010471
       -0.0000002208   0.0000002043   0.0000004325  -0.0000005319   0.0000003482
       -0.0000001283  -0.0000002975  -0.0000002700  -0.0000001743   0.0000003445
        0.0000003663   0.0000005193  -0.0000006912  -0.0000000968   0.0000006957
        0.0000001023   0.0000001467  -0.0000017084  -0.0000001926   0.0000003030
        0.0000007759   0.0000017691  -0.0000016016   0.0000056877  -0.0000005220
        0.0000040679   0.0000065791  -0.0000020223   0.0000106867   0.0000101639
        0.0000042026  -0.0000236865  -0.0000504910  -0.0000701722  -0.0000055117
        0.0248195912  -0.0159187651   0.5073776058   0.0479278315  -0.0384318937
       -0.1088599809   0.0139665328  -0.0043852786  -0.0109804819  -0.0000497888
        0.0002335704   0.0001862301  -0.0000371655  -0.0000614141  -0.0002166458
       -0.0000512680  -0.0000227866   0.0000546412   0.0001675889  -0.0000460734
       -0.0000477483  -0.0001290733   0.0000287135   0.0001303813  -0.0000293122
        0.0000203567  -0.0000446246   0.0000403296  -0.0000130837  -0.0000070382
       -0.0000160319  -0.0000025700   0.0000087139  -0.0000062924   0.0000061983
       -0.0000219200   0.0000169931  -0.0000047912   0.0000069238  -0.0000027579
       -0.0000028194   0.0000049548   0.0000010694   0.0000052534   0.0000003591
       -0.0000008326  -0.0000019659  -0.0000003911  -0.0000002417  -0.0000026326
       -0.0000002189  -0.0000005248  -0.0000008832   0.0000001770  -0.0000006685
        0.0000025769   0.0000008402  -0.0000018869  -0.0000069127   0.0000012783
        0.0000008412   0.0000072033  -0.0000012483   0.0000008803  -0.0000010662
       -0.0000009363  -0.0000001359   0.0000019228   0.0000016209  -0.0000012551
       -0.0000010725  -0.0000001073  -0.0000005722   0.0000019933  -0.0000003124
        0.0000019293  -0.0000007402  -0.0000005349   0.0000025873  -0.0000010547
       -0.0000005937  -0.0000006040  -0.0000015682  -0.0000004801  -0.0000003475
        0.0000010336  -0.0000001080  -0.0000003392   0.0000023166  -0.0000005862
        0.0000012937   0.0000028681   0.0000000722  -0.0000009883  -0.0000018726
        0.0000021421   0.0000014949   0.0000008513  -0.0000011809   0.0000019669
        0.0000071431   0.0000013404  -0.0000024635  -0.0000074047   0.0000001763
       -0.0000012220  -0.0000025704   0.0000013813   0.0000002418   0.0000010427
        0.0000001466   0.0000002867  -0.0000064446   0.0000007242  -0.0000003821
        0.0000053051   0.0000069297   0.0000222991  -0.0000083203  -0.0000078733
       -0.0000800830  -0.0000064683   0.0000880554   0.0001084277  -0.0000012763
       -0.0001136796  -0.0000653910   0.0000254089  -0.0000265305  -0.0000006454
       -0.0000104974   0.0000267533   0.0000140304  -0.0000118594   0.0000137863
        0.0000374077   0.0000081842  -0.0000478905  -0.0000413157   0.0000328987
        0.0000241833   0.0000057613  -0.0000046380   0.0000409299   0.0584228039
        0.0631765928  -0.0804074834  -0.0697954739   0.0882311645  -0.1214168929
       -0.0828711792  -0.0861371438  -0.1772063246   0.0145597483  -0.0148332982
       -0.0160298480  -0.0094982127   0.0076325753   0.0083846857   0.0002798384
       -0.0007658965   0.0003395086   0.0024608060   0.0017979653  -0.0013480492
       -0.0000189381  -0.0001423541  -0.0001050776  -0.0000056302  -0.0004302179
        0.0002478868   0.0000959422  -0.0000333615  -0.0000679869  -0.0002009926
        0.0001884141   0.0001258208  -0.0000013778  -0.0000134752  -0.0000250071
       -0.0000404180  -0.0000675629  -0.0000437986  -0.0000065118  -0.0000010167
       -0.0000018723   0.0000049373   0.0000012805  -0.0000018346   0.0000106469
       -0.0000052097  -0.0000023731   0.0000004328  -0.0000012684  -0.0000012569
       -0.0000019235   0.0000005803  -0.0000031983  -0.0000005002  -0.0000019155
       -0.0000005354   0.0000000378  -0.0000004449  -0.0000006749   0.0000002099
        0.0000004885  -0.0000012074  -0.0000006516  -0.0000000146  -0.0000002651
       -0.0000003265   0.0000001000  -0.0000010675   0.0000015026   0.0000007295
       -0.0000003726   0.0000013776  -0.0000005470  -0.0000001724   0.0000015568
        0.0000003341  -0.0000001589   0.0000015581  -0.0000011077   0.0000002283
        0.0000007582   0.0000001976  -0.0000005438   0.0000002889  -0.0000000624
        0.0000006594   0.0000006739  -0.0000007598  -0.0000002501   0.0000005241
        0.0000003012   0.0000000022   0.0000008771   0.0000022731  -0.0000004463
        0.0000071504   0.0000009422   0.0000031806   0.0000056215  -0.0000040263
        0.0000076269   0.0000027765  -0.0000047237   0.0000148145  -0.0000001178
        0.0000021091  -0.0000052944  -0.0000356107  -0.0000177583  -0.0000516577
       -0.1258951056   0.0450178653   0.0479278315   0.4879357699  -0.0111317484
        0.0394370104  -0.1086144292  -0.0441646033   0.0383706951  -0.0127735087
       -0.0138984113   0.0051673970   0.0004846506   0.0001522566   0.0001240761
       -0.0000056573  -0.0001010480   0.0001474587   0.0000634621   0.0001311188
        0.0000825943  -0.0000275284  -0.0000286791  -0.0000351821   0.0000225103
        0.0000416746   0.0000001195   0.0000008586  -0.0000088517  -0.0000125071
        0.0000341381   0.0000006754   0.0000081582  -0.0000058774  -0.0000020209
        0.0000182259   0.0000053917  -0.0000016831  -0.0000183052  -0.0000198250
       -0.0000133523   0.0000069594   0.0000040539  -0.0000009335   0.0000009156
       -0.0000038616   0.0000007241   0.0000011966   0.0000019116  -0.0000041317
       -0.0000003304  -0.0000011795   0.0000007234   0.0000003083  -0.0000004805
        0.0000010666   0.0000013638   0.0000006487  -0.0000169493  -0.0000007598
       -0.0000003320   0.0000194990  -0.0000001755   0.0000007380   0.0000000871
       -0.0000018136   0.0000011580  -0.0000007306   0.0000008532   0.0000010045
        0.0000018862  -0.0000018295  -0.0000021155  -0.0000005003   0.0000005793
       -0.0000002119  -0.0000052842  -0.0000008587  -0.0000010240   0.0000027372
       -0.0000010812  -0.0000010924   0.0000018830   0.0000000293   0.0000045137
        0.0000007165  -0.0000010884  -0.0000044444   0.0000026186   0.0000012978
       -0.0000001509  -0.0000036826  -0.0000010830   0.0000018434   0.0000013700
        0.0000035282   0.0000021426  -0.0000006156   0.0000027131   0.0000006923
        0.0000143297  -0.0000036802  -0.0000011072  -0.0000138025   0.0000020665
        0.0000003567   0.0000004124   0.0000024809  -0.0000003691  -0.0000006502
        0.0000021184  -0.0000040597  -0.0000005918   0.0000034603  -0.0000108923
        0.0000200478   0.0000025541  -0.0000069233   0.0000108475   0.0000026544
        0.0000321068  -0.0000116574  -0.0000739543  -0.0000013378  -0.0000042777
        0.0000851705  -0.0000129019  -0.0000190545   0.0000062638  -0.0000058941
        0.0000113247   0.0000027392   0.0000003280   0.0000084710  -0.0000124902
        0.0000270563   0.0000000763  -0.0000030597   0.0000055692   0.0000418988
        0.0000511875  -0.0000288946  -0.0000138144  -0.0000680971  -0.0167599208
        0.0087318333   0.0139732894  -0.0147140370   0.0120998913   0.0081384474
        0.0090042418  -0.0047804915  -0.0056319164  -0.0983188368  -0.0613175133
       -0.0776291037  -0.1113714881   0.0749654538  -0.0753933871   0.0081141044
        0.0079561691  -0.0074718878  -0.0149783945  -0.0115008759   0.0143838764
       -0.0015580203  -0.0022935505  -0.0016269806   0.0003948830   0.0008565720
        0.0004225202  -0.0002142758   0.0000039212   0.0000783727  -0.0008350967
       -0.0006877538  -0.0004478915   0.0000217106  -0.0000231267  -0.0000517145
       -0.0000164711   0.0000293220   0.0000469018   0.0000059678  -0.0000370994
        0.0000206340   0.0000070959   0.0000039173  -0.0000073367  -0.0000136388
        0.0000056996   0.0000064814   0.0000034662  -0.0000001843  -0.0000078198
       -0.0000032569  -0.0000004069   0.0000030620  -0.0000010000  -0.0000001691
       -0.0000004900   0.0000001088  -0.0000003609   0.0000000507   0.0000004645
        0.0000010939  -0.0000012430  -0.0000007819   0.0000011905   0.0000009423
       -0.0000000704  -0.0000002485  -0.0000009499   0.0000033351   0.0000021649
       -0.0000010478   0.0000039607  -0.0000006032  -0.0000012045   0.0000051100
       -0.0000003482  -0.0000016478   0.0000020251  -0.0000029325  -0.0000008947
       -0.0000015369  -0.0000013436  -0.0000019598  -0.0000018238   0.0000017873
       -0.0000018922  -0.0000005082  -0.0000009051  -0.0000018409   0.0000000266
        0.0000004379  -0.0000013501   0.0000010761  -0.0000003399  -0.0000021573
       -0.0000004648  -0.0000052545   0.0000029457   0.0000026959  -0.0000054760
       -0.0000022063  -0.0000010958  -0.0000055275   0.0000047902  -0.0000064026
       -0.0000043068   0.0000110069   0.0000251480  -0.0000278723  -0.0000341096
        0.0463750587  -0.1004161907  -0.0384318937  -0.0111317484   0.4948774218
        0.0006353340  -0.0449253944  -0.1144307674   0.0424231269  -0.0143239659
       -0.0140114634   0.0058944159   0.0001339072   0.0001803138  -0.0001982224
       -0.0000600786  -0.0001349049   0.0000790446   0.0001186511  -0.0000885997
        0.0000843159   0.0000052998   0.0000311767   0.0000585597  -0.0000003896
       -0.0000004414  -0.0000180119   0.0000001106   0.0000029745  -0.0000018225
        0.0000035482   0.0000002164   0.0000019181  -0.0000033450  -0.0000023712
       -0.0000001009   0.0000018807  -0.0000005893  -0.0000004936  -0.0000002585
       -0.0000004240   0.0000001638  -0.0000003250   0.0000003091  -0.0000000352
       -0.0000025858   0.0000004927   0.0000009261  -0.0000000140   0.0000022628
        0.0000005135   0.0000006440  -0.0000017498   0.0000011013   0.0000016503
        0.0000003296  -0.0000015577  -0.0000000884   0.0000055788   0.0000004570
        0.0000010258  -0.0000056875   0.0000001809  -0.0000004316  -0.0000010705
        0.0000029214   0.0000005799  -0.0000011411  -0.0000003006   0.0000013305
        0.0000005376   0.0000004514   0.0000011940  -0.0000010930  -0.0000004159
       -0.0000021294   0.0000007033   0.0000004200  -0.0000005923   0.0000014536
        0.0000002147   0.0000010707   0.0000002235  -0.0000001830  -0.0000020619
       -0.0000025473  -0.0000004627  -0.0000002653   0.0000000528  -0.0000001056
        0.0000020805   0.0000046902   0.0000002998  -0.0000009368   0.0000000560
       -0.0000013815  -0.0000016865  -0.0000010186  -0.0000041380   0.0000045573
        0.0000043197   0.0000007194  -0.0000057925  -0.0000034514  -0.0000000549
       -0.0000023101  -0.0000015861   0.0000000043  -0.0000002642   0.0000014195
       -0.0000021011   0.0000048121   0.0000008746  -0.0000011631  -0.0000040726
        0.0000016775   0.0000011038  -0.0000056728  -0.0000036030  -0.0000009081
        0.0000166374   0.0000044186  -0.0000007008   0.0000005671  -0.0000102950
        0.0000021880   0.0000052697   0.0000016782   0.0000233393   0.0000034292
       -0.0000072579  -0.0000163406  -0.0000050948  -0.0000051517   0.0000062755
       -0.0000067942  -0.0000139958   0.0000218726  -0.0000430079  -0.0000197194
       -0.0000114267   0.0000672309   0.0000398048  -0.0000152625  -0.0126084236
        0.0083195940   0.0100814941   0.0168436670  -0.0129394756  -0.0099042045
        0.0102274401  -0.0099283360  -0.0119802196  -0.0616557370  -0.1151225044
       -0.0843475033   0.0752554768  -0.1270432393   0.0801971406  -0.0099373625
       -0.0152861469   0.0142074926   0.0079181427   0.0076928954  -0.0075411698
       -0.0024100754  -0.0020819972  -0.0019157247   0.0002484051   0.0002572833
        0.0004187464   0.0001128815  -0.0000441892  -0.0000839924  -0.0001637631
        0.0002161370   0.0004012260  -0.0000297293  -0.0000492422  -0.0000026855
       -0.0000414534  -0.0000204330  -0.0000262523   0.0000116173  -0.0000112201
       -0.0000081018  -0.0000043604  -0.0000017852   0.0000023408   0.0000000345
       -0.0000025198  -0.0000095132  -0.0000010453   0.0000016032   0.0000012081
        0.0000005800   0.0000001495  -0.0000012197   0.0000029797  -0.0000010162
       -0.0000004227  -0.0000001478   0.0000005120  -0.0000000838  -0.0000006112
       -0.0000006285   0.0000009411   0.0000008203  -0.0000004869  -0.0000010851
        0.0000005564   0.0000008508  -0.0000001539  -0.0000012302  -0.0000010304
        0.0000002718  -0.0000007932   0.0000002184   0.0000001710  -0.0000020921
       -0.0000002145   0.0000006183  -0.0000005453   0.0000008339   0.0000003061
        0.0000013755   0.0000000788  -0.0000002088   0.0000005551  -0.0000009638
        0.0000018622   0.0000002763   0.0000005172   0.0000007686  -0.0000007438
       -0.0000001995   0.0000017010  -0.0000005677   0.0000004872   0.0000003388
        0.0000002364   0.0000051807   0.0000015582   0.0000022540   0.0000056051
        0.0000010231  -0.0000003238   0.0000058672  -0.0000004727   0.0000090703
        0.0000038347  -0.0000078208   0.0000014070   0.0000261144  -0.0000211586
        0.0483387024  -0.0375722927  -0.1088599809   0.0394370104   0.0006353340
        0.5091962030   0.0353906768   0.0398044616  -0.1002713556  -0.0077592598
       -0.0077925821   0.0099053019   0.0001098231  -0.0000985605   0.0003107396
       -0.0001377872  -0.0000201379   0.0000575860  -0.0000199394   0.0001534989
       -0.0001443472   0.0000376185  -0.0000384657  -0.0000995699   0.0000250830
        0.0000046753   0.0000177514  -0.0000300022   0.0000048611   0.0000051110
        0.0000149123   0.0000011564   0.0000103020  -0.0000011134  -0.0000013737
        0.0000175904   0.0000031832  -0.0000002113  -0.0000115482  -0.0000118849
       -0.0000091819   0.0000046553   0.0000018362  -0.0000020627  -0.0000007839
       -0.0000024553   0.0000005603   0.0000012843   0.0000021277  -0.0000019349
       -0.0000008423  -0.0000015495   0.0000009201   0.0000004932  -0.0000005906
        0.0000002416   0.0000003680   0.0000014622  -0.0000057253   0.0000007916
       -0.0000005645   0.0000080147  -0.0000012635  -0.0000008875   0.0000005253
       -0.0000004819  -0.0000008025  -0.0000013940   0.0000013088   0.0000017069
        0.0000017921  -0.0000016832  -0.0000005143  -0.0000012354  -0.0000000248
       -0.0000003281  -0.0000024281   0.0000000516  -0.0000018692   0.0000019427
        0.0000002464   0.0000013987   0.0000018774  -0.0000007247   0.0000034402
       -0.0000012160  -0.0000009217  -0.0000032186   0.0000024443   0.0000015290
        0.0000010678  -0.0000029990  -0.0000012851   0.0000009106   0.0000021951
        0.0000028900   0.0000009045   0.0000000709   0.0000034181  -0.0000019038
        0.0000018912   0.0000014538   0.0000027654  -0.0000026888  -0.0000021297
        0.0000004726  -0.0000004358   0.0000004968  -0.0000005075   0.0000009054
        0.0000021613  -0.0000021708   0.0000002026   0.0000003665  -0.0000055516
        0.0000117587   0.0000016627   0.0000155674   0.0000051326  -0.0000118179
        0.0000151948  -0.0000153115   0.0000134911   0.0000595163  -0.0000010458
       -0.0000008092  -0.0000883234   0.0000167550  -0.0000260111  -0.0000293559
        0.0000100789   0.0000256893   0.0000376883  -0.0000027441  -0.0000139495
        0.0000093095   0.0000144933   0.0000043217   0.0000062319   0.0000768915
        0.0000117272  -0.0000726312  -0.0000774747   0.0001789527   0.0116820304
       -0.0056813641  -0.0091958681  -0.0097731913   0.0073736849   0.0091174259
        0.0149082609  -0.0143832216  -0.0163990467  -0.0776923227  -0.0845408528
       -0.1453282853  -0.0751668032   0.0801553110  -0.1225744692   0.0105206770
        0.0155608144  -0.0131190017   0.0133538264   0.0101350614  -0.0116819270
       -0.0025320084  -0.0030621243  -0.0011741607   0.0000820185  -0.0001040365
        0.0004466273  -0.0001049043  -0.0000000000  -0.0000083902  -0.0007276717
       -0.0004409111  -0.0003692621   0.0000539005  -0.0000142291  -0.0000391494
        0.0000049592  -0.0000059357   0.0000552560   0.0000044625  -0.0000144907
       -0.0000129838   0.0000078383   0.0000065067  -0.0000073131  -0.0000089593
       -0.0000002334   0.0000056864   0.0000038211  -0.0000001020  -0.0000081747
       -0.0000007454  -0.0000006335   0.0000006566  -0.0000006980  -0.0000000400
        0.0000004906   0.0000011191  -0.0000003676   0.0000001932   0.0000011895
        0.0000010869  -0.0000003413   0.0000002660   0.0000004441   0.0000005499
        0.0000006906   0.0000002660  -0.0000006822   0.0000023479   0.0000011918
        0.0000002015   0.0000030590   0.0000002072   0.0000002327   0.0000038779
       -0.0000004225  -0.0000000460   0.0000020069  -0.0000013721   0.0000002995
       -0.0000002437  -0.0000021903  -0.0000013440   0.0000002145   0.0000013519
       -0.0000020017   0.0000011428  -0.0000013914  -0.0000006346   0.0000016848
        0.0000000210  -0.0000009166   0.0000010047  -0.0000002174  -0.0000005637
       -0.0000044362  -0.0000037189   0.0000001673   0.0000019060  -0.0000063230
       -0.0000013233  -0.0000003073  -0.0000055498   0.0000007353   0.0000188384
       -0.0000115634  -0.0000117684   0.0000057495  -0.0000658350  -0.0000192826
       -0.0170968526  -0.0095782621   0.0139665328  -0.1086144292  -0.0449253944
        0.0353906768   0.4968300557  -0.0413596638  -0.0000566287  -0.1015618056
       -0.0409606033  -0.0361982551  -0.0144488236  -0.0085162743  -0.0144345185
       -0.0014890515   0.0018232867  -0.0017735432  -0.0008416719  -0.0002219152
       -0.0009502715   0.0000749408  -0.0000880490  -0.0001270083  -0.0000005576
        0.0000549919   0.0000203717   0.0000324214  -0.0000028269  -0.0000093052
        0.0000142981   0.0000021430  -0.0000066830   0.0000086134   0.0000008677
       -0.0000000405   0.0000005547  -0.0000019710  -0.0000007581  -0.0000023640
       -0.0000007698   0.0000009524   0.0000009879  -0.0000005359   0.0000014660
       -0.0000006590   0.0000008725  -0.0000003737  -0.0000002899  -0.0000017236
       -0.0000001563   0.0000001632  -0.0000001725  -0.0000003715  -0.0000005442
        0.0000003304   0.0000005489  -0.0000011148  -0.0000074999  -0.0000016892
       -0.0000006943   0.0000081900  -0.0000002516  -0.0000000260  -0.0000001020
       -0.0000006651   0.0000006370   0.0000002566  -0.0000006278  -0.0000008967
        0.0000000767   0.0000002726  -0.0000013964   0.0000006144   0.0000010785
        0.0000004924  -0.0000018836  -0.0000004062   0.0000005225   0.0000013222
       -0.0000004377  -0.0000003037   0.0000000627   0.0000012372   0.0000006937
        0.0000013056   0.0000011517  -0.0000006351  -0.0000005576   0.0000004592
       -0.0000003270  -0.0000003881   0.0000012308   0.0000019584  -0.0000017171
        0.0000002171   0.0000023481   0.0000000824   0.0000003930   0.0000033070
        0.0000089277  -0.0000028197  -0.0000011868  -0.0000085180   0.0000038732
        0.0000015067   0.0000001820   0.0000027046   0.0000021827  -0.0000007194
        0.0000010075  -0.0000005776  -0.0000003095   0.0000032748  -0.0000013130
        0.0000007491   0.0000001587  -0.0000221148   0.0000085151   0.0000042800
       -0.0000236660   0.0000345998  -0.0000042166  -0.0000148210  -0.0000124750
        0.0000502778   0.0000524168   0.0000333375  -0.0000819962  -0.0000083080
        0.0000150163   0.0000027019   0.0000048555  -0.0000014467  -0.0000029745
       -0.0000078703  -0.0000021818   0.0000233726   0.0000262428  -0.0000153607
       -0.0000098481  -0.0001829881  -0.0000656482   0.0000429852  -0.0028703826
        0.0017891780   0.0030075837   0.0004366103  -0.0009211976   0.0001866742
        0.0005055011  -0.0003021226  -0.0005224351  -0.0124896197  -0.0144865412
        0.0073206216   0.0086953461   0.0087413552  -0.0063350136  -0.1155703055
        0.0752694892  -0.0758980893  -0.1287694877   0.0797487115   0.0771426483
       -0.0122883089  -0.0150100437  -0.0093348891   0.0089857088   0.0099276599
        0.0085291137   0.0002499190  -0.0007466690  -0.0002551781   0.0004728694
       -0.0002529663   0.0004059596   0.0000999875   0.0000539046   0.0000015928
       -0.0001187609   0.0000266449  -0.0000367440  -0.0000150446  -0.0000708268
       -0.0000243144  -0.0000102898  -0.0000111062  -0.0000009133  -0.0000251476
        0.0000228553   0.0000004784  -0.0000042640  -0.0000012269   0.0000015721
        0.0000012404   0.0000000621   0.0000036228   0.0000004159   0.0000004034
       -0.0000012259  -0.0000008574  -0.0000003721  -0.0000004803  -0.0000008053
        0.0000001150  -0.0000012845  -0.0000015973   0.0000009026  -0.0000002062
       -0.0000006521  -0.0000001674  -0.0000004058   0.0000007083   0.0000011298
       -0.0000007771   0.0000010107  -0.0000003760  -0.0000005150   0.0000016401
        0.0000006232  -0.0000004859   0.0000010885  -0.0000007459  -0.0000001948
        0.0000003301  -0.0000001166   0.0000000527   0.0000000290  -0.0000003603
        0.0000004992   0.0000004883   0.0000003011   0.0000001208  -0.0000001724
        0.0000000581   0.0000005637   0.0000012753  -0.0000018223  -0.0000019855
       -0.0000018008  -0.0000082375   0.0000034011   0.0000022546  -0.0000032308
       -0.0000038826  -0.0000018302  -0.0000041961   0.0000017065  -0.0000048842
        0.0000038538  -0.0000010332  -0.0000161226   0.0000163170  -0.0000435362
        0.0058921683   0.0086754110  -0.0043852786  -0.0441646033  -0.1144307674
        0.0398044616  -0.0413596638   0.4975866384  -0.0011907135  -0.0396147133
       -0.1124961023  -0.0436829888   0.0055413988   0.0086311125   0.0051472581
        0.0013470184  -0.0008663255   0.0014497474   0.0009030326   0.0001345826
        0.0008619655  -0.0002175268   0.0000988726   0.0002345289   0.0000241252
       -0.0000012123  -0.0000690493   0.0000268022  -0.0000092004  -0.0000150441
        0.0000050221  -0.0000039782   0.0000273747  -0.0000167567  -0.0000025869
       -0.0000052294   0.0000179131  -0.0000046172  -0.0000103037  -0.0000143113
       -0.0000127370   0.0000070811   0.0000000174   0.0000028225   0.0000008033
       -0.0000046712   0.0000000478   0.0000012640   0.0000008421   0.0000022167
       -0.0000007891  -0.0000007021   0.0000003671   0.0000020554   0.0000004223
        0.0000000426   0.0000004802  -0.0000020774  -0.0000030353   0.0000000261