$hessian                                                                        
        0.5234534431  -0.0144922874  -0.0027708328  -0.0719396304  -0.0306646146
       -0.0046357139   0.0024259495   0.0231480297   0.0034634167  -0.0035349944
        0.0028993148   0.0002439735   0.0003122494   0.0012639285   0.0001608983
       -0.0003281904   0.0002118906  -0.0000188538  -0.0000734433   0.0000276965
        0.0000991402  -0.0000287675  -0.0000081691  -0.0000244818   0.0000185254
        0.0000203821  -0.0000001192  -0.0000153590  -0.0000001773   0.0000034990
        0.0000234409  -0.0000043675   0.0000115720  -0.0000073658  -0.0000033693
        0.0000063421   0.0000039196   0.0000000911  -0.0000169753   0.0000301476
        0.0000179003  -0.0000016320  -0.0000050199   0.0000264693   0.0000157326
       -0.0000085894  -0.0000175317   0.0000037805   0.0000898043  -0.0000420752
        0.0000201887  -0.0000568215   0.0001489212  -0.0001915454  -0.0000789940
       -0.0000150792  -0.0001198284  -0.0000815152   0.0000944030   0.0000552903
        0.0000705312  -0.0000735817  -0.0000106292   0.0000530679  -0.0000356228
        0.0000062116  -0.0000496422  -0.0000520151   0.0000070654   0.0000094650
       -0.0000180833  -0.0000085641   0.0000081559  -0.0000253046   0.0000278135
        0.0000004056  -0.0000169795  -0.0000011799   0.0000078289   0.0000024854
       -0.0000009003  -0.0000127482  -0.0000079815   0.0000092325  -0.0000053521
       -0.0000148574   0.0000049857  -0.0000015693   0.0000041483  -0.0000019326
        0.0000106273   0.0000050498  -0.0000029940  -0.0000017396  -0.0000005965
        0.0000007097   0.0000014649  -0.0000001118  -0.0000007386  -0.0000046161
       -0.0000028234  -0.0000003457   0.0000055718   0.0000030335  -0.0000002961
       -0.0000046541  -0.0000009630   0.0000016175   0.0000006491  -0.0000047100
       -0.0000022404  -0.0000048888   0.0000130287  -0.0000008286  -0.0000213260
       -0.0000139232   0.0000060618  -0.0000120661  -0.0000016494   0.0000154607
        0.0000382539  -0.0000276585  -0.0000559488  -0.0000141341   0.0000139794
        0.0000652659  -0.0000282889   0.0000082839   0.0000317944   0.0000312641
       -0.0000044699  -0.0000177568  -0.0000111303  -0.0000022141   0.0000127424
        0.0000103929   0.0000000314   0.0000006389  -0.0000370471  -0.0000022650
       -0.0000062328   0.0000905512  -0.0000226824  -0.0001321227  -0.0952455021
       -0.0115185635  -0.0959153165  -0.2167555768   0.1086874971   0.0001903948
       -0.1313920277  -0.0468955761   0.1042354864  -0.0036684340  -0.0153047256
       -0.0041906982  -0.0048556116  -0.0190293002  -0.0009851124   0.0006703585
        0.0006813317   0.0005583636   0.0006785450   0.0009279716  -0.0002419536
       -0.0000192120   0.0000827626  -0.0000680028  -0.0000289314   0.0000359943
        0.0000798331   0.0000868758  -0.0000376586   0.0000163376   0.0000703167
       -0.0000352950  -0.0000299027   0.0000011742   0.0001380001   0.0000060961
       -0.0000181965  -0.0000233119   0.0000136982  -0.0000208186  -0.0000023929
        0.0000102479   0.0000146402   0.0000071553  -0.0000074089   0.0000012225
        0.0000013975  -0.0000065082   0.0000128818  -0.0000050533  -0.0000049162
       -0.0000079098   0.0000046585   0.0000024986  -0.0000203313   0.0000283163
       -0.0000179289   0.0002515927  -0.0000366491   0.0001424700  -0.0001152944
       -0.0000080689   0.0000042401   0.0000097215  -0.0000161096  -0.0000236457
       -0.0000019208  -0.0000224787  -0.0000179396   0.0000235694  -0.0000165302
        0.0000074938  -0.0000219072   0.0000116035  -0.0000132176  -0.0000015375
        0.0000035575  -0.0000069621  -0.0000024216   0.0000005846  -0.0000024951
       -0.0000006335   0.0000012868   0.0000005616  -0.0000003238   0.0000004563
        0.0000008441  -0.0000008232  -0.0000010430  -0.0000003737  -0.0000011821
        0.0000008567   0.0000003984   0.0000016851   0.0000010672  -0.0000024590
        0.0000084151   0.0000006040   0.0000058304   0.0000007065   0.0000038943
        0.0000063787  -0.0000012379   0.0000030778   0.0000055415  -0.0000032625
        0.0000016299  -0.0000007419   0.0000235761  -0.0000038501  -0.0000018721
       -0.0144922874   0.4643184763  -0.0092711930  -0.0313501439  -0.1917605892
       -0.0197748314   0.0021193373  -0.0239366497  -0.0032938835   0.0030626206
       -0.0017937180  -0.0001430344  -0.0001515607  -0.0008882947  -0.0001424288
        0.0002489975  -0.0001598524   0.0000117237   0.0000285198   0.0000062647
        0.0000053702  -0.0000032510   0.0000175783   0.0000352732  -0.0000081632
       -0.0000028603   0.0000095030   0.0000133773   0.0000100897  -0.0000049414
        0.0000113153  -0.0000062447   0.0000009931   0.0000112042  -0.0000024107
        0.0000040747   0.0000047506   0.0000074450  -0.0000043376   0.0000179792
       -0.0000211353  -0.0000081395   0.0000049123  -0.0000065807   0.0000357213
       -0.0000258432   0.0000029978   0.0000178942   0.0000018063  -0.0000208281
        0.0000454212   0.0000122494  -0.0000907358  -0.0000957947   0.0000174931
        0.0000689199  -0.0000613957  -0.0000005884   0.0000562019   0.0000301824
       -0.0000098990  -0.0000133052  -0.0000130870  -0.0000321229  -0.0000632873
       -0.0000146047   0.0000133114  -0.0000373053  -0.0000054085   0.0000118274
       -0.0000305890  -0.0000015367  -0.0000027806   0.0000265995  -0.0000021543
       -0.0000044213  -0.0000035788   0.0000021468  -0.0000131874   0.0000042015
       -0.0000000430  -0.0000008422   0.0000056582  -0.0000029796  -0.0000044188
        0.0000037369  -0.0000007844   0.0000033324  -0.0000040545   0.0000001494
       -0.0000025803   0.0000001423  -0.0000000814   0.0000004287  -0.0000013487
       -0.0000006320   0.0000011244   0.0000005815  -0.0000007289  -0.0000059507
       -0.0000023631   0.0000001540   0.0000045919   0.0000019600  -0.0000011851
       -0.0000002306   0.0000002794   0.0000004212  -0.0000005866   0.0000006796
        0.0000000960  -0.0000018997   0.0000048202  -0.0000010001   0.0000052994
       -0.0000098802  -0.0000001801  -0.0000162082   0.0000087958   0.0000013988
       -0.0000065813  -0.0000081376   0.0000082613  -0.0000190482  -0.0000002725
       -0.0000144095   0.0000283942  -0.0000009953  -0.0000074809  -0.0000038773
       -0.0000017379  -0.0000027518  -0.0000001521  -0.0000011556  -0.0000107290
       -0.0000012776  -0.0000008839   0.0000020392   0.0000235797  -0.0000004751
        0.0000011883  -0.0000340516   0.0000176737   0.0000466531  -0.0110630227
       -0.0453445143  -0.0219446861   0.1085061592  -0.1093117773   0.0006573737
       -0.0467427616  -0.0681369051   0.0576778367  -0.0030023465  -0.0082753310
       -0.0040740947  -0.0055977695  -0.0161146989   0.0003054281  -0.0008595817
        0.0006588099  -0.0001224793  -0.0008804265   0.0008394245   0.0001626382
        0.0001370326   0.0000850075  -0.0001705164   0.0001221628   0.0000229688
        0.0001917907  -0.0000414698  -0.0000306927  -0.0000438638  -0.0000181643
       -0.0000403374   0.0000382588  -0.0000171151  -0.0000978573  -0.0000142582
        0.0000233067   0.0000404893  -0.0000362340   0.0000018109   0.0000051336
       -0.0000293709   0.0000079919  -0.0000047524  -0.0000093003  -0.0000023346
        0.0000030352  -0.0000062718  -0.0000006345  -0.0000043221  -0.0000051703
       -0.0000062249   0.0000010766   0.0000021781  -0.0000048281   0.0000093962
       -0.0000010727   0.0000845844   0.0000444004   0.0000655626  -0.0000789503
       -0.0000438426   0.0000217158   0.0000011275   0.0000021803  -0.0000056163
        0.0000081952   0.0000073880  -0.0000051521  -0.0000084429   0.0000102047
       -0.0000130279  -0.0000032284  -0.0000047781  -0.0000041948  -0.0000020635
       -0.0000041901   0.0000010628   0.0000006158  -0.0000006967  -0.0000002971
        0.0000000846   0.0000004277  -0.0000003354  -0.0000004473   0.0000000311
       -0.0000005168  -0.0000005489  -0.0000001868  -0.0000006390  -0.0000002703
       -0.0000006694  -0.0000004631   0.0000012013   0.0000023971  -0.0000015490
       -0.0000009171  -0.0000071406  -0.0000024378   0.0000030418  -0.0000014109
       -0.0000032210   0.0000002682  -0.0000010008  -0.0000016086  -0.0000010661
       -0.0000019978  -0.0000035123  -0.0000194662   0.0000008988  -0.0000028636
       -0.0027708328  -0.0092711930   0.5216985138  -0.0047369915  -0.0198772417
       -0.0712400716   0.0003792677  -0.0020077824   0.0002254231   0.0001844711
       -0.0001176041   0.0003068824  -0.0000094680  -0.0000693270   0.0001808455
        0.0000205825  -0.0000024778   0.0000107916   0.0000119824  -0.0000005099
       -0.0000210634  -0.0000092644   0.0000041989   0.0000008070  -0.0000010291
        0.0000049319  -0.0000099109   0.0000063272   0.0000030960  -0.0000037443
        0.0000046685   0.0000022682   0.0000004645   0.0000067796   0.0000025757
       -0.0000030465   0.0000051097   0.0000268761  -0.0000040776   0.0000508491
       -0.0000009776  -0.0000088559   0.0000116703   0.0000168963  -0.0000172850
        0.0000035855  -0.0000079784   0.0000455788  -0.0000017395  -0.0000197661
       -0.0000408937  -0.0002250129   0.0000954994  -0.0000158611  -0.0000059914
       -0.0001159917   0.0000619450   0.0000665256  -0.0000418404  -0.0000574266
       -0.0000085090   0.0000414279   0.0000210853  -0.0000756159   0.0000271884
        0.0000028299   0.0000398775   0.0000016772  -0.0000048107   0.0000271982
       -0.0000189345   0.0000219745  -0.0000095930  -0.0000127967  -0.0000040213
        0.0000108559   0.0000072127  -0.0000038919   0.0000214621   0.0000056082
       -0.0000026925   0.0000010907   0.0000004962  -0.0000011205  -0.0000095265
        0.0000042100  -0.0000014754  -0.0000058082  -0.0000076285   0.0000012282
       -0.0000022112  -0.0000003874   0.0000000115   0.0000017817   0.0000015774
        0.0000007168   0.0000026321  -0.0000013501  -0.0000021472  -0.0000101719
       -0.0000048463   0.0000026276   0.0000073755   0.0000039586  -0.0000013688
       -0.0000005004   0.0000035067   0.0000023882   0.0000023205   0.0000003921
       -0.0000021496   0.0000007041  -0.0000006165   0.0000012921   0.0000057680
       -0.0000057085  -0.0000006344   0.0000000339  -0.0000029613   0.0000045007
       -0.0000006971  -0.0000071323   0.0000059374   0.0000010729   0.0000086775
        0.0000071852  -0.0000073636  -0.0000023902   0.0000001946  -0.0000086154
        0.0000015626   0.0000054836   0.0000045295   0.0000019031  -0.0000037856
        0.0000007323   0.0000024707   0.0000012719  -0.0000031040   0.0000040434
        0.0000001761  -0.0000154119   0.0000045348   0.0000222099  -0.0957728167
       -0.0221748653  -0.2305700068   0.0001241991   0.0006701744  -0.0451718279
        0.1043404732   0.0577736927  -0.1718133141  -0.0077754726  -0.0268892909
       -0.0062983083   0.0062264807   0.0217853457   0.0023629383  -0.0001071359
        0.0008538984   0.0004403273  -0.0000955929  -0.0006404113   0.0001542181
        0.0000143722  -0.0001145285  -0.0000134550   0.0000328658   0.0001270183
        0.0000744884   0.0000209682  -0.0000144152  -0.0000047112  -0.0000311627
        0.0000046426   0.0000011211  -0.0000060209  -0.0000064799   0.0000028246
        0.0000118393  -0.0000044694  -0.0000086729   0.0000015888  -0.0000107364
       -0.0000056009  -0.0000047666  -0.0000094073  -0.0000075804   0.0000005116
        0.0000026071   0.0000055391  -0.0000024207  -0.0000032201  -0.0000092339
       -0.0000043587  -0.0000042737   0.0000043958  -0.0000094479   0.0000366453
       -0.0000042209  -0.0000277948  -0.0001158689  -0.0002834627   0.0000967891
        0.0000306578  -0.0000547149   0.0000069142   0.0000182165   0.0000094262
        0.0000158766   0.0000146216   0.0000107244  -0.0000156677   0.0000102638
       -0.0000030302   0.0000000913  -0.0000028005  -0.0000006459  -0.0000009472
       -0.0000003322  -0.0000000278  -0.0000011410  -0.0000017636   0.0000006866
        0.0000000277   0.0000000167   0.0000003582  -0.0000007022   0.0000004764
        0.0000015077   0.0000001091  -0.0000005068  -0.0000001544  -0.0000004929
       -0.0000000523   0.0000001121  -0.0000023605   0.0000022820  -0.0000004583
       -0.0000011983  -0.0000021275   0.0000033476   0.0000003121  -0.0000036248
       -0.0000015161   0.0000016760  -0.0000035485  -0.0000017432   0.0000026396
       -0.0000035124  -0.0000014653  -0.0000000308  -0.0000036715   0.0000001043
       -0.0719396304  -0.0313501439  -0.0047369915   0.4918503190   0.0189069556
        0.0000826412  -0.1600394133   0.0579803713   0.0030671718   0.0023679480
        0.0021000958   0.0004002337   0.0000883560  -0.0011219576  -0.0001766901
        0.0003900402  -0.0001303760   0.0000636964  -0.0001055552  -0.0000397363
       -0.0001595570   0.0002345491   0.0000056533  -0.0000019198  -0.0000261626
       -0.0000059031   0.0000629887   0.0000029550   0.0000070807  -0.0000228308
       -0.0000037939  -0.0000148270  -0.0000400379   0.0000397743   0.0000132482
       -0.0000016951   0.0000211982   0.0000612015  -0.0000005621  -0.0000660846
       -0.0000694479  -0.0000180840  -0.0000544640  -0.0000719099   0.0000867342
       -0.0001591661  -0.0000698033  -0.0000296010   0.0001453016   0.0000228396
        0.0001228713   0.0000831440  -0.0000873886   0.0001184141   0.0000888748
        0.0000985307  -0.0001808353   0.0001343469   0.0001913841   0.0001284023
       -0.0001991449   0.0000041687  -0.0000685586  -0.0001856161  -0.0000597617
       -0.0000561397   0.0001518986  -0.0001354815  -0.0000533905  -0.0000067662
        0.0001103572   0.0000313296  -0.0000313445   0.0000090388   0.0000216406
       -0.0000079551  -0.0000018551   0.0000095394  -0.0000004988  -0.0000059000
       -0.0000001791   0.0000138342   0.0000051367   0.0000029848  -0.0000014686
        0.0000195355  -0.0000022590   0.0000119784  -0.0000180966   0.0000010072
       -0.0000097840  -0.0000033841   0.0000002579   0.0000050283  -0.0000015955
       -0.0000004407   0.0000045221  -0.0000031252  -0.0000037672  -0.0000183950
       -0.0000083189   0.0000010039   0.0000205439   0.0000095897  -0.0000012416
       -0.0000015353   0.0000029658   0.0000046805   0.0000025625  -0.0000009965
       -0.0000000123   0.0000006756   0.0000015977   0.0000032968   0.0000521918
       -0.0000056518  -0.0000089586  -0.0000431280   0.0000265829   0.0000042687
        0.0000205056  -0.0000040440   0.0000050974  -0.0001413966  -0.0000009720
       -0.0000130194   0.0001502417   0.0000041362  -0.0000331783  -0.0000145363
        0.0000028311   0.0000164008  -0.0000041799   0.0000012798  -0.0000057052
       -0.0000216795   0.0000053418   0.0000319471   0.0000699777  -0.0000152850
       -0.0000360467  -0.0001263817   0.0000189474   0.0001550297  -0.0042242418
       -0.0147390527  -0.0044244176   0.0039555879   0.0248741714   0.0037035832
       -0.0056697920  -0.0193884857  -0.0008087119  -0.0985100051  -0.0116072103
       -0.0952907441  -0.1206081611  -0.0433939079   0.0971669090  -0.0181117750
        0.0099708671  -0.0035480720  -0.0210201135   0.0101625851   0.0045839971
        0.0007011399  -0.0011086280  -0.0002467872   0.0006328120  -0.0010513640
       -0.0000289311   0.0000814081  -0.0000005169   0.0001647064   0.0000689741
        0.0000546715  -0.0001158058   0.0000373252  -0.0001621714  -0.0000025252
        0.0000077390   0.0000454362   0.0000097259   0.0000167118  -0.0000019171
       -0.0000396607  -0.0000290634  -0.0000042534   0.0000189603   0.0000015709
        0.0000073154  -0.0000048656  -0.0000269727  -0.0000020166   0.0000129638
       -0.0000019339   0.0000043096   0.0000101907   0.0000099340  -0.0000148251
       -0.0000063572   0.0000440391   0.0000643264   0.0000965061  -0.0000727690
       -0.0000815473   0.0000162802  -0.0000182562  -0.0000039814   0.0000234411
        0.0000059785   0.0000097955   0.0000116692  -0.0000083169  -0.0000025998
       -0.0000191769   0.0000239799  -0.0000131120  -0.0000181582  -0.0000046625
        0.0000033933  -0.0000034825   0.0000033237  -0.0000030228  -0.0000024073
       -0.0000034644   0.0000009094   0.0000008091   0.0000011471   0.0000026339
        0.0000015369   0.0000013217  -0.0000009092  -0.0000014134  -0.0000017167
        0.0000018343   0.0000007476  -0.0000008771   0.0000030850  -0.0000051801
       -0.0000024371  -0.0000077135  -0.0000046462  -0.0000037334  -0.0000020713
       -0.0000049663   0.0000030504   0.0000007275  -0.0000051421   0.0000037116
        0.0000011633  -0.0000010650  -0.0000241502  -0.0000008271  -0.0000094467
       -0.0306646146  -0.1917605892  -0.0198772417   0.0189069556   0.4672383331
       -0.0087944736   0.0587709797  -0.0968398601  -0.0007265424   0.0223451272
       -0.0231362092  -0.0021600417  -0.0009495498  -0.0051711337  -0.0007479891
        0.0012878299  -0.0008462171  -0.0000174741  -0.0000579686   0.0001170059
       -0.0000167130   0.0001551735   0.0000076441   0.0000022529  -0.0000420516
        0.0000712791   0.0000294640   0.0000189153   0.0000059869  -0.0000159110
        0.0000037095  -0.0000099116  -0.0000103442   0.0000199055   0.0000124052
       -0.0000078508   0.0000072656   0.0000164808   0.0000033710   0.0000331489
       -0.0000271906  -0.0000108740  -0.0000190087  -0.0000238829   0.0000589375
       -0.0000544478  -0.0000525136  -0.0000212974  -0.0000108742  -0.0000541764
        0.0000128366  -0.0000916912   0.0000434924   0.0000520906   0.0000900707
        0.0000330577   0.0000689527   0.0000481678   0.0000168282  -0.0000218117
       -0.0000267841  -0.0000081333   0.0000094067  -0.0000339740  -0.0000717215
       -0.0000141882   0.0000187204  -0.0000686108  -0.0000006714   0.0000477405
        0.0000355139  -0.0000342072  -0.0000577476   0.0000266044  -0.0000000498
       -0.0000010894  -0.0000158034   0.0000034900  -0.0000112598  -0.0000011911
        0.0000011314   0.0000026075   0.0000151444  -0.0000029761  -0.0000096990
        0.0000039968   0.0000007581   0.0000055704  -0.0000103494   0.0000010283
       -0.0000028824  -0.0000009698  -0.0000007549   0.0000016498   0.0000000886
        0.0000015678   0.0000040610   0.0000000196  -0.0000014495  -0.0000109915
       -0.0000047587  -0.0000005629   0.0000113405   0.0000045300  -0.0000004814
       -0.0000028315   0.0000015194   0.0000039086   0.0000033102   0.0000006387
        0.0000001309  -0.0000002567   0.0000100332   0.0000017397   0.0000129055
       -0.0000077214  -0.0000000230  -0.0000201218   0.0000163259   0.0000021353
        0.0000152811  -0.0000265535  -0.0000196623  -0.0000417121   0.0000134999
        0.0000249525   0.0000480441  -0.0000084390  -0.0000066028  -0.0000098049
        0.0000008124  -0.0000029963  -0.0000008651  -0.0000003940  -0.0000169299
       -0.0000075293   0.0000014422   0.0000110690   0.0000374907   0.0000165989
        0.0000077741  -0.0000512101   0.0000020302   0.0000544927  -0.0037372447
       -0.0076761577  -0.0047773905  -0.0012274263  -0.0213039205  -0.0031803441
       -0.0061518105  -0.0155333199   0.0014739137  -0.0120392047  -0.0439852874
       -0.0182861941  -0.0438366702  -0.0656669361   0.0559476019   0.0010267725
        0.0001964222   0.0010656455  -0.0051327840   0.0038360177  -0.0002697579
        0.0008062492   0.0005436148  -0.0002351455   0.0007284807   0.0006827901
        0.0004434165  -0.0001084605  -0.0000866166  -0.0000737499   0.0000103012
       -0.0001163573   0.0000458489  -0.0000546244  -0.0004644337  -0.0000148918
        0.0000726686   0.0000569986  -0.0000402253   0.0000360889  -0.0000207647
       -0.0000191431  -0.0000275859  -0.0000083430   0.0000132712  -0.0000066460
        0.0000127842  -0.0000008245  -0.0000185634  -0.0000015405   0.0000059520
       -0.0000037233   0.0000048227   0.0000033743  -0.0000139725   0.0000070378
       -0.0000135085   0.0000700532  -0.0000085898   0.0001155521  -0.0000661702
       -0.0000240823  -0.0000081949  -0.0000070365   0.0000101075  -0.0000055862
        0.0000064543   0.0000152197  -0.0000080861  -0.0000104189   0.0000001632
        0.0000091917   0.0000168402  -0.0000100101   0.0000007677  -0.0000014304
       -0.0000040918   0.0000009181   0.0000052430  -0.0000010539  -0.0000005299
       -0.0000006984   0.0000000536  -0.0000008931   0.0000002041   0.0000010783
        0.0000000061   0.0000007423  -0.0000002143  -0.0000012502  -0.0000015186
        0.0000007255   0.0000000069  -0.0000002988  -0.0000004660  -0.0000021273
       -0.0000042142  -0.0000045562   0.0000015529   0.0000029144  -0.0000029488
       -0.0000041855  -0.0000012824  -0.0000012513  -0.0000022848  -0.0000033030
       -0.0000034267  -0.0000033015  -0.0000449295  -0.0000084488  -0.0000007755
       -0.0046357139  -0.0197748314  -0.0712400716   0.0000826412  -0.0087944736
        0.5385036954   0.0031413189  -0.0006603639  -0.0691833812   0.0031527094
       -0.0031077639   0.0000581849  -0.0001920886  -0.0008265745   0.0001658746
        0.0002321546  -0.0001592577   0.0002347398   0.0001788377   0.0000789043
       -0.0000774755  -0.0001147050  -0.0000048579   0.0000479853  -0.0000456349
       -0.0000390486   0.0000208369   0.0000022148   0.0000565593   0.0000111457
        0.0000169921  -0.0000467308   0.0000422747  -0.0000068471  -0.0000171044
        0.0001237703   0.0000422908   0.0001054890  -0.0000608437  -0.0001457789
       -0.0001546439  -0.0000396994  -0.0000600316  -0.0000821938   0.0001378654
       -0.0000384917  -0.0000194031  -0.0000292532   0.0001536193  -0.0000763181
       -0.0000886052   0.0002709914   0.0000124312  -0.0002004116   0.0000103863
        0.0000989094  -0.0000943994   0.0002607369  -0.0000293489   0.0000160896
       -0.0003620666   0.0000170132  -0.0000183168   0.0000073068   0.0000226824
        0.0000134862   0.0000316405  -0.0000998976  -0.0000403826  -0.0000045859
        0.0001596353   0.0000677439  -0.0000840241   0.0000212692   0.0000152590
       -0.0000356901   0.0000166563   0.0000024112  -0.0000209101  -0.0000127107
        0.0000005422   0.0000093002   0.0000202977  -0.0000040845   0.0000069443
        0.0000329893  -0.0000185935   0.0000266487  -0.0000258212   0.0000014942
       -0.0000246515  -0.0000134565   0.0000051910   0.0000169448   0.0000062839
        0.0000007360   0.0000041291  -0.0000085886  -0.0000118439  -0.0000533276
       -0.0000242278   0.0000144484   0.0000552028   0.0000245023  -0.0000127037
        0.0000019345   0.0000133702   0.0000079077   0.0000129675   0.0000173117
       -0.0000064903  -0.0000287207  -0.0000228828   0.0000075498   0.0000664739
        0.0000324397  -0.0000202164  -0.0000177221   0.0000350651  -0.0000450066
        0.0000861899  -0.0000250106  -0.0000441001  -0.0001426994   0.0000308963
        0.0000204834   0.0001149583  -0.0000226944  -0.0000122157  -0.0000114514
        0.0000092583  -0.0000014180   0.0000054873   0.0000056946  -0.0000147876
       -0.0000162595   0.0000070697   0.0000244996   0.0000578416   0.0000081233
       -0.0000196380  -0.0000484006  -0.0000034732   0.0000837858  -0.0078278024
       -0.0274902525  -0.0066600173   0.0001525525  -0.0009659011   0.0001885507
        0.0060027736   0.0218925622   0.0026799409  -0.0950631818  -0.0180136163
       -0.2178590109   0.0969377322   0.0556044706  -0.1729318538  -0.0241197403
        0.0136245699  -0.0015669179   0.0216900730  -0.0114768317  -0.0022542047
       -0.0003272149   0.0007243305   0.0001833722   0.0005712795  -0.0007214022
        0.0001481971   0.0000342046  -0.0000537318  -0.0000119841  -0.0000418460
        0.0000629185   0.0000248658  -0.0000131516  -0.0000852217  -0.0000130699
        0.0000037080   0.0000059127  -0.0000143689  -0.0000301729   0.0000098898
       -0.0000446137   0.0000382245   0.0000042176  -0.0000220026   0.0000190658
        0.0000159676  -0.0000084776   0.0000147511  -0.0000085270  -0.0000190524
        0.0000066829   0.0000061629  -0.0000033030   0.0000110461  -0.0000729117
       -0.0000205004   0.0000689913   0.0001880359  -0.0000718515  -0.0000550679
       -0.0000132822   0.0000211841  -0.0000406006   0.0000268444   0.0000095833
        0.0000010494   0.0000192078  -0.0000130308   0.0000038696   0.0000058029
       -0.0000388057   0.0000308414  -0.0000269296  -0.0000164568  -0.0000102345
       -0.0000002013   0.0000004637   0.0000181528  -0.0000057710   0.0000022986
       -0.0000041996  -0.0000044476  -0.0000010145   0.0000024905   0.0000041155
        0.0000050286   0.0000076237  -0.0000023872  -0.0000025352  -0.0000031395
       -0.0000053912   0.0000034048   0.0000059852   0.0000193267  -0.0000033159
       -0.0000110373  -0.0000227764  -0.0000196103  -0.0000002815  -0.0000096332
       -0.0000041555  -0.0000035259  -0.0000068565  -0.0000000389  -0.0000069281
       -0.0000056654  -0.0000003859  -0.0000220353  -0.0000037720  -0.0000103745
        0.0024259495   0.0021193373   0.0003792677  -0.1600394133   0.0587709797
        0.0031413189   0.4919985146   0.0162298332  -0.0010770361  -0.0703650332
       -0.0330283102  -0.0043672132   0.0023354602   0.0227523203   0.0031509565
       -0.0038798573   0.0029942539   0.0000026744   0.0000831604  -0.0002241824
        0.0004312645  -0.0004002616  -0.0000011952   0.0001289961   0.0000898413
       -0.0002235513  -0.0001191347   0.0000190304  -0.0000216012  -0.0000210112
        0.0000286098  -0.0000123292  -0.0000035465   0.0000092056   0.0000281062
       -0.0000403568  -0.0000034017  -0.0000342320   0.0000037390   0.0000047955
        0.0000197643   0.0000025568  -0.0000487419   0.0000548557   0.0000357252
       -0.0000019744  -0.0000001612   0.0000224474   0.0002035294   0.0000615014
       -0.0000035501   0.0001031112  -0.0000976850  -0.0001685452  -0.0000949890
       -0.0000144741  -0.0000441244  -0.0000466598   0.0001573761   0.0000283242
       -0.0000932596  -0.0000662991  -0.0000715900  -0.0000294769   0.0001172556
        0.0000193018   0.0000353467   0.0001020270   0.0000093048  -0.0000173353
       -0.0000090280   0.0000157382   0.0000161892   0.0000127478   0.0000106959
       -0.0000070461  -0.0000070494   0.0000003227  -0.0000057167  -0.0000087401
       -0.0000023372  -0.0000001520   0.0000048986   0.0000008353  -0.0000014896
       -0.0000033009   0.0000012347  -0.0000043419   0.0000030927  -0.0000007054
       -0.0000019960  -0.0000027003  -0.0000001598   0.0000003821  -0.0000013585
        0.0000013251   0.0000017405  -0.0000019768  -0.0000013880  -0.0000132773
       -0.0000047335   0.0000012563   0.0000134025   0.0000052278  -0.0000014691
       -0.0000007338   0.0000021330   0.0000022626  -0.0000002644   0.0000011892
        0.0000009096   0.0000104375   0.0000017611   0.0000020233  -0.0000336338
        0.0000105155   0.0000089716   0.0000031071  -0.0000029660   0.0000054277
        0.0000005305   0.0000085340   0.0000211782   0.0000464999  -0.0000008453
        0.0000167319  -0.0000497706   0.0000349542   0.0000819208   0.0000440061
       -0.0000144643  -0.0000271366  -0.0000274450  -0.0000097605   0.0000088417
        0.0000655876  -0.0000042265  -0.0000209186  -0.0001169616  -0.0000564141
        0.0000258009   0.0002209686   0.0000323715  -0.0003241843   0.0006967721
       -0.0010335318   0.0000580099   0.0007021278  -0.0016610876  -0.0002005826
        0.0008178739  -0.0011080728  -0.0002519820  -0.0181125310   0.0100020519
       -0.0036459180  -0.0211954995   0.0102575085   0.0043962107  -0.0980918863
       -0.0126627719  -0.0943111120  -0.1185684784  -0.0430560567   0.0973903914
       -0.0053039690  -0.0180708937  -0.0001807993  -0.0044730119  -0.0156061000
       -0.0047290126   0.0006875239   0.0010025574   0.0005427280   0.0003933796
        0.0008902750  -0.0002088964   0.0000556658   0.0015162901  -0.0000204447
       -0.0001076975  -0.0000200501  -0.0000109595  -0.0000079419   0.0000530111
       -0.0000372054   0.0000180349  -0.0000207259  -0.0000016334  -0.0000143506
        0.0000147054   0.0000022518  -0.0000075971   0.0000003824   0.0000074381
       -0.0000054765   0.0000027394   0.0000044542   0.0000425234  -0.0000503245
        0.0000061609  -0.0000285970   0.0000480930  -0.0000121239  -0.0000211102
       -0.0000738269  -0.0000264049   0.0000112778  -0.0000345506  -0.0000021998
       -0.0000231728  -0.0000647059  -0.0000082010  -0.0000068669  -0.0000203118
       -0.0000108760  -0.0000077445  -0.0000117484  -0.0000114872   0.0000012401
       -0.0000067514  -0.0000017734   0.0000024713  -0.0000026260  -0.0000006783
       -0.0000005627   0.0000004535  -0.0000008151  -0.0000000314   0.0000008176
        0.0000005113   0.0000008084  -0.0000002337  -0.0000009912  -0.0000000790
        0.0000008712   0.0000000635  -0.0000020686  -0.0000010777  -0.0000022715
        0.0000062812   0.0000025177   0.0000073260   0.0000062845   0.0000087867
        0.0000085284  -0.0000009086   0.0000069340   0.0000167213  -0.0000124903
        0.0000046268  -0.0000006235   0.0000736339   0.0000193747  -0.0000307499
        0.0231480297  -0.0239366497  -0.0020077824   0.0579803713  -0.0968398601
       -0.0006603639   0.0162298332   0.4636462492  -0.0101598858  -0.0331143696
       -0.1835864346  -0.0171423982   0.0024298856  -0.0236421945  -0.0029653466
        0.0029219974  -0.0013336095   0.0000233369  -0.0002523130   0.0002638316
       -0.0000071026   0.0000563957  -0.0000715295  -0.0000248545  -0.0000058086
       -0.0000293704   0.0000466839   0.0000164320  -0.0000388831   0.0000023521
        0.0000170651  -0.0000070684   0.0000105701  -0.0000135447   0.0000103041
       -0.0000030136  -0.0000026752  -0.0000347247   0.0000004613   0.0000078818
        0.0000376259   0.0000007394  -0.0000226907   0.0000423503   0.0000349068
        0.0000406051   0.0000261784  -0.0000032809   0.0000666991  -0.0000015763
       -0.0000051098   0.0000746898   0.0000213238  -0.0000303858  -0.0000820586
       -0.0000486608   0.0000345289   0.0000886769  -0.0000045123   0.0000544525