 Entering Gaussian System
 *********************************************
 Gaussian 98:
 frequency output generated by the xtb code
 *********************************************
                         Standard orientation:
 --------------------------------------------------------------------
  Center     Atomic     Atomic              Coordinates (Angstroms)
  Number     Number      Type              X           Y           Z
 --------------------------------------------------------------------
    1          8             0        3.694258    4.509774   -1.109627
    2          6             0        3.736481    3.349838   -0.737841
    3          6             0        5.002087    2.705922   -0.331036
    4          6             0        6.163894    3.481814   -0.330767
    5          6             0        7.374079    2.940632    0.043219
    6          6             0        7.438360    1.606926    0.423517
    7          6             0        6.296604    0.829709    0.424678
    8          6             0        5.068827    1.366006    0.050380
    9          6             0        3.860798    0.472204    0.057986
   10          6             0        2.576817    1.165961   -0.305364
   11          6             0        1.400491    0.429370   -0.256990
   12          6             0        0.174695    1.029777   -0.501843
   13          7             0       -1.031740    0.306776   -0.386301
   14          6             0       -1.424001   -0.260391    0.822829
   15          6             0       -0.563786   -0.337953    1.918536
   16          6             0       -0.957160   -0.975685    3.078286
   17          6             0       -2.213250   -1.547306    3.168945
   18          6             0       -3.095415   -1.415322    2.110760
   19          6             0       -2.727822   -0.759409    0.946249
   20          6             0       -3.742998   -0.431094   -0.134932
   21          6             0       -4.885055   -1.430862   -0.130224
   22          6             0       -6.216443   -1.054700   -0.032437
   23          6             0       -7.219103   -2.010813   -0.054395
   24          6             0       -6.904571   -3.351730   -0.178232
   25          6             0       -5.577391   -3.735311   -0.285677
   26          6             0       -4.577647   -2.782518   -0.264223
   27          6             0       -4.232788    0.992654    0.145525
   28          6             0       -4.328280    1.943946   -0.861839
   29          6             0       -4.768306    3.226942   -0.582866
   30          6             0       -5.123925    3.579907    0.706154
   31          6             0       -5.039952    2.636207    1.715785
   32          6             0       -4.597304    1.356341    1.437814
   33          6             0       -3.043411   -0.465554   -1.477088
   34          6             0       -3.696611   -0.840987   -2.640730
   35          6             0       -3.064168   -0.765538   -3.869390
   36          6             0       -1.759466   -0.308326   -3.940098
   37          6             0       -1.087668    0.055208   -2.790187
   38          6             0       -1.722201   -0.015369   -1.549731
   39          6             0        0.123033    2.374652   -0.871201
   40          6             0        1.289325    3.097430   -0.959031
   41          6             0        2.524515    2.512486   -0.661402
   42          6             0        3.679949   -0.201603    1.407563
   43          6             0        3.423057    0.392522    2.622993
   44          6             0        3.242964   -0.424415    3.731765
   45          6             0        3.318225   -1.804073    3.616303
   46          6             0        3.577414   -2.404021    2.394202
   47          6             0        3.757745   -1.595708    1.284060
   48          6             0        4.019016   -1.922150   -0.110081
   49          6             0        4.194010   -3.140297   -0.745571
   50          6             0        4.432616   -3.147678   -2.110716
   51          6             0        4.494706   -1.963997   -2.830272
   52          6             0        4.319517   -0.738820   -2.200104
   53          6             0        4.083862   -0.729250   -0.843621
   54          1             0        6.078759    4.515376   -0.632283
   55          1             0        8.266569    3.548080    0.040790
   56          1             0        8.382276    1.173059    0.718829
   57          1             0        6.350889   -0.208641    0.719235
   58          1             0        1.438410   -0.625493   -0.026372
   59          1             0        0.416145    0.110241    1.877387
   60          1             0       -0.269764   -1.028028    3.909496
   61          1             0       -2.518632   -2.063535    4.066166
   62          1             0       -4.094162   -1.818307    2.197329
   63          1             0       -6.478491   -0.011066    0.058663
   64          1             0       -8.251411   -1.701962    0.023994
   65          1             0       -7.687934   -4.095089   -0.194457
   66          1             0       -5.321947   -4.779998   -0.387937
   67          1             0       -3.542818   -3.082627   -0.351414
   68          1             0       -4.063109    1.687777   -1.876825
   69          1             0       -4.833816    3.952265   -1.381058
   70          1             0       -5.466010    4.581117    0.922825
   71          1             0       -5.319819    2.897188    2.726087
   72          1             0       -4.536058    0.631215    2.235456
   73          1             0       -4.721258   -1.177596   -2.586059
   74          1             0       -3.591773   -1.052860   -4.765892
   75          1             0       -1.256892   -0.241379   -4.893418
   76          1             0       -0.063189    0.391289   -2.848051
   77          1             0       -0.834273    2.830094   -1.076480
   78          1             0        1.281151    4.139947   -1.240216
   79          1             0        3.359376    1.467617    2.710694
   80          1             0        3.038468    0.021521    4.693778
   81          1             0        3.170964   -2.419780    4.491452
   82          1             0        3.631972   -3.478976    2.309175
   83          1             0        4.146443   -4.064740   -0.189649
   84          1             0        4.572506   -4.088606   -2.622305
   85          1             0        4.681877   -1.994430   -3.893268
   86          1             0        4.368668    0.184209   -2.759404
 --------------------------------------------------------------------
     1 basis functions        1 primitive gaussians
     1 alpha electrons        1 beta electrons
 
 Harmonic frequencies (cm**-1), IR intensities (km*mol⁻¹),
 Raman scattering activities (A**4/amu), Raman depolarization ratios,
 reduced masses (AMU), force constants (mDyne/A) and normal coordinates:
                      1                      2                      3
                        a                      a                      a 
 Frequencies --     5.8923                 9.3762                13.1766
 Red. masses --    10.9876                11.1380                11.4643
 Frc consts  --     0.0000                 0.0000                 0.0000
 IR Inten    --     0.0980                 0.0170                 0.5467
 Raman Activ --     0.0000                 0.0000                 0.0000
 Depolar     --     0.0000                 0.0000                 0.0000
 Atom AN      X      Y      Z        X      Y      Z        X      Y      Z
   1   8     0.04   0.04   0.11    -0.13   0.03   0.05    -0.07   0.10   0.31
   2   6     0.03   0.01   0.03    -0.08   0.02   0.01    -0.04   0.05   0.16
   3   6     0.04  -0.03  -0.04    -0.06   0.05  -0.01    -0.01   0.02   0.03
   4   6     0.06  -0.05  -0.09    -0.08   0.08  -0.03    -0.01   0.01  -0.02
   5   6     0.06  -0.09  -0.16    -0.06   0.10  -0.05     0.02  -0.02  -0.15
   6   6     0.05  -0.10  -0.19    -0.02   0.10  -0.06     0.04  -0.04  -0.23
   7   6     0.03  -0.07  -0.14    -0.00   0.07  -0.05     0.03  -0.03  -0.18
   8   6     0.02  -0.04  -0.08    -0.02   0.05  -0.02     0.01  -0.00  -0.05
   9   6     0.00  -0.00  -0.02     0.00   0.02  -0.00     0.00   0.01   0.00
  10   6     0.01   0.01  -0.02    -0.02  -0.02  -0.01    -0.01   0.02   0.07
  11   6     0.00   0.02  -0.03     0.01  -0.05  -0.03    -0.01   0.01   0.07
  12   6     0.01   0.04  -0.01    -0.01  -0.09  -0.02    -0.01   0.01   0.10
  13   7     0.00   0.05  -0.02     0.01  -0.13  -0.03    -0.01  -0.01   0.07
  14   6     0.02   0.01  -0.03     0.01  -0.14  -0.04    -0.03  -0.01   0.05
  15   6     0.02  -0.00  -0.04     0.02  -0.19  -0.05    -0.05  -0.02   0.07
  16   6     0.04  -0.04  -0.05     0.01  -0.22  -0.07    -0.08  -0.02   0.06
  17   6     0.05  -0.07  -0.06    -0.01  -0.18  -0.07    -0.09  -0.00   0.04
  18   6     0.05  -0.06  -0.06    -0.01  -0.13  -0.06    -0.07  -0.00   0.02
  19   6     0.03  -0.02  -0.04    -0.01  -0.10  -0.04    -0.03  -0.01   0.02
  20   6     0.01  -0.00  -0.02    -0.01  -0.03  -0.02     0.00  -0.02  -0.01
  21   6     0.04  -0.03  -0.05    -0.07   0.04  -0.02    -0.01   0.00  -0.02
  22   6     0.03  -0.07  -0.04    -0.04   0.12   0.00    -0.01   0.02  -0.04
  23   6     0.06  -0.10  -0.07    -0.10   0.18  -0.00    -0.02   0.04  -0.04
  24   6     0.09  -0.09  -0.11    -0.18   0.16  -0.04    -0.04   0.03  -0.03
  25   6     0.10  -0.05  -0.13    -0.21   0.08  -0.06    -0.05   0.01  -0.01
  26   6     0.08  -0.02  -0.10    -0.15   0.02  -0.06    -0.03  -0.01  -0.01
  27   6    -0.02  -0.03   0.03     0.08  -0.01   0.02     0.01  -0.00  -0.07
  28   6    -0.04   0.02   0.07     0.12   0.02   0.04    -0.04  -0.06  -0.12
  29   6    -0.07  -0.01   0.13     0.21   0.04   0.08    -0.03  -0.05  -0.18
  30   6    -0.09  -0.07   0.14     0.26   0.04   0.09     0.02   0.03  -0.19
  31   6    -0.08  -0.11   0.10     0.22   0.01   0.07     0.06   0.09  -0.14
  32   6    -0.04  -0.09   0.05     0.13  -0.01   0.03     0.06   0.07  -0.08
  33   6     0.00   0.06  -0.03    -0.03  -0.04  -0.03     0.05  -0.05   0.01
  34   6    -0.00   0.10  -0.04    -0.05  -0.00  -0.03     0.09  -0.09  -0.00
  35   6    -0.02   0.15  -0.04    -0.05   0.00  -0.03     0.14  -0.11   0.02
  36   6    -0.02   0.17  -0.03    -0.04  -0.04  -0.03     0.13  -0.08   0.05
  37   6    -0.02   0.13  -0.03    -0.02  -0.07  -0.03     0.08  -0.04   0.07
  38   6    -0.00   0.08  -0.02    -0.01  -0.07  -0.03     0.04  -0.03   0.05
  39   6     0.02   0.05   0.03    -0.05  -0.09  -0.01    -0.03   0.03   0.16
  40   6     0.03   0.04   0.04    -0.07  -0.05  -0.00    -0.04   0.04   0.19
  41   6     0.02   0.02   0.02    -0.05  -0.02  -0.00    -0.03   0.04   0.14
  42   6     0.00   0.07   0.02     0.02   0.05   0.02     0.07   0.00   0.01
  43   6     0.04   0.14  -0.01     0.00   0.08  -0.00     0.15  -0.00   0.03
  44   6     0.03   0.21   0.04     0.02   0.11   0.02     0.21  -0.01   0.03
  45   6    -0.02   0.20   0.11     0.05   0.11   0.06     0.19  -0.01   0.02
  46   6    -0.06   0.13   0.14     0.07   0.08   0.08     0.11  -0.00   0.00
  47   6    -0.05   0.06   0.09     0.05   0.05   0.06     0.05   0.00  -0.00
  48   6    -0.08  -0.02   0.10     0.06   0.02   0.07    -0.03   0.01  -0.02
  49   6    -0.13  -0.06   0.17     0.09   0.00   0.10    -0.09   0.01  -0.04
  50   6    -0.15  -0.14   0.16     0.09  -0.03   0.10    -0.18   0.02  -0.05
  51   6    -0.12  -0.18   0.10     0.06  -0.05   0.07    -0.20   0.02  -0.05
  52   6    -0.07  -0.14   0.04     0.03  -0.04   0.03    -0.15   0.02  -0.03
  53   6    -0.05  -0.06   0.04     0.03  -0.00   0.03    -0.06   0.01  -0.02
  54   1     0.02  -0.01  -0.02    -0.03   0.02  -0.00    -0.01   0.01   0.01
  55   1     0.02  -0.03  -0.06    -0.02   0.04  -0.02     0.01  -0.01  -0.05
  56   1     0.02  -0.04  -0.07    -0.00   0.04  -0.02     0.02  -0.02  -0.09
  57   1     0.01  -0.02  -0.05     0.01   0.02  -0.02     0.01  -0.01  -0.07
  58   1    -0.00   0.01  -0.02     0.01  -0.02  -0.01     0.00   0.00   0.01
  59   1     0.00   0.00  -0.01     0.01  -0.06  -0.01    -0.01  -0.01   0.02
  60   1     0.01  -0.02  -0.02     0.00  -0.07  -0.02    -0.03  -0.01   0.02
  61   1     0.02  -0.03  -0.02    -0.00  -0.06  -0.02    -0.03   0.00   0.01
  62   1     0.02  -0.02  -0.02    -0.01  -0.03  -0.02    -0.02   0.00  -0.00
  63   1     0.00  -0.02  -0.00     0.01   0.04   0.01     0.00   0.01  -0.01
  64   1     0.01  -0.04  -0.02    -0.02   0.07   0.01    -0.01   0.02  -0.02
  65   1     0.03  -0.03  -0.04    -0.07   0.06  -0.01    -0.02   0.01  -0.01
  66   1     0.04  -0.01  -0.05    -0.08   0.02  -0.03    -0.02   0.00  -0.00
  67   1     0.02   0.00  -0.03    -0.05  -0.01  -0.02    -0.01  -0.01   0.00
  68   1    -0.01   0.02   0.02     0.02   0.01   0.01    -0.02  -0.04  -0.03
  69   1    -0.02   0.01   0.05     0.07   0.02   0.03    -0.02  -0.03  -0.07
  70   1    -0.03  -0.03   0.05     0.10   0.02   0.04     0.01   0.01  -0.07
  71   1    -0.03  -0.05   0.03     0.07   0.00   0.02     0.03   0.04  -0.04
  72   1    -0.01  -0.04   0.00     0.03  -0.01   0.00     0.03   0.03  -0.01
  73   1     0.00   0.02  -0.01    -0.02   0.01  -0.01     0.03  -0.03  -0.01
  74   1    -0.01   0.05  -0.01    -0.02   0.01  -0.01     0.05  -0.04   0.00
  75   1    -0.01   0.06  -0.01    -0.01  -0.01  -0.01     0.05  -0.03   0.02
  76   1    -0.01   0.04  -0.01    -0.00  -0.03  -0.01     0.02  -0.00   0.03
  77   1     0.01   0.02   0.01    -0.02  -0.03  -0.00    -0.01   0.01   0.05
  78   1     0.01   0.01   0.02    -0.03  -0.01   0.00    -0.01   0.02   0.07
  79   1     0.02   0.04  -0.02    -0.01   0.02  -0.01     0.05  -0.00   0.01
  80   1     0.02   0.08   0.01     0.00   0.04   0.00     0.08  -0.00   0.01
  81   1    -0.01   0.07   0.04     0.02   0.04   0.02     0.07  -0.00   0.01
  82   1    -0.03   0.03   0.06     0.03   0.02   0.03     0.03  -0.00  -0.00
  83   1    -0.05  -0.01   0.06     0.03   0.01   0.04    -0.02   0.00  -0.01
  84   1    -0.06  -0.05   0.06     0.03  -0.01   0.04    -0.06   0.01  -0.02
  85   1    -0.04  -0.07   0.03     0.02  -0.02   0.02    -0.08   0.01  -0.02
  86   1    -0.01  -0.05  -0.00     0.00  -0.02   0.00    -0.05   0.01  -0.01
                      4                      5                      6
                        a                      a                      a 
 Frequencies --    15.7199                24.0874                30.1174
 Red. masses --    10.0582                11.3035                11.9516
 Frc consts  --     0.0000                 0.0000                 0.0000
 IR Inten    --     0.0307                 0.2242                 0.9139
 Raman Activ --     0.0000                 0.0000                 0.0000
 Depolar     --     0.0000                 0.0000                 0.0000
 Atom AN      X      Y      Z        X      Y      Z        X      Y      Z
   1   8     0.02   0.03   0.09    -0.01   0.12   0.27     0.07  -0.10  -0.44
   2   6     0.02   0.01   0.05    -0.01   0.06   0.13     0.03  -0.03  -0.19
   3   6     0.01   0.00   0.04    -0.01   0.03   0.08     0.02   0.00  -0.09
   4   6     0.01  -0.00   0.07    -0.00   0.03   0.12     0.02  -0.01  -0.13
   5   6     0.01  -0.01   0.07    -0.00  -0.00   0.08     0.01   0.02  -0.04
   6   6    -0.00  -0.02   0.05    -0.01  -0.03  -0.01    -0.02   0.06   0.10
   7   6    -0.00  -0.02   0.02    -0.01  -0.02  -0.05    -0.02   0.06   0.13
   8   6     0.00  -0.01   0.02    -0.01   0.01  -0.01    -0.01   0.04   0.04
   9   6    -0.00  -0.00  -0.00    -0.01   0.02  -0.04    -0.01   0.04   0.06
  10   6     0.01   0.01  -0.02    -0.00   0.03  -0.05    -0.01   0.05   0.06
  11   6     0.01   0.01  -0.05    -0.00   0.03  -0.10    -0.01   0.06   0.13
  12   6     0.01   0.02  -0.03    -0.00   0.04  -0.07    -0.01   0.06   0.09
  13   7     0.01   0.02  -0.04     0.01   0.03  -0.06    -0.01   0.06   0.09
  14   6     0.03  -0.02  -0.04     0.05   0.02  -0.04    -0.00  -0.00   0.06
  15   6     0.05  -0.04  -0.06     0.07   0.06  -0.06    -0.02   0.00   0.08
  16   6     0.08  -0.08  -0.07     0.11   0.05  -0.04    -0.02  -0.06   0.04
  17   6     0.08  -0.09  -0.06     0.13   0.02  -0.02     0.01  -0.13  -0.01
  18   6     0.06  -0.06  -0.04     0.10  -0.01  -0.00     0.02  -0.13  -0.02
  19   6     0.04  -0.03  -0.03     0.07  -0.01  -0.01     0.02  -0.07   0.01
  20   6     0.02  -0.00  -0.00     0.05  -0.04  -0.01     0.03  -0.04   0.01
  21   6     0.02   0.00   0.03     0.04  -0.03   0.04     0.02  -0.02  -0.03
  22   6     0.03  -0.00   0.21     0.04  -0.01  -0.00     0.02   0.00  -0.01
  23   6     0.02  -0.00   0.26     0.03  -0.00   0.04     0.00   0.02  -0.06
  24   6     0.01   0.01   0.12     0.02  -0.01   0.12    -0.02   0.02  -0.12
  25   6    -0.00   0.01  -0.05     0.02  -0.03   0.16    -0.03  -0.00  -0.13
  26   6    -0.00   0.01  -0.09     0.03  -0.04   0.11    -0.01  -0.02  -0.08
  27   6     0.01  -0.00  -0.02     0.08  -0.03  -0.02     0.05  -0.04   0.02
  28   6    -0.32  -0.13  -0.11     0.21   0.01   0.01     0.01  -0.05   0.02
  29   6    -0.34  -0.13  -0.16     0.27   0.02   0.02     0.04  -0.04   0.03
  30   6    -0.03   0.00  -0.11     0.20   0.00   0.00     0.12  -0.02   0.05
  31   6     0.30   0.13  -0.01     0.06  -0.04  -0.02     0.16  -0.01   0.05
  32   6     0.32   0.13   0.03     0.00  -0.05  -0.03     0.13  -0.02   0.04
  33   6     0.00   0.01  -0.01     0.03  -0.08  -0.01     0.06  -0.03   0.02
  34   6    -0.01   0.00  -0.01     0.04  -0.14   0.00     0.11  -0.06   0.01
  35   6    -0.03   0.03  -0.01     0.03  -0.16  -0.00     0.15  -0.05   0.02
  36   6    -0.04   0.06  -0.03     0.01  -0.10  -0.03     0.14  -0.02   0.06
  37   6    -0.03   0.06  -0.04     0.00  -0.04  -0.05     0.09   0.02   0.08
  38   6    -0.01   0.03  -0.03     0.01  -0.03  -0.04     0.05   0.02   0.06
  39   6     0.01   0.02  -0.01    -0.00   0.06  -0.01     0.00   0.04   0.02
  40   6     0.02   0.02   0.01    -0.00   0.06   0.04     0.01   0.02  -0.06
  41   6     0.01   0.01   0.01    -0.00   0.05   0.03     0.01   0.02  -0.05
  42   6    -0.03   0.01  -0.00    -0.07   0.02  -0.04    -0.01   0.02   0.05
  43   6    -0.05   0.01  -0.01    -0.07   0.03  -0.05     0.05   0.00   0.07
  44   6    -0.09   0.02  -0.01    -0.17   0.04  -0.06     0.01  -0.01   0.05
  45   6    -0.11   0.02  -0.01    -0.28   0.03  -0.07    -0.09  -0.02   0.01
  46   6    -0.09   0.01  -0.00    -0.27   0.02  -0.06    -0.14  -0.00  -0.01
  47   6    -0.05   0.00   0.00    -0.17   0.02  -0.05    -0.10   0.02   0.01
  48   6    -0.02  -0.00   0.01    -0.14   0.01  -0.04    -0.14   0.04  -0.00
  49   6    -0.02  -0.01   0.02    -0.21   0.00  -0.04    -0.24   0.04  -0.04
  50   6     0.01  -0.01   0.02    -0.16  -0.01  -0.04    -0.26   0.07  -0.05
  51   6     0.04  -0.02   0.02    -0.05  -0.01  -0.03    -0.17   0.08  -0.01
  52   6     0.04  -0.01   0.01     0.01   0.00  -0.02    -0.07   0.08   0.03
  53   6     0.01  -0.01   0.01    -0.04   0.01  -0.03    -0.06   0.05   0.03
  54   1     0.01   0.00   0.03     0.00   0.01   0.06     0.01  -0.01  -0.07
  55   1     0.00  -0.00   0.03    -0.00  -0.00   0.03     0.00   0.00  -0.02
  56   1    -0.00  -0.01   0.01    -0.00  -0.02  -0.01    -0.01   0.02   0.05
  57   1    -0.00  -0.01   0.00    -0.00  -0.01  -0.03    -0.01   0.03   0.07
  58   1     0.00   0.00  -0.02    -0.00   0.01  -0.04    -0.01   0.02   0.05
  59   1     0.01  -0.01  -0.02     0.02   0.02  -0.02    -0.01   0.02   0.04
  60   1     0.03  -0.03  -0.02     0.04   0.02  -0.02    -0.01  -0.02   0.02
  61   1     0.03  -0.03  -0.02     0.04   0.01  -0.00     0.00  -0.05  -0.01
  62   1     0.02  -0.01  -0.01     0.03  -0.01   0.01     0.01  -0.05  -0.02
  63   1     0.01  -0.00   0.09     0.02  -0.00  -0.02     0.01   0.00   0.01
  64   1     0.01  -0.00   0.12     0.01   0.00   0.00     0.00   0.01  -0.01
  65   1     0.00   0.00   0.05     0.00  -0.00   0.05    -0.01   0.01  -0.05
  66   1    -0.00   0.01  -0.04     0.00  -0.01   0.06    -0.02  -0.00  -0.05
  67   1    -0.00   0.00  -0.06     0.01  -0.02   0.04    -0.00  -0.01  -0.03
  68   1    -0.16  -0.07  -0.04     0.08   0.01   0.01    -0.01  -0.02   0.00
  69   1    -0.17  -0.07  -0.07     0.11   0.02   0.01     0.00  -0.01   0.01
  70   1    -0.01   0.00  -0.04     0.07   0.01   0.00     0.04  -0.00   0.02
  71   1     0.16   0.07   0.01    -0.00  -0.02  -0.01     0.06  -0.00   0.02
  72   1     0.16   0.07   0.03    -0.03  -0.02  -0.02     0.05  -0.01   0.01
  73   1     0.00  -0.01   0.00     0.01  -0.05   0.01     0.03  -0.02  -0.01
  74   1    -0.01   0.01  -0.00     0.01  -0.06   0.00     0.05  -0.02   0.00
  75   1    -0.02   0.02  -0.01    -0.00  -0.03  -0.01     0.05  -0.01   0.02
  76   1    -0.01   0.02  -0.01    -0.00   0.00  -0.02     0.02   0.01   0.03
  77   1     0.00   0.01  -0.00    -0.00   0.02   0.00     0.00   0.01  -0.00
  78   1     0.01   0.01   0.01    -0.00   0.02   0.03     0.01  -0.00  -0.04
  79   1    -0.01   0.00  -0.00     0.00   0.01  -0.01     0.03   0.00   0.03
  80   1    -0.03   0.01  -0.01    -0.05   0.01  -0.02     0.02  -0.01   0.02
  81   1    -0.04   0.01  -0.00    -0.10   0.01  -0.02    -0.03  -0.01  -0.00
  82   1    -0.03   0.00   0.00    -0.10   0.01  -0.02    -0.06  -0.00  -0.01
  83   1    -0.01  -0.00   0.01    -0.08   0.00  -0.02    -0.09   0.01  -0.02
  84   1     0.00  -0.01   0.01    -0.06  -0.00  -0.01    -0.10   0.02  -0.02
  85   1     0.02  -0.01   0.01    -0.00  -0.00  -0.01    -0.05   0.03  -0.00
  86   1     0.02  -0.00   0.00     0.03   0.00  -0.00    -0.00   0.03   0.02
                      7                      8                      9
                        a                      a                      a 
 Frequencies --    41.7362                46.8773                49.1647
 Red. masses --    10.7506                10.3480                10.5940
 Frc consts  --     0.0000                 0.0000                 0.0000
 IR Inten    --     0.1523                 0.0452                 0.0076
 Raman Activ --     0.0000                 0.0000                 0.0000
 Depolar     --     0.0000                 0.0000                 0.0000
 Atom AN      X      Y      Z        X      Y      Z        X      Y      Z
   1   8     0.01  -0.02  -0.02    -0.00  -0.01  -0.01     0.09   0.00  -0.02
   2   6    -0.00  -0.01   0.00    -0.02  -0.01  -0.00     0.02   0.00  -0.01
   3   6    -0.02   0.01   0.08    -0.02  -0.03  -0.04    -0.01  -0.05   0.02
   4   6    -0.04   0.04   0.19     0.01  -0.07  -0.13     0.02  -0.09   0.05
   5   6    -0.05   0.06   0.26     0.01  -0.10  -0.17    -0.01  -0.14   0.08
   6   6    -0.04   0.04   0.21    -0.02  -0.08  -0.10    -0.07  -0.14   0.07
   7   6    -0.02   0.01   0.10    -0.05  -0.04  -0.01    -0.10  -0.10   0.03
   8   6    -0.01   0.00   0.05    -0.05  -0.02   0.01    -0.07  -0.05   0.00
   9   6    -0.01  -0.01   0.02    -0.06   0.00   0.04    -0.11  -0.01  -0.02
  10   6    -0.00  -0.01  -0.00    -0.05   0.02   0.04    -0.07   0.05  -0.03
  11   6    -0.00  -0.01  -0.03    -0.06   0.04   0.05    -0.10   0.10  -0.04
  12   6     0.00  -0.03  -0.10    -0.05   0.06   0.05    -0.07   0.15  -0.02
  13   7     0.01  -0.03  -0.10    -0.06   0.07   0.02    -0.10   0.19  -0.02
  14   6     0.01   0.00  -0.08    -0.07   0.04   0.01    -0.02   0.11  -0.02
  15   6     0.00   0.03  -0.07    -0.10   0.07   0.03    -0.02   0.20  -0.02
  16   6     0.01   0.05  -0.06    -0.11   0.05   0.01     0.06   0.13  -0.03
  17   6     0.01   0.04  -0.05    -0.09  -0.00  -0.03     0.13  -0.02  -0.05
  18   6     0.01   0.02  -0.05    -0.07  -0.03  -0.05     0.10  -0.09  -0.04
  19   6     0.00   0.01  -0.06    -0.05   0.00  -0.03     0.03  -0.03  -0.02
  20   6    -0.01   0.01  -0.05    -0.04  -0.01  -0.05    -0.00  -0.06  -0.00
  21   6     0.01  -0.01  -0.01    -0.01  -0.03  -0.04    -0.01  -0.04   0.00
  22   6     0.01  -0.04   0.12    -0.01  -0.11   0.25    -0.01   0.01  -0.14
  23   6     0.03  -0.07   0.20     0.04  -0.16   0.35    -0.04   0.05  -0.17
  24   6     0.05  -0.06   0.13     0.08  -0.13   0.14    -0.08   0.03  -0.05
  25   6     0.05  -0.02  -0.01     0.08  -0.05  -0.16    -0.09  -0.02   0.09
  26   6     0.03   0.00  -0.08     0.03  -0.00  -0.24    -0.05  -0.06   0.11
  27   6     0.00   0.01  -0.04    -0.01   0.00  -0.06     0.01  -0.06   0.01
  28   6     0.06   0.04  -0.02     0.13   0.05  -0.03    -0.04  -0.07   0.01
  29   6     0.10   0.05   0.01     0.25   0.08  -0.01    -0.00  -0.06   0.04
  30   6     0.07   0.02   0.00     0.22   0.07  -0.02     0.10  -0.04   0.06
  31   6     0.01  -0.00  -0.02     0.06   0.03  -0.05     0.15  -0.04   0.06
  32   6    -0.02  -0.01  -0.04    -0.05  -0.00  -0.07     0.10  -0.05   0.04
  33   6    -0.03   0.01  -0.06    -0.01   0.00  -0.04    -0.01  -0.05  -0.01
  34   6    -0.06   0.04  -0.05     0.03   0.00  -0.05     0.04  -0.16   0.00
  35   6    -0.09   0.04  -0.06     0.06   0.02  -0.04     0.04  -0.13   0.00
  36   6    -0.07   0.01  -0.08     0.05   0.05  -0.00    -0.02   0.01  -0.01
  37   6    -0.04  -0.02  -0.09     0.01   0.06   0.02    -0.06   0.12  -0.02
  38   6    -0.02  -0.01  -0.08    -0.01   0.04  -0.00    -0.05   0.09  -0.02
  39   6     0.01  -0.05  -0.16    -0.04   0.06   0.06    -0.02   0.15  -0.01
  40   6     0.01  -0.04  -0.13    -0.03   0.04   0.06     0.01   0.11  -0.01
  41   6     0.00  -0.02  -0.05    -0.03   0.02   0.04    -0.02   0.06  -0.02
  42   6     0.04  -0.00   0.02    -0.06  -0.01   0.03    -0.08  -0.00  -0.02
  43   6     0.14   0.00   0.04    -0.12  -0.04   0.03    -0.14  -0.00  -0.03
  44   6     0.26   0.01   0.07    -0.11  -0.05   0.02    -0.02   0.01  -0.00
  45   6     0.29   0.01   0.07    -0.02  -0.05   0.01     0.18   0.01   0.03
  46   6     0.18   0.00   0.05     0.04  -0.03   0.01     0.23   0.01   0.05
  47   6     0.06  -0.00   0.03     0.02  -0.01   0.02     0.09   0.01   0.02
  48   6    -0.04  -0.01   0.01     0.05   0.01   0.02     0.08   0.00   0.02
  49   6    -0.14  -0.01  -0.00     0.14   0.02   0.02     0.19   0.01   0.04
  50   6    -0.26  -0.02  -0.03     0.15   0.04   0.02     0.12  -0.00   0.03
  51   6    -0.27  -0.02  -0.03     0.05   0.05   0.02    -0.07  -0.01  -0.01
  52   6    -0.17  -0.02  -0.01    -0.04   0.04   0.02    -0.17  -0.02  -0.03
  53   6    -0.05  -0.01   0.01    -0.04   0.02   0.02    -0.09  -0.01  -0.02
  54   1    -0.01   0.01   0.07     0.01  -0.02  -0.05     0.02  -0.02   0.02
  55   1    -0.02   0.02   0.10     0.01  -0.04  -0.07     0.00  -0.05   0.03
  56   1    -0.01   0.01   0.07    -0.01  -0.03  -0.03    -0.03  -0.05   0.02
  57   1    -0.01   0.00   0.02    -0.02  -0.01   0.01    -0.04  -0.03   0.00
  58   1    -0.00  -0.00   0.00    -0.02   0.01   0.01    -0.04   0.03  -0.01
  59   1    -0.00   0.01  -0.02    -0.03   0.03   0.02    -0.02   0.09  -0.00
  60   1     0.00   0.02  -0.02    -0.04   0.02   0.01     0.02   0.06  -0.01
  61   1     0.00   0.01  -0.01    -0.03  -0.01  -0.01     0.05  -0.02  -0.02
  62   1     0.00   0.01  -0.01    -0.02  -0.02  -0.02     0.04  -0.05  -0.01
  63   1    -0.00  -0.02   0.05    -0.01  -0.04   0.12     0.01   0.01  -0.06
  64   1     0.01  -0.03   0.09     0.01  -0.06   0.17    -0.01   0.03  -0.08
  65   1     0.02  -0.02   0.06     0.03  -0.05   0.06    -0.03   0.02  -0.02
  66   1     0.02  -0.00  -0.02     0.03  -0.01  -0.09    -0.03  -0.01   0.05
  67   1     0.01   0.01  -0.05     0.01   0.02  -0.13    -0.02  -0.03   0.06
  68   1     0.02   0.02  -0.00     0.05   0.02  -0.01    -0.03  -0.02  -0.00
  69   1     0.04   0.02   0.01     0.11   0.03   0.00    -0.01  -0.02   0.01
  70   1     0.03   0.01   0.01     0.09   0.03  -0.00     0.04  -0.01   0.02
  71   1    -0.00  -0.01  -0.01     0.01   0.01  -0.02     0.06  -0.01   0.02
  72   1    -0.02  -0.01  -0.02    -0.05  -0.01  -0.02     0.04  -0.02   0.01
  73   1    -0.02   0.02  -0.01     0.01  -0.00  -0.02     0.02  -0.08   0.00
  74   1    -0.03   0.02  -0.02     0.02   0.01  -0.02     0.02  -0.07   0.00
  75   1    -0.03   0.00  -0.03     0.02   0.02   0.00    -0.01   0.01  -0.00
  76   1    -0.01  -0.01  -0.03     0.00   0.03   0.01    -0.03   0.07  -0.01
  77   1     0.01  -0.02  -0.06    -0.01   0.02   0.02    -0.00   0.06   0.00
  78   1     0.01  -0.01  -0.05    -0.00   0.01   0.02     0.01   0.03   0.00
  79   1     0.04   0.00   0.01    -0.05  -0.01   0.01    -0.08  -0.00  -0.02
  80   1     0.10   0.00   0.02    -0.05  -0.02   0.00    -0.02   0.00  -0.00
  81   1     0.11   0.00   0.03    -0.00  -0.02   0.00     0.08   0.01   0.02
  82   1     0.06   0.00   0.02     0.03  -0.01   0.00     0.11   0.01   0.02
  83   1    -0.04  -0.00  -0.00     0.06   0.01   0.01     0.10   0.00   0.02
  84   1    -0.10  -0.01  -0.01     0.07   0.02   0.01     0.06   0.00   0.01
  85   1    -0.11  -0.01  -0.01     0.02   0.02   0.01    -0.04  -0.01  -0.01
  86   1    -0.05  -0.00  -0.00    -0.03   0.01   0.01    -0.09  -0.01  -0.02
                     10                     11                     12
                        a                      a                      a 
 Frequencies --    58.3570                60.8360                62.5933
 Red. masses --    10.6630                10.9873                10.5143
 Frc consts  --     0.0000                 0.0000                 0.0000
 IR Inten    --     0.0969                 1.3781                 0.2837
 Raman Activ --     0.0000                 0.0000                 0.0000
 Depolar     --     0.0000                 0.0000                 0.0000
 Atom AN      X      Y      Z        X      Y      Z        X      Y      Z
   1   8     0.09  -0.01  -0.09     0.02  -0.06  -0.22    -0.02  -0.05  -0.12
   2   6     0.05   0.01  -0.02    -0.00  -0.02  -0.08    -0.02  -0.02  -0.03
   3   6     0.04  -0.01  -0.01    -0.02   0.00   0.00    -0.01  -0.01  -0.03
   4   6     0.06  -0.03  -0.04    -0.06   0.06   0.22    -0.01  -0.01  -0.07
   5   6     0.05  -0.04  -0.02    -0.08   0.08   0.31    -0.01   0.01  -0.06
   6   6     0.02  -0.03   0.02    -0.05   0.04   0.14    -0.01   0.03   0.01
   7   6     0.01  -0.01   0.04    -0.01  -0.02  -0.07    -0.01   0.03   0.05
   8   6     0.02   0.00   0.02    -0.00  -0.03  -0.12    -0.01   0.01   0.02
   9   6     0.00   0.02   0.02     0.01  -0.04  -0.18    -0.00  -0.00   0.03
  10   6     0.01   0.03   0.02    -0.00  -0.02  -0.11    -0.01  -0.01   0.04
  11   6     0.01   0.04   0.01    -0.01  -0.01  -0.06    -0.00  -0.02   0.02
  12   6     0.01   0.06   0.02    -0.02   0.04   0.11    -0.01  -0.03   0.04
  13   7     0.00   0.07  -0.01    -0.03   0.04   0.11     0.00  -0.05   0.00
  14   6     0.02  -0.02  -0.04    -0.03  -0.01   0.07    -0.00  -0.07  -0.01
  15   6     0.03  -0.10  -0.05    -0.01  -0.09   0.06     0.01  -0.13  -0.02
  16   6     0.05  -0.21  -0.10    -0.02  -0.12   0.04    -0.00  -0.11  -0.02
  17   6     0.05  -0.21  -0.13    -0.05  -0.06   0.03    -0.04  -0.03   0.01
  18   6     0.03  -0.11  -0.10    -0.05  -0.01   0.04    -0.04   0.01   0.02
  19   6     0.02  -0.03  -0.06    -0.03   0.01   0.06    -0.02  -0.03   0.00
  20   6     0.02  -0.00  -0.06    -0.01   0.01   0.03    -0.00  -0.04  -0.02
  21   6    -0.02   0.05  -0.02    -0.00   0.01   0.01     0.01  -0.06  -0.00
  22   6    -0.00   0.11   0.05    -0.00  -0.02   0.05    -0.00  -0.06  -0.19
  23   6    -0.05   0.15   0.23     0.01  -0.04   0.03     0.02  -0.08  -0.12
  24   6    -0.12   0.13   0.32     0.03  -0.03  -0.04     0.05  -0.10   0.16
  25   6    -0.15   0.07   0.20     0.04  -0.00  -0.07     0.06  -0.10   0.33
  26   6    -0.10   0.02   0.03     0.02   0.02  -0.04     0.05  -0.07   0.23
  27   6     0.02  -0.01  -0.05    -0.01   0.02  -0.00     0.00  -0.03  -0.06
  28   6     0.08   0.03  -0.03     0.05   0.01  -0.02     0.03  -0.05  -0.09
  29   6    -0.06  -0.02  -0.03     0.06   0.02  -0.05     0.12  -0.02  -0.13
  30   6    -0.28  -0.11  -0.06     0.02   0.04  -0.07     0.17   0.05  -0.13
  31   6    -0.31  -0.14  -0.08    -0.05   0.05  -0.05     0.12   0.07  -0.11
  32   6    -0.16  -0.09  -0.08    -0.06   0.04  -0.02     0.03   0.04  -0.07
  33   6     0.05  -0.01  -0.04     0.02   0.00   0.05    -0.00  -0.01  -0.01
  34   6     0.09  -0.05  -0.05     0.06  -0.01   0.03    -0.02   0.06  -0.02
  35   6     0.11  -0.04  -0.04     0.09   0.01   0.05    -0.09   0.26  -0.04
  36   6     0.09   0.03  -0.02     0.08   0.05   0.08    -0.13   0.37  -0.05
  37   6     0.05   0.07  -0.01     0.04   0.07   0.10    -0.09   0.25  -0.03
  38   6     0.03   0.05  -0.02     0.02   0.03   0.08    -0.03   0.06  -0.01
  39   6     0.02   0.07   0.05    -0.04   0.08   0.25    -0.02  -0.01   0.10
  40   6     0.03   0.05   0.05    -0.03   0.06   0.18    -0.03  -0.00   0.10
  41   6     0.03   0.04   0.02    -0.01   0.00  -0.00    -0.02  -0.01   0.05
  42   6     0.00   0.01   0.02     0.00   0.02  -0.15     0.00  -0.01   0.03
  43   6     0.00   0.01   0.02    -0.01   0.08  -0.18     0.01  -0.02   0.04
  44   6     0.01   0.00   0.02    -0.02   0.14  -0.14     0.02  -0.03   0.03
  45   6     0.02   0.00   0.01     0.00   0.14  -0.07     0.00  -0.03   0.02
  46   6     0.02   0.01   0.01     0.02   0.07  -0.03    -0.01  -0.02   0.01
  47   6     0.01   0.01   0.01     0.02   0.01  -0.08    -0.01  -0.01   0.02
  48   6     0.01   0.02   0.01     0.02  -0.05  -0.06    -0.01  -0.00   0.02
  49   6     0.01   0.02   0.00     0.04  -0.08   0.01    -0.03   0.00   0.01
  50   6     0.00   0.03   0.00     0.04  -0.15   0.01    -0.02   0.01   0.01
  51   6    -0.00   0.04   0.01     0.01  -0.19  -0.06    -0.01   0.02   0.02
  52   6    -0.00   0.03   0.01    -0.00  -0.16  -0.12     0.01   0.01   0.03
  53   6    -0.00   0.02   0.01     0.00  -0.08  -0.12     0.00   0.00   0.03
  54   1     0.02  -0.01  -0.02    -0.02   0.03   0.09    -0.00  -0.01  -0.03
  55   1     0.02  -0.02  -0.01    -0.03   0.04   0.14    -0.00   0.00  -0.03
  56   1     0.00  -0.01   0.01    -0.02   0.01   0.06    -0.00   0.01   0.01
  57   1    -0.00  -0.00   0.02     0.00  -0.01  -0.05    -0.00   0.01   0.03
  58   1     0.00   0.01  -0.01    -0.00  -0.01  -0.04     0.00  -0.01  -0.01
  59   1     0.01  -0.03  -0.01     0.00  -0.04   0.01     0.01  -0.05  -0.01
  60   1     0.02  -0.08  -0.04    -0.00  -0.05   0.01     0.00  -0.04  -0.01
  61   1     0.02  -0.08  -0.05    -0.02  -0.02   0.01    -0.02  -0.00   0.00
  62   1     0.01  -0.03  -0.03    -0.02   0.01   0.01    -0.02   0.02   0.01
  63   1     0.01   0.04  -0.00    -0.01  -0.01   0.03    -0.00  -0.01  -0.11
  64   1    -0.01   0.06   0.09     0.00  -0.02   0.02     0.00  -0.02  -0.08
  65   1    -0.04   0.05   0.14     0.01  -0.01  -0.02     0.02  -0.03   0.07
  66   1    -0.06   0.01   0.07     0.02   0.00  -0.04     0.03  -0.03   0.16
  67   1    -0.04  -0.01  -0.01     0.01   0.01  -0.02     0.02  -0.02   0.10
  68   1     0.07   0.03  -0.00     0.02   0.00  -0.00    -0.00  -0.03  -0.03
  69   1    -0.01   0.00  -0.00     0.03   0.01  -0.02     0.04  -0.01  -0.04
  70   1    -0.12  -0.05  -0.02     0.01   0.02  -0.03     0.07   0.02  -0.05
  71   1    -0.13  -0.06  -0.03    -0.02   0.02  -0.02     0.04   0.04  -0.03
  72   1    -0.05  -0.03  -0.03    -0.03   0.01  -0.00    -0.00   0.02  -0.01
  73   1     0.03  -0.03  -0.02     0.02  -0.01   0.00     0.00  -0.00  -0.00
  74   1     0.04  -0.02  -0.01     0.03  -0.00   0.01    -0.03   0.10  -0.02
  75   1     0.03   0.01  -0.00     0.03   0.02   0.03    -0.05   0.16  -0.02
  76   1     0.01   0.04   0.00     0.01   0.03   0.03    -0.03   0.09  -0.01
  77   1     0.01   0.02   0.02    -0.02   0.03   0.12    -0.01  -0.00   0.04
  78   1     0.01   0.02   0.02    -0.01   0.02   0.08    -0.01   0.00   0.03
  79   1    -0.00   0.00   0.01    -0.01   0.03  -0.07     0.01  -0.01   0.01
  80   1     0.00  -0.00   0.01    -0.01   0.06  -0.05     0.01  -0.01   0.01
  81   1     0.01  -0.00   0.00    -0.00   0.05  -0.01     0.00  -0.01   0.00
  82   1     0.01   0.00   0.00     0.01   0.02   0.01    -0.00  -0.01   0.00
  83   1     0.00   0.01  -0.00     0.02  -0.01   0.02    -0.01  -0.00  -0.00
  84   1     0.00   0.01  -0.00     0.01  -0.05   0.02    -0.01   0.00  -0.00
  85   1    -0.00   0.01   0.00     0.00  -0.07  -0.02    -0.00   0.01   0.01
  86   1    -0.00   0.01   0.01    -0.01  -0.06  -0.05     0.00   0.01   0.01
                     13                     14                     15
                        a                      a                      a 
 Frequencies --    75.7483                83.5374                84.2838
 Red. masses --    10.3752                10.4585                10.3769
 Frc consts  --     0.0000                 0.0000                 0.0000
 IR Inten    --     0.2509                 0.0818                 0.0229
 Raman Activ --     0.0000                 0.0000                 0.0000
 Depolar     --     0.0000                 0.0000                 0.0000
 Atom AN      X      Y      Z        X      Y      Z        X      Y      Z
   1   8     0.02   0.02   0.01    -0.03  -0.00   0.01    -0.01  -0.00  -0.01
   2   6     0.00   0.01   0.00     0.00  -0.00   0.00    -0.00   0.00  -0.00
   3   6    -0.00  -0.01  -0.01     0.02   0.02   0.01    -0.01   0.00   0.01
   4   6     0.01  -0.03  -0.05    -0.01   0.06   0.02    -0.01   0.01   0.04
   5   6     0.01  -0.04  -0.05     0.01   0.09   0.01    -0.01   0.01   0.04
   6   6    -0.01  -0.02   0.01     0.05   0.08  -0.02    -0.00  -0.00  -0.01
   7   6    -0.02  -0.00   0.05     0.07   0.05  -0.04     0.00  -0.01  -0.04
   8   6    -0.02   0.00   0.03     0.05   0.02  -0.02    -0.00  -0.01  -0.03
   9   6    -0.03   0.02   0.03     0.06  -0.01  -0.01    -0.00  -0.01  -0.02
  10   6    -0.01   0.03   0.01     0.05  -0.03   0.01    -0.01  -0.00  -0.00
  11   6     0.01   0.01  -0.02     0.07  -0.05   0.04    -0.01   0.01   0.03
  12   6     0.00   0.00  -0.02     0.06  -0.08   0.02    -0.01   0.01   0.02
  13   7     0.02  -0.00   0.00     0.09  -0.12   0.01    -0.02   0.02  -0.01
  14   6     0.05  -0.05  -0.00     0.03  -0.04   0.02    -0.07   0.01  -0.03
  15   6     0.11  -0.23  -0.07    -0.03   0.08   0.07    -0.11  -0.03  -0.00
  16   6     0.13  -0.30  -0.10    -0.09   0.19   0.11    -0.17  -0.04  -0.03
  17   6     0.07  -0.15  -0.05    -0.08   0.15   0.09    -0.18  -0.02  -0.09
  18   6     0.01   0.04   0.02    -0.01   0.02   0.01    -0.14   0.01  -0.12
  19   6     0.01   0.07   0.04     0.03  -0.06  -0.02    -0.08   0.03  -0.10
  20   6     0.00   0.10   0.05     0.06  -0.06  -0.04    -0.05   0.07  -0.12
  21   6     0.04   0.06   0.05     0.03  -0.03  -0.04    -0.01   0.04  -0.13
  22   6     0.02  -0.00  -0.02     0.04   0.04  -0.00    -0.03  -0.01  -0.20
  23   6     0.07  -0.06  -0.09    -0.00   0.09   0.06     0.02  -0.07  -0.01
  24   6     0.16  -0.05  -0.08    -0.07   0.07   0.09     0.09  -0.08   0.27
  25   6     0.18   0.02   0.01    -0.09   0.01   0.03     0.11  -0.03   0.28
  26   6     0.12   0.08   0.07    -0.04  -0.04  -0.04     0.06   0.03   0.06
  27   6    -0.01   0.10   0.02     0.06  -0.07  -0.01    -0.06   0.05  -0.01
  28   6     0.01   0.09   0.00     0.02  -0.06   0.00    -0.17   0.10   0.04
  29   6     0.00   0.09  -0.03    -0.04  -0.08   0.02    -0.12   0.09   0.16
  30   6    -0.03   0.11  -0.05    -0.04  -0.11   0.03     0.07   0.04   0.23
  31   6    -0.05   0.13  -0.03     0.02  -0.12   0.02     0.16  -0.01   0.17
  32   6    -0.03   0.13   0.01     0.07  -0.09  -0.00     0.08  -0.01   0.05
  33   6    -0.02   0.06   0.04     0.07  -0.03  -0.03    -0.00   0.11  -0.10
  34   6    -0.04   0.04   0.06     0.06   0.08  -0.06     0.05   0.09  -0.12
  35   6    -0.03  -0.07   0.06     0.05   0.18  -0.06     0.16  -0.05  -0.08
  36   6     0.00  -0.17   0.04     0.06   0.14  -0.03     0.21  -0.19  -0.01
  37   6     0.02  -0.13   0.02     0.08   0.02  -0.00     0.14  -0.14   0.01
  38   6     0.00  -0.02   0.02     0.08  -0.05  -0.01     0.03   0.01  -0.04
  39   6    -0.00  -0.00  -0.03     0.03  -0.09  -0.00    -0.00   0.00  -0.00
  40   6    -0.01   0.01  -0.03     0.01  -0.06  -0.01    -0.00   0.00  -0.00
  41   6    -0.00   0.02  -0.00     0.02  -0.03  -0.01    -0.00  -0.00  -0.01
  42   6    -0.04   0.01   0.03     0.05  -0.00  -0.01     0.01   0.00  -0.02
  43   6    -0.23  -0.02   0.00    -0.20  -0.01  -0.05     0.02   0.01  -0.02
  44   6    -0.25  -0.03  -0.01    -0.32  -0.01  -0.08     0.02   0.02  -0.02
  45   6    -0.05  -0.02   0.01    -0.17  -0.00  -0.04    -0.01   0.02  -0.01
  46   6     0.13   0.00   0.04     0.09   0.00   0.01    -0.02   0.01  -0.01
  47   6     0.11   0.01   0.04     0.16   0.00   0.02    -0.01   0.00  -0.02
  48   6     0.10   0.03   0.04     0.17  -0.00   0.02    -0.01  -0.01  -0.01
  49   6     0.10   0.03   0.02     0.12  -0.01   0.02     0.01  -0.01  -0.00
  50   6    -0.09   0.04  -0.01    -0.13  -0.03  -0.02     0.03  -0.02   0.00
  51   6    -0.27   0.04  -0.03    -0.30  -0.04  -0.06     0.04  -0.02  -0.00
  52   6    -0.23   0.03  -0.01    -0.20  -0.03  -0.05     0.02  -0.02  -0.02
  53   6    -0.03   0.03   0.02     0.04  -0.01  -0.01    -0.00  -0.01  -0.02
  54   1     0.01  -0.01  -0.03    -0.01   0.02   0.01    -0.01   0.01   0.02
  55   1     0.01  -0.02  -0.03    -0.00   0.03   0.01    -0.01   0.01   0.02
  56   1    -0.00  -0.01   0.01     0.02   0.03  -0.01    -0.00  -0.00  -0.01
  57   1    -0.01   0.00   0.03     0.03   0.01  -0.02     0.00  -0.01  -0.02
  58   1     0.01   0.00  -0.01     0.03  -0.01   0.02    -0.00   0.00   0.01
  59   1     0.04  -0.09  -0.02    -0.01   0.03   0.02    -0.03  -0.01   0.01
  60   1     0.06  -0.13  -0.05    -0.04   0.09   0.05    -0.06  -0.02  -0.00
  61   1     0.02  -0.05  -0.02    -0.03   0.07   0.03    -0.07  -0.01  -0.03
  62   1    -0.01   0.04   0.02    -0.00  -0.00  -0.00    -0.04   0.01  -0.05
  63   1    -0.01  -0.01  -0.01     0.03   0.01  -0.01    -0.02  -0.00  -0.11
  64   1     0.01  -0.04  -0.04     0.00   0.04   0.03     0.00  -0.03  -0.01
  65   1     0.06  -0.03  -0.04    -0.03   0.03   0.04     0.04  -0.04   0.14
  66   1     0.07   0.01   0.01    -0.04  -0.00   0.01     0.05  -0.01   0.14
  67   1     0.04   0.04   0.03    -0.02  -0.03  -0.02     0.02   0.02   0.02
  68   1     0.01   0.02   0.00     0.00  -0.01  -0.00    -0.08   0.04   0.00
  69   1     0.01   0.02  -0.01    -0.02  -0.02   0.01    -0.06   0.04   0.06
  70   1    -0.01   0.03  -0.02    -0.02  -0.04   0.01     0.04   0.01   0.09
  71   1    -0.02   0.04  -0.01     0.01  -0.04   0.01     0.08  -0.02   0.06
  72   1    -0.01   0.04   0.01     0.03  -0.03  -0.00     0.04  -0.01   0.00
  73   1    -0.02   0.03   0.02     0.01   0.03  -0.02     0.01   0.05  -0.05
  74   1    -0.01  -0.03   0.02     0.01   0.08  -0.02     0.06  -0.02  -0.03
  75   1     0.00  -0.08   0.01     0.02   0.06  -0.01     0.09  -0.09   0.01
  76   1     0.01  -0.06   0.00     0.03  -0.00   0.01     0.05  -0.07   0.02
  77   1    -0.00  -0.00  -0.01     0.01  -0.03  -0.00    -0.00   0.00  -0.00
  78   1    -0.00   0.00  -0.01    -0.00  -0.02  -0.01     0.00   0.00  -0.00
  79   1    -0.11  -0.01  -0.00    -0.09  -0.00  -0.02     0.01   0.00  -0.01
  80   1    -0.12  -0.01  -0.01    -0.16  -0.00  -0.04     0.01   0.01  -0.01
  81   1    -0.02  -0.01  -0.00    -0.08  -0.00  -0.02    -0.01   0.01  -0.00
  82   1     0.07   0.00   0.01     0.05   0.00   0.01    -0.01   0.00  -0.00
  83   1     0.06   0.01   0.01     0.07   0.00   0.01     0.00  -0.00   0.00
  84   1    -0.03   0.01  -0.01    -0.06  -0.01  -0.01     0.01  -0.01   0.00
  85   1    -0.13   0.01  -0.02    -0.15  -0.02  -0.03     0.02  -0.01  -0.00
  86   1    -0.10   0.01  -0.01    -0.10  -0.01  -0.02     0.01  -0.01  -0.01
                     16                     17                     18
                        a                      a                      a 
 Frequencies --   103.5814               114.2639               123.2052
 Red. masses --    10.5416                11.6767                11.2435
 Frc consts  --     0.0000                 0.0000                 0.0000
 IR Inten    --     2.1263                 2.5912                 0.0405
 Raman Activ --     0.0000                 0.0000                 0.0000
 Depolar     --     0.0000                 0.0000                 0.0000
 Atom AN      X      Y      Z        X      Y      Z        X      Y      Z
   1   8    -0.00  -0.06  -0.15    -0.10   0.16   0.46     0.21   0.01   0.04
   2   6    -0.01  -0.01   0.00    -0.01   0.01  -0.01     0.15   0.00   0.02
   3   6     0.01  -0.02  -0.07     0.02  -0.05  -0.21     0.16  -0.01   0.00
   4   6     0.02  -0.04  -0.18     0.04  -0.08  -0.33     0.21  -0.07   0.01
   5   6     0.01  -0.01  -0.10    -0.01  -0.01  -0.08     0.17  -0.12   0.05
   6   6    -0.03   0.05   0.13    -0.08   0.11   0.33     0.11  -0.12   0.10
   7   6    -0.03   0.06   0.19    -0.08   0.10   0.32     0.08  -0.06   0.07
   8   6    -0.01   0.01   0.05    -0.02   0.00  -0.01     0.12  -0.00   0.02
   9   6     0.00  -0.00   0.01     0.00  -0.02  -0.07     0.09   0.05  -0.02
  10   6     0.00  -0.01  -0.01     0.01  -0.03  -0.11     0.07   0.03  -0.01
  11   6     0.02  -0.06  -0.18    -0.00  -0.01  -0.03     0.07   0.01  -0.00
  12   6     0.01  -0.03  -0.04    -0.00   0.01   0.02     0.04  -0.03  -0.00
  13   7     0.04  -0.10  -0.13    -0.02   0.04   0.07     0.01  -0.04  -0.01
  14   6     0.04  -0.03  -0.09    -0.02   0.02   0.05    -0.05  -0.05  -0.02
  15   6     0.07  -0.01  -0.12    -0.03   0.00   0.05    -0.06  -0.14  -0.02
  16   6     0.05   0.13  -0.05    -0.03  -0.03   0.04    -0.11  -0.08  -0.00
  17   6     0.02   0.20   0.02    -0.03  -0.04   0.01    -0.17   0.05   0.03
  18   6     0.02   0.12   0.01    -0.02  -0.03   0.01    -0.14   0.07   0.01
  19   6     0.03   0.02  -0.05    -0.01  -0.00   0.02    -0.08   0.01  -0.01
  20   6     0.02   0.01  -0.04     0.00  -0.00   0.01    -0.10  -0.05   0.00
  21   6     0.02   0.01  -0.02     0.00   0.00  -0.01    -0.09  -0.07   0.00
  22   6     0.02   0.02   0.01     0.00   0.00  -0.01    -0.10  -0.08   0.02
  23   6     0.01   0.02   0.01     0.00   0.00   0.00    -0.11  -0.08   0.01
  24   6     0.01   0.03  -0.02     0.00  -0.00   0.02    -0.11  -0.08  -0.02
  25   6     0.00   0.02  -0.04     0.00  -0.00   0.01    -0.11  -0.07  -0.03
  26   6     0.01   0.01  -0.03     0.00   0.00  -0.00    -0.11  -0.08  -0.01
  27   6     0.02   0.00  -0.01    -0.00   0.00   0.00    -0.13  -0.05  -0.00
  28   6    -0.02   0.02   0.02     0.00  -0.00   0.00    -0.10  -0.05   0.00
  29   6    -0.05   0.00   0.06     0.00  -0.00  -0.00     0.02  -0.01   0.02
  30   6    -0.03  -0.03   0.07     0.00   0.00  -0.00     0.11   0.02   0.04
  31   6     0.03  -0.05   0.05    -0.00   0.01  -0.00     0.03  -0.00   0.02
  32   6     0.04  -0.03   0.01    -0.00   0.00   0.00    -0.10  -0.04   0.00
  33   6    -0.01  -0.01  -0.06     0.02   0.01   0.02    -0.06  -0.03   0.02
  34   6    -0.05  -0.01  -0.04     0.06   0.00   0.00    -0.05  -0.10   0.04
  35   6    -0.06  -0.08  -0.05     0.08   0.03   0.02    -0.08  -0.12   0.03
  36   6    -0.04  -0.13  -0.09     0.07   0.06   0.05    -0.11  -0.03   0.00
  37   6    -0.01  -0.11  -0.11     0.04   0.06   0.06    -0.11   0.03  -0.02
  38   6     0.01  -0.07  -0.10     0.01   0.03   0.05    -0.06   0.00   0.01
  39   6    -0.05   0.07   0.36     0.00  -0.01  -0.05     0.09  -0.02   0.01
  40   6    -0.06   0.11   0.45     0.01  -0.03  -0.12     0.09  -0.00   0.01
  41   6    -0.03   0.04   0.20     0.01  -0.04  -0.13     0.11   0.03   0.00
  42   6    -0.03  -0.01   0.00    -0.03  -0.01  -0.08     0.07   0.08  -0.03
  43   6    -0.05  -0.01   0.00    -0.06   0.02  -0.09     0.03   0.14  -0.06
  44   6     0.01  -0.01   0.01     0.00   0.04  -0.07    -0.04   0.18  -0.05
  45   6     0.07  -0.01   0.02     0.09   0.04  -0.03    -0.05   0.18  -0.02
  46   6     0.06  -0.01   0.02     0.08   0.01  -0.02     0.01   0.13   0.01
  47   6     0.00  -0.01   0.01     0.00  -0.01  -0.05     0.07   0.08  -0.01
  48   6    -0.00  -0.01   0.01    -0.00  -0.03  -0.04     0.07   0.07  -0.02
  49   6    -0.06  -0.01  -0.00    -0.07  -0.05  -0.02     0.02   0.09  -0.07
  50   6    -0.07  -0.01  -0.00    -0.07  -0.09  -0.02    -0.05   0.13  -0.09
  51   6    -0.01  -0.01   0.01     0.03  -0.10  -0.03    -0.04   0.14  -0.07
  52   6     0.04  -0.01   0.01     0.08  -0.08  -0.05     0.03   0.12  -0.03
  53   6     0.04  -0.00   0.01     0.04  -0.04  -0.06     0.08   0.07  -0.02
  54   1     0.01  -0.02  -0.09     0.02  -0.04  -0.16     0.08  -0.02  -0.00
  55   1     0.01  -0.01  -0.05     0.00  -0.01  -0.05     0.06  -0.05   0.02
  56   1    -0.01   0.03   0.07    -0.04   0.06   0.18     0.02  -0.04   0.04
  57   1    -0.01   0.03   0.10    -0.03   0.05   0.17     0.00  -0.02   0.03
  58   1     0.01  -0.03  -0.11    -0.00   0.00   0.00     0.03   0.00  -0.00
  59   1     0.03  -0.02  -0.05    -0.01   0.00   0.02    -0.00  -0.07  -0.01
  60   1     0.02   0.05  -0.02    -0.01  -0.01   0.01    -0.03  -0.04  -0.00
  61   1     0.00   0.09   0.02    -0.01  -0.02  -0.00    -0.06   0.04   0.02
  62   1     0.00   0.04   0.01    -0.00  -0.01  -0.00    -0.05   0.04   0.00
  63   1     0.01   0.01   0.01     0.00   0.00  -0.00    -0.03  -0.02   0.01
  64   1     0.00   0.01   0.01     0.00   0.00   0.00    -0.03  -0.02   0.01
  65   1     0.00   0.01  -0.01     0.00  -0.00   0.01    -0.03  -0.02  -0.01
  66   1    -0.00   0.01  -0.02     0.00  -0.00   0.01    -0.03  -0.02  -0.01
  67   1     0.00   0.00  -0.01     0.00  -0.00  -0.00    -0.03  -0.02  -0.00
  68   1    -0.01   0.01   0.00     0.00  -0.00   0.00    -0.04  -0.02  -0.00
  69   1    -0.03   0.01   0.02     0.00  -0.00  -0.00     0.02  -0.00   0.01
  70   1    -0.01  -0.01   0.03     0.00   0.00  -0.00     0.07   0.02   0.02
  71   1     0.01  -0.02   0.02    -0.00   0.00  -0.00     0.02   0.00   0.01
  72   1     0.02  -0.01  -0.00    -0.00   0.00   0.00    -0.04  -0.01  -0.00
  73   1    -0.02   0.01  -0.01     0.02  -0.01  -0.01    -0.01  -0.04   0.02
  74   1    -0.02  -0.03  -0.01     0.03   0.01   0.00    -0.02  -0.05   0.01
  75   1    -0.02  -0.05  -0.03     0.03   0.02   0.02    -0.04  -0.00  -0.00
  76   1    -0.00  -0.03  -0.04     0.01   0.02   0.02    -0.04   0.02  -0.01
  77   1    -0.02   0.03   0.16     0.00  -0.00  -0.01     0.03  -0.00  -0.00
  78   1    -0.03   0.05   0.20     0.00  -0.01  -0.04     0.02  -0.00   0.00
  79   1    -0.02  -0.00  -0.00    -0.03   0.00  -0.04     0.01   0.04  -0.03
  80   1     0.00  -0.00   0.00    -0.00   0.02  -0.02    -0.03   0.06  -0.02
  81   1     0.04  -0.00   0.01     0.04   0.02  -0.00    -0.03   0.06  -0.00
  82   1     0.03  -0.00   0.01     0.04   0.00   0.00    -0.00   0.04   0.02
  83   1    -0.03  -0.00  -0.00    -0.04  -0.01  -0.00     0.00   0.02  -0.03
  84   1    -0.04  -0.00  -0.00    -0.04  -0.03  -0.00    -0.03   0.04  -0.03
  85   1    -0.00  -0.00   0.00     0.01  -0.03  -0.01    -0.03   0.04  -0.02
  86   1     0.02  -0.00   0.01     0.04  -0.03  -0.02     0.01   0.04   0.00
                     19                     20                     21
                        a                      a                      a 
 Frequencies --   127.5373               136.8189               139.0986
 Red. masses --    10.6228                 9.8436                10.1030
 Frc consts  --     0.0000                 0.0000                 0.0000
 IR Inten    --     0.1899                 0.1054                 1.0414
 Raman Activ --     0.0000                 0.0000                 0.0000
 Depolar     --     0.0000                 0.0000                 0.0000
 Atom AN      X      Y      Z        X      Y      Z        X      Y      Z
   1   8    -0.05  -0.02   0.00    -0.01   0.02   0.07    -0.04   0.02   0.02
   2   6     0.01  -0.01   0.01     0.01  -0.01  -0.00    -0.04   0.01  -0.02
   3   6     0.03   0.04   0.00     0.03  -0.03  -0.10    -0.05  -0.01  -0.01
   4   6    -0.03   0.13  -0.03     0.03  -0.02  -0.11    -0.04  -0.03  -0.00
   5   6     0.01   0.22  -0.06     0.01   0.03   0.02    -0.05  -0.04   0.01
   6   6     0.09   0.23  -0.06    -0.01   0.06   0.15    -0.07  -0.04   0.01
   7   6     0.14   0.15  -0.03     0.01   0.04   0.09    -0.07  -0.03  -0.00
   8   6     0.08   0.04   0.01     0.03  -0.01  -0.05    -0.06  -0.01  -0.01
   9   6     0.11  -0.03   0.03     0.02  -0.01  -0.01    -0.06   0.00   0.00
  10   6     0.06  -0.06   0.03     0.00   0.01   0.06    -0.03   0.02  -0.01
  11   6     0.03  -0.03   0.01     0.00   0.01   0.04    -0.01   0.00  -0.02
  12   6     0.03   0.01  -0.00     0.00   0.00   0.00    -0.01  -0.01  -0.02
  13   7    -0.04   0.12  -0.03    -0.00  -0.00  -0.03     0.03  -0.05  -0.01
  14   6    -0.06   0.09  -0.04    -0.01   0.03  -0.01     0.07  -0.14  -0.04
  15   6    -0.05   0.08  -0.05    -0.02   0.08  -0.00     0.11  -0.30  -0.08
  16   6    -0.00  -0.00  -0.08     0.02   0.03  -0.02    -0.01  -0.09   0.00
  17   6     0.02  -0.05  -0.09     0.06  -0.05  -0.04    -0.16   0.27   0.13
  18   6    -0.01  -0.00  -0.06     0.04  -0.05  -0.03    -0.11   0.26   0.09
  19   6    -0.05   0.06  -0.03     0.00  -0.00  -0.01     0.02   0.02   0.00
  20   6    -0.07   0.04  -0.01    -0.01   0.00  -0.00     0.06   0.01  -0.03
  21   6    -0.06   0.02   0.00    -0.01  -0.00   0.00     0.06   0.03   0.00
  22   6    -0.07  -0.02   0.01    -0.01  -0.01  -0.01     0.07   0.05   0.04
  23   6    -0.04  -0.05  -0.00    -0.01  -0.01  -0.01     0.06   0.05   0.03
  24   6    -0.01  -0.04  -0.02    -0.00  -0.01   0.00     0.05   0.06  -0.03
  25   6     0.00  -0.00  -0.02    -0.00  -0.01   0.01     0.05   0.05  -0.05
  26   6    -0.03   0.03  -0.01    -0.01  -0.00   0.01     0.05   0.03  -0.02
  27   6    -0.09   0.04  -0.01    -0.01   0.00  -0.00     0.07   0.01   0.00
  28   6    -0.08   0.06   0.01    -0.00  -0.00  -0.01     0.03   0.03   0.03
  29   6    -0.01   0.07   0.04     0.01   0.00  -0.02    -0.04   0.00   0.08
  30   6     0.04   0.07   0.06     0.01   0.01  -0.02    -0.06  -0.05   0.09
  31   6    -0.01   0.04   0.03    -0.01   0.02  -0.02     0.02  -0.07   0.07
  32   6    -0.08   0.03   0.00    -0.01   0.01  -0.01     0.08  -0.03   0.02
  33   6    -0.04   0.02   0.00    -0.02   0.01  -0.00     0.06  -0.04  -0.03
  34   6     0.05  -0.25   0.04    -0.05   0.04   0.00     0.15  -0.23  -0.02
  35   6     0.05  -0.30   0.04    -0.07   0.02  -0.00     0.16  -0.19  -0.01
  36   6    -0.07   0.03  -0.01    -0.04  -0.05  -0.01     0.04   0.14  -0.04
  37   6    -0.14   0.26  -0.04    -0.02  -0.07  -0.02    -0.02   0.26  -0.04
  38   6    -0.08   0.16  -0.02    -0.01  -0.02  -0.02     0.02   0.07  -0.03
  39   6     0.06   0.02   0.02     0.01   0.01   0.04    -0.03  -0.02  -0.08
  40   6     0.08  -0.02   0.03     0.01   0.02   0.08    -0.04  -0.02  -0.11
  41   6     0.05  -0.06   0.03     0.01   0.01   0.06    -0.04   0.01  -0.05
  42   6     0.12  -0.05   0.04     0.12  -0.00   0.01    -0.04  -0.00   0.01
  43   6     0.04  -0.10   0.05     0.35   0.02   0.05     0.06  -0.01   0.03
  44   6    -0.07  -0.14   0.01     0.19   0.02   0.02     0.08  -0.01   0.03
  45   6    -0.08  -0.14  -0.02    -0.25  -0.00  -0.06    -0.02  -0.01   0.01
  46   6     0.03  -0.09  -0.02    -0.31  -0.01  -0.06    -0.10  -0.01  -0.01
  47   6     0.11  -0.05   0.03    -0.03  -0.01  -0.01    -0.07  -0.00  -0.00
  48   6     0.11  -0.05   0.04     0.06  -0.01   0.00    -0.05   0.00   0.00
  49   6    -0.01  -0.07   0.06     0.32   0.00   0.06     0.08   0.01   0.02
  50   6    -0.11  -0.12   0.04     0.23  -0.01   0.04     0.11   0.02   0.02
  51   6    -0.06  -0.13   0.03    -0.20  -0.04  -0.04    -0.03   0.02   0.00
  52   6     0.06  -0.10   0.02    -0.33  -0.04  -0.07    -0.13   0.01  -0.01
  53   6     0.12  -0.05   0.04    -0.08  -0.01  -0.03    -0.09   0.00  -0.00
  54   1    -0.04   0.04  -0.01     0.01  -0.01  -0.05    -0.01  -0.01   0.00
  55   1    -0.01   0.08  -0.02    -0.00   0.01   0.01    -0.01  -0.01   0.01
  56   1     0.04   0.08  -0.02    -0.01   0.03   0.09    -0.02  -0.01   0.00
  57   1     0.07   0.04  -0.01    -0.00   0.02   0.05    -0.03  -0.01  -0.00
  58   1    -0.00  -0.01   0.00    -0.00   0.00   0.01     0.00  -0.00  -0.01
  59   1    -0.02   0.03  -0.01    -0.01   0.04   0.00     0.06  -0.15  -0.04
  60   1     0.00  -0.01  -0.03     0.00   0.02  -0.00     0.00  -0.05  -0.00
  61   1     0.02  -0.03  -0.03     0.03  -0.03  -0.02    -0.08   0.15   0.07
  62   1     0.00  -0.01  -0.02     0.02  -0.03  -0.01    -0.05   0.12   0.04
  63   1    -0.03  -0.01   0.01    -0.00  -0.00  -0.00     0.02   0.01   0.02
  64   1    -0.01  -0.02   0.00    -0.00  -0.00  -0.01     0.02   0.02   0.02
  65   1     0.00  -0.02  -0.01    -0.00  -0.00   0.00     0.01   0.02  -0.01
  66   1     0.01   0.00  -0.01     0.00  -0.00   0.01     0.01   0.01  -0.03
  67   1    -0.01   0.02  -0.00    -0.00   0.00   0.00     0.02   0.01  -0.01
  68   1    -0.03   0.02  -0.00    -0.00  -0.00  -0.00     0.01   0.02   0.01
  69   1     0.00   0.03   0.02     0.00   0.00  -0.01    -0.03   0.01   0.03
  70   1     0.03   0.03   0.02     0.00   0.00  -0.01    -0.03  -0.02   0.03
  71   1     0.01   0.01   0.01    -0.00   0.01  -0.01     0.01  -0.03   0.02
  72   1    -0.03   0.00  -0.00    -0.01   0.00  -0.00     0.04  -0.01   0.00
  73   1     0.03  -0.12   0.02    -0.02   0.03   0.01     0.06  -0.12  -0.01
  74   1     0.04  -0.16   0.02    -0.03   0.02  -0.00     0.07  -0.11   0.00
  75   1    -0.03   0.02  -0.01    -0.01  -0.03  -0.00     0.00   0.08  -0.01
  76   1    -0.06   0.13  -0.02    -0.00  -0.03  -0.01    -0.02   0.13  -0.02
  77   1     0.02   0.01   0.01     0.00   0.00   0.01    -0.01  -0.01  -0.03
  78   1     0.03  -0.00   0.01     0.00   0.01   0.03    -0.01  -0.01  -0.05
  79   1     0.01  -0.03   0.03     0.17   0.01   0.03     0.03  -0.00   0.01
  80   1    -0.04  -0.05  -0.00     0.10   0.01   0.01     0.05  -0.00   0.01
  81   1    -0.05  -0.05  -0.01    -0.14  -0.00  -0.03    -0.01  -0.01   0.00
  82   1     0.01  -0.03  -0.02    -0.16  -0.01  -0.03    -0.04  -0.00  -0.01
  83   1    -0.01  -0.02   0.02     0.16   0.01   0.03     0.05   0.00   0.01
  84   1    -0.06  -0.04   0.01     0.13  -0.00   0.02     0.07   0.01   0.01
  85   1    -0.04  -0.04   0.01    -0.11  -0.01  -0.02    -0.01   0.01   0.00
  86   1     0.03  -0.03  -0.00    -0.16  -0.02  -0.03    -0.06   0.00  -0.00
                     22                     23                     24
                        a                      a                      a 
 Frequencies --   169.1257               188.2181               223.0218
 Red. masses --    10.6523                10.9561                10.7202
 Frc consts  --     0.0000                 0.0000                 0.0000
 IR Inten    --     0.1088                 0.9601                 0.3276
 Raman Activ --     0.0000                 0.0000                 0.0000
 Depolar     --     0.0000                 0.0000                 0.0000
 Atom AN      X      Y      Z        X      Y      Z        X      Y      Z
   1   8    -0.10  -0.12   0.02     0.17   0.16  -0.02    -0.01  -0.01   0.14
   2   6    -0.04  -0.10   0.02     0.08   0.13  -0.02     0.03  -0.08  -0.12
   3   6    -0.02  -0.06   0.00     0.06   0.07  -0.04     0.06  -0.15  -0.35
   4   6    -0.02  -0.06   0.00     0.09   0.03  -0.01    -0.02  -0.03  -0.17
   5   6    -0.02  -0.06   0.01     0.07   0.01   0.03    -0.08   0.15   0.26
   6   6    -0.01  -0.06   0.02     0.03   0.01   0.03    -0.00   0.11   0.09
   7   6    -0.01  -0.06   0.02     0.01   0.04  -0.02     0.11  -0.06  -0.30
   8   6     0.00  -0.05   0.01     0.02   0.06  -0.04     0.07  -0.13  -0.27
   9   6     0.01  -0.04   0.00    -0.00   0.08  -0.03     0.00  -0.05   0.03
  10   6    -0.02  -0.10   0.03     0.02   0.16   0.03    -0.01  -0.01   0.12
  11   6    -0.00  -0.12   0.06     0.01   0.17   0.10    -0.05   0.07   0.19
  12   6     0.01  -0.13   0.02    -0.02   0.09   0.02    -0.03   0.08   0.07
  13   7     0.01  -0.12  -0.02     0.02  -0.02  -0.01    -0.03   0.09  -0.01
  14   6    -0.03  -0.02   0.01     0.01  -0.07  -0.01     0.01   0.01  -0.03
  15   6    -0.12   0.15   0.10    -0.10  -0.07   0.08     0.03  -0.04  -0.04
  16   6    -0.14   0.10   0.07    -0.23  -0.02   0.08     0.03  -0.04  -0.04
  17   6    -0.03  -0.15  -0.06    -0.22  -0.04   0.01    -0.01   0.06   0.01
  18   6     0.00  -0.20  -0.10    -0.11  -0.09  -0.08    -0.01   0.07   0.01
  19   6    -0.00  -0.07  -0.03     0.01  -0.09  -0.04     0.02   0.01  -0.01
  20   6     0.04   0.06  -0.01     0.04  -0.01  -0.00     0.02  -0.01  -0.02
  21   6     0.03   0.12  -0.01     0.02   0.03  -0.00     0.04  -0.02  -0.02
  22   6     0.02   0.08  -0.03     0.03   0.03  -0.01     0.05   0.01  -0.02
  23   6     0.08   0.02  -0.02     0.05   0.01  -0.02     0.03   0.04   0.00
  24   6     0.16   0.04   0.01     0.07   0.02   0.01     0.01   0.03   0.01
  25   6     0.17   0.09   0.02     0.07   0.02   0.01    -0.00   0.00  -0.01
  26   6     0.11   0.14   0.00     0.05   0.03   0.00     0.02  -0.02  -0.02
  27   6     0.16   0.10   0.02     0.15   0.01   0.02     0.01  -0.03  -0.02
  28   6     0.15   0.11   0.03     0.17   0.00   0.02     0.01  -0.03  -0.02
  29   6    -0.02   0.05   0.01     0.02  -0.04  -0.01     0.01  -0.03  -0.01
  30   6    -0.16  -0.00  -0.01    -0.11  -0.08  -0.04     0.02  -0.04  -0.00
  31   6    -0.01   0.03   0.01     0.03  -0.03  -0.01     0.01  -0.05  -0.01
  32   6     0.16   0.08   0.02     0.17   0.01   0.03     0.01  -0.04  -0.02
  33   6    -0.00  -0.03  -0.02    -0.00  -0.04   0.01    -0.00   0.02  -0.02
  34   6    -0.01  -0.16   0.03    -0.11  -0.04   0.07    -0.06   0.04   0.01
  35   6    -0.05  -0.16   0.01    -0.21  -0.05   0.03    -0.08  -0.01  -0.00
  36   6    -0.13   0.06  -0.04    -0.20  -0.07  -0.03    -0.06  -0.08  -0.02
  37   6    -0.10   0.12  -0.07    -0.11  -0.06  -0.07    -0.03  -0.03  -0.04
  38   6    -0.02  -0.00  -0.03    -0.00  -0.04  -0.02    -0.01   0.04  -0.03
  39   6    -0.02  -0.13   0.04     0.01   0.09  -0.03     0.01   0.08   0.05
  40   6    -0.04  -0.10   0.07     0.01   0.11   0.00     0.04   0.02   0.04
  41   6    -0.03  -0.10   0.04     0.04   0.16   0.01     0.02  -0.04   0.01
  42   6     0.03  -0.01  -0.01    -0.01   0.05  -0.02     0.08  -0.04   0.06
  43   6     0.02   0.09  -0.07    -0.04  -0.06   0.03    -0.02  -0.02   0.04
  44   6    -0.03   0.17  -0.02    -0.01  -0.15  -0.02    -0.12   0.01   0.04
  45   6    -0.03   0.17   0.03     0.04  -0.15  -0.08    -0.01   0.01   0.09
  46   6    -0.00   0.08   0.07     0.04  -0.04  -0.12     0.08  -0.01   0.12
  47   6     0.03  -0.01   0.01    -0.01   0.06  -0.04     0.04  -0.05   0.08
  48   6     0.02  -0.02  -0.01    -0.04   0.06  -0.02    -0.09  -0.07   0.04
  49   6     0.01   0.03  -0.11    -0.05  -0.00   0.12    -0.09  -0.02  -0.07
  50   6    -0.01   0.11  -0.12    -0.00  -0.13   0.13     0.03   0.09  -0.05
  51   6     0.01   0.14  -0.07     0.03  -0.17   0.07     0.10   0.13   0.01
  52   6     0.02   0.09   0.01     0.01  -0.10  -0.05    -0.04   0.07   0.08
  53   6     0.02  -0.01   0.00    -0.03   0.05  -0.05    -0.12  -0.06   0.06
  54   1    -0.00  -0.02  -0.00     0.04   0.01  -0.00    -0.02  -0.01  -0.06
  55   1    -0.01  -0.02   0.00     0.02  -0.00   0.02    -0.05   0.09   0.19
  56   1    -0.00  -0.01   0.01     0.00  -0.01   0.02    -0.01   0.06   0.09
  57   1    -0.00  -0.02   0.01    -0.01   0.01  -0.01     0.06  -0.03  -0.12
  58   1    -0.00  -0.03   0.03     0.01   0.05   0.04    -0.03   0.02   0.06
  59   1    -0.05   0.08   0.05    -0.03  -0.02   0.05     0.01  -0.02  -0.01
  60   1    -0.06   0.07   0.04    -0.09   0.01   0.04     0.01  -0.02  -0.02
  61   1    -0.00  -0.07  -0.03    -0.09   0.00   0.00    -0.01   0.03   0.01
  62   1     0.01  -0.08  -0.05    -0.04  -0.02  -0.05    -0.01   0.03   0.01
  63   1    -0.00   0.02  -0.01     0.01   0.01  -0.01     0.02   0.01  -0.01
  64   1     0.02  -0.01  -0.01     0.01  -0.00  -0.01     0.01   0.02   0.00
  65   1     0.06  -0.00   0.01     0.02   0.00   0.00    -0.00   0.01   0.01
  66   1     0.06   0.03   0.01     0.02   0.01   0.01    -0.01  -0.00  -0.00
  67   1     0.04   0.06   0.00     0.02   0.02   0.00     0.00  -0.01  -0.01
  68   1     0.06   0.04   0.01     0.07   0.01   0.01    -0.00  -0.01  -0.01
  69   1    -0.02   0.01   0.00    -0.01  -0.02  -0.01     0.00  -0.01  -0.00
  70   1    -0.10  -0.02  -0.01    -0.08  -0.04  -0.02     0.01  -0.01   0.00
  71   1    -0.02   0.00   0.00    -0.00  -0.01  -0.01     0.00  -0.01  -0.00
  72   1     0.07   0.03   0.01     0.07   0.01   0.01     0.00  -0.01  -0.01
  73   1     0.01  -0.07   0.02    -0.03  -0.00   0.05    -0.02   0.02   0.01
  74   1    -0.01  -0.08   0.01    -0.08  -0.01   0.02    -0.03  -0.00   0.00
  75   1    -0.05   0.04  -0.02    -0.08  -0.02  -0.02    -0.02  -0.04  -0.01
  76   1    -0.04   0.07  -0.04    -0.03  -0.02  -0.05    -0.01  -0.01  -0.02
  77   1    -0.01  -0.04   0.01     0.01   0.03  -0.03     0.01   0.03   0.00
  78   1    -0.01  -0.03   0.03    -0.01   0.03  -0.01     0.03   0.00   0.00
  79   1     0.01   0.03  -0.05    -0.02  -0.02   0.04    -0.02  -0.01   0.00
  80   1    -0.01   0.06  -0.02    -0.01  -0.06   0.00    -0.07   0.01   0.00
  81   1    -0.02   0.06   0.02     0.02  -0.06  -0.03    -0.01   0.01   0.03
  82   1    -0.00   0.02   0.05     0.02  -0.01  -0.06     0.03  -0.00   0.05
  83   1     0.00  -0.01  -0.05    -0.02   0.02   0.06    -0.03  -0.02  -0.05
  84   1    -0.01   0.04  -0.05     0.00  -0.05   0.06     0.03   0.04  -0.03
  85   1     0.00   0.05  -0.02     0.02  -0.07   0.02     0.07   0.06   0.01
  86   1     0.01   0.04   0.02     0.01  -0.05  -0.05    -0.01   0.04   0.05
                     25                     26                     27
                        a                      a                      a 
 Frequencies --   228.9816               231.0974               234.1981
 Red. masses --    10.8512                10.7500                10.7491
 Frc consts  --     0.0000                 0.0000                 0.0000
 IR Inten    --     0.2411                 1.2649                 2.3728
 Raman Activ --     0.0000                 0.0000                 0.0000
 Depolar     --     0.0000                 0.0000                 0.0000
 Atom AN      X      Y      Z        X      Y      Z        X      Y      Z
   1   8    -0.04   0.09  -0.03    -0.05   0.10   0.07     0.17  -0.00   0.06
   2   6    -0.02   0.08  -0.03     0.02   0.02  -0.16     0.08  -0.03  -0.03
   3   6     0.01   0.03  -0.12     0.04   0.01  -0.19     0.04  -0.04   0.03
   4   6     0.07  -0.04  -0.05     0.07  -0.02  -0.02    -0.02   0.06   0.02
   5   6     0.00  -0.09   0.11    -0.00  -0.06   0.18     0.03   0.15  -0.04
   6   6    -0.04  -0.10   0.08    -0.03  -0.10   0.02     0.10   0.15  -0.07
   7   6    -0.06  -0.06  -0.09    -0.04  -0.07  -0.17     0.13   0.07   0.01
   8   6    -0.01   0.03  -0.11    -0.00   0.03  -0.13     0.07  -0.04   0.05
   9   6    -0.01   0.07  -0.02    -0.00   0.06   0.01     0.01  -0.02   0.01
  10   6     0.01   0.09   0.07     0.02  -0.03  -0.22     0.07  -0.02  -0.17
  11   6     0.10  -0.02   0.12     0.05  -0.10  -0.29     0.09  -0.07  -0.22
  12   6     0.07  -0.16   0.01     0.02  -0.07  -0.04     0.08  -0.05  -0.03
  13   7     0.17  -0.30  -0.04    -0.00  -0.07   0.00     0.08  -0.06   0.02
  14   6     0.04  -0.02   0.03    -0.03  -0.04  -0.01     0.02  -0.02   0.03
  15   6     0.00   0.10   0.07    -0.01   0.02  -0.03    -0.02   0.00   0.07
  16   6     0.03   0.04   0.05     0.01   0.07   0.01    -0.06   0.03   0.07
  17   6     0.10  -0.11  -0.04     0.04   0.01   0.01    -0.03  -0.05   0.01
  18   6     0.07  -0.04  -0.01     0.03  -0.08  -0.00     0.01  -0.08  -0.02
  19   6     0.01   0.06   0.03    -0.03  -0.06  -0.01     0.02  -0.02   0.01
  20   6     0.01   0.05  -0.00    -0.05  -0.00   0.01     0.01   0.01   0.03
  21   6     0.03   0.04   0.02    -0.11   0.02  -0.00     0.03   0.00  -0.10
  22   6     0.04   0.06   0.03    -0.14  -0.06  -0.01     0.03   0.03  -0.15
  23   6     0.04   0.07   0.02    -0.09  -0.12  -0.02     0.03   0.04  -0.02
  24   6     0.04   0.07  -0.02    -0.05  -0.11   0.00     0.02   0.02   0.13
  25   6     0.04   0.06  -0.01    -0.03  -0.03   0.01     0.01   0.01  -0.04
  26   6     0.04   0.05   0.02    -0.08   0.02   0.00     0.02   0.01  -0.16
  27   6    -0.17   0.01  -0.08     0.06   0.05   0.06    -0.05  -0.02   0.05
  28   6    -0.27   0.02  -0.07     0.11   0.06   0.07    -0.06  -0.05   0.02
  29   6    -0.07   0.07   0.02     0.01   0.04   0.01     0.00  -0.02  -0.01
  30   6     0.17   0.11   0.08    -0.12   0.04  -0.02     0.06   0.03  -0.02
  31   6    -0.05   0.00   0.01     0.00   0.09   0.01    -0.03   0.04  -0.00
  32   6    -0.25  -0.05  -0.09     0.10   0.10   0.06    -0.09   0.01   0.03
  33   6     0.05  -0.04   0.01    -0.03  -0.01   0.00     0.03   0.03   0.05
  34   6     0.08  -0.12   0.02     0.04  -0.01  -0.04    -0.01  -0.01   0.09
  35   6     0.04  -0.06   0.00     0.09   0.02  -0.02    -0.05  -0.06   0.07
  36   6    -0.02   0.11  -0.04     0.08   0.05   0.01    -0.07  -0.01   0.03
  37   6     0.02   0.03  -0.04     0.03   0.02   0.04    -0.03   0.03  -0.00
  38   6     0.07  -0.10  -0.02    -0.02  -0.03   0.02     0.03   0.00   0.03
  39   6    -0.02  -0.17  -0.02    -0.02  -0.01   0.19     0.06  -0.01   0.12
  40   6    -0.09  -0.03   0.06    -0.02  -0.03  -0.04     0.05  -0.01  -0.03
  41   6    -0.04   0.08   0.06     0.02  -0.04  -0.25     0.07  -0.03  -0.15
  42   6     0.01   0.08   0.00    -0.01   0.10   0.07    -0.22  -0.03  -0.01
  43   6    -0.05   0.00   0.04     0.03  -0.03   0.16    -0.23  -0.03  -0.01
  44   6    -0.04  -0.08  -0.02     0.03  -0.14   0.09     0.05  -0.01   0.06
  45   6     0.05  -0.07  -0.06    -0.04  -0.14   0.00     0.18  -0.00   0.09
  46   6     0.05   0.01  -0.09    -0.02  -0.01  -0.05    -0.12  -0.02   0.04
  47   6    -0.02   0.09  -0.03     0.03   0.10   0.05    -0.27  -0.04  -0.01
  48   6    -0.08   0.09  -0.02     0.08   0.09   0.08    -0.20  -0.04  -0.00
  49   6    -0.08   0.05   0.07     0.03   0.08   0.10     0.00  -0.01  -0.02
  50   6     0.03  -0.02   0.10    -0.08   0.08   0.09     0.18   0.06   0.01
  51   6     0.05  -0.05   0.05    -0.06   0.07   0.07    -0.05   0.06  -0.01
  52   6    -0.05  -0.01  -0.04     0.06   0.08   0.07    -0.22   0.03   0.01
  53   6    -0.09   0.07  -0.05     0.07   0.06   0.07    -0.11  -0.03   0.02
  54   1     0.05  -0.01  -0.01     0.04  -0.00   0.00    -0.04   0.01   0.01
  55   1     0.00  -0.03   0.07    -0.00  -0.01   0.12    -0.00   0.06  -0.02
  56   1    -0.02  -0.04   0.05    -0.02  -0.04   0.02     0.04   0.05  -0.04
  57   1    -0.04  -0.02  -0.04    -0.03  -0.03  -0.08     0.07   0.02   0.01
  58   1     0.06  -0.00   0.05     0.03  -0.03  -0.10     0.03  -0.02  -0.08
  59   1    -0.01   0.05   0.02    -0.00   0.01  -0.03    -0.00  -0.00   0.02
  60   1     0.00   0.02   0.02    -0.00   0.04   0.01    -0.03   0.02   0.03
  61   1     0.04  -0.07  -0.03     0.02   0.01   0.01    -0.01  -0.02  -0.00
  62   1     0.02  -0.02  -0.00     0.01  -0.04   0.01     0.01  -0.04  -0.02
  63   1     0.01   0.02   0.01    -0.06  -0.02   0.00     0.01   0.01  -0.07
  64   1     0.01   0.02   0.01    -0.03  -0.05  -0.01     0.01   0.01   0.00
  65   1     0.01   0.02  -0.01    -0.00  -0.04   0.00     0.01   0.01   0.09
  66   1     0.01   0.02  -0.01     0.01  -0.01   0.01    -0.00   0.00  -0.01
  67   1     0.01   0.01   0.01    -0.02   0.02   0.00     0.00   0.00  -0.07
  68   1    -0.11   0.00  -0.03     0.05   0.02   0.02    -0.03  -0.03   0.01
  69   1    -0.01   0.03   0.02     0.00   0.00  -0.00     0.01  -0.01  -0.01
  70   1     0.13   0.05   0.05    -0.08  -0.00  -0.02     0.04   0.02  -0.01
  71   1    -0.00  -0.01   0.01    -0.00   0.03   0.00    -0.01   0.02  -0.00
  72   1    -0.10  -0.03  -0.04     0.05   0.04   0.03    -0.04   0.00   0.01
  73   1     0.03  -0.05   0.01     0.01  -0.01  -0.03    -0.00   0.00   0.04
  74   1     0.01  -0.03   0.00     0.04   0.00  -0.01    -0.02  -0.03   0.03
  75   1    -0.02   0.07  -0.02     0.03   0.03   0.01    -0.03  -0.00   0.00
  76   1    -0.00   0.02  -0.02     0.01   0.01   0.03    -0.01   0.02  -0.02
  77   1    -0.02  -0.08  -0.03    -0.02   0.01   0.14     0.01   0.01   0.09
  78   1    -0.06  -0.01   0.02    -0.02  -0.00   0.01     0.01   0.00   0.01
  79   1    -0.03  -0.00   0.03     0.01  -0.01   0.09    -0.09  -0.01  -0.01
  80   1    -0.03  -0.04  -0.00     0.02  -0.06   0.04     0.06   0.00   0.02
  81   1     0.02  -0.03  -0.02    -0.03  -0.06  -0.02     0.14   0.00   0.04
  82   1     0.03   0.01  -0.05    -0.01  -0.00  -0.05    -0.03  -0.01   0.01
  83   1    -0.03   0.03   0.04     0.01   0.03   0.03     0.02  -0.01  -0.02
  84   1     0.03  -0.01   0.05    -0.05   0.02   0.02     0.12   0.03   0.01
  85   1     0.04  -0.03   0.02    -0.04   0.01   0.02    -0.01   0.03  -0.00
  86   1    -0.01  -0.02  -0.03     0.02   0.02   0.02    -0.09   0.01   0.01
                     28                     29                     30
                        a                      a                      a 
 Frequencies --   235.9706               239.0096               259.5293
 Red. masses --    10.3311                10.7695                10.4654
 Frc consts  --     0.0000                 0.0000                 0.0000
 IR Inten    --     0.4551                 1.2720                 0.7460
 Raman Activ --     0.0000                 0.0000                 0.0000
 Depolar     --     0.0000                 0.0000                 0.0000
 Atom AN      X      Y      Z        X      Y      Z        X      Y      Z
   1   8     0.11  -0.02   0.02     0.06  -0.02  -0.04    -0.05   0.01  -0.02
   2   6     0.05  -0.02   0.01     0.01   0.02   0.07    -0.02   0.01  -0.00
   3   6     0.04  -0.04  -0.00     0.03  -0.01   0.00    -0.02   0.00  -0.02
   4   6    -0.00   0.03  -0.02     0.02  -0.00  -0.04    -0.01  -0.01  -0.01
   5   6     0.03   0.10  -0.01     0.03   0.03  -0.01    -0.03  -0.02   0.01
   6   6     0.06   0.10  -0.01     0.03   0.05   0.05    -0.03  -0.02   0.01
   7   6     0.10   0.04  -0.01     0.05   0.02   0.01    -0.03  -0.01  -0.02
   8   6     0.05  -0.04   0.01     0.04  -0.02  -0.02    -0.02   0.00  -0.02
   9   6     0.01  -0.02   0.01     0.01   0.01  -0.01    -0.01  -0.01  -0.00
  10   6     0.03   0.00  -0.02     0.00   0.07   0.18     0.01  -0.00  -0.01
  11   6     0.02  -0.00  -0.05     0.03   0.03   0.21     0.02  -0.01  -0.04
  12   6     0.02  -0.01  -0.04     0.02  -0.07   0.02     0.03  -0.01  -0.04
  13   7     0.01  -0.03  -0.04     0.06  -0.12  -0.04     0.06  -0.02  -0.06
  14   6    -0.03   0.04  -0.02     0.02  -0.11  -0.06     0.09  -0.12  -0.09
  15   6    -0.06   0.05   0.01     0.06  -0.02  -0.09    -0.01  -0.08  -0.02
  16   6    -0.08  -0.02  -0.03     0.12   0.09  -0.02    -0.16   0.10   0.03
  17   6    -0.06  -0.06  -0.08     0.13   0.08   0.03    -0.13   0.01  -0.05
  18   6    -0.05   0.02  -0.07     0.09  -0.04   0.03     0.01  -0.16  -0.17
  19   6    -0.03   0.05  -0.04     0.01  -0.10  -0.03     0.10  -0.13  -0.12
  20   6    -0.03   0.01  -0.04    -0.07  -0.01   0.02     0.03  -0.01   0.02
  21   6    -0.06   0.01   0.24    -0.13  -0.01  -0.06     0.13  -0.10   0.10
  22   6    -0.07  -0.06   0.37    -0.18  -0.10  -0.09     0.16  -0.02   0.18
  23   6    -0.06  -0.08   0.04    -0.14  -0.16  -0.03     0.08   0.08   0.03
  24   6    -0.04  -0.04  -0.30    -0.11  -0.17   0.07    -0.01   0.08  -0.13
  25   6    -0.00  -0.02   0.10    -0.09  -0.08  -0.01    -0.03  -0.03   0.07
  26   6    -0.03   0.00   0.40    -0.14  -0.02  -0.09     0.06  -0.12   0.19
  27   6     0.04   0.05  -0.12     0.04   0.05   0.14    -0.08  -0.06   0.22
  28   6     0.04   0.11  -0.06     0.13   0.06   0.13    -0.06  -0.15   0.14
  29   6    -0.03   0.08   0.04     0.03   0.05   0.01     0.06  -0.08  -0.04
  30   6    -0.06  -0.02   0.06    -0.16   0.09  -0.05     0.06   0.08  -0.09
  31   6     0.04  -0.06   0.01    -0.03   0.18   0.02    -0.11   0.15  -0.01
  32   6     0.09  -0.01  -0.09     0.09   0.18   0.13    -0.15   0.07   0.17
  33   6     0.00  -0.10  -0.04    -0.04   0.06  -0.01    -0.05   0.23  -0.05
  34   6     0.06  -0.06  -0.09     0.05   0.02  -0.06    -0.02   0.21  -0.06
  35   6     0.07   0.09  -0.09     0.12  -0.03  -0.03     0.09  -0.09  -0.03
  36   6     0.08   0.09  -0.05     0.11   0.03  -0.02     0.10  -0.12  -0.03
  37   6     0.07  -0.07   0.01     0.02   0.07   0.01    -0.01   0.16  -0.06
  38   6     0.02  -0.09  -0.02    -0.03   0.03  -0.02    -0.04   0.19  -0.06
  39   6     0.03  -0.00  -0.01     0.02  -0.11  -0.13     0.01  -0.00  -0.02
  40   6     0.03   0.01   0.02    -0.02  -0.02   0.06    -0.01   0.01   0.02
  41   6     0.03   0.01   0.01    -0.01   0.07   0.20    -0.01   0.00   0.02
  42   6    -0.08  -0.02  -0.01     0.01  -0.01  -0.03     0.00  -0.01   0.00
  43   6    -0.11  -0.01  -0.02    -0.07   0.01  -0.06     0.01  -0.00   0.01
  44   6    -0.00   0.01   0.01    -0.06   0.03  -0.05     0.00  -0.00   0.01
  45   6     0.09   0.01   0.04     0.08   0.03  -0.02    -0.01  -0.00   0.01
  46   6    -0.03  -0.01   0.02     0.04   0.01  -0.02    -0.00  -0.00   0.01
  47   6    -0.12  -0.03  -0.01    -0.05  -0.00  -0.04     0.01  -0.01   0.01
  48   6    -0.12  -0.03  -0.01    -0.14   0.00  -0.06     0.02  -0.01   0.01
  49   6    -0.02  -0.01  -0.02    -0.09  -0.01  -0.02     0.01  -0.00  -0.00
  50   6     0.10   0.02  -0.00     0.10  -0.04   0.02    -0.01   0.01  -0.01
  51   6     0.00   0.02  -0.01     0.07  -0.05  -0.00    -0.00   0.01  -0.00
  52   6    -0.11   0.00  -0.00    -0.11  -0.04  -0.06     0.01   0.00   0.01
  53   6    -0.08  -0.02   0.00    -0.13   0.00  -0.06     0.01  -0.01   0.01
  54   1    -0.02   0.00  -0.01     0.00  -0.00  -0.02     0.00  -0.00  -0.00
  55   1    -0.00   0.04  -0.00     0.00   0.01  -0.00    -0.01  -0.01   0.01
  56   1     0.02   0.04  -0.00     0.01   0.02   0.03    -0.01  -0.01   0.01
  57   1     0.05   0.01  -0.00     0.02   0.01   0.01    -0.01  -0.01  -0.01
  58   1     0.01  -0.00  -0.01     0.02   0.01   0.07     0.00  -0.00  -0.02
  59   1    -0.02   0.02   0.01     0.01   0.01  -0.04     0.00  -0.02   0.01
  60   1    -0.03  -0.02  -0.01     0.04   0.06  -0.01    -0.08   0.08   0.04
  61   1    -0.02  -0.04  -0.03     0.04   0.04   0.02    -0.06   0.03  -0.01
  62   1    -0.02   0.01  -0.02     0.03  -0.01   0.03     0.00  -0.05  -0.07
  63   1    -0.03  -0.02   0.16    -0.07  -0.03  -0.03     0.07  -0.00   0.08
  64   1    -0.02  -0.03  -0.01    -0.04  -0.06  -0.01     0.03   0.05  -0.00
  65   1    -0.01  -0.01  -0.22    -0.02  -0.06   0.05    -0.02   0.04  -0.10
  66   1     0.01  -0.00   0.03    -0.00  -0.02   0.00    -0.03  -0.02   0.03
  67   1    -0.00   0.00   0.17    -0.04   0.00  -0.04     0.01  -0.06   0.08
  68   1     0.02   0.05  -0.02     0.06   0.01   0.05    -0.03  -0.08   0.05
  69   1    -0.02   0.04   0.02     0.01  -0.00  -0.01     0.05  -0.05  -0.04
  70   1    -0.04  -0.02   0.03    -0.10   0.01  -0.04     0.05   0.04  -0.06
  71   1     0.02  -0.04   0.01    -0.02   0.07  -0.00    -0.05   0.08  -0.02
  72   1     0.04  -0.01  -0.04     0.04   0.08   0.06    -0.06   0.05   0.07
  73   1     0.02  -0.03  -0.04     0.02  -0.00  -0.04    -0.01   0.08  -0.02
  74   1     0.02   0.06  -0.03     0.05  -0.03  -0.01     0.05  -0.09  -0.00
  75   1     0.02   0.05  -0.01     0.04   0.00   0.00     0.05  -0.10  -0.00
  76   1     0.02  -0.03   0.02     0.01   0.02   0.02    -0.00   0.05  -0.01
  77   1     0.01   0.00   0.00     0.01  -0.05  -0.11    -0.00  -0.00  -0.01
[...]
  20   6    -0.00   0.00   0.00     0.00   0.00  -0.00    -0.00  -0.00   0.00
  21   6     0.01   0.01   0.00    -0.00  -0.00   0.00     0.00   0.00  -0.00
  22   6    -0.05   0.18   0.02     0.00  -0.02  -0.00    -0.01   0.04   0.00
  23   6    -0.12   0.04   0.01     0.01  -0.00  -0.00    -0.03   0.01   0.00
  24   6    -0.08  -0.08  -0.00     0.01   0.01   0.00    -0.02  -0.02  -0.00
  25   6     0.02  -0.06  -0.01    -0.00   0.01   0.00     0.00  -0.02  -0.00
  26   6     0.03  -0.01  -0.00    -0.00   0.00   0.00     0.01  -0.00  -0.00
  27   6    -0.00   0.00   0.00    -0.00   0.00   0.00     0.00  -0.00  -0.00
  28   6    -0.01   0.01   0.05    -0.01   0.01   0.02     0.01  -0.01  -0.04
  29   6     0.00  -0.03   0.03     0.00  -0.01   0.01    -0.00   0.02  -0.02
  30   6     0.01  -0.04  -0.01     0.00  -0.01  -0.00    -0.01   0.04   0.01
  31   6     0.01  -0.01  -0.03     0.00  -0.00  -0.01    -0.01   0.01   0.03
  32   6    -0.00   0.02  -0.02    -0.00   0.00  -0.00     0.00  -0.03   0.03
  33   6    -0.00   0.00  -0.00    -0.00   0.00   0.00     0.00  -0.00   0.00
  34   6     0.02   0.01  -0.00    -0.01  -0.00   0.00     0.00   0.00  -0.00
  35   6     0.00   0.00   0.00    -0.00  -0.00  -0.01     0.00   0.00   0.01
  36   6     0.00   0.00  -0.01     0.00   0.00  -0.00    -0.00  -0.00   0.01
  37   6     0.01   0.00  -0.00    -0.00  -0.00   0.00    -0.01  -0.00   0.00
  38   6     0.00   0.00   0.00     0.00   0.00   0.00    -0.00  -0.00  -0.00
  39   6    -0.00   0.00  -0.00    -0.00   0.00  -0.00     0.00  -0.00   0.00
  40   6     0.00  -0.01   0.00    -0.00  -0.00   0.00     0.00   0.01  -0.00
  41   6    -0.00  -0.00   0.00     0.00  -0.00  -0.00    -0.00  -0.00  -0.00
  42   6     0.00   0.00  -0.00     0.00   0.00  -0.00     0.00   0.00  -0.00
  43   6    -0.00   0.00   0.00    -0.00   0.06   0.00    -0.00   0.01   0.00
  44   6    -0.00   0.00   0.00    -0.03   0.06   0.13    -0.01   0.01   0.03
  45   6    -0.00  -0.00   0.00    -0.02  -0.08   0.11    -0.00  -0.02   0.02
  46   6     0.00  -0.00  -0.00     0.01  -0.10  -0.01     0.00  -0.02  -0.00
  47   6     0.00  -0.00  -0.00     0.00  -0.00  -0.00     0.00  -0.00  -0.00
  48   6     0.00  -0.00  -0.00     0.00  -0.00  -0.00     0.00  -0.00  -0.00
  49   6     0.00   0.00  -0.00     0.00   0.03  -0.02     0.00   0.03  -0.02
  50   6    -0.00   0.00   0.00    -0.01   0.07   0.04    -0.01   0.05   0.03
  51   6    -0.00   0.00   0.00    -0.02   0.00   0.10    -0.01   0.00   0.07
  52   6    -0.00  -0.00   0.00    -0.00  -0.04   0.02    -0.00  -0.03   0.02
  53   6     0.00  -0.00  -0.00     0.00  -0.00  -0.00     0.00  -0.00  -0.00
  54   1    -0.00   0.00  -0.00    -0.00   0.00  -0.00    -0.00   0.02  -0.01
  55   1    -0.00  -0.00  -0.00     0.00   0.00   0.00     0.01   0.01  -0.00
  56   1    -0.00   0.00  -0.00     0.00  -0.00   0.00     0.00  -0.00   0.00
  57   1    -0.00   0.00  -0.00     0.00  -0.01   0.00    -0.00   0.00  -0.00
  58   1    -0.00   0.01  -0.00    -0.00   0.00  -0.00     0.00  -0.04   0.01
  59   1    -0.02  -0.01   0.00    -0.08  -0.04   0.00     0.21   0.09  -0.01
  60   1     0.02  -0.00   0.03     0.06  -0.00   0.07    -0.17   0.01  -0.21
  61   1    -0.03  -0.04   0.08    -0.07  -0.11   0.20     0.19   0.32  -0.55
  62   1    -0.04  -0.02   0.00    -0.11  -0.04   0.01     0.28   0.11  -0.02
  63   1     0.16  -0.64  -0.06    -0.01   0.06   0.00     0.03  -0.13  -0.01
  64   1     0.40  -0.12  -0.03    -0.04   0.01   0.00     0.08  -0.02  -0.01
  65   1     0.27   0.26   0.01    -0.03  -0.03  -0.00     0.06   0.06   0.00
  66   1    -0.05   0.21   0.02     0.01  -0.03  -0.00    -0.01   0.05   0.01
  67   1    -0.09   0.03   0.01     0.01  -0.00  -0.00    -0.03   0.01   0.00
  68   1     0.05  -0.05  -0.19     0.02  -0.02  -0.07    -0.04   0.04   0.14
  69   1    -0.01   0.08  -0.09    -0.00   0.03  -0.03     0.01  -0.07   0.07
  70   1    -0.04   0.13   0.03    -0.01   0.04   0.01     0.04  -0.12  -0.03
  71   1    -0.02   0.02   0.09    -0.01   0.01   0.02     0.03  -0.03  -0.10
  72   1     0.00  -0.06   0.07     0.00  -0.01   0.01    -0.01   0.09  -0.10
  73   1    -0.06  -0.02   0.00     0.02   0.01  -0.00    -0.01  -0.00   0.00
  74   1    -0.01  -0.01  -0.02     0.01   0.01   0.02    -0.01  -0.01  -0.02
  75   1    -0.01  -0.00   0.02     0.00   0.00  -0.00     0.01   0.00  -0.02
  76   1    -0.04  -0.01   0.00     0.01   0.00  -0.00     0.02   0.01  -0.00
  77   1     0.01  -0.00   0.00     0.00  -0.00   0.00    -0.01   0.00  -0.00
  78   1    -0.00   0.02  -0.01    -0.00   0.01  -0.00     0.00  -0.02   0.01
  79   1     0.00  -0.00  -0.00     0.01  -0.19  -0.02     0.00  -0.05  -0.00
  80   1     0.00  -0.00  -0.01     0.09  -0.20  -0.44     0.02  -0.04  -0.10
  81   1     0.00   0.01  -0.01     0.06   0.26  -0.37     0.01   0.06  -0.08
  82   1    -0.00   0.01   0.00    -0.02   0.33   0.03    -0.00   0.06   0.01
  83   1    -0.00  -0.00   0.00    -0.01  -0.11   0.06    -0.00  -0.10   0.06
  84   1     0.00  -0.00  -0.00     0.03  -0.22  -0.12     0.02  -0.16  -0.09
  85   1     0.00  -0.00  -0.01     0.06  -0.01  -0.33     0.04  -0.01  -0.23
  86   1     0.00   0.00  -0.00     0.01   0.11  -0.07     0.00   0.08  -0.05
                    247                    248                    249
                        a                      a                      a 
 Frequencies --  3096.2401              3096.3524              3098.0587
 Red. masses --     1.9014                 1.8964                 1.9056
 Frc consts  --     0.0000                 0.0000                 0.0000
 IR Inten    --     6.3841                51.1777                49.5157
 Raman Activ --     0.0000                 0.0000                 0.0000
 Depolar     --     0.0000                 0.0000                 0.0000
 Atom AN      X      Y      Z        X      Y      Z        X      Y      Z
   1   8     0.00  -0.00   0.00    -0.00   0.00  -0.00     0.00   0.00  -0.00
   2   6    -0.00   0.00  -0.00     0.00  -0.00   0.00     0.00  -0.00   0.00
   3   6     0.00  -0.00   0.00    -0.00   0.00  -0.00     0.00  -0.00   0.00
   4   6     0.00  -0.01   0.00    -0.00   0.01  -0.00     0.02  -0.18   0.05
   5   6    -0.01  -0.01   0.00     0.01   0.01  -0.00    -0.14  -0.10   0.00
   6   6    -0.00   0.00  -0.00     0.00  -0.00   0.00    -0.09   0.04  -0.03
   7   6    -0.00   0.01  -0.00     0.00  -0.01   0.00    -0.00   0.04  -0.01
   8   6     0.00   0.00  -0.00    -0.00  -0.00   0.00     0.00   0.00  -0.00
   9   6     0.00  -0.00   0.00    -0.00   0.00  -0.00    -0.00  -0.00   0.00
  10   6    -0.00   0.00  -0.00     0.00  -0.00   0.00     0.00  -0.00   0.00
  11   6    -0.00   0.01  -0.00     0.00  -0.01   0.00     0.00   0.00  -0.00
  12   6    -0.00   0.00  -0.00    -0.00  -0.00  -0.00    -0.00  -0.00   0.00
  13   7     0.00  -0.00  -0.00    -0.00  -0.00  -0.00    -0.00  -0.00  -0.00
  14   6    -0.00   0.00  -0.00     0.00   0.00  -0.00     0.00   0.00  -0.00
  15   6     0.01   0.00  -0.00     0.02   0.01   0.00     0.00   0.00   0.00
  16   6    -0.00   0.00  -0.00    -0.02   0.00  -0.03    -0.00   0.00  -0.00
  17   6     0.01   0.01  -0.02     0.02   0.04  -0.07     0.00   0.00  -0.01
  18   6     0.01   0.01  -0.00     0.04   0.02  -0.00     0.00   0.00  -0.00
  19   6     0.00  -0.00  -0.00     0.00  -0.00   0.00     0.00  -0.00   0.00
  20   6     0.00  -0.00   0.00     0.00  -0.00  -0.00     0.00   0.00  -0.00
  21   6     0.00   0.00   0.00     0.00   0.00   0.00    -0.00  -0.00   0.00
  22   6    -0.01   0.04   0.00    -0.01   0.03   0.00     0.00  -0.00  -0.00
  23   6    -0.02   0.01   0.00    -0.02   0.01   0.00     0.00  -0.00  -0.00
  24   6    -0.01  -0.01  -0.00    -0.01  -0.01  -0.00     0.00   0.00   0.00
  25   6     0.00  -0.01  -0.00     0.00  -0.00  -0.00    -0.00   0.00   0.00
  26   6     0.00  -0.00  -0.00     0.00  -0.00   0.00    -0.00   0.00   0.00
  27   6     0.00  -0.01  -0.00     0.00  -0.01  -0.00    -0.00   0.00   0.00
  28   6     0.02  -0.01  -0.06     0.02  -0.01  -0.06    -0.00   0.00   0.00
  29   6    -0.00   0.03  -0.04    -0.00   0.03  -0.03     0.00  -0.00   0.00
  30   6    -0.02   0.06   0.01    -0.02   0.06   0.01     0.00  -0.00  -0.00
  31   6    -0.02   0.02   0.07    -0.02   0.02   0.07     0.00  -0.00  -0.00
  32   6     0.01  -0.09   0.10     0.01  -0.09   0.10    -0.00   0.00  -0.00
  33   6     0.00  -0.00   0.00    -0.00  -0.00   0.00    -0.00  -0.00  -0.00
  34   6     0.00   0.00  -0.00     0.00   0.00  -0.00    -0.00  -0.00   0.00
  35   6     0.00   0.00   0.01    -0.00  -0.00  -0.00    -0.00  -0.00  -0.00
  36   6    -0.00  -0.00   0.00     0.00   0.00  -0.00     0.00   0.00  -0.00
  37   6    -0.00  -0.00   0.00     0.01   0.00  -0.00     0.01   0.00  -0.00
  38   6    -0.00  -0.00  -0.00     0.00   0.00   0.00     0.00   0.00   0.00
  39   6     0.00  -0.00   0.00    -0.00   0.00  -0.00    -0.04   0.02  -0.01
  40   6     0.00   0.00  -0.00    -0.00   0.01  -0.00     0.00   0.06  -0.02
  41   6     0.00  -0.00   0.00     0.00   0.00  -0.00     0.00   0.00  -0.00
  42   6     0.00   0.00  -0.00    -0.00  -0.00   0.00    -0.00   0.00  -0.00
  43   6    -0.00   0.03   0.00     0.00  -0.03  -0.00     0.00  -0.00  -0.00
  44   6    -0.01   0.03   0.06     0.01  -0.03  -0.05     0.00  -0.00  -0.01
  45   6    -0.01  -0.04   0.06     0.01   0.04  -0.05     0.00   0.01  -0.01
  46   6     0.00  -0.06  -0.01    -0.00   0.06   0.00    -0.00   0.01   0.00
  47   6     0.00  -0.00  -0.00    -0.00   0.00   0.00    -0.00   0.00   0.00
  48   6    -0.00   0.00   0.00     0.00  -0.00  -0.00     0.00  -0.00  -0.00
  49   6    -0.00  -0.06   0.04     0.00   0.05  -0.03     0.00   0.01  -0.00
  50   6     0.01  -0.09  -0.05    -0.01   0.08   0.04    -0.00   0.01   0.00
  51   6     0.02  -0.00  -0.11    -0.02   0.00   0.10    -0.00   0.00   0.01
  52   6     0.00   0.04  -0.02    -0.00  -0.04   0.02    -0.00  -0.00   0.00
  53   6    -0.00   0.00   0.00     0.00  -0.00  -0.00    -0.00   0.00  -0.00
  54   1    -0.00   0.05  -0.01     0.00  -0.05   0.01    -0.05   0.61  -0.18
  55   1     0.03   0.02  -0.00    -0.03  -0.02   0.00     0.47   0.32  -0.00
  56   1     0.02  -0.01   0.01    -0.01   0.01  -0.00     0.28  -0.13   0.09
  57   1     0.00  -0.02   0.01    -0.00   0.02  -0.01     0.01  -0.12   0.03
  58   1     0.00  -0.02   0.00    -0.00   0.04  -0.01    -0.00  -0.00   0.00
  59   1    -0.03  -0.01   0.00    -0.07  -0.03   0.00    -0.00  -0.00   0.00
  60   1     0.01  -0.00   0.01     0.07  -0.01   0.09     0.01  -0.00   0.01
  61   1    -0.02  -0.03   0.06    -0.08  -0.14   0.24    -0.01  -0.01   0.02
  62   1    -0.04  -0.02   0.00    -0.14  -0.06   0.01    -0.01  -0.01   0.00
  63   1     0.03  -0.13  -0.01     0.03  -0.11  -0.01    -0.00   0.00   0.00
  64   1     0.07  -0.02  -0.01     0.05  -0.02  -0.00    -0.00   0.00   0.00
  65   1     0.04   0.04   0.00     0.03   0.03   0.00    -0.00  -0.00  -0.00
  66   1    -0.01   0.03   0.00    -0.00   0.01   0.00     0.00  -0.00  -0.00
  67   1    -0.01   0.00   0.00    -0.00   0.00   0.00     0.00  -0.00  -0.00
  68   1    -0.05   0.05   0.21    -0.05   0.05   0.20     0.00  -0.00  -0.01
  69   1     0.01  -0.10   0.11     0.01  -0.10   0.11    -0.00   0.01  -0.01
  70   1     0.07  -0.21  -0.04     0.07  -0.20  -0.04    -0.00   0.01   0.00
  71   1     0.06  -0.06  -0.23     0.06  -0.06  -0.22    -0.00   0.00   0.01
  72   1    -0.03   0.31  -0.34    -0.03   0.31  -0.34     0.00  -0.01   0.01
  73   1    -0.02  -0.01   0.00    -0.01  -0.00   0.00     0.00   0.00  -0.00
  74   1    -0.01  -0.01  -0.02    -0.00   0.00  -0.00     0.00   0.00   0.01
  75   1     0.00   0.00  -0.01    -0.01  -0.00   0.01    -0.01  -0.00   0.01
  76   1     0.01   0.00  -0.00    -0.03  -0.01   0.00    -0.03  -0.01   0.00
  77   1    -0.00   0.00  -0.00     0.01  -0.00   0.00     0.12  -0.06   0.03
  78   1     0.00  -0.01   0.00     0.00  -0.04   0.01     0.00  -0.20   0.05
  79   1     0.01  -0.09  -0.01    -0.01   0.08   0.01    -0.00   0.01   0.00
  80   1     0.04  -0.09  -0.20    -0.04   0.08   0.18    -0.01   0.01   0.03
  81   1     0.03   0.13  -0.18    -0.03  -0.12   0.17    -0.00  -0.02   0.02
  82   1    -0.01   0.20   0.02     0.01  -0.19  -0.01     0.00  -0.03  -0.00
  83   1     0.01   0.21  -0.13    -0.01  -0.18   0.11    -0.00  -0.02   0.01
  84   1    -0.04   0.29   0.16     0.04  -0.25  -0.14     0.00  -0.03  -0.02
  85   1    -0.07   0.01   0.37     0.06  -0.01  -0.32     0.01  -0.00  -0.03
  86   1    -0.01  -0.13   0.08     0.01   0.11  -0.07     0.00   0.01  -0.00
                    250                    251                    252
                        a                      a                      a 
 Frequencies --  3098.9317              3100.0095              3106.7850
 Red. masses --     1.8850                 1.9135                 1.8549
 Frc consts  --     0.0000                 0.0000                 0.0000
 IR Inten    --     7.0314                59.5144                30.1129
 Raman Activ --     0.0000                 0.0000                 0.0000
 Depolar     --     0.0000                 0.0000                 0.0000
 Atom AN      X      Y      Z        X      Y      Z        X      Y      Z
   1   8    -0.00   0.00  -0.00     0.00   0.00  -0.00     0.00   0.00   0.00
   2   6     0.00  -0.00   0.00    -0.00  -0.00   0.00    -0.00  -0.00  -0.00
   3   6     0.00  -0.00   0.00     0.00  -0.00   0.00    -0.00  -0.00   0.00
   4   6     0.00  -0.05   0.01     0.00  -0.01   0.00    -0.00   0.00  -0.00
   5   6    -0.04  -0.02   0.00    -0.01  -0.00   0.00     0.00   0.00   0.00
   6   6    -0.02   0.01  -0.01    -0.00   0.00  -0.00     0.00  -0.00   0.00
   7   6    -0.00   0.01  -0.00    -0.00   0.00  -0.00    -0.00  -0.00   0.00
   8   6     0.00   0.00  -0.00     0.00   0.00  -0.00     0.00   0.00   0.00
   9   6    -0.00  -0.00   0.00     0.00  -0.00   0.00    -0.00  -0.00  -0.00
  10   6     0.00   0.00  -0.00    -0.00   0.00  -0.00    -0.00  -0.00   0.00
  11   6    -0.00   0.00  -0.00     0.00   0.00  -0.00    -0.00   0.01  -0.00
  12   6     0.00   0.00  -0.00     0.00   0.00  -0.00     0.00  -0.00   0.00
  13   7    -0.00  -0.00   0.00     0.00  -0.00   0.00    -0.00  -0.00  -0.00
  14   6     0.00  -0.00  -0.00     0.00   0.00  -0.00    -0.00  -0.00   0.01
  15   6     0.00   0.00   0.00     0.01   0.01  -0.00    -0.23  -0.11   0.01
  16   6    -0.00   0.00  -0.00    -0.00   0.00  -0.00    -0.06   0.00  -0.07
  17   6     0.00   0.00  -0.00     0.00   0.00  -0.01     0.02   0.02  -0.04
  18   6     0.00   0.00  -0.00     0.00   0.00  -0.00     0.01   0.01  -0.00
  19   6     0.00  -0.00   0.00    -0.00  -0.00   0.00     0.00   0.00  -0.00
  20   6    -0.00  -0.00  -0.00     0.00   0.00   0.00    -0.00  -0.00  -0.00
  21   6     0.00   0.00   0.00    -0.00  -0.00  -0.00     0.00   0.00  -0.00
  22   6    -0.00   0.00   0.00     0.00  -0.00  -0.00     0.00  -0.00  -0.00
  23   6    -0.00   0.00   0.00     0.00  -0.00  -0.00     0.00  -0.00  -0.00
  24   6    -0.00  -0.00  -0.00     0.00   0.00   0.00     0.00   0.00   0.00
  25   6     0.00  -0.00  -0.00    -0.00   0.00   0.00    -0.00   0.00   0.00
  26   6     0.00  -0.00  -0.00    -0.00   0.00   0.00    -0.00   0.00   0.00
  27   6     0.00  -0.00  -0.00    -0.00  -0.00   0.00     0.00  -0.00   0.00
  28   6     0.00  -0.00  -0.01     0.00  -0.00  -0.00    -0.00   0.00   0.00
  29   6    -0.00   0.00  -0.00     0.00  -0.00   0.00     0.00  -0.00   0.00
  30   6    -0.00   0.00   0.00     0.00  -0.01  -0.00     0.00  -0.00  -0.00
  31   6    -0.00   0.00   0.00     0.00  -0.00  -0.00     0.00  -0.00  -0.00
  32   6     0.00  -0.00   0.00    -0.00   0.00  -0.00     0.00  -0.00   0.00
  33   6    -0.00  -0.00   0.00     0.00   0.00  -0.00    -0.00   0.00   0.00
  34   6    -0.01  -0.00   0.00     0.12   0.04  -0.01     0.00   0.00  -0.00
  35   6    -0.01  -0.01  -0.02     0.10   0.05   0.16     0.00   0.00   0.00
  36   6     0.01   0.00  -0.01    -0.06  -0.01   0.12    -0.00  -0.00   0.01
  37   6     0.00   0.00   0.00    -0.09  -0.03   0.00    -0.01  -0.00   0.00
  38   6     0.00  -0.00   0.00    -0.00  -0.00  -0.00    -0.00   0.00  -0.00
  39   6     0.13  -0.06   0.03     0.01  -0.01   0.00     0.00   0.00  -0.00
  40   6    -0.00  -0.22   0.06    -0.00  -0.02   0.00    -0.00  -0.00   0.00
  41   6    -0.00  -0.00   0.00    -0.00  -0.00   0.00     0.00  -0.00   0.00
  42   6    -0.00   0.00  -0.00     0.00   0.00  -0.00    -0.00   0.00  -0.00
  43   6    -0.00   0.00   0.00     0.00  -0.00  -0.00    -0.00   0.01   0.00
  44   6     0.00  -0.00  -0.00     0.00  -0.00  -0.00    -0.00   0.00   0.00
  45   6     0.00   0.00  -0.01     0.00   0.00  -0.00    -0.00  -0.00   0.00
  46   6    -0.00   0.01   0.00    -0.00   0.00   0.00     0.00  -0.00  -0.00
  47   6    -0.00   0.00   0.00    -0.00   0.00   0.00     0.00  -0.00  -0.00
  48   6     0.00   0.00  -0.00     0.00  -0.00  -0.00    -0.00  -0.00  -0.00
  49   6     0.00   0.00  -0.00     0.00   0.00  -0.00    -0.00  -0.00   0.00
  50   6    -0.00   0.01   0.00    -0.00   0.00   0.00     0.00  -0.00  -0.00
  51   6    -0.00   0.00   0.01    -0.00   0.00   0.01     0.00  -0.00  -0.00
  52   6    -0.00  -0.00   0.00    -0.00  -0.00   0.00     0.00   0.00  -0.00
  53   6    -0.00   0.00   0.00     0.00   0.00  -0.00    -0.00   0.00   0.00
  54   1    -0.01   0.16  -0.05    -0.00   0.03  -0.01     0.00  -0.00   0.00
  55   1     0.12   0.08  -0.00     0.02   0.01  -0.00    -0.00  -0.00   0.00
  56   1     0.07  -0.03   0.02     0.01  -0.01   0.00    -0.00   0.00  -0.00
  57   1     0.00  -0.03   0.01     0.00  -0.01   0.00     0.00   0.00  -0.00
  58   1     0.00  -0.01   0.00     0.00  -0.00   0.00     0.00  -0.04   0.01
  59   1     0.00   0.00  -0.00    -0.04  -0.02   0.00     0.82   0.37  -0.04
  60   1     0.00  -0.00  -0.00     0.00  -0.00   0.00     0.18  -0.01   0.22
  61   1    -0.00  -0.00   0.01    -0.01  -0.01   0.02    -0.05  -0.08   0.13
  62   1    -0.00  -0.00   0.00    -0.02  -0.01   0.00    -0.04  -0.02   0.00
  63   1     0.00  -0.00  -0.00    -0.00   0.01   0.00    -0.00   0.00   0.00
  64   1     0.00  -0.00  -0.00    -0.01   0.00   0.00    -0.01   0.00   0.00
  65   1     0.00   0.00   0.00    -0.01  -0.01  -0.00    -0.01  -0.01  -0.00
  66   1    -0.00   0.00   0.00     0.00  -0.02  -0.00     0.00  -0.01  -0.00
  67   1    -0.00   0.00   0.00     0.01  -0.00  -0.00     0.00   0.00   0.00
  68   1    -0.01   0.01   0.02    -0.00   0.00   0.01     0.00  -0.00  -0.00
  69   1     0.00  -0.01   0.01    -0.00   0.01  -0.01    -0.00   0.00  -0.01
  70   1     0.00  -0.01  -0.00    -0.01   0.02   0.00    -0.00   0.01   0.00
  71   1     0.00  -0.00  -0.01    -0.00   0.00   0.01    -0.00   0.00   0.00
  72   1    -0.00   0.01  -0.01     0.00  -0.01   0.01    -0.00   0.01  -0.01
  73   1     0.05   0.02  -0.00    -0.40  -0.13   0.02    -0.01  -0.00   0.00
  74   1     0.03   0.02   0.06    -0.32  -0.17  -0.54    -0.01  -0.01  -0.02
  75   1    -0.02  -0.00   0.03     0.21   0.03  -0.40     0.01   0.00  -0.02
  76   1    -0.00  -0.00   0.00     0.29   0.10  -0.02     0.02   0.01  -0.00
  77   1    -0.44   0.22  -0.10    -0.04   0.02  -0.01    -0.00   0.00  -0.00
  78   1    -0.01   0.74  -0.20    -0.00   0.06  -0.02    -0.00   0.00  -0.00
  79   1     0.00  -0.00  -0.00    -0.00   0.00   0.00     0.00  -0.03  -0.00
  80   1    -0.00   0.01   0.02    -0.00   0.00   0.00     0.00  -0.00  -0.01
  81   1    -0.00  -0.01   0.02    -0.00  -0.00   0.00     0.00   0.00  -0.00
  82   1     0.00  -0.02  -0.00     0.00  -0.01  -0.00    -0.00   0.00   0.00
  83   1    -0.00  -0.01   0.01    -0.00  -0.01   0.01     0.00   0.00  -0.00
  84   1     0.00  -0.02  -0.01     0.00  -0.02  -0.01    -0.00   0.01   0.00
  85   1     0.00  -0.00  -0.02     0.00  -0.00  -0.02    -0.00   0.00   0.01
  86   1     0.00   0.00  -0.00     0.00   0.01  -0.00    -0.00  -0.00   0.00
