      -----------------------------------------------------------      
     |                   =====================                   |     
     |                           x T B                           |     
     |                   =====================                   |     
     |                         S. Grimme                         |     
     |          Mulliken Center for Theoretical Chemistry        |     
     |                    University of Bonn                     |     
      -----------------------------------------------------------      

   * xtb version 6.7.1 (edcfbbe) compiled by 'albert@albert-system' on 2024-07-22

   xtb is free software: you can redistribute it and/or modify it under
   the terms of the GNU Lesser General Public License as published by
   the Free Software Foundation, either version 3 of the License, or
   (at your option) any later version.
   
   xtb is distributed in the hope that it will be useful,
   but WITHOUT ANY WARRANTY; without even the implied warranty of
   MERCHANTABILITY or FITNESS FOR A PARTICULAR PURPOSE.  See the
   GNU Lesser General Public License for more details.
   
   Cite this work as:
   * C. Bannwarth, E. Caldeweyher, S. Ehlert, A. Hansen, P. Pracht,
     J. Seibert, S. Spicher, S. Grimme, WIREs Comput. Mol. Sci., 2020, 11,
     e01493. DOI: 10.1002/wcms.1493
   
   for GFN2-xTB:
   * C. Bannwarth, S. Ehlert and S. Grimme., J. Chem. Theory Comput., 2019,
     15, 1652-1671. DOI: 10.1021/acs.jctc.8b01176
   for GFN1-xTB:
   * S. Grimme, C. Bannwarth, P. Shushkov, J. Chem. Theory Comput., 2017,
     13, 1989-2009. DOI: 10.1021/acs.jctc.7b00118
   for GFN0-xTB:
   * P. Pracht, E. Caldeweyher, S. Ehlert, S. Grimme, ChemRxiv, 2019, preprint.
     DOI: 10.26434/chemrxiv.8326202.v1
   for GFN-FF:
   * S. Spicher and S. Grimme, Angew. Chem. Int. Ed., 2020, 59, 15665-15673.
     DOI: 10.1002/anie.202004239
   
   for ALPB and GBSA implicit solvation:
   * S. Ehlert, M. Stahn, S. Spicher, S. Grimme, J. Chem. Theory Comput.,
     2021, 17, 4250-4261. DOI: 10.1021/acs.jctc.1c00471
   
   for ddCOSMO and CPCM-X implicit solvation:
   * M. Stahn, S. Ehlert, S. Grimme, J. Phys. Chem. A,
     2023, XX, XXXX-XXXX. DOI: 10.1021/acs.jpca.3c04382
   
   for DFT-D4:
   * E. Caldeweyher, C. Bannwarth and S. Grimme, J. Chem. Phys., 2017,
     147, 034112. DOI: 10.1063/1.4993215
   * E. Caldeweyher, S. Ehlert, A. Hansen, H. Neugebauer, S. Spicher,
     C. Bannwarth and S. Grimme, J. Chem. Phys., 2019, 150, 154122.
     DOI: 10.1063/1.5090222
   * E. Caldeweyher, J.-M. Mewes, S. Ehlert and S. Grimme, Phys. Chem. Chem. Phys.
     2020, 22, 8499-8512. DOI: 10.1039/D0CP00502A
   
   for sTDA-xTB:
   * S. Grimme and C. Bannwarth, J. Chem. Phys., 2016, 145, 054103.
     DOI: 10.1063/1.4959605
   
   in the mass-spec context:
   * V. Asgeirsson, C. Bauer and S. Grimme, Chem. Sci., 2017, 8, 4879.
     DOI: 10.1039/c7sc00601b
   * J. Koopman and S. Grimme, ACS Omega 2019, 4, 12, 15120-15133.
     DOI: 10.1021/acsomega.9b02011
   
   for metadynamics refer to:
   * S. Grimme, J. Chem. Theory Comput., 2019, 155, 2847-2862
     DOI: 10.1021/acs.jctc.9b00143
   
   for SPH calculations refer to:
   * S. Spicher and S. Grimme, J. Chem. Theory Comput., 2021, 17, 1701-1714
     DOI: 10.1021/acs.jctc.0c01306
   
   for ONIOM refer to:
   * C. Plett, A. Katbashev, S. Ehlert, S. Grimme, M. Bursch,
     Phys. Chem. Chem. Phys., 2023, 25, 17860-17868. DOI: 10.1039/D3CP02178E
   
   for DIPRO refer to:
   * J. Kohn, N. Gildemeister, S. Grimme, D. Fazzi, A. Hansen,
     J. Chem. Phys., 2023, just accepted.
   
   for PTB refer to:
   * S. Grimme, M. Mueller, A. Hansen, J. Chem. Phys., 2023, 158, 124111.
     DOI: 10.1063/5.0137838
   
   with help from (in alphabetical order)
   P. Atkinson, C. Bannwarth, F. Bohle, G. Brandenburg, E. Caldeweyher
   M. Checinski, S. Dohm, S. Ehlert, S. Ehrlich, I. Gerasimov, C. Hölzer
   A. Katbashev, J. Kohn, J. Koopman, C. Lavigne, S. Lehtola, F. März, M. Müller,
   F. Musil, H. Neugebauer, J. Pisarek, C. Plett, P. Pracht, F. Pultar,
   J. Seibert, P. Shushkov, S. Spicher, M. Stahn, M. Steiner, T. Strunk,
   J. Stückrath, T. Rose, and J. Unsleber
   
 * started run on 2025/08/25 at 19:33:21.361     
   ID    Z sym.   atoms
    1    6 C      1-5, 7-11, 13-16, 18-34, 36-52, 54, 56-60
    2    7 N      6, 12, 17, 35, 53, 55, 61
    3    1 H      62-108

           -------------------------------------------------
          |                Calculation Setup                |
           -------------------------------------------------

          program call               : xtb data2507/toluene/DTPTCzDP-CN/DTPTCzDP-CN_toluene_S0_finalOpt.xtbopt.xyz --gfn 2 --uhf 2 --gbsa toluene --ohess vtight --parallel 40 --molden --ceasefiles --namespace data2507/toluene/DTPTCzDP-CN/DTPTCzDP-CN_toluene_T1_preOpt
          calculation namespace      : data2507/toluene/DTPTCzDP-CN/DTPTCzDP-CN_toluene_T1_preOpt
          coordinate file            : data2507/toluene/DTPTCzDP-CN/DTPTCzDP-CN_toluene_S0_finalOpt.xtbopt.xyz
          omp threads                :                    40


           -------------------------------------------------
          |                 G F N 2 - x T B                 |
           -------------------------------------------------

        Reference                      10.1021/acs.jctc.8b01176
      * Hamiltonian:
        H0-scaling (s, p, d)           1.850000    2.230000    2.230000
        zeta-weighting                 0.500000
      * Dispersion:
        s8                             2.700000
        a1                             0.520000
        a2                             5.000000
        s9                             5.000000
      * Repulsion:
        kExp                           1.500000    1.000000
        rExp                           1.000000
      * Coulomb:
        alpha                          2.000000
        third order                    shell-resolved
        anisotropic                    true
        a3                             3.000000
        a5                             4.000000
        cn-shift                       1.200000
        cn-exp                         4.000000
        max-rad                        5.000000

      * Solvation model:               GBSA
        Solvent                        toluene
        Parameter file                 internal GFN2-xTB/GBSA
        Dielectric constant                7.0000E+00
        Reference state                gsolv [1 M gas/solution]
        Free energy shift                  4.5239E-03 Eh       2.8388E+00 kcal/mol
        Temperature                        2.9815E+02 K
        Density                            8.6700E-01 kg/L
        Solvent mass                       9.2140E+01 g/mol
        Interaction kernel             Still
        Born radius scaling (c1)           1.5686E+00
        Born radii integrator          GBOBC
        Born offset                        0.0000E+00 a0       0.0000E+00 AA
        H-bond correction              false
        Ion screening                  false
        Surface tension                    1.0000E-05 Eh       1.5569E+01 dyn/cm
        Grid points                               230 per atom

          ...................................................
          :                      SETUP                      :
          :.................................................:
          :  # basis functions                 291          :
          :  # atomic orbitals                 291          :
          :  # shells                          169          :
          :  # electrons                       298          :
          :  max. iterations                   250          :
          :  Hamiltonian                  GFN2-xTB          :
          :  restarted?                      false          :
          :  GBSA solvation                   true          :
          :  PC potential                    false          :
          :  electronic temp.          300.0000000     K    :
          :  accuracy                    1.0000000          :
          :  -> integral cutoff          0.2500000E+02      :
          :  -> integral neglect         0.1000000E-07      :
          :  -> SCF convergence          0.1000000E-05 Eh   :
          :  -> wf. convergence          0.1000000E-03 e    :
          :  Broyden damping             0.4000000          :
          :  net charge                          0          :
          :  unpaired electrons                  2          :
          ...................................................

 iter      E             dE          RMSdq      gap      omega  full diag
   1   -162.8164006 -0.162816E+03  0.393E+00    0.42       0.0  T
   2   -162.7054933  0.110907E+00  0.241E+00    0.19       1.0  T
   3   -160.3247006  0.238079E+01  0.315E+00    0.29       1.0  T
   4   -162.7417220 -0.241702E+01  0.125E+00    0.51       1.0  T
   5   -162.9434043 -0.201682E+00  0.696E-01    0.56       1.0  T
   6   -162.9848645 -0.414602E-01  0.426E-01    0.41       1.0  T
   7   -162.9891101 -0.424566E-02  0.283E-01    0.25       1.0  T
   8   -162.8984407  0.906695E-01  0.565E-01    0.19       1.0  T
   9   -162.9896322 -0.911916E-01  0.227E-01    0.32       1.0  T
  10   -162.9947621 -0.512989E-02  0.108E-01    0.26       1.0  T
  11   -162.9948802 -0.118096E-03  0.723E-02    0.26       1.0  T
  12   -162.9955611 -0.680866E-03  0.277E-02    0.25       1.0  T
  13   -162.9952102  0.350865E-03  0.418E-02    0.24       1.0  T
  14   -162.9956727 -0.462484E-03  0.129E-02    0.25       1.0  T
  15   -162.9956984 -0.256690E-04  0.661E-03    0.25       1.5  T
  16   -162.9957033 -0.487617E-05  0.372E-03    0.25       2.6  T
  17   -162.9957060 -0.274821E-05  0.109E-03    0.25       8.8  T
  18   -162.9957062 -0.144646E-06  0.554E-04    0.25      17.4  T
  19   -162.9957061  0.632170E-08  0.445E-04    0.25      21.6  T

   *** convergence criteria satisfied after 19 iterations ***

         #    Occupation            Energy/Eh            Energy/eV
      -------------------------------------------------------------
         1        2.0000           -0.6888651             -18.7450
       ...           ...                  ...                  ...
       144        2.0000           -0.3967905             -10.7972
       145        2.0000           -0.3836758             -10.4404
       146        1.9998           -0.3640795              -9.9071
       147        1.9277           -0.3583259              -9.7505
       148        1.9260           -0.3583027              -9.7499
       149        1.1465           -0.3542275              -9.6390
       150        0.9923           -0.2690639              -7.3216 (HOMO)
       151        0.0077           -0.2598421              -7.0707 (LUMO)
       152        0.0000           -0.2538067              -6.9064
       153                         -0.2437329              -6.6323
       154                         -0.2436138              -6.6291
       155                         -0.2409406              -6.5563
       ...                                ...                  ...
       291                          1.1716332              31.8818
      -------------------------------------------------------------
                  HL-Gap            0.0092218 Eh            0.2509 eV
             Fermi-level           -0.3101779 Eh           -8.4404 eV
 
 transition dipole moment (au) for excitation:         149         150
     X       Y       Z   
  -1.6592  -0.0388  -0.0048  total (au/Debye):    1.660   4.219
 dE (eV)             :    2.317
 oscillator strength :  0.22117E+00

 SCC (total)                   0 d,  0 h,  0 min,  0.414 sec
 SCC setup                      ...        0 min,  0.006 sec (  1.350%)
 Dispersion                     ...        0 min,  0.009 sec (  2.249%)
 classical contributions        ...        0 min,  0.000 sec (  0.070%)
 integral evaluation            ...        0 min,  0.012 sec (  2.823%)
 iterations                     ...        0 min,  0.335 sec ( 80.798%)
 molecular gradient             ...        0 min,  0.018 sec (  4.266%)
 printout                       ...        0 min,  0.035 sec (  8.425%)

         :::::::::::::::::::::::::::::::::::::::::::::::::::::
         ::                     SUMMARY                     ::
         :::::::::::::::::::::::::::::::::::::::::::::::::::::
         :: total energy            -160.139387555505 Eh    ::
         :: total w/o Gsasa/hb      -160.076744642601 Eh    ::
         :: gradient norm              0.092363448670 Eh/a0 ::
         :: HOMO-LUMO gap              0.250939113745 eV    ::
         ::.................................................::
         :: SCC energy              -162.995239528181 Eh    ::
         :: -> isotropic ES            0.085734884587 Eh    ::
         :: -> anisotropic ES          0.011385286746 Eh    ::
         :: -> anisotropic XC          0.108837350700 Eh    ::
         :: -> dispersion             -0.145940011649 Eh    ::
         :: -> Gsolv                  -0.082896304244 Eh    ::
         ::    -> Gelec               -0.020253391340 Eh    ::
         ::    -> Gsasa               -0.067166792775 Eh    ::
         ::    -> Ghb                  0.000000000000 Eh    ::
         ::    -> Gshift               0.004523879872 Eh    ::
         :: repulsion energy           2.855851972677 Eh    ::
         :: add. restraining           0.000000000000 Eh    ::
         :: total charge              -0.000000000002 e     ::
         :::::::::::::::::::::::::::::::::::::::::::::::::::::

      ----------------------------------------------------------- 
     |                   =====================                   |
     |                        A N C O P T                        |
     |                   =====================                   |
     |               Approximate Normal Coordinate               |
     |                Rational Function Optimizer                |
      ----------------------------------------------------------- 

Optimization log is written to '/dev/null'
      ----------------------------------------------------------- 
     |                   =====================                   |
     |                        A N C O P T                        |
     |                   =====================                   |
     |               Approximate Normal Coordinate               |
     |                Rational Function Optimizer                |
      ----------------------------------------------------------- 

          ...................................................
          :                      SETUP                      :
          :.................................................:
          :   optimization level         verytight          :
          :   max. optcycles                  2160          :
          :   ANC micro-cycles                  20          :
          :   degrees of freedom               318          :
          :.................................................:
          :   RF solver                   davidson          :
          :   write xtbopt.log                true          :
          :   linear?                        false          :
          :   energy convergence         0.1000000E-06 Eh   :
          :   grad. convergence          0.2000000E-03 Eh/α :
          :   maxmium RF displ.          1.0000000          :
          :   Hlow (freq-cutoff)         0.1000000E-01      :
          :   Hmax (freq-cutoff)         5.0000000          :
          :   S6 in model hess.         20.0000000          :
          ...................................................

generating ANC from exact Hessian ...
Using Lindh-Hessian (1995)
 Shifting diagonal of input Hessian by   9.943818705788197E-003
 Lowest  eigenvalues of input Hessian
    0.000000    0.000000    0.000000    0.000000    0.000000    0.000000
    0.010000    0.010002    0.010044    0.010063    0.010072    0.010217
    0.010391    0.010471    0.010581    0.010617    0.010797    0.010959
 Highest eigenvalues
    2.173342    2.191425    2.197367    2.203705    2.235111    2.624941
 

........................................................................
.............................. CYCLE    1 ..............................
........................................................................

 iter      E             dE          RMSdq      gap      omega  full diag
   1   -162.9957062 -0.162996E+03  0.255E-04    0.25       0.0  T
   2   -162.9957055  0.702148E-06  0.151E-03    0.25       6.4  T
   3   -162.9957062 -0.710798E-06  0.166E-04    0.25      58.0  T
   4   -162.9957062 -0.682502E-08  0.543E-05    0.25     177.4  T
     SCC iter.                  ...        0 min,  0.066 sec
     gradient                   ...        0 min,  0.018 sec
 * total energy  :  -160.1393876 Eh     change       -0.4528320E-07 Eh
   gradient norm :     0.0923543 Eh/α   predicted     0.0000000E+00 (-100.00%)
   displ. norm   :     0.1160585 α      lambda       -0.5154490E-02
   maximum displ.:     0.0323226 α      in ANC's #167, #314, #74, ...

........................................................................
.............................. CYCLE    2 ..............................
........................................................................

 iter      E             dE          RMSdq      gap      omega  full diag
   1   -162.9822291 -0.162982E+03  0.991E-02    0.37       0.0  T
   2   -162.8672629  0.114966E+00  0.625E-01    0.19       1.0  T
   3   -162.9844791 -0.117216E+00  0.341E-02    0.32       1.0  T
   4   -162.9844705  0.859966E-05  0.263E-02    0.32       1.0  T
   5   -162.9843895  0.810360E-04  0.284E-02    0.31       1.0  T
   6   -162.9845427 -0.153185E-03  0.118E-02    0.31       1.0  T
   7   -162.9845654 -0.227182E-04  0.362E-03    0.31       2.7  T
   8   -162.9845674 -0.199103E-05  0.171E-03    0.32       5.6  T
   9   -162.9845675 -0.811245E-07  0.118E-03    0.32       8.2  T
  10   -162.9845676 -0.133648E-06  0.677E-04    0.32      14.2  T
  11   -162.9845677 -0.583782E-07  0.301E-04    0.32      32.0  T
     SCC iter.                  ...        0 min,  0.163 sec
     gradient                   ...        0 min,  0.017 sec
 * total energy  :  -160.1430798 Eh     change       -0.3692205E-02 Eh
   gradient norm :     0.0467876 Eh/α   predicted    -0.2612036E-02 ( -29.26%)
   displ. norm   :     0.1253649 α      lambda       -0.2433476E-02
   maximum displ.:     0.0505718 α      in ANC's #27, #56, #23, ...

........................................................................
.............................. CYCLE    3 ..............................
........................................................................

 iter      E             dE          RMSdq      gap      omega  full diag
   1   -162.9840522 -0.162984E+03  0.887E-02    0.44       0.0  T
   2   -162.9011046  0.829476E-01  0.557E-01    0.31       1.0  T
   3   -162.9850990 -0.839944E-01  0.454E-02    0.41       1.0  T
   4   -162.9851405 -0.415261E-04  0.402E-02    0.40       1.0  T
   5   -162.9848785  0.262019E-03  0.427E-02    0.42       1.0  T
   6   -162.9852685 -0.389956E-03  0.119E-02    0.40       1.0  T
   7   -162.9852942 -0.257515E-04  0.663E-03    0.40       1.5  T
   8   -162.9852986 -0.435692E-05  0.382E-03    0.40       2.5  T
   9   -162.9853001 -0.153983E-05  0.222E-03    0.40       4.3  T
  10   -162.9853006 -0.527549E-06  0.803E-04    0.40      12.0  T
  11   -162.9853007 -0.456962E-07  0.286E-04    0.40      33.7  T
     SCC iter.                  ...        0 min,  0.175 sec
     gradient                   ...        0 min,  0.017 sec
 * total energy  :  -160.1443880 Eh     change       -0.1308186E-02 Eh
   gradient norm :     0.0105126 Eh/α   predicted    -0.1235865E-02 (  -5.53%)
   displ. norm   :     0.0874520 α      lambda       -0.2484171E-03
   maximum displ.:     0.0390766 α      in ANC's #14, #24, #31, ...

........................................................................
.............................. CYCLE    4 ..............................
........................................................................

 iter      E             dE          RMSdq      gap      omega  full diag
   1   -162.9872068 -0.162987E+03  0.659E-02    0.42       0.0  T
   2   -162.9868648  0.341999E-03  0.660E-02    0.42       1.0  T
   3   -162.9870487 -0.183981E-03  0.491E-02    0.42       1.0  T
   4   -162.9853115  0.173723E-02  0.810E-02    0.45       1.0  T
   5   -162.9872724 -0.196093E-02  0.120E-02    0.42       1.0  T
   6   -162.9872831 -0.106569E-04  0.747E-03    0.42       1.3  T
   7   -162.9872949 -0.117782E-04  0.292E-03    0.42       3.3  T
   8   -162.9872968 -0.195340E-05  0.103E-03    0.42       9.3  T
   9   -162.9872967  0.127215E-06  0.101E-03    0.42       9.5  T
  10   -162.9872970 -0.272829E-06  0.219E-04    0.42      43.9  T
  11   -162.9872970 -0.474006E-08  0.102E-04    0.42      93.9  T
     SCC iter.                  ...        0 min,  0.166 sec
     gradient                   ...        0 min,  0.017 sec
 * total energy  :  -160.1445141 Eh     change       -0.1260927E-03 Eh
   gradient norm :     0.0070671 Eh/α   predicted    -0.1252479E-03 (  -0.67%)
   displ. norm   :     0.1006604 α      lambda       -0.2077891E-03
   maximum displ.:     0.0453083 α      in ANC's #27, #14, #24, ...

........................................................................
.............................. CYCLE    5 ..............................
........................................................................

 iter      E             dE          RMSdq      gap      omega  full diag
   1   -162.9896744 -0.162990E+03  0.558E-02    0.43       0.0  T
   2   -162.9867011  0.297331E-02  0.116E-01    0.46       1.0  T
   3   -162.9846111  0.208997E-02  0.135E-01    0.41       1.0  T
   4   -162.9897325 -0.512142E-02  0.293E-02    0.43       1.0  T
   5   -162.9897291  0.338725E-05  0.228E-02    0.44       1.0  T
   6   -162.9898743 -0.145132E-03  0.552E-03    0.43       1.7  T
   7   -162.9898778 -0.355852E-05  0.269E-03    0.43       3.6  T
   8   -162.9898784 -0.569370E-06  0.182E-03    0.43       5.3  T
   9   -162.9898789 -0.491951E-06  0.986E-04    0.43       9.8  T
  10   -162.9898791 -0.188962E-06  0.213E-04    0.43      45.2  T
     SCC iter.                  ...        0 min,  0.153 sec
     gradient                   ...        0 min,  0.017 sec
 * total energy  :  -160.1446352 Eh     change       -0.1211294E-03 Eh
   gradient norm :     0.0046157 Eh/α   predicted    -0.1049562E-03 ( -13.35%)
   displ. norm   :     0.0663130 α      lambda       -0.5080086E-04
   maximum displ.:     0.0362019 α      in ANC's #14, #17, #27, ...

........................................................................
.............................. CYCLE    6 ..............................
........................................................................

 iter      E             dE          RMSdq      gap      omega  full diag
   1   -162.9897531 -0.162990E+03  0.229E-02    0.42       0.0  T
   2   -162.9879364  0.181671E-02  0.842E-02    0.45       1.0  T
   3   -162.9896182 -0.168177E-02  0.261E-02    0.42       1.0  T
   4   -162.9897534 -0.135167E-03  0.158E-02    0.43       1.0  T
   5   -162.9897997 -0.463193E-04  0.493E-03    0.43       2.0  T
   6   -162.9898059 -0.623951E-05  0.119E-03    0.42       8.1  T
   7   -162.9898061 -0.153664E-06  0.572E-04    0.42      16.8  T
   8   -162.9898061 -0.386734E-07  0.267E-04    0.42      36.1  T
     SCC iter.                  ...        0 min,  0.121 sec
     gradient                   ...        0 min,  0.017 sec
 * total energy  :  -160.1446722 Eh     change       -0.3696595E-04 Eh
   gradient norm :     0.0022798 Eh/α   predicted    -0.2553312E-04 ( -30.93%)
   displ. norm   :     0.1006264 α      lambda       -0.4293769E-04
   maximum displ.:     0.0594141 α      in ANC's #14, #17, #27, ...

........................................................................
.............................. CYCLE    7 ..............................
........................................................................

 iter      E             dE          RMSdq      gap      omega  full diag
   1   -162.9890405 -0.162989E+03  0.264E-02    0.42       0.0  T
   2   -162.9881496  0.890924E-03  0.609E-02    0.43       1.0  T
   3   -162.9886557 -0.506099E-03  0.388E-02    0.41       1.0  T
   4   -162.9888908 -0.235095E-03  0.265E-02    0.43       1.0  T
   5   -162.9890533 -0.162522E-03  0.642E-03    0.42       1.5  T
   6   -162.9890606 -0.730178E-05  0.348E-03    0.42       2.8  T
   7   -162.9890634 -0.280196E-05  0.147E-03    0.42       6.6  T
   8   -162.9890640 -0.564163E-06  0.303E-04    0.42      31.7  T
   9   -162.9890640 -0.572888E-08  0.159E-04    0.42      60.6  T
     SCC iter.                  ...        0 min,  0.136 sec
     gradient                   ...        0 min,  0.017 sec
 * total energy  :  -160.1447026 Eh     change       -0.3039941E-04 Eh
   gradient norm :     0.0023255 Eh/α   predicted    -0.2169448E-04 ( -28.64%)
   displ. norm   :     0.0928578 α      lambda       -0.2697106E-04
   maximum displ.:     0.0552411 α      in ANC's #14, #17, #27, ...

........................................................................
.............................. CYCLE    8 ..............................
........................................................................

 iter      E             dE          RMSdq      gap      omega  full diag
   1   -162.9884629 -0.162988E+03  0.223E-02    0.42       0.0  T
   2   -162.9884433  0.196183E-04  0.152E-02    0.42       1.0  T
   3   -162.9870736  0.136972E-02  0.701E-02    0.44       1.0  T
   4   -162.9884567 -0.138310E-02  0.678E-03    0.42       1.4  T
   5   -162.9884625 -0.583924E-05  0.260E-03    0.42       3.7  T
   6   -162.9884630 -0.436757E-06  0.179E-03    0.42       5.4  T
   7   -162.9884638 -0.870125E-06  0.377E-04    0.42      25.5  T
   8   -162.9884638  0.450700E-07  0.492E-04    0.42      19.6  T
     SCC iter.                  ...        0 min,  0.124 sec
     gradient                   ...        0 min,  0.017 sec
 * total energy  :  -160.1447232 Eh     change       -0.2066409E-04 Eh
   gradient norm :     0.0023215 Eh/α   predicted    -0.1360428E-04 ( -34.16%)
   displ. norm   :     0.1038636 α      lambda       -0.2489927E-04
   maximum displ.:     0.0609627 α      in ANC's #14, #17, #3, ...

........................................................................
.............................. CYCLE    9 ..............................
........................................................................

 iter      E             dE          RMSdq      gap      omega  full diag
   1   -162.9882353 -0.162988E+03  0.261E-02    0.42       0.0  T
   2   -162.9870525  0.118281E-02  0.684E-02    0.41       1.0  T
   3   -162.9879237 -0.871201E-03  0.361E-02    0.43       1.0  T
   4   -162.9881061 -0.182331E-03  0.262E-02    0.41       1.0  T
   5   -162.9882465 -0.140415E-03  0.526E-03    0.42       1.8  T
   6   -162.9882478 -0.136736E-05  0.398E-03    0.42       2.4  T
   7   -162.9882515 -0.368366E-05  0.158E-03    0.42       6.1  T
   8   -162.9882521 -0.607164E-06  0.424E-04    0.42      22.7  T
   9   -162.9882521  0.348054E-07  0.452E-04    0.42      21.3  T
     SCC iter.                  ...        0 min,  0.141 sec
     gradient                   ...        0 min,  0.019 sec
 * total energy  :  -160.1447417 Eh     change       -0.1843917E-04 Eh
   gradient norm :     0.0017829 Eh/α   predicted    -0.1258525E-04 ( -31.75%)
   displ. norm   :     0.1376054 α      lambda       -0.1612146E-04
   maximum displ.:     0.0797136 α      in ANC's #14, #17, #3, ...

........................................................................
.............................. CYCLE   10 ..............................
........................................................................

 iter      E             dE          RMSdq      gap      omega  full diag
   1   -162.9885279 -0.162989E+03  0.350E-02    0.42       0.0  T
   2   -162.9843872  0.414073E-02  0.127E-01    0.39       1.0  T
   3   -162.9881423 -0.375516E-02  0.419E-02    0.43       1.0  T
   4   -162.9883104 -0.168053E-03  0.371E-02    0.41       1.0  T
   5   -162.9885671 -0.256763E-03  0.817E-03    0.42       1.2  T
   6   -162.9885705 -0.337761E-05  0.631E-03    0.42       1.5  T
   7   -162.9885790 -0.849761E-05  0.303E-03    0.42       3.2  T
   8   -162.9885810 -0.197826E-05  0.118E-03    0.42       8.1  T
   9   -162.9885811 -0.143783E-06  0.552E-04    0.42      17.4  T
  10   -162.9885812 -0.657700E-07  0.240E-04    0.42      40.0  T
     SCC iter.                  ...        0 min,  0.150 sec
     gradient                   ...        0 min,  0.018 sec
 * total energy  :  -160.1447552 Eh     change       -0.1349046E-04 Eh
   gradient norm :     0.0011749 Eh/α   predicted    -0.8130775E-05 ( -39.73%)
   displ. norm   :     0.0344732 α      lambda       -0.4264253E-05
   maximum displ.:     0.0160973 α      in ANC's #3, #14, #6, ...

........................................................................
.............................. CYCLE   11 ..............................
........................................................................

 iter      E             dE          RMSdq      gap      omega  full diag
   1   -162.9891213 -0.162989E+03  0.714E-03    0.42       0.0  T
   2   -162.9890671  0.541499E-04  0.151E-02    0.41       1.0  T
   3   -162.9890892 -0.220884E-04  0.112E-02    0.42       1.0  T
   4   -162.9891102 -0.209956E-04  0.763E-03    0.41       1.3  T
   5   -162.9891222 -0.119821E-04  0.101E-03    0.42       9.5  T
   6   -162.9891224 -0.248048E-06  0.292E-04    0.42      33.0  T
   7   -162.9891224 -0.522778E-08  0.179E-04    0.42      53.8  T
     SCC iter.                  ...        0 min,  0.101 sec
     gradient                   ...        0 min,  0.017 sec
 * total energy  :  -160.1447602 Eh     change       -0.4997740E-05 Eh
   gradient norm :     0.0006392 Eh/α   predicted    -0.2135584E-05 ( -57.27%)
   displ. norm   :     0.0598593 α      lambda       -0.5149659E-05
   maximum displ.:     0.0305205 α      in ANC's #3, #14, #6, ...

........................................................................
.............................. CYCLE   12 ..............................
........................................................................

 iter      E             dE          RMSdq      gap      omega  full diag
   1   -162.9893463 -0.162989E+03  0.110E-02    0.42       0.0  T
   2   -162.9893310  0.152305E-04  0.975E-03    0.41       1.0  T
   3   -162.9890329  0.298112E-03  0.335E-02    0.42       1.0  T
   4   -162.9893426 -0.309644E-03  0.493E-03    0.42       2.0  T
   5   -162.9893463 -0.375274E-05  0.122E-03    0.42       7.9  T
   6   -162.9893467 -0.340547E-06  0.416E-04    0.42      23.1  T
   7   -162.9893467 -0.909100E-08  0.262E-04    0.42      36.7  T
     SCC iter.                  ...        0 min,  0.104 sec
     gradient                   ...        0 min,  0.017 sec
 * total energy  :  -160.1447654 Eh     change       -0.5249952E-05 Eh
   gradient norm :     0.0007332 Eh/α   predicted    -0.2579847E-05 ( -50.86%)
   displ. norm   :     0.0487290 α      lambda       -0.2650336E-05
   maximum displ.:     0.0279818 α      in ANC's #3, #6, #1, ...

........................................................................
.............................. CYCLE   13 ..............................
........................................................................

 iter      E             dE          RMSdq      gap      omega  full diag
   1   -162.9895196 -0.162990E+03  0.720E-03    0.42       0.0  T
   2   -162.9895076  0.120089E-04  0.826E-03    0.42       1.2  T
   3   -162.9894312  0.764366E-04  0.180E-02    0.41       1.0  T
   4   -162.9895006 -0.693821E-04  0.863E-03    0.42       1.1  T
   5   -162.9895199 -0.192968E-04  0.888E-04    0.42      10.8  T
   6   -162.9895200 -0.146701E-06  0.342E-04    0.42      28.1  T
   7   -162.9895200 -0.188413E-07  0.149E-04    0.42      64.8  T
     SCC iter.                  ...        0 min,  0.104 sec
     gradient                   ...        0 min,  0.017 sec
 * total energy  :  -160.1447685 Eh     change       -0.3061831E-05 Eh
   gradient norm :     0.0008231 Eh/α   predicted    -0.1327516E-05 ( -56.64%)
   displ. norm   :     0.0551773 α      lambda       -0.2869651E-05
   maximum displ.:     0.0332895 α      in ANC's #3, #6, #1, ...

........................................................................
.............................. CYCLE   14 ..............................
........................................................................

 iter      E             dE          RMSdq      gap      omega  full diag
   1   -162.9893466 -0.162989E+03  0.746E-03    0.42       0.0  T
   2   -162.9892644  0.822638E-04  0.186E-02    0.42       1.0  T
   3   -162.9893125 -0.481460E-04  0.115E-02    0.41       1.0  T
   4   -162.9893363 -0.237985E-04  0.738E-03    0.42       1.3  T
   5   -162.9893485 -0.121565E-04  0.886E-04    0.42      10.9  T
   6   -162.9893486 -0.149591E-06  0.364E-04    0.42      26.4  T
   7   -162.9893486 -0.208067E-07  0.211E-04    0.42      45.6  T
     SCC iter.                  ...        0 min,  0.103 sec
     gradient                   ...        0 min,  0.017 sec
 * total energy  :  -160.1447720 Eh     change       -0.3482456E-05 Eh
   gradient norm :     0.0004610 Eh/α   predicted    -0.1438906E-05 ( -58.68%)
   displ. norm   :     0.0719690 α      lambda       -0.3659917E-05
   maximum displ.:     0.0435868 α      in ANC's #3, #6, #1, ...

........................................................................
.............................. CYCLE   15 ..............................
........................................................................

 iter      E             dE          RMSdq      gap      omega  full diag
   1   -162.9892380 -0.162989E+03  0.760E-03    0.42       0.0  T
   2   -162.9891819  0.560463E-04  0.160E-02    0.42       1.0  T
   3   -162.9891848 -0.290296E-05  0.141E-02    0.41       1.0  T
   4   -162.9892264 -0.416011E-04  0.756E-03    0.42       1.3  T
   5   -162.9892395 -0.130422E-04  0.111E-03    0.42       8.7  T
   6   -162.9892397 -0.236674E-06  0.451E-04    0.42      21.3  T
   7   -162.9892397 -0.364422E-07  0.231E-04    0.42      41.6  T
     SCC iter.                  ...        0 min,  0.099 sec
     gradient                   ...        0 min,  0.017 sec
 * total energy  :  -160.1447765 Eh     change       -0.4518841E-05 Eh
   gradient norm :     0.0006288 Eh/α   predicted    -0.1834964E-05 ( -59.39%)
   displ. norm   :     0.0957926 α      lambda       -0.4438042E-05
   maximum displ.:     0.0579541 α      in ANC's #3, #6, #1, ...

........................................................................
.............................. CYCLE   16 ..............................
........................................................................

 iter      E             dE          RMSdq      gap      omega  full diag
   1   -162.9889639 -0.162989E+03  0.797E-03    0.42       0.0  T
   2   -162.9889525  0.114089E-04  0.855E-03    0.42       1.1  T
   3   -162.9888547  0.978510E-04  0.202E-02    0.41       1.0  T
   4   -162.9889378 -0.831711E-04  0.101E-02    0.42       1.0  T
   5   -162.9889644 -0.265686E-04  0.550E-04    0.42      17.5  T
   6   -162.9889644  0.357249E-07  0.517E-04    0.42      18.6  T
   7   -162.9889644 -0.666272E-07  0.185E-04    0.42      51.9  T
     SCC iter.                  ...        0 min,  0.106 sec
     gradient                   ...        0 min,  0.018 sec
 * total energy  :  -160.1447821 Eh     change       -0.5641194E-05 Eh
   gradient norm :     0.0008868 Eh/α   predicted    -0.2232340E-05 ( -60.43%)
   displ. norm   :     0.1194967 α      lambda       -0.5138683E-05
   maximum displ.:     0.0724244 α      in ANC's #3, #6, #1, ...

........................................................................
.............................. CYCLE   17 ..............................
........................................................................

 iter      E             dE          RMSdq      gap      omega  full diag
   1   -162.9888040 -0.162989E+03  0.962E-03    0.42       0.0  T
   2   -162.9887872  0.167375E-04  0.963E-03    0.42       1.0  T
   3   -162.9886077  0.179512E-03  0.266E-02    0.42       1.0  T
   4   -162.9888009 -0.193170E-03  0.428E-03    0.42       2.2  T
   5   -162.9888042 -0.333980E-05  0.766E-04    0.42      12.6  T
   6   -162.9888042 -0.129724E-07  0.488E-04    0.42      19.7  T
   7   -162.9888043 -0.582585E-07  0.142E-04    0.42      67.7  T
     SCC iter.                  ...        0 min,  0.102 sec
     gradient                   ...        0 min,  0.017 sec
 * total energy  :  -160.1447887 Eh     change       -0.6575335E-05 Eh
   gradient norm :     0.0008767 Eh/α   predicted    -0.2587506E-05 ( -60.65%)
   displ. norm   :     0.1374419 α      lambda       -0.5353401E-05
   maximum displ.:     0.0841808 α      in ANC's #3, #6, #1, ...

........................................................................
.............................. CYCLE   18 ..............................
........................................................................

 iter      E             dE          RMSdq      gap      omega  full diag
   1   -162.9887374 -0.162989E+03  0.113E-02    0.42       0.0  T
   2   -162.9886266  0.110857E-03  0.215E-02    0.41       1.0  T
   3   -162.9886474 -0.208401E-04  0.187E-02    0.42       1.0  T
   4   -162.9887077 -0.602793E-04  0.116E-02    0.41       1.0  T
   5   -162.9887392 -0.315192E-04  0.105E-03    0.42       9.2  T
   6   -162.9887392 -0.969715E-08  0.674E-04    0.42      14.3  T
   7   -162.9887393 -0.116605E-06  0.216E-04    0.42      44.5  T
     SCC iter.                  ...        0 min,  0.103 sec
     gradient                   ...        0 min,  0.017 sec
 * total energy  :  -160.1447954 Eh     change       -0.6737743E-05 Eh
   gradient norm :     0.0006262 Eh/α   predicted    -0.2700110E-05 ( -59.93%)
   displ. norm   :     0.1316215 α      lambda       -0.4541290E-05
   maximum displ.:     0.0820279 α      in ANC's #3, #6, #1, ...

........................................................................
.............................. CYCLE   19 ..............................
........................................................................

 iter      E             dE          RMSdq      gap      omega  full diag
   1   -162.9887839 -0.162989E+03  0.115E-02    0.42       0.0  T
   2   -162.9885596  0.224218E-03  0.299E-02    0.41       1.0  T
   3   -162.9887259 -0.166233E-03  0.155E-02    0.42       1.0  T
   4   -162.9887533 -0.274525E-04  0.123E-02    0.41       1.0  T
   5   -162.9887873 -0.339427E-04  0.121E-03    0.42       8.0  T
   6   -162.9887874 -0.109095E-06  0.643E-04    0.42      15.0  T
   7   -162.9887875 -0.925690E-07  0.295E-04    0.42      32.6  T
     SCC iter.                  ...        0 min,  0.104 sec
     gradient                   ...        0 min,  0.017 sec
 * total energy  :  -160.1448012 Eh     change       -0.5760386E-05 Eh
   gradient norm :     0.0003634 Eh/α   predicted    -0.2289281E-05 ( -60.26%)
   displ. norm   :     0.1139074 α      lambda       -0.3736956E-05
   maximum displ.:     0.0721565 α      in ANC's #3, #1, #6, ...

........................................................................
.............................. CYCLE   20 ..............................
........................................................................

 iter      E             dE          RMSdq      gap      omega  full diag
   1   -162.9889035 -0.162989E+03  0.103E-02    0.42       0.0  T
   2   -162.9887490  0.154530E-03  0.248E-02    0.41       1.0  T
   3   -162.9888556 -0.106590E-03  0.140E-02    0.42       1.0  T
   4   -162.9888801 -0.245442E-04  0.106E-02    0.41       1.0  T
   5   -162.9889058 -0.257140E-04  0.991E-04    0.42       9.7  T
   6   -162.9889059 -0.103935E-06  0.491E-04    0.42      19.6  T
   7   -162.9889060 -0.445611E-07  0.283E-04    0.42      34.0  T
     SCC iter.                  ...        0 min,  0.103 sec
     gradient                   ...        0 min,  0.017 sec
 * total energy  :  -160.1448061 Eh     change       -0.4868354E-05 Eh
   gradient norm :     0.0003616 Eh/α   predicted    -0.1882173E-05 ( -61.34%)
   displ. norm   :     0.1089108 α      lambda       -0.3631084E-05
   maximum displ.:     0.0698420 α      in ANC's #3, #1, #6, ...
 * RMSD in coord.:     0.1303260 α      energy gain  -0.5418511E-02 Eh

generating ANC from exact Hessian ...
Using Lindh-Hessian (1995)
 Shifting diagonal of input Hessian by   9.945046929031608E-003
 Lowest  eigenvalues of input Hessian
    0.000000    0.000000    0.000000    0.000000    0.000000    0.000000
    0.010000    0.010002    0.010045    0.010066    0.010074    0.010220
    0.010406    0.010485    0.010593    0.010619    0.010773    0.010970
 Highest eigenvalues
    2.154394    2.172569    2.214174    2.216493    2.235317    2.622843
 

........................................................................
.............................. CYCLE   21 ..............................
........................................................................

 iter      E             dE          RMSdq      gap      omega  full diag
   1   -162.9890489 -0.162989E+03  0.105E-02    0.42       0.0  T
   2   -162.9889519  0.969327E-04  0.199E-02    0.41       1.0  T
   3   -162.9889820 -0.300579E-04  0.162E-02    0.42       1.0  T
   4   -162.9890350 -0.530316E-04  0.818E-03    0.41       1.2  T
   5   -162.9890504 -0.153403E-04  0.669E-04    0.42      14.4  T
   6   -162.9890504  0.183763E-08  0.480E-04    0.42      20.1  T
   7   -162.9890504 -0.367714E-07  0.294E-04    0.42      32.7  T
     SCC iter.                  ...        0 min,  0.104 sec
     gradient                   ...        0 min,  0.017 sec
 * total energy  :  -160.1448108 Eh     change       -0.4770631E-05 Eh
   gradient norm :     0.0004384 Eh/α   predicted     0.0000000E+00 (-100.00%)
   displ. norm   :     0.0134678 α      lambda       -0.8016053E-06
   maximum displ.:     0.0078858 α      in ANC's #3, #15, #24, ...

........................................................................
.............................. CYCLE   22 ..............................
........................................................................

 iter      E             dE          RMSdq      gap      omega  full diag
   1   -162.9890144 -0.162989E+03  0.327E-03    0.42       0.0  T
   2   -162.9889865  0.278943E-04  0.105E-02    0.42       1.0  T
   3   -162.9890092 -0.226521E-04  0.467E-03    0.42       2.1  T
   4   -162.9890137 -0.456046E-05  0.259E-03    0.42       3.7  T
   5   -162.9890150 -0.123817E-05  0.380E-04    0.42      25.3  T
   6   -162.9890150 -0.310879E-07  0.108E-04    0.42      89.1  T
   7   -162.9890150 -0.935131E-09  0.716E-05    0.42     134.5  T
     SCC iter.                  ...        0 min,  0.105 sec
     gradient                   ...        0 min,  0.017 sec
 * total energy  :  -160.1448123 Eh     change       -0.1510127E-05 Eh
   gradient norm :     0.0002292 Eh/α   predicted    -0.5649039E-06 ( -62.59%)
   displ. norm   :     0.0629809 α      lambda       -0.4216199E-05
   maximum displ.:     0.0331456 α      in ANC's #3, #15, #17, ...

........................................................................
.............................. CYCLE   23 ..............................
........................................................................

 iter      E             dE          RMSdq      gap      omega  full diag
   1   -162.9889758 -0.162989E+03  0.143E-02    0.42       0.0  T
   2   -162.9886443  0.331437E-03  0.365E-02    0.42       1.0  T
   3   -162.9888487 -0.204364E-03  0.224E-02    0.41       1.0  T
   4   -162.9889468 -0.980488E-04  0.129E-02    0.42       1.0  T
   5   -162.9889811 -0.343256E-04  0.292E-03    0.42       3.3  T
   6   -162.9889832 -0.213210E-05  0.934E-04    0.42      10.3  T
   7   -162.9889834 -0.175546E-06  0.392E-04    0.42      24.5  T
   8   -162.9889834 -0.317656E-07  0.115E-04    0.42      83.7  T
     SCC iter.                  ...        0 min,  0.119 sec
     gradient                   ...        0 min,  0.017 sec
 * total energy  :  -160.1448166 Eh     change       -0.4288277E-05 Eh
   gradient norm :     0.0006845 Eh/α   predicted    -0.2112088E-05 ( -50.75%)
   displ. norm   :     0.0685087 α      lambda       -0.3151391E-05
   maximum displ.:     0.0371479 α      in ANC's #3, #15, #17, ...

........................................................................
.............................. CYCLE   24 ..............................
........................................................................

 iter      E             dE          RMSdq      gap      omega  full diag
   1   -162.9890511 -0.162989E+03  0.142E-02    0.42       0.0  T
   2   -162.9889689  0.821580E-04  0.193E-02    0.42       1.0  T
   3   -162.9887254  0.243504E-03  0.348E-02    0.41       1.0  T
   4   -162.9890113 -0.285895E-03  0.127E-02    0.42       1.0  T
   5   -162.9890508 -0.394817E-04  0.278E-03    0.42       3.5  T
   6   -162.9890525 -0.176304E-05  0.100E-03    0.42       9.6  T
   7   -162.9890528 -0.253732E-06  0.202E-04    0.42      47.6  T
   8   -162.9890528  0.527211E-08  0.207E-04    0.42      46.5  T
     SCC iter.                  ...        0 min,  0.120 sec
     gradient                   ...        0 min,  0.017 sec
 * total energy  :  -160.1448193 Eh     change       -0.2650109E-05 Eh
   gradient norm :     0.0008933 Eh/α   predicted    -0.1579819E-05 ( -40.39%)
   displ. norm   :     0.0562756 α      lambda       -0.2617218E-05
   maximum displ.:     0.0315163 α      in ANC's #3, #15, #17, ...

........................................................................
.............................. CYCLE   25 ..............................
........................................................................

 iter      E             dE          RMSdq      gap      omega  full diag
   1   -162.9891107 -0.162989E+03  0.118E-02    0.42       0.0  T
   2   -162.9890956  0.151509E-04  0.104E-02    0.42       1.0  T
   3   -162.9887811  0.314430E-03  0.345E-02    0.42       1.0  T
   4   -162.9890983 -0.317149E-03  0.800E-03    0.42       1.2  T
   5   -162.9891105 -0.122198E-04  0.150E-03    0.42       6.4  T
   6   -162.9891111 -0.612858E-06  0.395E-04    0.42      24.3  T
   7   -162.9891111 -0.219636E-07  0.220E-04    0.42      43.8  T
     SCC iter.                  ...        0 min,  0.107 sec
     gradient                   ...        0 min,  0.017 sec
 * total energy  :  -160.1448220 Eh     change       -0.2763774E-05 Eh
   gradient norm :     0.0006771 Eh/α   predicted    -0.1310789E-05 ( -52.57%)
   displ. norm   :     0.0530642 α      lambda       -0.2477303E-05
   maximum displ.:     0.0314671 α      in ANC's #3, #15, #6, ...

........................................................................
.............................. CYCLE   26 ..............................
........................................................................

 iter      E             dE          RMSdq      gap      omega  full diag
   1   -162.9891427 -0.162989E+03  0.103E-02    0.42       0.0  T
   2   -162.9890174  0.125333E-03  0.231E-02    0.41       1.0  T
   3   -162.9890820 -0.645944E-04  0.154E-02    0.42       1.0  T
   4   -162.9891125 -0.305488E-04  0.119E-02    0.41       1.0  T
   5   -162.9891451 -0.325836E-04  0.105E-03    0.42       9.2  T
   6   -162.9891452 -0.647016E-07  0.626E-04    0.42      15.4  T
   7   -162.9891452 -0.707690E-07  0.341E-04    0.42      28.2  T
     SCC iter.                  ...        0 min,  0.104 sec
     gradient                   ...        0 min,  0.017 sec
 * total energy  :  -160.1448249 Eh     change       -0.2879175E-05 Eh
   gradient norm :     0.0003161 Eh/α   predicted    -0.1241982E-05 ( -56.86%)
   displ. norm   :     0.0529420 α      lambda       -0.2154547E-05
   maximum displ.:     0.0329593 α      in ANC's #3, #6, #2, ...

........................................................................
.............................. CYCLE   27 ..............................
........................................................................

 iter      E             dE          RMSdq      gap      omega  full diag
   1   -162.9891756 -0.162989E+03  0.962E-03    0.42       0.0  T
   2   -162.9890268  0.148840E-03  0.250E-02    0.41       1.0  T
   3   -162.9891258 -0.989859E-04  0.140E-02    0.42       1.0  T
   4   -162.9891538 -0.280139E-04  0.105E-02    0.41       1.0  T
   5   -162.9891785 -0.246864E-04  0.125E-03    0.42       7.7  T
   6   -162.9891786 -0.151406E-06  0.529E-04    0.42      18.2  T
   7   -162.9891787 -0.478095E-07  0.291E-04    0.42      33.1  T
     SCC iter.                  ...        0 min,  0.104 sec
     gradient                   ...        0 min,  0.017 sec
 * total energy  :  -160.1448273 Eh     change       -0.2368098E-05 Eh
   gradient norm :     0.0003849 Eh/α   predicted    -0.1080788E-05 ( -54.36%)
   displ. norm   :     0.0393449 α      lambda       -0.1215058E-05
   maximum displ.:     0.0256261 α      in ANC's #3, #2, #6, ...

........................................................................
.............................. CYCLE   28 ..............................
........................................................................

 iter      E             dE          RMSdq      gap      omega  full diag
   1   -162.9891631 -0.162989E+03  0.584E-03    0.42       0.0  T
   2   -162.9891594  0.369872E-05  0.532E-03    0.41       1.8  T
   3   -162.9890973  0.620830E-04  0.156E-02    0.42       1.0  T
   4   -162.9891488 -0.515076E-04  0.729E-03    0.41       1.3  T
   5   -162.9891632 -0.143612E-04  0.620E-04    0.42      15.5  T
   6   -162.9891632 -0.518748E-07  0.178E-04    0.42      54.1  T
   7   -162.9891633 -0.578666E-08  0.964E-05    0.42      99.8  T
     SCC iter.                  ...        0 min,  0.104 sec
     gradient                   ...        0 min,  0.017 sec
 * total energy  :  -160.1448288 Eh     change       -0.1499827E-05 Eh
   gradient norm :     0.0004191 Eh/α   predicted    -0.6113772E-06 ( -59.24%)
   displ. norm   :     0.0364976 α      lambda       -0.1244566E-05
   maximum displ.:     0.0240963 α      in ANC's #3, #2, #4, ...

........................................................................
.............................. CYCLE   29 ..............................
........................................................................

 iter      E             dE          RMSdq      gap      omega  full diag
   1   -162.9891857 -0.162989E+03  0.467E-03    0.41       0.0  T
   2   -162.9891822  0.351376E-05  0.450E-03    0.42       2.1  T
   3   -162.9891286  0.536338E-04  0.144E-02    0.41       1.0  T
   4   -162.9891841 -0.555270E-04  0.305E-03    0.42       3.2  T
   5   -162.9891858 -0.169010E-05  0.317E-04    0.41      30.4  T
   6   -162.9891858 -0.107194E-07  0.184E-04    0.42      52.3  T
   7   -162.9891858 -0.796652E-08  0.730E-05    0.41     131.9  T
     SCC iter.                  ...        0 min,  0.104 sec
     gradient                   ...        0 min,  0.017 sec
 * total energy  :  -160.1448304 Eh     change       -0.1585408E-05 Eh
   gradient norm :     0.0003316 Eh/α   predicted    -0.6248567E-06 ( -60.59%)
   displ. norm   :     0.0448621 α      lambda       -0.1513272E-05
   maximum displ.:     0.0295133 α      in ANC's #3, #2, #4, ...

........................................................................
.............................. CYCLE   30 ..............................
........................................................................

 iter      E             dE          RMSdq      gap      omega  full diag
   1   -162.9891621 -0.162989E+03  0.526E-03    0.41       0.0  T
   2   -162.9891419  0.201547E-04  0.952E-03    0.42       1.0  T
   3   -162.9891337  0.823449E-05  0.103E-02    0.41       1.0  T
   4   -162.9891563 -0.225714E-04  0.535E-03    0.42       1.8  T
   5   -162.9891627 -0.637889E-05  0.347E-04    0.42      27.7  T
   6   -162.9891627 -0.395517E-09  0.259E-04    0.42      37.1  T
   7   -162.9891627 -0.107594E-07  0.140E-04    0.42      68.7  T
     SCC iter.                  ...        0 min,  0.104 sec
     gradient                   ...        0 min,  0.017 sec
 * total energy  :  -160.1448323 Eh     change       -0.1912466E-05 Eh
   gradient norm :     0.0002433 Eh/α   predicted    -0.7605932E-06 ( -60.23%)
   displ. norm   :     0.0489626 α      lambda       -0.1524085E-05
   maximum displ.:     0.0320143 α      in ANC's #3, #2, #4, ...

........................................................................
.............................. CYCLE   31 ..............................
........................................................................

 iter      E             dE          RMSdq      gap      omega  full diag
   1   -162.9891613 -0.162989E+03  0.494E-03    0.42       0.0  T
   2   -162.9891500  0.113499E-04  0.768E-03    0.42       1.3  T
   3   -162.9891309  0.190920E-04  0.107E-02    0.41       1.0  T
   4   -162.9891548 -0.239381E-04  0.536E-03    0.42       1.8  T
   5   -162.9891618 -0.695711E-05  0.488E-04    0.42      19.7  T
   6   -162.9891618 -0.311739E-07  0.212E-04    0.42      45.4  T
   7   -162.9891618 -0.402397E-08  0.140E-04    0.42      68.7  T
     SCC iter.                  ...        0 min,  0.105 sec
     gradient                   ...        0 min,  0.017 sec
 * total energy  :  -160.1448343 Eh     change       -0.1964432E-05 Eh
   gradient norm :     0.0044351 Eh/α   predicted    -0.7641175E-06 ( -61.10%)
   displ. norm   :     0.2751324 α      lambda       -0.1854842E-04
   maximum displ.:     0.1798384 α      in ANC's #3, #2, #4, ...

........................................................................
.............................. CYCLE   32 ..............................
........................................................................

 iter      E             dE          RMSdq      gap      omega  full diag
   1   -162.9889232 -0.162989E+03  0.272E-02    0.42       0.0  T
   2   -162.9884681  0.455169E-03  0.468E-02    0.43       1.0  T
   3   -162.9879485  0.519579E-03  0.600E-02    0.41       1.0  T
   4   -162.9887796 -0.831126E-03  0.258E-02    0.42       1.0  T
   5   -162.9889305 -0.150879E-03  0.668E-03    0.42       1.4  T
   6   -162.9889374 -0.694304E-05  0.407E-03    0.42       2.4  T
   7   -162.9889405 -0.306343E-05  0.218E-03    0.42       4.4  T
   8   -162.9889418 -0.129593E-05  0.260E-04    0.42      37.0  T
   9   -162.9889418  0.163238E-07  0.283E-04    0.42      34.0  T
  10   -162.9889418 -0.198434E-07  0.911E-05    0.42     105.6  T
     SCC iter.                  ...        0 min,  0.150 sec
     gradient                   ...        0 min,  0.017 sec
 * total energy  :  -160.1448305 Eh     change        0.3782321E-05 Eh
   gradient norm :     0.0019442 Eh/α   predicted    -0.9980447E-05 (-363.87%)
   displ. norm   :     0.2017514 α      lambda       -0.1203703E-04
   maximum displ.:     0.1285140 α      in ANC's #3, #2, #4, ...

........................................................................
.............................. CYCLE   33 ..............................
........................................................................

 iter      E             dE          RMSdq      gap      omega  full diag
   1   -162.9892899 -0.162989E+03  0.235E-02    0.42       0.0  T
   2   -162.9888497  0.440225E-03  0.465E-02    0.41       1.0  T
   3   -162.9887713  0.784513E-04  0.442E-02    0.43       1.0  T
   4   -162.9891805 -0.409224E-03  0.236E-02    0.41       1.0  T
   5   -162.9893015 -0.120994E-03  0.492E-03    0.42       2.0  T
   6   -162.9893031 -0.166430E-05  0.332E-03    0.42       2.9  T
   7   -162.9893052 -0.210172E-05  0.177E-03    0.42       5.4  T
   8   -162.9893060 -0.722948E-06  0.528E-04    0.42      18.2  T
   9   -162.9893059  0.387127E-07  0.488E-04    0.42      19.7  T
     SCC iter.                  ...        0 min,  0.133 sec
     gradient                   ...        0 min,  0.017 sec
 * total energy  :  -160.1448370 Eh     change       -0.6509170E-05 Eh
   gradient norm :     0.0003426 Eh/α   predicted    -0.6129678E-05 (  -5.83%)
   displ. norm   :     0.0751393 α      lambda       -0.1749649E-05
   maximum displ.:     0.0513988 α      in ANC's #3, #2, #4, ...

........................................................................
.............................. CYCLE   34 ..............................
........................................................................

 iter      E             dE          RMSdq      gap      omega  full diag
   1   -162.9891934 -0.162989E+03  0.590E-03    0.42       0.0  T
   2   -162.9891751  0.183347E-04  0.928E-03    0.42       1.0  T
   3   -162.9891535  0.215579E-04  0.122E-02    0.41       1.0  T
   4   -162.9891837 -0.301335E-04  0.652E-03    0.42       1.5  T
   5   -162.9891939 -0.102215E-04  0.557E-04    0.42      17.3  T
   6   -162.9891939 -0.428776E-07  0.246E-04    0.42      39.1  T
   7   -162.9891939 -0.761133E-08  0.152E-04    0.42      63.5  T
     SCC iter.                  ...        0 min,  0.106 sec
     gradient                   ...        0 min,  0.017 sec
 * total energy  :  -160.1448390 Eh     change       -0.2050630E-05 Eh
   gradient norm :     0.0004717 Eh/α   predicted    -0.8809905E-06 ( -57.04%)
   displ. norm   :     0.1201981 α      lambda       -0.2358060E-05
   maximum displ.:     0.0850490 α      in ANC's #3, #2, #4, ...

........................................................................
.............................. CYCLE   35 ..............................
........................................................................

 iter      E             dE          RMSdq      gap      omega  full diag
   1   -162.9889950 -0.162989E+03  0.813E-03    0.42       0.0  T
   2   -162.9889657  0.293102E-04  0.113E-02    0.41       1.0  T
   3   -162.9889207  0.450033E-04  0.167E-02    0.42       1.0  T
   4   -162.9889918 -0.710534E-04  0.499E-03    0.42       1.9  T
   5   -162.9889955 -0.374446E-05  0.638E-04    0.42      15.1  T
   6   -162.9889956 -0.254244E-07  0.374E-04    0.42      25.8  T
   7   -162.9889956 -0.321786E-07  0.161E-04    0.42      59.6  T
     SCC iter.                  ...        0 min,  0.108 sec
     gradient                   ...        0 min,  0.018 sec
 * total energy  :  -160.1448417 Eh     change       -0.2712534E-05 Eh
   gradient norm :     0.0005154 Eh/α   predicted    -0.1189940E-05 ( -56.13%)
   displ. norm   :     0.0669724 α      lambda       -0.1934235E-05
   maximum displ.:     0.0481110 α      in ANC's #3, #2, #4, ...

........................................................................
.............................. CYCLE   36 ..............................
........................................................................

 iter      E             dE          RMSdq      gap      omega  full diag
   1   -162.9890270 -0.162989E+03  0.644E-03    0.42       0.0  T
   2   -162.9890078  0.191496E-04  0.986E-03    0.41       1.0  T
   3   -162.9889801  0.276808E-04  0.132E-02    0.42       1.0  T
   4   -162.9890139 -0.337499E-04  0.756E-03    0.42       1.3  T
   5   -162.9890276 -0.137256E-04  0.613E-04    0.42      15.7  T
   6   -162.9890276 -0.295774E-07  0.306E-04    0.42      31.4  T
   7   -162.9890277 -0.109656E-07  0.201E-04    0.42      47.8  T
     SCC iter.                  ...        0 min,  0.109 sec
     gradient                   ...        0 min,  0.017 sec
 * total energy  :  -160.1448442 Eh     change       -0.2473891E-05 Eh
   gradient norm :     0.0003279 Eh/α   predicted    -0.9720001E-06 ( -60.71%)
   displ. norm   :     0.0754499 α      lambda       -0.2507748E-05
   maximum displ.:     0.0526450 α      in ANC's #3, #2, #4, ...

........................................................................
.............................. CYCLE   37 ..............................
........................................................................

 iter      E             dE          RMSdq      gap      omega  full diag
   1   -162.9891073 -0.162989E+03  0.932E-03    0.42       0.0  T
   2   -162.9889993  0.107938E-03  0.212E-02    0.41       1.0  T
   3   -162.9890534 -0.540474E-04  0.145E-02    0.42       1.0  T
   4   -162.9890875 -0.341108E-04  0.100E-02    0.41       1.0  T
   5   -162.9891093 -0.218412E-04  0.925E-04    0.42      10.4  T
   6   -162.9891094 -0.473403E-07  0.523E-04    0.42      18.4  T
   7   -162.9891094 -0.401085E-07  0.322E-04    0.42      29.9  T
     SCC iter.                  ...        0 min,  0.106 sec
     gradient                   ...        0 min,  0.017 sec
 * total energy  :  -160.1448472 Eh     change       -0.3000129E-05 Eh
   gradient norm :     0.0002990 Eh/α   predicted    -0.1261500E-05 ( -57.95%)
   displ. norm   :     0.0852828 α      lambda       -0.2267652E-05
   maximum displ.:     0.0588034 α      in ANC's #3, #2, #4, ...

........................................................................
.............................. CYCLE   38 ..............................
........................................................................

 iter      E             dE          RMSdq      gap      omega  full diag
   1   -162.9891602 -0.162989E+03  0.105E-02    0.42       0.0  T
   2   -162.9890292  0.131045E-03  0.231E-02    0.41       1.0  T
   3   -162.9891007 -0.715100E-04  0.154E-02    0.42       1.0  T
   4   -162.9891345 -0.338631E-04  0.112E-02    0.41       1.0  T
   5   -162.9891623 -0.277922E-04  0.958E-04    0.42      10.0  T
   6   -162.9891624 -0.342262E-07  0.574E-04    0.42      16.8  T
   7   -162.9891624 -0.562765E-07  0.331E-04    0.42      29.0  T
     SCC iter.                  ...        0 min,  0.111 sec
     gradient                   ...        0 min,  0.017 sec
 * total energy  :  -160.1448498 Eh     change       -0.2618046E-05 Eh
   gradient norm :     0.0004708 Eh/α   predicted    -0.1140513E-05 ( -56.44%)
   displ. norm   :     0.0740388 α      lambda       -0.1681288E-05
   maximum displ.:     0.0512803 α      in ANC's #3, #2, #4, ...

........................................................................
.............................. CYCLE   39 ..............................
........................................................................

 iter      E             dE          RMSdq      gap      omega  full diag
   1   -162.9891943 -0.162989E+03  0.853E-03    0.42       0.0  T
   2   -162.9891581  0.362332E-04  0.125E-02    0.41       1.0  T
   3   -162.9891229  0.352137E-04  0.164E-02    0.42       1.0  T
   4   -162.9891924 -0.695693E-04  0.318E-03    0.41       3.0  T
   5   -162.9891948 -0.240592E-05  0.516E-04    0.42      18.6  T
   6   -162.9891949 -0.858549E-08  0.351E-04    0.42      27.4  T
   7   -162.9891949 -0.286679E-07  0.109E-04    0.42      88.2  T
     SCC iter.                  ...        0 min,  0.102 sec
     gradient                   ...        0 min,  0.017 sec
 * total energy  :  -160.1448519 Eh     change       -0.2086421E-05 Eh
   gradient norm :     0.0004771 Eh/α   predicted    -0.8475948E-06 ( -59.38%)
   displ. norm   :     0.0673602 α      lambda       -0.1544227E-05
   maximum displ.:     0.0468080 α      in ANC's #3, #2, #4, ...

........................................................................
.............................. CYCLE   40 ..............................
........................................................................

 iter      E             dE          RMSdq      gap      omega  full diag
   1   -162.9891850 -0.162989E+03  0.775E-03    0.42       0.0  T
   2   -162.9891844  0.555938E-06  0.492E-03    0.42       2.0  T
   3   -162.9891529  0.315644E-04  0.111E-02    0.42       1.0  T
   4   -162.9891308  0.220683E-04  0.144E-02    0.41       1.0  T
   5   -162.9891851 -0.543125E-04  0.276E-04    0.42      34.9  T
   6   -162.9891851  0.498636E-08  0.243E-04    0.42      39.6  T
   7   -162.9891851 -0.136515E-07  0.115E-04    0.42      83.4  T
     SCC iter.                  ...        0 min,  0.111 sec
     gradient                   ...        0 min,  0.017 sec
 * total energy  :  -160.1448538 Eh     change       -0.1866531E-05 Eh
   gradient norm :     0.0003192 Eh/α   predicted    -0.7762645E-06 ( -58.41%)
   displ. norm   :     0.0616826 α      lambda       -0.1213223E-05
   maximum displ.:     0.0433230 α      in ANC's #3, #2, #4, ...

........................................................................
.............................. CYCLE   41 ..............................
........................................................................

 iter      E             dE          RMSdq      gap      omega  full diag
   1   -162.9891843 -0.162989E+03  0.729E-03    0.42       0.0  T
   2   -162.9891827  0.159886E-05  0.539E-03    0.42       1.8  T
   3   -162.9891424  0.402202E-04  0.136E-02    0.41       1.0  T
   4   -162.9891231  0.193279E-04  0.145E-02    0.42       1.0  T
   5   -162.9891845 -0.614031E-04  0.431E-04    0.42      22.3  T
   6   -162.9891845 -0.107715E-07  0.279E-04    0.42      34.4  T
   7   -162.9891845 -0.137740E-07  0.152E-04    0.42      63.2  T
     SCC iter.                  ...        0 min,  0.105 sec
     gradient                   ...        0 min,  0.017 sec
 * total energy  :  -160.1448552 Eh     change       -0.1378914E-05 Eh
   gradient norm :     0.0001480 Eh/α   predicted    -0.6095229E-06 ( -55.80%)
   displ. norm   :     0.0447524 α      lambda       -0.6857684E-06
   maximum displ.:     0.0319025 α      in ANC's #3, #2, #4, ...

........................................................................
.............................. CYCLE   42 ..............................
........................................................................

 iter      E             dE          RMSdq      gap      omega  full diag
   1   -162.9891376 -0.162989E+03  0.526E-03    0.42       0.0  T
   2   -162.9891368  0.815244E-06  0.386E-03    0.42       2.5  T
   3   -162.9891151  0.217625E-04  0.994E-03    0.41       1.0  T
   4   -162.9891060  0.904388E-05  0.104E-02    0.42       1.0  T
   5   -162.9891378 -0.317485E-04  0.336E-04    0.42      28.7  T
   6   -162.9891378 -0.139572E-07  0.162E-04    0.42      59.3  T
   7   -162.9891378 -0.262324E-08  0.112E-04    0.42      86.3  T
     SCC iter.                  ...        0 min,  0.111 sec
     gradient                   ...        0 min,  0.017 sec
 * total energy  :  -160.1448560 Eh     change       -0.8276207E-06 Eh
   gradient norm :     0.0001894 Eh/α   predicted    -0.3448260E-06 ( -58.34%)
   displ. norm   :     0.0356431 α      lambda       -0.5346611E-06
   maximum displ.:     0.0251604 α      in ANC's #3, #2, #4, ...
 * RMSD in coord.:     0.1050830 α      energy gain  -0.4993389E-04 Eh

generating ANC from exact Hessian ...
Using Lindh-Hessian (1995)
 Shifting diagonal of input Hessian by   9.945311115318493E-003
 Lowest  eigenvalues of input Hessian
    0.000000    0.000000    0.000000    0.000000    0.000000    0.000000
    0.010000    0.010002    0.010045    0.010066    0.010075    0.010221
    0.010406    0.010489    0.010594    0.010620    0.010774    0.010964
 Highest eigenvalues
    2.154385    2.172555    2.214304    2.216456    2.235267    2.622979
 

........................................................................
.............................. CYCLE   43 ..............................
........................................................................

 iter      E             dE          RMSdq      gap      omega  full diag
   1   -162.9891316 -0.162989E+03  0.403E-03    0.42       0.0  T
   2   -162.9891306  0.980595E-06  0.315E-03    0.42       3.1  T
   3   -162.9890934  0.371847E-04  0.120E-02    0.41       1.0  T
   4   -162.9891251 -0.316765E-04  0.487E-03    0.42       2.0  T
   5   -162.9891316 -0.652977E-05  0.278E-04    0.42      34.6  T
   6   -162.9891316 -0.142662E-07  0.982E-05    0.42      98.0  T
   7   -162.9891316 -0.340606E-09  0.766E-05    0.42     125.6  T
     SCC iter.                  ...        0 min,  0.112 sec
     gradient                   ...        0 min,  0.017 sec
 * total energy  :  -160.1448567 Eh     change       -0.6840443E-06 Eh
   gradient norm :     0.0002356 Eh/α   predicted     0.0000000E+00 (-100.00%)
   displ. norm   :     0.0061022 α      lambda       -0.2435984E-06
   maximum displ.:     0.0028945 α      in ANC's #3, #4, #27, ...

........................................................................
.............................. CYCLE   44 ..............................
........................................................................

 iter      E             dE          RMSdq      gap      omega  full diag
   1   -162.9891568 -0.162989E+03  0.175E-03    0.42       0.0  T
   2   -162.9891528  0.397816E-05  0.416E-03    0.41       2.3  T
   3   -162.9891543 -0.154626E-05  0.304E-03    0.42       3.2  T
   4   -162.9891563 -0.198501E-05  0.161E-03    0.42       6.0  T
   5   -162.9891569 -0.552579E-06  0.159E-04    0.42      60.6  T
   6   -162.9891569 -0.293215E-08  0.732E-05    0.42     131.4  T
     SCC iter.                  ...        0 min,  0.093 sec
     gradient                   ...        0 min,  0.017 sec
 * total energy  :  -160.1448570 Eh     change       -0.3293285E-06 Eh
   gradient norm :     0.0001259 Eh/α   predicted    -0.1453676E-06 ( -55.86%)
   displ. norm   :     0.0191630 α      lambda       -0.4114782E-06
   maximum displ.:     0.0090284 α      in ANC's #3, #4, #14, ...

........................................................................
.............................. CYCLE   45 ..............................
........................................................................

 iter      E             dE          RMSdq      gap      omega  full diag
   1   -162.9891868 -0.162989E+03  0.435E-03    0.42       0.0  T
   2   -162.9891751  0.117100E-04  0.765E-03    0.41       1.3  T
   3   -162.9891672  0.796970E-05  0.855E-03    0.42       1.1  T
   4   -162.9891817 -0.145407E-04  0.485E-03    0.41       2.0  T
   5   -162.9891873 -0.556340E-05  0.439E-04    0.42      21.9  T
   6   -162.9891873 -0.234101E-07  0.177E-04    0.42      54.3  T
   7   -162.9891873 -0.247516E-08  0.117E-04    0.42      82.1  T
     SCC iter.                  ...        0 min,  0.110 sec
     gradient                   ...        0 min,  0.017 sec
 * total energy  :  -160.1448576 Eh     change       -0.5435412E-06 Eh
   gradient norm :     0.0002512 Eh/α   predicted    -0.3014817E-06 ( -44.53%)
   displ. norm   :     0.0181600 α      lambda       -0.3976541E-06
   maximum displ.:     0.0093213 α      in ANC's #3, #4, #14, ...

........................................................................
.............................. CYCLE   46 ..............................
........................................................................

 iter      E             dE          RMSdq      gap      omega  full diag
   1   -162.9891530 -0.162989E+03  0.413E-03    0.42       0.0  T
   2   -162.9891521  0.851412E-06  0.311E-03    0.41       3.1  T
   3   -162.9891163  0.357780E-04  0.117E-02    0.42       1.0  T
   4   -162.9891464 -0.300208E-04  0.503E-03    0.41       1.9  T
   5   -162.9891530 -0.666174E-05  0.213E-04    0.42      45.2  T
   6   -162.9891530 -0.405922E-08  0.112E-04    0.42      85.8  T
   7   -162.9891530 -0.218932E-09  0.979E-05    0.42      98.2  T
     SCC iter.                  ...        0 min,  0.108 sec
     gradient                   ...        0 min,  0.017 sec
 * total energy  :  -160.1448579 Eh     change       -0.3102960E-06 Eh
   gradient norm :     0.0003058 Eh/α   predicted    -0.2006395E-06 ( -35.34%)
   displ. norm   :     0.0131974 α      lambda       -0.2922098E-06
   maximum displ.:     0.0073733 α      in ANC's #3, #4, #14, ...

........................................................................
.............................. CYCLE   47 ..............................
........................................................................

 iter      E             dE          RMSdq      gap      omega  full diag
   1   -162.9891230 -0.162989E+03  0.259E-03    0.41       0.0  T
   2   -162.9891168  0.617802E-05  0.509E-03    0.42       1.9  T
   3   -162.9891176 -0.809803E-06  0.456E-03    0.41       2.1  T
   4   -162.9891216 -0.396521E-05  0.265E-03    0.42       3.6  T
   5   -162.9891231 -0.153219E-05  0.147E-04    0.42      65.4  T
   6   -162.9891231 -0.207010E-08  0.783E-05    0.42     122.9  T
   7   -162.9891231 -0.906681E-09  0.474E-05    0.42     202.8  T
     SCC iter.                  ...        0 min,  0.108 sec
     gradient                   ...        0 min,  0.017 sec
 * total energy  :  -160.1448582 Eh     change       -0.3474134E-06 Eh
   gradient norm :     0.0002088 Eh/α   predicted    -0.1463785E-06 ( -57.87%)
   displ. norm   :     0.0197903 α      lambda       -0.3867506E-06
   maximum displ.:     0.0115440 α      in ANC's #3, #4, #14, ...

........................................................................
.............................. CYCLE   48 ..............................
........................................................................

 iter      E             dE          RMSdq      gap      omega  full diag
   1   -162.9891412 -0.162989E+03  0.394E-03    0.41       0.0  T
   2   -162.9891113  0.298738E-04  0.110E-02    0.42       1.0  T
   3   -162.9891306 -0.192578E-04  0.648E-03    0.41       1.5  T
   4   -162.9891402 -0.961171E-05  0.304E-03    0.42       3.2  T
   5   -162.9891418 -0.166697E-05  0.453E-04    0.42      21.2  T
   6   -162.9891419 -0.376644E-07  0.166E-04    0.42      57.9  T
   7   -162.9891419 -0.349885E-08  0.841E-05    0.42     114.5  T
     SCC iter.                  ...        0 min,  0.104 sec
     gradient                   ...        0 min,  0.017 sec
 * total energy  :  -160.1448586 Eh     change       -0.4185406E-06 Eh
   gradient norm :     0.0001319 Eh/α   predicted    -0.1979942E-06 ( -52.69%)
   displ. norm   :     0.0178917 α      lambda       -0.2211734E-06
   maximum displ.:     0.0109623 α      in ANC's #3, #4, #14, ...

........................................................................
.............................. CYCLE   49 ..............................
........................................................................

 iter      E             dE          RMSdq      gap      omega  full diag
   1   -162.9891585 -0.162989E+03  0.291E-03    0.42       0.0  T
   2   -162.9891557  0.277376E-05  0.389E-03    0.42       2.5  T
   3   -162.9891469  0.886485E-05  0.661E-03    0.41       1.5  T
   4   -162.9891559 -0.907827E-05  0.332E-03    0.42       2.9  T
   5   -162.9891586 -0.266572E-05  0.281E-04    0.42      34.2  T
   6   -162.9891586 -0.142286E-07  0.948E-05    0.42     101.5  T
   7   -162.9891586 -0.109426E-08  0.532E-05    0.42     180.9  T
     SCC iter.                  ...        0 min,  0.110 sec
     gradient                   ...        0 min,  0.017 sec
 * total energy  :  -160.1448589 Eh     change       -0.2675709E-06 Eh
   gradient norm :     0.0001729 Eh/α   predicted    -0.1117024E-06 ( -58.25%)
   displ. norm   :     0.0175541 α      lambda       -0.2076343E-06
   maximum displ.:     0.0109533 α      in ANC's #3, #4, #10, ...

........................................................................
.............................. CYCLE   50 ..............................
........................................................................

 iter      E             dE          RMSdq      gap      omega  full diag
   1   -162.9891689 -0.162989E+03  0.247E-03    0.42       0.0  T
   2   -162.9891682  0.726860E-06  0.219E-03    0.42       4.4  T
   3   -162.9891529  0.152943E-04  0.751E-03    0.42       1.3  T
   4   -162.9891684 -0.155042E-04  0.199E-03    0.42       4.8  T
   5   -162.9891690 -0.538873E-06  0.119E-04    0.42      81.1  T
   6   -162.9891690 -0.237000E-08  0.360E-05    0.42     267.3  T
     SCC iter.                  ...        0 min,  0.097 sec
     gradient                   ...        0 min,  0.018 sec
 * total energy  :  -160.1448592 Eh     change       -0.2810633E-06 Eh
   gradient norm :     0.0001594 Eh/α   predicted    -0.1060099E-06 ( -62.28%)
   displ. norm   :     0.0219949 α      lambda       -0.2809100E-06
   maximum displ.:     0.0137318 α      in ANC's #3, #4, #10, ...

........................................................................
.............................. CYCLE   51 ..............................
........................................................................

 iter      E             dE          RMSdq      gap      omega  full diag
   1   -162.9891789 -0.162989E+03  0.277E-03    0.42       0.0  T
   2   -162.9891727  0.618441E-05  0.509E-03    0.41       1.9  T
   3   -162.9891738 -0.107275E-05  0.447E-03    0.42       2.2  T
   4   -162.9891775 -0.376828E-05  0.256E-03    0.42       3.8  T
   5   -162.9891790 -0.144890E-05  0.123E-04    0.42      78.2  T
   6   -162.9891790 -0.155433E-08  0.458E-05    0.42     210.3  T
   7   -162.9891790 -0.248662E-09  0.267E-05    0.42     359.8  T
     SCC iter.                  ...        0 min,  0.108 sec
     gradient                   ...        0 min,  0.017 sec
 * total energy  :  -160.1448596 Eh     change       -0.3679671E-06 Eh
   gradient norm :     0.0001200 Eh/α   predicted    -0.1441444E-06 ( -60.83%)
   displ. norm   :     0.0323097 α      lambda       -0.3858069E-06
   maximum displ.:     0.0200109 α      in ANC's #3, #4, #10, ...

........................................................................
.............................. CYCLE   52 ..............................
........................................................................

 iter      E             dE          RMSdq      gap      omega  full diag
   1   -162.9891669 -0.162989E+03  0.378E-03    0.42       0.0  T
   2   -162.9891529  0.140490E-04  0.766E-03    0.41       1.3  T
   3   -162.9891579 -0.501006E-05  0.595E-03    0.42       1.6  T
   4   -162.9891635 -0.558212E-05  0.404E-03    0.41       2.4  T
   5   -162.9891672 -0.371090E-05  0.250E-04    0.42      38.5  T
   6   -162.9891672 -0.596060E-08  0.104E-04    0.42      92.3  T
   7   -162.9891672 -0.176453E-08  0.649E-05    0.42     148.2  T
     SCC iter.                  ...        0 min,  0.105 sec
     gradient                   ...        0 min,  0.017 sec
 * total energy  :  -160.1448600 Eh     change       -0.4966167E-06 Eh
   gradient norm :     0.0001278 Eh/α   predicted    -0.1961292E-06 ( -60.51%)
   displ. norm   :     0.0430323 α      lambda       -0.4484492E-06
   maximum displ.:     0.0265512 α      in ANC's #3, #4, #10, ...

........................................................................
.............................. CYCLE   53 ..............................
........................................................................

 iter      E             dE          RMSdq      gap      omega  full diag
   1   -162.9891586 -0.162989E+03  0.454E-03    0.42       0.0  T
   2   -162.9891442  0.144716E-04  0.792E-03    0.41       1.2  T
   3   -162.9891417  0.240961E-05  0.803E-03    0.42       1.2  T
[...]
eigval :     1417.75  1423.60  1425.50  1429.33  1429.98  1433.69
eigval :     1437.85  1438.31  1444.35  1451.83  1458.08  1459.40
eigval :     1460.49  1460.85  1463.44  1475.10  1476.17  1482.28
eigval :     1488.71  1489.51  1489.92  1490.88  1492.25  1494.91
eigval :     1495.44  1496.29  1511.65  1513.47  1539.98  1542.92
eigval :     1550.43  1561.06  1565.14  1569.20  1569.96  1572.91
eigval :     1573.82  1579.09  1581.39  1582.48  1587.70  1590.13
eigval :     2312.69  3014.33  3014.92  3018.03  3018.53  3022.06
eigval :     3022.43  3022.71  3023.10  3027.63  3027.92  3032.24
eigval :     3034.56  3039.30  3041.07  3041.11  3042.49  3043.91
eigval :     3045.23  3070.13  3079.27  3079.66  3079.83  3080.46
eigval :     3080.53  3081.35  3081.48  3082.19  3085.65  3088.18
eigval :     3089.02  3089.31  3089.56  3090.23  3091.29  3092.44
eigval :     3092.74  3093.62  3094.76  3099.16  3099.50  3099.73
eigval :     3099.92  3100.36  3102.47  3103.40  3105.47  3107.09
 reduced masses (amu)
   1: 11.40   2: 11.29   3: 11.46   4: 11.46   5: 11.55   6: 11.23   7: 11.08   8: 10.73
   9: 10.47  10: 10.97  11: 10.85  12:  9.56  13: 10.13  14:  8.95  15: 11.63  16: 10.82
  17: 10.81  18: 11.33  19: 10.56  20: 10.66  21: 10.62  22: 10.38  23: 10.81  24: 10.87
  25: 10.59  26: 11.00  27: 10.41  28: 10.39  29: 10.44  30: 11.36  31: 11.85  32: 10.77
  33: 11.12  34: 10.93  35: 10.71  36: 11.79  37: 10.67  38:  1.49  39:  1.21  40: 10.59
  41:  8.95  42: 10.31  43: 10.49  44:  3.53  45:  8.13  46:  4.15  47:  2.10  48:  6.23
  49:  7.24  50: 10.77  51: 10.42  52: 10.41  53:  9.25  54:  8.78  55: 10.42  56: 10.61
  57: 10.27  58: 10.83  59: 10.69  60: 10.36  61: 10.79  62: 10.81  63:  9.59  64: 10.13
  65: 10.29  66:  8.16  67:  9.06  68:  9.04  69:  9.11  70:  9.19  71:  9.71  72: 10.56
  73: 10.89  74:  9.73  75: 11.00  76: 10.42  77: 10.47  78:  9.80  79:  9.61  80: 11.14
  81: 10.97  82: 10.09  83: 11.39  84: 10.81  85: 10.67  86: 10.56  87: 10.71  88: 10.31
  89: 11.66  90: 10.97  91: 11.15  92: 11.23  93: 11.36  94: 11.41  95: 11.17  96: 11.22
  97: 11.27  98: 11.23  99: 11.48 100: 11.35 101: 11.67 102: 11.23 103: 11.26 104: 11.11
 105: 11.23 106: 11.16 107: 10.00 108: 11.40 109: 10.00 110:  9.70 111:  9.79 112: 11.74
 113: 11.77 114: 11.34 115: 11.22 116: 11.75 117: 12.42 118:  4.58 119:  4.37 120:  4.13
 121:  4.30 122: 10.93 123:  4.46 124: 10.84 125:  4.34 126:  4.31 127:  6.38 128:  6.47
 129:  3.53 130:  3.50 131:  3.37 132:  3.31 133:  3.28 134:  3.51 135: 11.14 136:  4.06
 137:  3.70 138:  4.38 139:  3.72 140:  4.52 141: 10.05 142: 11.03 143:  3.34 144: 10.48
 145:  3.93 146:  8.19 147:  3.96 148:  3.09 149:  3.78 150:  3.42 151:  3.78 152:  3.13
 153:  3.06 154:  9.97 155:  3.49 156: 11.77 157:  3.24 158:  3.50 159:  4.51 160:  5.10
 161:  4.92 162:  4.67 163: 10.73 164: 10.97 165: 13.24 166: 10.38 167: 10.51 168:  9.55
 169:  6.74 170:  4.29 171:  4.22 172:  4.32 173:  4.21 174:  8.44 175:  6.80 176:  6.78
 177:  6.62 178:  6.59 179:  8.67 180:  4.03 181:  4.02 182:  3.99 183:  4.01 184:  5.84
 185:  4.10 186:  6.40 187:  6.74 188:  5.85 189:  1.33 190:  2.03 191:  1.32 192:  1.31
 193:  5.37 194:  1.96 195:  1.97 196: 10.19 197:  3.12 198:  3.28 199:  9.28 200:  6.27
 201:  5.72 202:  9.09 203:  9.14 204:  7.68 205:  6.59 206: 10.06 207:  9.39 208: 10.71
 209:  4.53 210:  4.40 211:  5.23 212:  4.63 213:  6.74 214: 11.36 215:  9.49 216:  9.99
 217:  9.60 218: 10.89 219: 11.61 220: 11.62 221: 11.92 222: 11.90 223: 10.78 224: 10.70
 225: 10.73 226: 11.33 227: 11.50 228: 11.42 229:  3.16 230:  3.15 231:  4.94 232:  8.32
 233:  4.20 234:  4.80 235:  3.06 236: 10.19 237: 10.45 238:  9.16 239:  9.25 240: 11.01
 241:  9.36 242:  9.34 243: 11.17 244: 10.58 245:  9.09 246:  8.92 247:  9.33 248:  9.14
 249: 11.39 250:  1.61 251:  1.61 252: 11.25 253:  1.58 254:  1.59 255:  1.57 256:  1.61
 257:  1.69 258:  1.61 259:  1.62 260:  1.67 261:  1.76 262:  1.75 263: 11.70 264: 11.75
 265: 11.69 266: 12.09 267: 11.67 268: 11.46 269: 11.47 270: 11.51 271: 11.52 272: 11.66
 273: 11.45 274: 11.44 275: 11.47 276: 11.51 277: 12.78 278:  1.91 279:  1.91 280:  1.81
 281:  1.80 282:  1.73 283:  1.68 284:  1.72 285:  1.70 286:  1.73 287:  1.73 288:  1.86
 289:  1.90 290:  1.63 291:  1.56 292:  1.49 293:  1.40 294:  1.62 295:  1.63 296:  1.81
 297:  1.75 298:  1.76 299:  1.75 300:  1.78 301:  1.75 302:  1.78 303:  1.79 304:  1.78
 305:  1.82 306:  1.83 307:  1.83 308:  1.83 309:  1.80 310:  1.83 311:  1.88 312:  1.88
 313:  1.87 314:  1.87 315:  1.78 316:  1.92 317:  1.92 318:  1.89 319:  1.88 320:  1.92
 321:  1.86 322:  1.84 323:  1.88 324:  1.84
 IR intensities (km·mol⁻¹)
   1:  0.75   2:  1.66   3:  2.44   4:  1.43   5:  1.40   6:  7.17   7:  0.26   8:  0.36
   9:  1.05  10:  0.27  11:  0.14  12:  5.74  13:  8.09  14:  0.17  15:  3.22  16:  1.91
  17:  0.68  18:  0.54  19:  2.91  20:  2.05  21:  2.34  22:  1.00  23:  1.43  24:  0.70
  25:  2.17  26:  9.85  27:  2.31  28:  0.39  29:  0.52  30:  1.54  31:  2.60  32:  1.64
  33:  3.21  34:  9.33  35:  0.88  36:  2.51  37:  5.47  38:  3.44  39: 14.56  40:  7.34
  41:  3.18  42:  2.25  43:  1.23  44:  3.95  45:  2.58  46:  2.69  47:  4.89  48:  2.05
  49: 12.03  50: 12.47  51: 19.97  52: 10.12  53:  1.36  54: 42.15  55: 12.08  56:  7.31
  57: 17.70  58:  2.97  59: 13.33  60:  1.19  61:  9.72  62:  0.68  63:  6.06  64: 10.58
  65:  6.33  66:  0.66  67:  4.33  68:  1.09  69:  0.32  70:  5.18  71: 10.17  72: 15.34
  73:  6.86  74:  6.02  75:  4.13  76:  6.07  77:  2.88  78:  2.07  79:  1.94  80:  1.71
  81:  4.37  82: 23.45  83:  6.38  84:  1.74  85:  6.62  86: 21.49  87: 13.47  88: 66.92
  89:  9.38  90: 50.36  91:  3.50  92:  7.74  93:  0.51  94:  2.24  95:  3.86  96:  1.51
  97:  0.33  98:  0.30  99:  2.12 100: 34.27 101:  7.92 102: 64.28 103:  9.58 104:  1.73
 105:  6.36 106: 70.72 107:  0.97 108:  0.19 109:  7.43 110: 10.46 111: 78.78 112:  7.69
 113:  8.38 114: 76.20 115: 33.37 116:123.67 117: 44.89 118:  6.52 119: 17.77 120: 48.30
 121:  4.47 122: 41.42 123:  8.31 124:  1.67 125: 32.26 126: 18.77 127: 32.15 128: 37.79
 129: 85.34 130: 17.03 131:181.71 132: 13.53 133: 84.13 134: 77.85 135: 13.05 136:  1.33
 137: 10.00 138:  2.38 139:  1.68 140:  0.93 141:  2.93 142:  3.92 143:  1.76 144:  2.04
 145:  2.21 146: 77.72 147: 40.14 148:  5.73 149:  4.84 150: 30.34 151: 22.79 152: 52.11
 153: 13.12 154: 60.36 155: 22.40 156: 48.74 157: 48.60 158: 52.85 159:132.58 160: 10.73
 161:  1.83 162: 11.19 163:404.66 164: 68.10 165:****** 166:206.79 167:  9.22 168: 17.60
 169: 19.03 170:  2.45 171:  0.10 172:  2.66 173: 11.11 174:225.83 175: 24.98 176:  4.06
 177:  5.89 178:  4.60 179:113.41 180:  1.75 181:  8.53 182: 55.23 183: 55.85 184:409.22
 185:254.21 186:310.38 187:471.62 188:259.98 189:  0.14 190: 58.00 191:  6.97 192:  0.54
 193: 40.46 194:  6.23 195: 16.24 196: 46.82 197: 42.06 198: 33.00 199:124.65 200: 11.69
 201: 25.99 202: 26.92 203:  0.08 204: 13.72 205:110.00 206: 86.51 207: 28.78 208:122.46
 209:  2.66 210: 15.96 211: 52.69 212: 49.49 213: 62.79 214: 99.59 215: 47.24 216: 78.57
 217:515.13 218:****** 219: 38.62 220:  4.96 221:  0.84 222:  3.43 223: 26.07 224: 97.86
 225: 67.99 226:245.60 227: 16.39 228: 82.52 229: 12.91 230:  4.61 231:328.70 232:491.47
 233:  6.95 234:  6.57 235:309.55 236:  4.06 237: 20.57 238:  7.18 239:  8.21 240:  9.11
 241: 39.65 242: 45.68 243: 14.43 244: 97.85 245: 90.25 246: 15.26 247: 10.75 248: 99.88
 249: 76.91 250:  3.89 251:  1.92 252: 22.10 253:  1.24 254:  3.45 255:  6.04 256:  2.02
 257:  4.44 258:  0.43 259: 17.65 260: 13.65 261: 15.35 262: 50.74 263:  4.33 264:286.25
 265:128.49 266: 78.83 267:774.71 268: 25.66 269: 27.94 270:  5.10 271: 11.26 272:367.81
 273:  9.77 274: 21.46 275:106.39 276:131.88 277:613.12 278: 30.03 279: 83.43 280:  4.55
 281:  7.28 282: 24.38 283: 40.08 284: 18.27 285: 33.33 286:278.74 287:****** 288: 87.57
 289: 82.89 290: 31.66 291: 14.88 292:  9.84 293: 63.12 294: 54.03 295:281.00 296: 26.59
 297: 22.70 298: 16.30 299: 83.09 300:  2.66 301:142.42 302:  5.64 303:  6.58 304:  1.86
 305:124.14 306: 64.06 307: 58.59 308: 73.73 309:301.06 310:111.36 311:104.39 312:172.54
 313:103.71 314: 90.77 315: 91.74 316:153.90 317: 69.77 318: 27.56 319: 46.36 320: 70.75
 321: 24.76 322: 64.73 323: 21.74 324: 87.78
 Raman intensities (Ä⁴*amu⁻¹)
   1:  0.00   2:  0.00   3:  0.00   4:  0.00   5:  0.00   6:  0.00   7:  0.00   8:  0.00
   9:  0.00  10:  0.00  11:  0.00  12:  0.00  13:  0.00  14:  0.00  15:  0.00  16:  0.00
  17:  0.00  18:  0.00  19:  0.00  20:  0.00  21:  0.00  22:  0.00  23:  0.00  24:  0.00
  25:  0.00  26:  0.00  27:  0.00  28:  0.00  29:  0.00  30:  0.00  31:  0.00  32:  0.00
  33:  0.00  34:  0.00  35:  0.00  36:  0.00  37:  0.00  38:  0.00  39:  0.00  40:  0.00
  41:  0.00  42:  0.00  43:  0.00  44:  0.00  45:  0.00  46:  0.00  47:  0.00  48:  0.00
  49:  0.00  50:  0.00  51:  0.00  52:  0.00  53:  0.00  54:  0.00  55:  0.00  56:  0.00
  57:  0.00  58:  0.00  59:  0.00  60:  0.00  61:  0.00  62:  0.00  63:  0.00  64:  0.00
  65:  0.00  66:  0.00  67:  0.00  68:  0.00  69:  0.00  70:  0.00  71:  0.00  72:  0.00
  73:  0.00  74:  0.00  75:  0.00  76:  0.00  77:  0.00  78:  0.00  79:  0.00  80:  0.00
  81:  0.00  82:  0.00  83:  0.00  84:  0.00  85:  0.00  86:  0.00  87:  0.00  88:  0.00
  89:  0.00  90:  0.00  91:  0.00  92:  0.00  93:  0.00  94:  0.00  95:  0.00  96:  0.00
  97:  0.00  98:  0.00  99:  0.00 100:  0.00 101:  0.00 102:  0.00 103:  0.00 104:  0.00
 105:  0.00 106:  0.00 107:  0.00 108:  0.00 109:  0.00 110:  0.00 111:  0.00 112:  0.00
 113:  0.00 114:  0.00 115:  0.00 116:  0.00 117:  0.00 118:  0.00 119:  0.00 120:  0.00
 121:  0.00 122:  0.00 123:  0.00 124:  0.00 125:  0.00 126:  0.00 127:  0.00 128:  0.00
 129:  0.00 130:  0.00 131:  0.00 132:  0.00 133:  0.00 134:  0.00 135:  0.00 136:  0.00
 137:  0.00 138:  0.00 139:  0.00 140:  0.00 141:  0.00 142:  0.00 143:  0.00 144:  0.00
 145:  0.00 146:  0.00 147:  0.00 148:  0.00 149:  0.00 150:  0.00 151:  0.00 152:  0.00
 153:  0.00 154:  0.00 155:  0.00 156:  0.00 157:  0.00 158:  0.00 159:  0.00 160:  0.00
 161:  0.00 162:  0.00 163:  0.00 164:  0.00 165:  0.00 166:  0.00 167:  0.00 168:  0.00
 169:  0.00 170:  0.00 171:  0.00 172:  0.00 173:  0.00 174:  0.00 175:  0.00 176:  0.00
 177:  0.00 178:  0.00 179:  0.00 180:  0.00 181:  0.00 182:  0.00 183:  0.00 184:  0.00
 185:  0.00 186:  0.00 187:  0.00 188:  0.00 189:  0.00 190:  0.00 191:  0.00 192:  0.00
 193:  0.00 194:  0.00 195:  0.00 196:  0.00 197:  0.00 198:  0.00 199:  0.00 200:  0.00
 201:  0.00 202:  0.00 203:  0.00 204:  0.00 205:  0.00 206:  0.00 207:  0.00 208:  0.00
 209:  0.00 210:  0.00 211:  0.00 212:  0.00 213:  0.00 214:  0.00 215:  0.00 216:  0.00
 217:  0.00 218:  0.00 219:  0.00 220:  0.00 221:  0.00 222:  0.00 223:  0.00 224:  0.00
 225:  0.00 226:  0.00 227:  0.00 228:  0.00 229:  0.00 230:  0.00 231:  0.00 232:  0.00
 233:  0.00 234:  0.00 235:  0.00 236:  0.00 237:  0.00 238:  0.00 239:  0.00 240:  0.00
 241:  0.00 242:  0.00 243:  0.00 244:  0.00 245:  0.00 246:  0.00 247:  0.00 248:  0.00
 249:  0.00 250:  0.00 251:  0.00 252:  0.00 253:  0.00 254:  0.00 255:  0.00 256:  0.00
 257:  0.00 258:  0.00 259:  0.00 260:  0.00 261:  0.00 262:  0.00 263:  0.00 264:  0.00
 265:  0.00 266:  0.00 267:  0.00 268:  0.00 269:  0.00 270:  0.00 271:  0.00 272:  0.00
 273:  0.00 274:  0.00 275:  0.00 276:  0.00 277:  0.00 278:  0.00 279:  0.00 280:  0.00
 281:  0.00 282:  0.00 283:  0.00 284:  0.00 285:  0.00 286:  0.00 287:  0.00 288:  0.00
 289:  0.00 290:  0.00 291:  0.00 292:  0.00 293:  0.00 294:  0.00 295:  0.00 296:  0.00
 297:  0.00 298:  0.00 299:  0.00 300:  0.00 301:  0.00 302:  0.00 303:  0.00 304:  0.00
 305:  0.00 306:  0.00 307:  0.00 308:  0.00 309:  0.00 310:  0.00 311:  0.00 312:  0.00
 313:  0.00 314:  0.00 315:  0.00 316:  0.00 317:  0.00 318:  0.00 319:  0.00 320:  0.00
 321:  0.00 322:  0.00 323:  0.00 324:  0.00
 output can be read by thermo (or use thermo option).
 writing <g98.out> molden fake output.
 recommended (thermochemical) frequency scaling factor: 1.0
           -------------------------------------------------
          |             Thermodynamic Functions             |
           -------------------------------------------------

Refinement of some symmetry elements was terminated before convergence was reached.
Some symmetry elements may remain unidentified.
Molecule has no symmetry elements
It seems to be the C1 point group
c1  symmetry found (for desy threshold:  0.10E+00) used in thermo

          ...................................................
          :                      SETUP                      :
          :.................................................:
          :  # frequencies                         318      :
          :  # imaginary freq.                       0      :
          :  linear?                             false      :
          :  only rotor calc.                    false      :
          :  symmetry                               c1      :
          :  rotational number                       1      :
          :  scaling factor                  1.0000000      :
          :  rotor cutoff                   50.0000000 cm⁻¹ :
          :  imag. cutoff                  -20.0000000 cm⁻¹ :
          :.................................................:

    mode    ω/cm⁻¹     T·S(HO)/kcal·mol⁻¹    T·S(FR)/kcal·mol⁻¹   T·S(vib)
   ------------------------------------------------------------------------
       1     10.71    -2.34784 (  0.21%)    -1.51298 ( 99.79%)    -1.51474
       2     12.50    -2.25650 (  0.39%)    -1.46731 ( 99.61%)    -1.47037
       3     13.92    -2.19249 (  0.60%)    -1.43529 ( 99.40%)    -1.43982
       4     15.73    -2.12014 (  0.97%)    -1.39910 ( 99.03%)    -1.40610
       5     18.48    -2.02490 (  1.83%)    -1.35146 ( 98.17%)    -1.36378
       6     23.60    -1.88010 (  4.73%)    -1.27900 ( 95.27%)    -1.30740
       7     25.04    -1.84501 (  5.92%)    -1.26143 ( 94.08%)    -1.29596
       8     28.51    -1.76821 (  9.56%)    -1.22298 ( 90.44%)    -1.27509
       9     33.67    -1.66973 ( 17.06%)    -1.17365 ( 82.94%)    -1.25829
      10     41.33    -1.54870 ( 31.82%)    -1.11297 ( 68.18%)    -1.25164
      11     42.36    -1.53413 ( 34.00%)    -1.10566 ( 66.00%)    -1.25135
      12     50.90    -1.42574 ( 51.79%)    -1.05124 ( 48.21%)    -1.24520
      13     53.08    -1.40105 ( 55.95%)    -1.03883 ( 44.05%)    -1.24150
      14     55.09    -1.37912 ( 59.58%)    -1.02780 ( 40.42%)    -1.23713
      15     57.19    -1.35714 ( 63.12%)    -1.01675 ( 36.88%)    -1.23161
      16     63.56    -1.29501 ( 72.31%)    -0.98546 ( 27.69%)    -1.20929
      17     67.67    -1.25821 ( 77.04%)    -0.96691 ( 22.96%)    -1.19132
      18     70.83    -1.23143 ( 80.11%)    -0.95339 ( 19.89%)    -1.17611
      19     79.20    -1.16597 ( 86.29%)    -0.92030 ( 13.71%)    -1.13229
      20     81.95    -1.14601 ( 87.83%)    -0.91020 ( 12.17%)    -1.11730
      21     84.03    -1.13134 ( 88.86%)    -0.90276 ( 11.14%)    -1.10587
      22     87.74    -1.10606 ( 90.46%)    -0.88994 (  9.54%)    -1.08545
      23    105.13    -1.00086 ( 95.13%)    -0.83639 (  4.87%)    -0.99286
      24    110.19    -0.97364 ( 95.93%)    -0.82247 (  4.07%)    -0.96749
      25    120.47    -0.92214 ( 97.12%)    -0.79605 (  2.88%)    -0.91850
      26    131.50    -0.87180 ( 97.95%)    -0.77009 (  2.05%)    -0.86971
      27    139.67    -0.83730 ( 98.38%)    -0.75222 (  1.62%)    -0.83593
      28    143.19    -0.82313 ( 98.54%)    -0.74486 (  1.46%)    -0.82198
      29    144.43    -0.81824 ( 98.58%)    -0.74231 (  1.42%)    -0.81716
      30    154.98    -0.77821 ( 98.93%)    -0.72141 (  1.07%)    -0.77760
      31    168.93    -0.72967 ( 99.24%)    -0.69588 (  0.76%)    -0.72941
      32    178.99    -0.69735 ( 99.39%)    -0.67875 (  0.61%)    -0.69724
      33    181.88    -0.68845 ( 99.43%)    -0.67401 (  0.57%)    -0.68837
      34    198.63    -0.63975 ( 99.60%)    -0.64790 (  0.40%)    -0.63978
      35    206.78    -0.61773 ( 99.66%)    -0.63599 (  0.34%)    -0.61780
      36    221.80    -0.57970 ( 99.74%)    -0.61522 (  0.26%)    -0.57979
      37    223.85    -0.57474 ( 99.75%)    -0.61249 (  0.25%)    -0.57484
      38    228.65    -0.56336 ( 99.77%)    -0.60621 (  0.23%)    -0.56346
      39    231.72    -0.55621 ( 99.78%)    -0.60225 (  0.22%)    -0.55631
      40    233.10    -0.55304 ( 99.79%)    -0.60050 (  0.21%)    -0.55314
      41    236.71    -0.54485 ( 99.80%)    -0.59594 (  0.20%)    -0.54495
      42    237.74    -0.54255 ( 99.80%)    -0.59466 (  0.20%)    -0.54266
      43    241.25    -0.53478 ( 99.82%)    -0.59032 (  0.18%)    -0.53488
      44    245.83    -0.52483 ( 99.83%)    -0.58475 (  0.17%)    -0.52493
      45    251.33    -0.51319 ( 99.84%)    -0.57820 (  0.16%)    -0.51329
      46    256.53    -0.50247 ( 99.86%)    -0.57213 (  0.14%)    -0.50257
      47    258.82    -0.49782 ( 99.86%)    -0.56949 (  0.14%)    -0.49792
      48    267.80    -0.48014 ( 99.88%)    -0.55940 (  0.12%)    -0.48023
      49    273.81    -0.46871 ( 99.89%)    -0.55282 (  0.11%)    -0.46880
      50    294.80    -0.43120 ( 99.92%)    -0.53094 (  0.08%)    -0.43129
   ------------------------------------------------------------------------

   temp. (K)  partition function   enthalpy   heat capacity  entropy
                                   cal/mol     cal/K/mol   cal/K/mol   J/K/mol
 298.15  VIB  0.449E+27            32996.710    198.770    208.149
         ROT  0.233E+09              888.752      2.981     41.272
         INT  0.105E+36            33885.463    201.751    249.421
         TR   0.216E+29             1481.254      4.968     45.873
         TOT                       35366.7166   206.7187   295.2943  1235.5113

       T/K    H(0)-H(T)+PV         H(T)/Eh          T*S/Eh         G(T)/Eh
   ------------------------------------------------------------------------
    298.15    0.563605E-01    0.908579E+00    0.140304E+00    0.768275E+00
   ------------------------------------------------------------------------

         :::::::::::::::::::::::::::::::::::::::::::::::::::::
         ::                  THERMODYNAMIC                  ::
         :::::::::::::::::::::::::::::::::::::::::::::::::::::
         :: total free energy        -159.376589261690 Eh   ::
         ::.................................................::
         :: total energy             -160.144864226667 Eh   ::
         :: zero point energy           0.852218354067 Eh   ::
         :: G(RRHO) w/o ZPVE           -0.083943389090 Eh   ::
         :: G(RRHO) contrib.            0.768274964977 Eh   ::
         :::::::::::::::::::::::::::::::::::::::::::::::::::::

optimized geometry written to: xtbopt.xyz


           -------------------------------------------------
          | TOTAL ENERGY             -160.144864226667 Eh   |
          | TOTAL ENTHALPY           -159.236285422240 Eh   |
          | TOTAL FREE ENERGY        -159.376589261690 Eh   |
          | GRADIENT NORM               0.000103569519 Eh/α |
          | HOMO-LUMO GAP               0.414584491364 eV   |
           -------------------------------------------------

------------------------------------------------------------------------
 * finished run on 2025/08/25 at 19:33:40.070     
------------------------------------------------------------------------
 total:
 * wall-time:     0 d,  0 h,  0 min, 18.708 sec
 *  cpu-time:     0 d,  0 h, 11 min, 28.941 sec
 * ratio c/w:    36.826 speedup
 SCF:
 * wall-time:     0 d,  0 h,  0 min,  0.416 sec
 *  cpu-time:     0 d,  0 h,  0 min, 15.654 sec
 * ratio c/w:    37.661 speedup
 ANC optimizer:
 * wall-time:     0 d,  0 h,  0 min,  9.178 sec
 *  cpu-time:     0 d,  0 h,  6 min,  7.052 sec
 * ratio c/w:    39.994 speedup
 analytical hessian:
 * wall-time:     0 d,  0 h,  0 min,  8.815 sec
 *  cpu-time:     0 d,  0 h,  4 min, 56.803 sec
 * ratio c/w:    33.671 speedup

