$hessian                                                                        
        0.0756261328   0.0965628437  -0.0333489213  -0.0420231574  -0.0786017670
        0.0153846525  -0.0195227239  -0.0386369908   0.0144684267  -0.0061789887
        0.0007569650   0.0064195824   0.0033852034  -0.0039229678   0.0011730806
       -0.0073717412  -0.0006959370   0.0003719571   0.0049230510   0.0011988171
        0.0002489722  -0.0004354777  -0.0017991937   0.0004348390  -0.0002767340
        0.0005140072   0.0001375596  -0.0002301512  -0.0001128877  -0.0000303061
        0.0000475192   0.0002282807   0.0000344763   0.0000523677  -0.0002044545
       -0.0001823112   0.0002708018  -0.0003385893   0.0000190245  -0.0003643018
        0.0002035745  -0.0000136451   0.0001028730  -0.0001339588   0.0000311110
        0.0001545995   0.0000295273  -0.0001122511  -0.0002166801   0.0002241916
       -0.0000605909   0.0001850238  -0.0002476759  -0.0000664239  -0.0002202193
        0.0005372314  -0.0000750259   0.0060846786   0.0032118404  -0.0018507687
       -0.0084092656   0.0033209578   0.0010563052   0.0000339135   0.0148389544
       -0.0092001394  -0.0020503413   0.0023823894   0.0063480751   0.0002959442
        0.0002506190   0.0005729359  -0.0022960236   0.0007229965  -0.0006402884
        0.0018040470  -0.0004718075   0.0004918198  -0.0007516472  -0.0008176384
        0.0007365710   0.0002162392   0.0003757116   0.0000069999  -0.0000555714
       -0.0001858369  -0.0001995792  -0.0000828036   0.0001820482   0.0000919176
        0.0001549018  -0.0000792041   0.0003555962  -0.0001633047   0.0001247495
       -0.0012296878   0.0014985051  -0.0005296743  -0.0018771351  -0.0048870082
        0.0016954535   0.0017880038  -0.0008109672   0.0000619929   0.0007460920
       -0.0000514338  -0.0007336103  -0.0002563887  -0.0000015251   0.0001114187
        0.0000032240   0.0001352083  -0.0001442448  -0.0001202748  -0.0000191374
       -0.0000172999   0.0000554947  -0.0000732747   0.0001063018   0.0000804773
       -0.0000473095  -0.0001127483  -0.0000240422  -0.0000158398  -0.0000014634
        0.0001401271   0.0001099964   0.0000424560   0.0001108515   0.0000170215
       -0.0000522245  -0.0000351088   0.0004688258  -0.0007375431  -0.0006541046
        0.0005911380  -0.0006543138  -0.0000533695  -0.0005216586   0.0000960263
       -0.0000504802   0.0005704466   0.0001184337  -0.0013843685  -0.0001012899
        0.0000113463   0.0002035632  -0.0000182089  -0.0000319371   0.0000164621
        0.0000137409   0.0000296072   0.0000382412   0.0001249920   0.0001328915
       -0.0001589972   0.0003296149   0.0011923356   0.0000577695
        0.0965628437   0.4404264476  -0.1845509135  -0.0871233494  -0.3458625614
        0.1388441696  -0.0180736777  -0.0369421750   0.0164100762  -0.0108746028
       -0.0060218741   0.0066811330   0.0106802261  -0.0031299100   0.0039236084
       -0.0075697370  -0.0013482009   0.0005226195  -0.0002856240  -0.0000224667
       -0.0005427435   0.0015141456   0.0016788326  -0.0002864341  -0.0002784889
       -0.0006031020   0.0002761196   0.0004930006   0.0001782580   0.0000263615
       -0.0002564394   0.0004460769   0.0001363166   0.0001624051  -0.0004838505
       -0.0001362173  -0.0016970866   0.0006199926   0.0004806109  -0.0014629770
       -0.0014599322  -0.0003348163  -0.0001108047   0.0004302704   0.0002844466
       -0.0002911052  -0.0006997477  -0.0000530060   0.0003215558   0.0006110066
       -0.0002823741  -0.0003270893   0.0004653072   0.0002969131   0.0024583443
       -0.0009991578   0.0002087128   0.0071621742   0.0052275814  -0.0032574721
       -0.0065310398   0.0055469197  -0.0022328850   0.0144953650  -0.0560664489
        0.0285754963   0.0035120007  -0.0070469505  -0.0017167413  -0.0040006382
       -0.0009133724  -0.0021421693   0.0023104597  -0.0012328029   0.0014800289
       -0.0003447888   0.0003090142   0.0000742483  -0.0004601612  -0.0003832481
       -0.0003816781  -0.0004476025   0.0001147441   0.0002435201  -0.0003602957
        0.0002125650   0.0001361052   0.0003376980   0.0003035173  -0.0003656561
        0.0001258040  -0.0002304977   0.0003838407  -0.0008265496   0.0005026261
        0.0006164271  -0.0017127484   0.0029994042   0.0002738153   0.0016510778
        0.0018869176  -0.0032123117  -0.0001710623  -0.0002139397  -0.0001106445
        0.0000915489   0.0002279382   0.0000920858  -0.0003478430   0.0003569939
       -0.0002557459   0.0003145646  -0.0003267790  -0.0003679037   0.0001379822
        0.0000368227  -0.0000034697  -0.0001037974   0.0001246155   0.0003542417
       -0.0001580312  -0.0001042560  -0.0000389483   0.0000395399  -0.0001358713
        0.0002062336   0.0003120262   0.0000213813   0.0003984612  -0.0003501134
       -0.0002909000  -0.0003021647   0.0010266034   0.0000586770  -0.0006742848
       -0.0013448313   0.0003003107  -0.0009789618  -0.0000712496   0.0003148429
        0.0002765447  -0.0001499060   0.0003592547   0.0009330911  -0.0000211571
        0.0000337870  -0.0004537081   0.0000206622  -0.0001622582   0.0001338096
        0.0001861771   0.0001739386   0.0004617432   0.0000910455   0.0001315706
       -0.0001887537   0.0017455471   0.0005806880   0.0001392229
       -0.0333489213  -0.1845509135   0.0933625831   0.0146993986   0.1393509427
       -0.0881995942   0.0169105295   0.0197544965  -0.0010070846   0.0032833439
        0.0025162703  -0.0007824276  -0.0035483808   0.0021635790  -0.0008431791
        0.0045104534   0.0005534180   0.0002086973  -0.0018486617  -0.0006269999
        0.0001717274  -0.0003043194   0.0004845508  -0.0003132584   0.0003251178
       -0.0001251956  -0.0001757585   0.0000110411  -0.0000551248   0.0000322479
        0.0000793108  -0.0003561947  -0.0000781126  -0.0001237539   0.0004347188
        0.0001925899   0.0002177444  -0.0002112312  -0.0001409295   0.0003343984
        0.0004213812   0.0001339825   0.0000284994  -0.0002800162  -0.0001568415
       -0.0000046952   0.0003290054   0.0000818463   0.0000286825  -0.0002174712
        0.0001028308   0.0000774169   0.0000784266  -0.0000316471  -0.0004180931
       -0.0001478645  -0.0000186283  -0.0028818357  -0.0021712625   0.0012658402
        0.0007472799  -0.0036777937  -0.0004639143   0.0039847576   0.0234754663
       -0.0030451889  -0.0025455234   0.0045712299   0.0000106049   0.0025739110
        0.0007750650   0.0012578254  -0.0005393472   0.0001210485  -0.0002965485
       -0.0008219463   0.0000986954  -0.0003495770   0.0004556918   0.0004889300
       -0.0001641539  -0.0000614745  -0.0000745074  -0.0001032592   0.0000351779
       -0.0001008574   0.0000352162  -0.0004074852  -0.0000586117  -0.0000099795
        0.0003878575   0.0002915577  -0.0001227497   0.0001119715  -0.0004963892
        0.0003186153   0.0018541998  -0.0017603981   0.0011595562  -0.0042189034
       -0.0005238111  -0.0016487824   0.0003159342  -0.0001538139  -0.0000651852
       -0.0001760649  -0.0001051203  -0.0000633633   0.0000690011  -0.0001103742
        0.0000708134  -0.0001687073   0.0001748239   0.0001629285  -0.0000449181
        0.0000016116  -0.0000351694   0.0000617960  -0.0000858799  -0.0001368351
        0.0000714558   0.0000819822   0.0000200126  -0.0000045767   0.0000416810
       -0.0001209934  -0.0001569566  -0.0000295300  -0.0001748458   0.0000948946
        0.0000713738   0.0000842088  -0.0005482714   0.0002128934   0.0004348217
        0.0009211253  -0.0003719032   0.0001165241   0.0002603628   0.0000579134
       -0.0000743504  -0.0002012191   0.0000130862  -0.0000535195   0.0000209483
       -0.0000041725   0.0000330621  -0.0000156105   0.0000811860  -0.0000538176
       -0.0000750176  -0.0000689037  -0.0001780909   0.0000038287   0.0000020180
        0.0001176686  -0.0000114467  -0.0002830113  -0.0004664179
       -0.0420231574  -0.0871233494   0.0146993986   0.4499510086   0.0403669295
       -0.0116240706  -0.1747141532  -0.0269908033   0.0289716183  -0.0261258539
       -0.0327909424   0.0126880010   0.0115031670  -0.0000315849   0.0016681187
       -0.0019197824  -0.0028022787   0.0024269437  -0.0051307516  -0.0013832276
       -0.0001329896   0.0013753524   0.0044542764  -0.0009706581   0.0007725317
       -0.0013063795  -0.0003460999   0.0006291563  -0.0000036977   0.0001055460
        0.0002237184  -0.0008745720  -0.0001664240  -0.0001132478   0.0015943435
        0.0005481451  -0.0018934286  -0.0006306064   0.0002336887  -0.0014330892
       -0.0000024651   0.0001241214   0.0003101273  -0.0011720704  -0.0003604710
       -0.0001582751   0.0006471768   0.0002400933   0.0004168284   0.0000807963
       -0.0000672184   0.0000987351   0.0012177958   0.0001708521   0.0020705344
       -0.0023077758  -0.0000989775   0.0059331626   0.0087093685  -0.0062546621
       -0.0574294008   0.0068469428  -0.0066189939  -0.1053877650   0.0624169857
       -0.0119955360  -0.0024784894   0.0284419167  -0.0160739300   0.0116801792
       -0.0015999212   0.0009335256  -0.0017376433   0.0013267876  -0.0003869913
       -0.0039266845   0.0003608336  -0.0010736934   0.0008190101   0.0014037889
       -0.0007792502  -0.0007787182   0.0001654536  -0.0001091498  -0.0003453043
       -0.0006614875   0.0001881144  -0.0020129909   0.0003658257  -0.0006360107
        0.0023872014   0.0017142467   0.0002240140  -0.0020487114  -0.0013539407
        0.0007197590   0.0047295900  -0.0122233682   0.0036707513  -0.0613665485
        0.0110550723  -0.0142985217   0.0009622208   0.0014870616  -0.0007207314
       -0.0006961140   0.0013603648   0.0011190128  -0.0001416011   0.0000929280
       -0.0000228517  -0.0001818299   0.0001539158   0.0000972768   0.0000171544
        0.0000203855  -0.0001161149   0.0000513958  -0.0001612697  -0.0000313471
       -0.0000105459   0.0001450917   0.0000373446   0.0000000185  -0.0000264904
       -0.0001323356  -0.0001245458  -0.0000958489  -0.0000773744  -0.0000937365
       -0.0001809713  -0.0000176750  -0.0013351803   0.0001717195   0.0003718558
        0.0003267331  -0.0005487112   0.0005311144   0.0002187094  -0.0008221818
        0.0011568992  -0.0009639731   0.0001026648   0.0022815877  -0.0000057055
        0.0000158326  -0.0003175902   0.0000012071   0.0000396003  -0.0000015448
       -0.0000573232  -0.0000269140  -0.0000394959  -0.0000891480   0.0001664138
        0.0002191300   0.0002459567   0.0001963396   0.0000437970
       -0.0786017670  -0.3458625614   0.1393509427   0.0403669295   0.5199046164
       -0.1758450714  -0.0482539333  -0.0502099210   0.0083095123  -0.0108003314
        0.0008786690   0.0019774411  -0.0116222718   0.0023109204   0.0010008065
        0.0075068802   0.0025414977  -0.0015302596   0.0022105907   0.0001432347
       -0.0000791470  -0.0022498126  -0.0030144121   0.0005935619  -0.0000022124
        0.0010072696  -0.0002203679  -0.0008962464  -0.0000300136   0.0000079586
        0.0002914487  -0.0000805908  -0.0000935418  -0.0000841954  -0.0001582956
       -0.0000867963   0.0026554436  -0.0006237642  -0.0006683561   0.0022383054
        0.0018104863   0.0002431932  -0.0000041111   0.0001515785  -0.0000647212
        0.0004369190   0.0003937831  -0.0000468074  -0.0005865603  -0.0008237782
        0.0003676973   0.0002001484  -0.0009072790  -0.0002735664  -0.0033998856
        0.0017348611  -0.0002266447  -0.0060870053  -0.0055855023   0.0073691727
        0.0211141856  -0.0014160118   0.0001334742   0.0577954645  -0.0935108208
        0.0120568052   0.0215536178  -0.0285491481   0.0092236514  -0.0018123994
       -0.0034453596  -0.0001902146   0.0006130956   0.0015962054  -0.0005043323
       -0.0002168635   0.0002330438  -0.0001394527   0.0004560325   0.0001665233
        0.0002191846   0.0006286200  -0.0000094537  -0.0001562766   0.0003735119
       -0.0005112058  -0.0000663730  -0.0004767854  -0.0001532082   0.0002775880
       -0.0001796716   0.0000472104  -0.0003409012   0.0005627130  -0.0002773791
       -0.0005270256  -0.0025548477  -0.0008461390  -0.0016676440   0.0083045232
        0.0056057998   0.0025661785   0.0001812968  -0.0000740304  -0.0010098237
       -0.0009456721  -0.0008470296  -0.0001839259   0.0003335999  -0.0003336549
        0.0002707271  -0.0002339881   0.0002616008   0.0003265797  -0.0001178154
       -0.0000298837   0.0000385285   0.0000928774  -0.0000746203  -0.0003251619
        0.0001643112   0.0000632679   0.0000588217  -0.0000568376   0.0001260283
       -0.0001867759  -0.0002561107   0.0000097053  -0.0003481293   0.0002777628
        0.0003220242   0.0002410411  -0.0001330726   0.0001470564   0.0009763737
        0.0024348012  -0.0011360168  -0.0004675425   0.0007654837   0.0008041729
       -0.0001324852   0.0011459318  -0.0013106127  -0.0003287235   0.0000530873
       -0.0000081208   0.0003806246  -0.0000115586   0.0001254190  -0.0001229573
       -0.0001300904  -0.0001428493  -0.0003823904  -0.0000873693  -0.0001428426
        0.0001377890  -0.0029561664  -0.0002704689   0.0000877614
        0.0153846525   0.1388441696  -0.0881995942  -0.0116240706  -0.1758450714
        0.1736567569   0.0312505014   0.0098411080  -0.0518236110   0.0135543948
        0.0044003620   0.0002369549   0.0050555081   0.0004633655  -0.0000900278
       -0.0088030965  -0.0028467596   0.0018021829   0.0044651008   0.0009233268
       -0.0003347561  -0.0001914433  -0.0017618797   0.0005542967  -0.0004897080
        0.0005327457   0.0002801911  -0.0000806451  -0.0000358163  -0.0001411584
       -0.0001533017   0.0004625879   0.0001268610   0.0001170629  -0.0006182347
       -0.0002388004   0.0000274319   0.0001401930   0.0002179326  -0.0004418811
       -0.0004506624  -0.0000623863   0.0000226286   0.0001841211   0.0000855439
        0.0000408216  -0.0002736791  -0.0000751139  -0.0001281639   0.0003410141
       -0.0002507056   0.0001149150  -0.0002496987  -0.0001284146   0.0003778412
        0.0004531841   0.0000969478   0.0064851705   0.0079361401  -0.0022849516
       -0.0168878241   0.0058932664   0.0041339481  -0.0251490068   0.0075211623
       -0.0475819020  -0.0006780547   0.0064912187   0.0050155516   0.0000631786
       -0.0015288211   0.0037179172  -0.0020430040   0.0022573633  -0.0008524820
        0.0023161107  -0.0003888186   0.0001074770  -0.0009780046  -0.0012615243
        0.0005437493   0.0004894036   0.0005052122   0.0000766941   0.0000181503
       -0.0004894979  -0.0002101804  -0.0001911153   0.0003045509   0.0000964667
        0.0000548306  -0.0000181308   0.0004376119  -0.0006485277   0.0003738580
       -0.0013563795  -0.0000588965  -0.0027996525   0.0025967517  -0.0129932211
        0.0023980354   0.0039398293  -0.0004839186  -0.0006487913   0.0006193898
        0.0010220965   0.0001332104  -0.0003073932  -0.0000241290   0.0000426039
       -0.0000252218   0.0001679619  -0.0001784037  -0.0001667561   0.0000369272
       -0.0000053157   0.0000699575  -0.0000736618   0.0001005894   0.0000918745
       -0.0000660189  -0.0000912455  -0.0000665682   0.0000214242  -0.0000348992
        0.0001819763   0.0001472612   0.0000405884   0.0001659058   0.0000094785
       -0.0000699984   0.0000178893   0.0003158449  -0.0009539739  -0.0010423375
       -0.0006202262  -0.0004002634  -0.0006372043  -0.0000214379  -0.0002626439
       -0.0010320783   0.0004917880  -0.0000619172  -0.0009581318  -0.0001112744
        0.0000087604   0.0002429063   0.0000147169  -0.0000675049   0.0000320046
        0.0000634885   0.0000645740   0.0000884441   0.0000654049   0.0000499070
       -0.0002591290   0.0007465360   0.0006359858  -0.0011087291
       -0.0195227239  -0.0180736777   0.0169105295  -0.1747141532  -0.0482539333
        0.0312505014   0.5528580718   0.0121660307  -0.0028717426  -0.0761478881
       -0.0312785918   0.0372581224  -0.0297521049  -0.0170681351   0.0203319103
        0.0162539351   0.0116271125  -0.0081685600  -0.0038459530  -0.0008113161
        0.0004219429  -0.0003881722  -0.0017061478  -0.0004926757  -0.0010091094
        0.0005738145   0.0002943769  -0.0001660264   0.0004272036  -0.0000142910
       -0.0005981890   0.0010796447   0.0002554033   0.0002393660  -0.0021628171
       -0.0004599475   0.0015543648   0.0019258135  -0.0001853602   0.0020790964
       -0.0011913631  -0.0002563182  -0.0005637052   0.0020035886   0.0004269435
       -0.0001791467  -0.0012033290  -0.0002067496   0.0001436590  -0.0003732162
       -0.0000436770  -0.0007768027  -0.0008504405   0.0001239706  -0.0004532134
        0.0011075677   0.0008610944  -0.0665700451  -0.0076833399   0.0015286218
       -0.1461028275   0.0797070041  -0.0754479037  -0.0649643589   0.0196352114
       -0.0100721355   0.0028375073  -0.0178511488   0.0017787162  -0.0093038379
        0.0007096541  -0.0019467071   0.0036336360  -0.0017477638   0.0014155853
        0.0016898205  -0.0001503658   0.0003848134  -0.0001903565  -0.0003311197
       -0.0001810091   0.0001255431  -0.0005161977   0.0000735342   0.0002283451
        0.0011088082   0.0001549426   0.0020798526  -0.0005292656   0.0002967651
       -0.0020863193  -0.0013955361  -0.0004046303   0.0008924219   0.0018564392
        0.0006803841  -0.0077394729   0.0073986170  -0.0018646255   0.0194905762
        0.0059996791   0.0003669578   0.0048012399   0.0124541633  -0.0151652486
       -0.0047270445  -0.0024396180  -0.0002499051   0.0001056747  -0.0002056952
       -0.0000055790   0.0001649544  -0.0002029947  -0.0000968786   0.0000019514
       -0.0000569952   0.0000606503  -0.0000254563   0.0001041656   0.0000848525
       -0.0000093909  -0.0001044473  -0.0000536525  -0.0000650738   0.0000467725
        0.0001146070   0.0000927683   0.0001356393   0.0000949560  -0.0000366404
        0.0001918668  -0.0000453913  -0.0042816284  -0.0010675524   0.0009802594
        0.0037071826  -0.0018127192   0.0024426316   0.0005104983  -0.0003980645
       -0.0003709737   0.0000454124  -0.0002488291   0.0001559908   0.0000856564
       -0.0000177004  -0.0001519457  -0.0000095023  -0.0000604231   0.0000306101
        0.0000802560   0.0000108511   0.0001188160  -0.0000705191  -0.0001418805
       -0.0000257344   0.0005978717  -0.0003350228  -0.0001168474
       -0.0386369908  -0.0369421750   0.0197544965  -0.0269908033  -0.0502099210
        0.0098411080   0.0121660307   0.3961955629  -0.2413500978  -0.0164520722
       -0.1542428194   0.1094092775  -0.0505490568  -0.0076812050   0.0076595456
        0.0081305112  -0.0183374971   0.0096528167   0.0008203647  -0.0002869867
       -0.0000356883  -0.0004794805  -0.0010902618  -0.0003510704  -0.0004250307
        0.0004230477   0.0001922110  -0.0001425017   0.0001054384   0.0001109471
       -0.0001497658   0.0003998164   0.0000635631   0.0000909280  -0.0007781047
       -0.0001364902   0.0007203713   0.0004654538  -0.0001437393   0.0006951835
       -0.0002323696  -0.0000779350  -0.0001462450   0.0006569759   0.0000740438
        0.0000361014  -0.0003690115  -0.0000807006  -0.0001729368  -0.0001201105
       -0.0000369625  -0.0000459301  -0.0003944060  -0.0000234249  -0.0003353611
        0.0005483042   0.0007527223   0.0281396734   0.0133833466  -0.0121079169
        0.0592411674  -0.1289069526   0.0659468568   0.0070773420   0.0058613152
       -0.0037843814   0.0003068554  -0.0030834145   0.0008918400  -0.0014503740
        0.0005201031   0.0006868712   0.0003442544  -0.0007473671   0.0002648038
        0.0003356541  -0.0001267137  -0.0001254452  -0.0000620022  -0.0000059005
        0.0000202395  -0.0000609163  -0.0000596235  -0.0000032085  -0.0000035091
        0.0002181345   0.0000088249   0.0003289526  -0.0000766753   0.0000465226
       -0.0002823866  -0.0002325280  -0.0000146352   0.0003468943   0.0002597960
        0.0000656433  -0.0012051373   0.0016468043   0.0001702075   0.0060075366
       -0.0001370988   0.0015499135  -0.0007932295  -0.0121418810   0.0100380451
       -0.0013004712   0.0046003725   0.0036399649  -0.0000017506   0.0000082631
       -0.0000519823   0.0000423186  -0.0000747591  -0.0000328299   0.0000038159
       -0.0000033841  -0.0000143057   0.0000017530   0.0000268528   0.0000493672
        0.0000024378  -0.0000322918  -0.0000231732  -0.0000110920   0.0000061296
        0.0000491259   0.0000440610   0.0000354866   0.0000300798  -0.0000395176
        0.0001431815   0.0000276501  -0.0019354864   0.0048953690   0.0049098561
        0.0153708212  -0.0126450573   0.0134030527   0.0012786499  -0.0010829685
       -0.0006794225  -0.0000600475   0.0000569263  -0.0001587043  -0.0000023426
       -0.0000079146  -0.0000267984   0.0000046249  -0.0000170592   0.0000136769
        0.0000291159   0.0000060817   0.0000353439  -0.0000040645  -0.0000453888
       -0.0000231746   0.0001730827  -0.0003509156  -0.0000765305
        0.0144684267   0.0164100762  -0.0010070846   0.0289716183   0.0083095123
       -0.0518236110  -0.0028717426  -0.2413500978   0.3226761700   0.0119797837
        0.1053614345  -0.1499486667   0.0484296888   0.0049157623  -0.0055013969
       -0.0110013658   0.0106561370  -0.0148378109   0.0025904221   0.0008858026
       -0.0005271312  -0.0001561202  -0.0005606100   0.0007469718   0.0001495203
        0.0002102876  -0.0000238178  -0.0001344459  -0.0001233396  -0.0001764139
        0.0001318518  -0.0001243194  -0.0000221057  -0.0000400837   0.0003017179
        0.0000102998   0.0000045309  -0.0005477801   0.0000597158  -0.0002002502
        0.0005098130   0.0000794889   0.0001046836  -0.0003858434  -0.0000137667
        0.0001152655   0.0002632780   0.0000438731  -0.0001883109   0.0000466921
       -0.0000188363   0.0002348758  -0.0000394927  -0.0000588889  -0.0005370441
        0.0002957461  -0.0005802639  -0.0255247311  -0.0098810631   0.0107031093
       -0.0503872397   0.0702199402  -0.1017200487  -0.0034594910  -0.0000183881
        0.0016400185   0.0008410830   0.0009443887  -0.0011040136  -0.0000704586
       -0.0000669345  -0.0002035165   0.0003450661   0.0003738785   0.0001060307
       -0.0005395884   0.0000807087  -0.0001281882   0.0002375296   0.0002546855
       -0.0000262952  -0.0000993388  -0.0000220725  -0.0000245808  -0.0000112563
       -0.0000422984   0.0000055428  -0.0002042251   0.0000084297  -0.0000167162
        0.0002090611   0.0001444999  -0.0000245134  -0.0000253732  -0.0002693495
       -0.0001688765   0.0003815709  -0.0006644540   0.0006385030  -0.0034217914
        0.0002975381   0.0018422015   0.0017885174   0.0141074295  -0.0096901739
        0.0004104724   0.0036963148   0.0049893620   0.0001026781  -0.0000334385
        0.0000995515  -0.0000331555   0.0000690926   0.0000414394   0.0000115558
        0.0000090219   0.0000463131   0.0000020317  -0.0000160030  -0.0000893186
        0.0000114711   0.0000308910   0.0000050325   0.0000271026  -0.0000136004
       -0.0000203977  -0.0000443354  -0.0000293479  -0.0000396525  -0.0000022952
       -0.0001351076   0.0000636307   0.0008417536   0.0027528662   0.0038223407
       -0.0128519790   0.0126412579  -0.0100168010  -0.0004051668   0.0003639935
        0.0002605932   0.0000389988  -0.0000524558   0.0000772700   0.0000164521
       -0.0000019826  -0.0000049928   0.0000016676   0.0000198543  -0.0000117210
       -0.0000302677  -0.0000091234  -0.0000290654   0.0000040381   0.0000105061
        0.0000281582  -0.0002116610   0.0001955455  -0.0001269500
       -0.0061789887  -0.0108746028   0.0032833439  -0.0261258539  -0.0108003314
        0.0135543948  -0.0761478881  -0.0164520722   0.0119797837   0.6762966751
        0.0105434616   0.0281148270  -0.3333489532  -0.0889296265   0.0634499891
       -0.0704708870   0.0351316627  -0.0366342349   0.0029124477   0.0035930882
       -0.0020018470   0.0001067926   0.0002372508   0.0005841855   0.0006772254
        0.0001946662  -0.0000762351   0.0002573146  -0.0004052524  -0.0000301103
        0.0002590247  -0.0005117200  -0.0001195279  -0.0000847470   0.0011553762
        0.0002347447  -0.0009856065  -0.0009421343   0.0004044505  -0.0012795800
        0.0005995090   0.0002251785   0.0002590133  -0.0010713353  -0.0001779875
       -0.0000247836   0.0005525572   0.0000651153   0.0000805177   0.0003061319
        0.0000519221   0.0003018149   0.0001340589  -0.0001541302  -0.0010791014
       -0.0001117402  -0.0009834102  -0.0179865279  -0.0140367719   0.0151999660
        0.0281689514   0.0129918888  -0.0040043549   0.0101982953  -0.0051978005
        0.0033343108  -0.0037504726   0.0056675643   0.0003895518   0.0035891068
       -0.0006394329   0.0011803242  -0.0018399286  -0.0001922312  -0.0007542721
       -0.0004816619  -0.0001026366  -0.0002458541   0.0001864549   0.0002669391
        0.0001595600  -0.0000554006   0.0001323129  -0.0000501831  -0.0000430609
       -0.0002506473  -0.0000553804  -0.0006181583   0.0000723011  -0.0000513905
        0.0006464930   0.0004497925   0.0000754839  -0.0001817526  -0.0005745754
       -0.0003097025   0.0020599964  -0.0014384956   0.0002856739  -0.0061019387
       -0.0018464837   0.0005661207  -0.1646340837   0.0841125777  -0.0995882233
       -0.0109041492  -0.0028622705   0.0046090085  -0.0002041793  -0.0004293997
       -0.0001015820  -0.0000725331   0.0000894811   0.0000467830  -0.0000191836
        0.0000026189  -0.0000281735  -0.0000031373  -0.0000363194  -0.0000806284
       -0.0000197681   0.0000367816   0.0000198981   0.0000237946   0.0000121622
       -0.0000366827  -0.0000779363  -0.0000362435  -0.0000359024   0.0000208619
       -0.0001782846   0.0000159005  -0.0001439414  -0.0017273555  -0.0007424285
       -0.0019001603   0.0022970200  -0.0025547119  -0.0009969881   0.0009464283
        0.0008484411   0.0000667324  -0.0000747174  -0.0000241785  -0.0000249460
        0.0000021200   0.0000866617  -0.0000035151   0.0000374232  -0.0000221434
       -0.0000629361  -0.0000274136  -0.0000881639   0.0000267986   0.0000243642
        0.0000429061  -0.0002855623   0.0001603556   0.0001429136
        0.0007569650  -0.0060218741   0.0025162703  -0.0327909424   0.0008786690
        0.0044003620  -0.0312785918  -0.1542428194   0.1053614345   0.0105434616
        0.3493767029  -0.2460752285  -0.0321717252  -0.0769033967   0.0322247690
       -0.0020828447   0.0139981122  -0.0115478551   0.0039434202   0.0014884905
        0.0034073712   0.0010779819   0.0012119134   0.0006438399   0.0005109537
       -0.0005946319  -0.0003064615   0.0002569767  -0.0001139572  -0.0000951215
        0.0001992078  -0.0005250402  -0.0001016374  -0.0000947113   0.0010841518
        0.0001944961  -0.0008269974  -0.0006063985   0.0000365575  -0.0009604280
        0.0004906649  -0.0001755149   0.0002540775  -0.0008935552  -0.0001545589
        0.0000035536   0.0004962224   0.0001038545   0.0001192486   0.0001463334
        0.0001336228   0.0000797836   0.0003866440   0.0000061874   0.0001787209
       -0.0004350800  -0.0008901232  -0.0117309386  -0.0046617658   0.0032893291
        0.0223673478  -0.0220494583   0.0237270146   0.0116842680  -0.0067123697
        0.0023203101   0.0004138709   0.0047786297  -0.0007344093   0.0028573163
       -0.0002073854   0.0001015403  -0.0007011412   0.0003692982  -0.0004370984
       -0.0006930101   0.0001170496  -0.0000618990   0.0000725791   0.0000945328
       -0.0000333422  -0.0000817620   0.0002691879  -0.0000238369  -0.0001325217
       -0.0005058429  -0.0000593022  -0.0008943431   0.0001880531  -0.0001145748
        0.0009353802   0.0005580150   0.0000969357  -0.0003859661  -0.0006687519
       -0.0002037666   0.0023607294  -0.0024667968   0.0009189100  -0.0069046199
       -0.0010434093  -0.0004867489   0.0826788475  -0.0929198964   0.0739790038
       -0.0204903183  -0.0052226683   0.0052578933  -0.0001824375   0.0000016140
        0.0000738754  -0.0001208564   0.0001362270   0.0000684706  -0.0000205980
        0.0000085479  -0.0000154115   0.0000037271  -0.0000770927  -0.0000645366
        0.0000041744   0.0000805432   0.0000905646   0.0000441235   0.0000024496
       -0.0001288600  -0.0000923408  -0.0000386333  -0.0000652356   0.0000399412
       -0.0000898856  -0.0000096697  -0.0006148590  -0.0003934604  -0.0009930391
        0.0016568535   0.0006486739   0.0039401583   0.0004642501   0.0002753273
       -0.0001329398  -0.0000277006   0.0000252925   0.0000065395  -0.0000252572
       -0.0000108323   0.0000507244   0.0000184940   0.0000581553  -0.0000234191
       -0.0000669741   0.0000004631  -0.0000846151   0.0000113028   0.0000726136
        0.0000526768  -0.0001656717   0.0001624240   0.0000164938
        0.0064195824   0.0066811330  -0.0007824276   0.0126880010   0.0019774411
        0.0002369549   0.0372581224   0.1094092775  -0.1499486667   0.0281148270
       -0.2460752285   0.3544498410   0.0128649647   0.0334701130  -0.0683348747
        0.0007966643  -0.0127420342   0.0105651157  -0.0061455158   0.0039146746
        0.0015240169   0.0004138318   0.0003993645  -0.0010814189  -0.0002362200
       -0.0001134976   0.0001608311   0.0000206795   0.0000999945   0.0002079783
       -0.0002052407   0.0002160678   0.0000418153   0.0000766117  -0.0006153452
       -0.0000330109   0.0002488552   0.0009151295  -0.0001622916   0.0003227397
       -0.0004241781   0.0000597041  -0.0003082811   0.0006138167   0.0000658243
       -0.0001242395  -0.0003796629  -0.0000600466   0.0001159490  -0.0000815633
       -0.0001031477  -0.0002806040  -0.0001202903   0.0001437354  -0.0007286461
       -0.0004807684   0.0013060837   0.0089630516  -0.0001443101  -0.0042872138
       -0.0175831714   0.0173476932  -0.0211778815  -0.0085778555   0.0047135071
       -0.0028996388   0.0003811891  -0.0054630182  -0.0015306876  -0.0023571643
        0.0005541280  -0.0001810900   0.0010947133  -0.0008038292   0.0006607302
        0.0002014868  -0.0000003096   0.0000188045   0.0000848297   0.0001166463
       -0.0001374163  -0.0000604907  -0.0003175875   0.0000136321   0.0001089421
        0.0005816566   0.0000987039   0.0008933053  -0.0002148167   0.0000678913
       -0.0008617673  -0.0005285488  -0.0001549577   0.0003849745   0.0007192481