168
 energy: -259.348568136927 gnorm: 0.000049267089 xtb: 6.7.1 (edcfbbe)
C           -0.25720801228834       10.94277884674224       -1.05797949691048
C           -1.11892065143665       10.12509443046481       -1.77339743673571
C           -1.12631390665136        8.76065125743543       -1.56111956806810
C           -0.26704395962667        8.19447298752139       -0.61665162432515
N           -0.26882728196017        6.81744969568400       -0.39318824379449
C            0.91377886736999        6.14526235448064       -0.07690760847896
C            0.89103317024298        5.10722795884481        0.86279664301136
C            2.01622785832112        4.35733639028734        1.10251263158022
C            3.21329615055366        4.60182224292410        0.41487992002295
C            4.36703807272797        3.72526252899974        0.58546644712355
C            5.68197672637810        4.19120531895119        0.46416042316496
C            6.75054578095329        3.33137324885691        0.56969503840193
C            6.55670891225745        1.96224882146642        0.79271012382962
C            7.72221651982259        1.10741472815339        0.86353583221663
N            8.89652775231739        1.54111646752196        1.26755942172598
C            9.73203937687316        0.47406074407321        1.20919651833376
C           11.10405576722084        0.41966621771292        1.58418296129333
C           11.76246564740816        1.54432985340620        2.09370452985977
C           13.07762593541868        1.46504463457387        2.47942886804303
C           13.75185601642525        0.25075059810422        2.36338817048974
C           13.11651010361691       -0.86011133123655        1.85868123183908
C           11.77585062008367       -0.81695085222907        1.44425925004693
C           11.08716229592513       -1.96378535821555        0.87742897300789
C           11.74705200164523       -3.18125514897157        0.65542626375165
C           11.11690991991213       -4.26114337838792        0.08309488272346
C            9.78566021779102       -4.16311176826036       -0.31115581205621
C            9.10108965717806       -2.99121461703718       -0.10540449993302
C            9.71671742259522       -1.88497861462038        0.50012093165360
C            9.05270956542969       -0.64885489206908        0.73490476723776
N            7.75681900373923       -0.23091263783834        0.52651022845339
C            6.66422701978970       -0.98767248687768        0.05155398260591
C            6.13570010791044       -2.01836826244825        0.82605841234489
C            5.04978392919875       -2.73783405972341        0.37511977452121
C            4.46295480797032       -2.44376864119653       -0.85971079822528
N            3.36730735705560       -3.17559845169155       -1.31128076023005
C            2.34735571121619       -2.55497078665821       -2.04560918025495
C            1.70582016648057       -3.23883172285252       -3.07812053203056
C            0.68630841881842       -2.63245789776358       -3.78715378611742
C            0.29690932416298       -1.33658956713020       -3.48817440334826
C            0.93900032353832       -0.64948792384758       -2.47115057150251
C            1.95289886375023       -1.25070313147828       -1.75118682264951
C            3.27931595335359       -4.54842293571736       -1.02910172623676
C            4.41524472038657       -5.35546629996056       -1.08168834630595
C            4.32106654709867       -6.70705430074240       -0.80899378527604
C            3.09784822787106       -7.27498060638797       -0.49062541204364
C            1.96582648643539       -6.47734964769126       -0.44171510481415
C            2.05194101425378       -5.12353227378075       -0.70404951756374
C            5.00105431957824       -1.40866955788104       -1.62931007042566
C            6.08793512716295       -0.68833289691298       -1.17881256416743
C            5.24889967403626        1.50061189616848        0.96392630706522
C            4.18322542930787        2.36484247353610        0.85735053061846
C            3.24244782073964        5.68379356861383       -0.47474652499845
C            2.12070408181414        6.44364806074188       -0.71818350433528
C           -1.42938546846786        6.06622119649886       -0.50132514091583
C           -2.68368295453009        6.55705710079548       -0.09310056162316
C           -3.79309635433948        5.75858547002124       -0.12391912226254
C           -3.74941832878161        4.40965819125139       -0.57412547271221
C           -4.87430920379973        3.53703903474546       -0.51828788634822
C           -6.10442772875475        3.89358361274926        0.11048073301064
C           -7.11781592227845        3.00192442289526        0.27727751238051
C           -6.99696277649103        1.64834346365700       -0.14266456869171
C           -8.02918815389466        0.73622392655462        0.16436444125652
N           -9.27858549712248        1.10621311839094        0.45441938034113
C           -9.97443035772019       -0.02466514815712        0.63380529127055
C          -11.36550286684881       -0.15330453116560        0.91579906102677
C          -12.18917544751154        0.97333702708127        1.00083220758550
C          -13.53545831612564        0.83687940569805        1.24391855498112
C          -14.07304356317869       -0.43844252322582        1.39793332302206
C          -13.27063956283468       -1.55517043411713        1.32149901548710
C          -11.89058362795148       -1.45612425814361        1.08704962599874
C          -11.01411575590506       -2.61227417628021        1.03002808531142
C          -11.48654551546058       -3.90561666243960        1.28410051999849
C          -10.66153882069043       -5.00720169617693        1.25968127194944
C           -9.30293532177717       -4.85508938703860        0.98653633793560
C           -8.79732383324191       -3.60718153760701        0.72947928373128
C           -9.62307838600343       -2.46662260747761        0.73402974581209
C           -9.14457062353866       -1.15801704987545        0.49335725221644
N           -7.90317075714167       -0.65991005658258        0.18161544136675
C           -6.66975706416075       -1.33404951845123        0.09793338646431
C           -5.70346321653085       -1.11035008340782        1.07586256513601
C           -4.46536505078419       -1.70695555431435        0.98184654973670
C           -4.15067436923459       -2.52985567193244       -0.10395875670130
N           -2.88807018627215       -3.10074801059299       -0.21911157084480
C           -1.75760177734887       -2.44926939699504        0.29833295150838
C           -0.75650481479389       -3.18558881383407        0.93040131215014
C            0.35771951384873       -2.54971698533963        1.44294827121837
C            0.48778066111827       -1.17456525910005        1.34238064655948
C           -0.50376695367322       -0.43776187638451        0.71510123037163
C           -1.61592818877985       -1.06666566631281        0.18952815434387
C           -2.72300896891098       -4.35277508699189       -0.83378402875779
C           -3.62881288622220       -5.38662587251005       -0.60061414813505
C           -3.44777085653593       -6.61702800815751       -1.20355085346870
C           -2.36148929994590       -6.83741347362057       -2.03542523068312
C           -1.45677748637146       -5.81349868850165       -2.26618331965391
C           -1.63482003016650       -4.57710208992485       -1.67571718357528
C           -5.13131177595193       -2.76137175084971       -1.07504575167890
C           -6.37549888684392       -2.17612512931427       -0.97352935691046
C           -5.83183551436366        1.31955373344128       -0.88283226736224
C           -4.83279630375735        2.22273225288139       -1.06726143775288
C           -2.48316509273385        3.96268643840362       -1.04338344208894
C           -1.37114635773829        4.75014437603647       -0.99993100402855
C            0.59920663701576        9.02190917407392        0.10175276385259
C            0.60175558938413       10.38421180091871       -0.12352505594066
H           -0.25381666500443       12.00852301905266       -1.22902703109421
H           -1.78413180685687       10.55245389866349       -2.50906556130558
H           -1.78271626019037        8.12134585004921       -2.13272383694149
H           -0.02405352281273        4.90483098802180        1.40021190145007
H            1.97825891744769        3.57950659579729        1.84977345650136
H            5.86441915802574        5.24308737492310        0.30188751776269
H            7.76292825828075        3.69411510777651        0.47681426585331
H           11.20122869053646        2.46276489275650        2.17681935747485
H           13.58713330048618        2.33180205033534        2.87438946860583
H           14.78491987945966        0.18015046391054        2.67277391638014
H           13.67793692506366       -1.77840545290009        1.79076067069317
H           12.78430368074539       -3.28555053720496        0.92995775038092
H           11.65985422052628       -5.18213111346149       -0.07139846186095
H            9.29412695315147       -5.00273041017367       -0.78047591273996
H            8.07512202457332       -2.91217410979534       -0.42613488832973
H            6.58040633477456       -2.24472905560740        1.78444731277890
H            4.64348521380490       -3.53205317351674        0.98276914907348
H            2.01265350058796       -4.24573588792950       -3.32024073701955
H            0.19670752452707       -3.17399633896807       -4.58350060633517
H           -0.50083044229184       -0.86758359902404       -4.04426908636521
H            0.64356190460414        0.36049338494308       -2.22951680624333
H            2.44158458777715       -0.71528400837246       -0.95223800036677
H            5.36796905593549       -4.91841190630834       -1.34298870371636
H            5.20801682934042       -7.32209580988837       -0.85505691969771
H            3.02757463051684       -8.33214801783817       -0.28315381428783
H            1.00809027216605       -6.91030183441694       -0.19292081015895
H            1.17121880006203       -4.50171652122772       -0.65560279323463
H            4.56523443166682       -1.17748917974831       -2.58936122569114
H            6.50057384421761        0.10875101052725       -1.77941612348781
H            5.06435557070733        0.46341143966482        1.19640971548069
H            3.18238295143877        1.97494525023846        0.96143713660647
H            4.14860241553815        5.89833510749521       -1.02054903474567
H            2.15493490600017        7.24885532750924       -1.43740886718340
H           -2.75626175341334        7.56740745054024        0.28329177276167
H           -4.72679026808938        6.17516273789166        0.21782928000922
H           -6.23646187606809        4.89244767083565        0.49548387599638
H           -8.03192136703878        3.28756041914520        0.77536543639480
H          -11.73302583421147        1.94212398015958        0.86377285510748
H          -14.17262659563862        1.70646609096031        1.30925355379432
H          -15.13194321607800       -0.55526220006529        1.57950014667235
H          -13.73395901044637       -2.52154346345043        1.44204086600950
H          -12.52806283306206       -4.05816368477979        1.51741302142631
H          -11.06582356165050       -5.98811946755013        1.46191888457201
H           -8.65089061863222       -5.71633895012087        0.98117538186783
H           -7.74401152509076       -3.48998270950865        0.53320895110923
H           -5.93540433622730       -0.46504667356692        1.91037592098676
H           -3.73016520249085       -1.53755043255500        1.75370443674261
H           -0.86532384432885       -4.25600521359724        1.02681935208891
H            1.12211268126245       -3.13264684173628        1.93540951448900
H            1.35520594164700       -0.68326965262326        1.75647089487482
H           -0.41105725842747        0.63509989095947        0.63054230514068
H           -2.38457001002251       -0.49228374934270       -0.30518809100574
H           -4.46797132465431       -5.22045669883401        0.05920949591826
H           -4.15473066756468       -7.41169018616877       -1.01430637489391
H           -2.22094856835734       -7.80179378857566       -2.50005886025857
H           -0.60841216831710       -5.97563495107435       -2.91401142084047
H           -0.93690724194646       -3.77508894399135       -1.86705560584173
H           -4.90480723375277       -3.39117552423904       -1.92210351310030
H           -7.12131283689904       -2.34660797947837       -1.73683090940339
H           -5.75601269932772        0.35147811749650       -1.35265823205661
H           -3.99506583925714        1.92472434322439       -1.67757999325449
H           -2.37887056523596        2.96733072406402       -1.44171892027519
H           -0.42806006864720        4.37181710522646       -1.36730491406701
H            1.25639484363646        8.58852000740771        0.84116479791315
H            1.27241228818411       11.01572799095012        0.44007393659951
