$hessian                                                                        
        0.5188587519  -0.0191725710   0.0122520398  -0.0957197196  -0.0436877503
        0.0401726230  -0.0216274650  -0.0211841831   0.0184221406  -0.0047813844
        0.0004744167  -0.0007094399  -0.0002919024  -0.0008706143   0.0008077405
       -0.0001676969   0.0000506364   0.0000224131   0.0000439552   0.0000051627
        0.0000183614  -0.0000180387   0.0000191648   0.0000238843   0.0000031532
       -0.0000008583   0.0000079754   0.0000188708   0.0000018324   0.0000063934
       -0.0000183299   0.0000417656  -0.0000635194  -0.0000406710   0.0000007527
       -0.0000046921   0.0001103202  -0.0000232338   0.0000216050  -0.0000366567
       -0.0000061736   0.0000036498   0.0000358194   0.0000142090  -0.0000043928
       -0.0000703600   0.0000012157   0.0000034681   0.0001077082  -0.0000015738
       -0.0000007149  -0.0000695811  -0.0000004062   0.0000016283   0.0000268210
       -0.0000162605   0.0000002638  -0.0000459301   0.0000115779  -0.0000082857
       -0.0000013279   0.0000946580  -0.0000482745   0.0000183797  -0.0000105138
        0.0000008912   0.0000010521  -0.0000121420  -0.0000007174  -0.0000209074
       -0.0000318176  -0.0000171383   0.0000554851  -0.0000352811   0.0000041742
       -0.0001777353  -0.0000076216  -0.0000354069   0.0001746809  -0.0002939806
        0.0002526351   0.0001268314  -0.0000678043   0.0000495508  -0.0014921661
        0.0020273123  -0.0014000009   0.0072457612   0.0075241394  -0.0057788151
       -0.0005212120   0.0009444900  -0.0009059753   0.0006009685  -0.0003083961
       -0.0001614677  -0.0003937177  -0.0002244728   0.0000297192   0.0001560542
        0.0002632647   0.0001238212  -0.0002652506   0.0001125037  -0.0000537770
        0.0001076604  -0.0001575278   0.0000809035  -0.0000212576   0.0000202265
       -0.0000151107   0.0000330203  -0.0000161144   0.0000130058  -0.0000111159
       -0.0000028165   0.0000010827   0.0000257566  -0.0000074734   0.0000088414
       -0.0000676539  -0.0000208101   0.0000150850  -0.0000116018   0.0000273882
       -0.0000230931   0.0000016844  -0.0000090149   0.0000067786  -0.0000037825
        0.0000052738  -0.0000008411   0.0000597358   0.0000282944  -0.0000169759
        0.0000624874  -0.0000266027   0.0000450543   0.0000384658   0.0000860444
       -0.0000317740   0.0004598877   0.0000315960  -0.0000062479  -0.0003221301
        0.0000940781  -0.0011423392  -0.2380296113   0.0742108048   0.0592763738
       -0.0434447096  -0.0205131735  -0.0119902785  -0.1212521302   0.0208053317
       -0.1098164601   0.0010323626  -0.0012313529   0.0012617871  -0.0000674385
        0.0000532619   0.0000678109  -0.0000059143  -0.0000216422  -0.0000290918
       -0.0000221079  -0.0000156824  -0.0000200528  -0.0000377009  -0.0000029732
       -0.0000194991   0.0000053515  -0.0000017382   0.0000086008  -0.0000164548
        0.0000046211  -0.0000001507  -0.0000149963  -0.0000085722   0.0000044289
        0.0000079559  -0.0000044453  -0.0000024989  -0.0000378752   0.0000134477
        0.0000114256  -0.0000220852   0.0000137328   0.0000227943  -0.0000055695
        0.0000214177   0.0000251223  -0.0000744773  -0.0000507476  -0.0000743177
       -0.0000182177  -0.0000717056   0.0000602039  -0.0000050432  -0.0000039349
       -0.0000209736  -0.0000135408   0.0000134757   0.0000059532   0.0002452520
        0.0006105654  -0.0005791256   0.0000052158   0.0000825917   0.0000001643
        0.0000077239   0.0000307885  -0.0000038824   0.0000050284   0.0000032257
       -0.0000072150  -0.0000032464   0.0000132177  -0.0000140850  -0.0000097794
        0.0000095676  -0.0000092304  -0.0000161751   0.0000041876  -0.0000035339
       -0.0000235073   0.0000048883  -0.0000025378  -0.0000249827  -0.0000016900
        0.0000051479  -0.0000080666   0.0000009674   0.0000031895  -0.0000598449
       -0.0000150302  -0.0000131194   0.0000405211   0.0000386963  -0.0000354059
       -0.0003116532   0.0003239099  -0.0000782739
       -0.0191725710   0.4751324237   0.0061607562  -0.0426784370  -0.1248778466
        0.0601526863  -0.0075037703  -0.0027709930   0.0045293765   0.0005471518
        0.0045121595   0.0025656311  -0.0000386513  -0.0000942580  -0.0000644854
       -0.0000327421  -0.0000217904   0.0000795130   0.0001237821   0.0000102396
       -0.0000287783  -0.0000080038   0.0000318234   0.0000329672   0.0000032737
        0.0000000494  -0.0000006314   0.0000010515   0.0000100796  -0.0000030057
       -0.0000155091  -0.0000052869   0.0000176303  -0.0000224241   0.0000006366
        0.0000039837   0.0000786574   0.0000073401   0.0000026072  -0.0000206575
       -0.0000197064   0.0000045686   0.0000168308   0.0000092443  -0.0000041466
       -0.0000410178   0.0000000522   0.0000010833   0.0000564311   0.0000002186
        0.0000005048  -0.0000375034   0.0000012174   0.0000005631   0.0000194291
       -0.0000083343   0.0000033410  -0.0000136278   0.0000053352  -0.0000048644
       -0.0000398492  -0.0000091188  -0.0000169055   0.0000245407  -0.0000027763
       -0.0000047417  -0.0000233696   0.0000001519  -0.0000014921  -0.0000083242
       -0.0000214518  -0.0000310152   0.0000551101   0.0000407707   0.0000139176
       -0.0000229283  -0.0000222070  -0.0000529212  -0.0000565622  -0.0003603783
        0.0003466837  -0.0001672818  -0.0006656837  -0.0007969636   0.0025135142
        0.0019030941   0.0045460567  -0.0052603087  -0.0162389239   0.0156812158
       -0.0009601896  -0.0011083159  -0.0012327232   0.0000875863   0.0000453292
       -0.0000117091   0.0000266256  -0.0000027092   0.0001380717  -0.0001340491
       -0.0001612176  -0.0000081296   0.0002359787   0.0000937681  -0.0000910194
       -0.0000246729   0.0000740592  -0.0000101832  -0.0000149078  -0.0000299762
        0.0000185617  -0.0000263414   0.0000209233  -0.0000144173   0.0000158378
        0.0000165757  -0.0000132894   0.0000011124  -0.0000140917   0.0000066002
       -0.0000012220   0.0000271017  -0.0000191994   0.0000639646  -0.0000057061
        0.0000111328  -0.0000225792  -0.0000033355   0.0000053024  -0.0000018626
        0.0000060912  -0.0000040988  -0.0000247744  -0.0000118275   0.0000048048
        0.0000627598   0.0000032859  -0.0000193523  -0.0001238454  -0.0001472937
        0.0000764732  -0.0001269079  -0.0000250198   0.0001888072   0.0000867415
       -0.0004724780   0.0001238748   0.0746826730  -0.0687895847  -0.0221253135
       -0.0223277195  -0.2200598279  -0.0959748661   0.0200483566  -0.0450275523
        0.0269089945   0.0008370482  -0.0007196108  -0.0018942442  -0.0000536487
        0.0000338620   0.0000432161  -0.0000071268  -0.0000036347   0.0000003533
       -0.0000234741  -0.0000085356  -0.0000076327  -0.0000303364  -0.0000035972
       -0.0000013658   0.0000032837   0.0000063920   0.0000053210  -0.0000115926
        0.0000047327  -0.0000018166  -0.0000074515  -0.0000028264   0.0000032366
        0.0000057354  -0.0000006518  -0.0000004204  -0.0000212373   0.0000043177
        0.0000112329  -0.0000086784   0.0000089240   0.0000154547   0.0000021478
        0.0000165418   0.0000254166  -0.0000605853  -0.0000582056   0.0000139360
       -0.0000070199  -0.0000031182  -0.0000167161   0.0000650951   0.0000634046
       -0.0000148104  -0.0001708258  -0.0001858998   0.0001069795  -0.0004378294
       -0.0006743859   0.0004866008   0.0000129708   0.0001534094   0.0000670761
        0.0000560052   0.0000140927   0.0000197019   0.0000031310   0.0000038822
       -0.0000013620  -0.0000020248   0.0000030459   0.0000001429   0.0000073255
       -0.0000003748   0.0000003626   0.0000110296   0.0000010214   0.0000001476
        0.0000011172   0.0000070894  -0.0000021239   0.0000001705   0.0000082289
       -0.0000021402   0.0000169040   0.0000245052  -0.0000117650   0.0000125488
        0.0000011436   0.0000143097   0.0000519769   0.0000410494   0.0000552029
       -0.0000434566   0.0002909191  -0.0000057512
        0.0122520398   0.0061607562   0.4868955100   0.0421885683   0.0655407984
       -0.1188228005   0.0064132835   0.0045805939  -0.0032542261  -0.0001721608
        0.0022195050   0.0040441583   0.0001179485   0.0000742409  -0.0000289595
        0.0000258971  -0.0000482601  -0.0000180286  -0.0000476567   0.0000180300
        0.0000177506   0.0000049742  -0.0000272386  -0.0000225973   0.0000252946
       -0.0000029790  -0.0000000469  -0.0000176430  -0.0000017498  -0.0000017271
        0.0000266175  -0.0000103519  -0.0000063852   0.0000137513  -0.0000012897
       -0.0000003318  -0.0000567331   0.0000038882   0.0000075454   0.0000100690
        0.0000042614  -0.0000095152  -0.0000132149  -0.0000051621   0.0000033985
        0.0000284050  -0.0000005023  -0.0000026869  -0.0000351427   0.0000005059
        0.0000007430   0.0000248664  -0.0000004416   0.0000000449  -0.0000128491
        0.0000051908  -0.0000039216   0.0000074991  -0.0000033300   0.0000005208
        0.0000107756   0.0000147813   0.0000092131   0.0000044951  -0.0000069143
        0.0000006402  -0.0000038461  -0.0000062834  -0.0000082164   0.0000015666
        0.0000184881   0.0000274346  -0.0001035793  -0.0000332650   0.0000068425
       -0.0000040358   0.0000701883  -0.0000047100  -0.0001453568   0.0002547942
       -0.0003712433   0.0000659379  -0.0006683267  -0.0007244449  -0.0020717933
        0.0048257892   0.0025354996   0.0060614383   0.0152666041  -0.0126466736
        0.0004055626  -0.0009124616  -0.0013423596   0.0006977244  -0.0003135028
       -0.0000857871  -0.0001870335  -0.0001318285   0.0000170210   0.0001193586
        0.0000971597   0.0000468182  -0.0001850376   0.0000013058   0.0000305889
        0.0000153308  -0.0000564143   0.0000350151   0.0000115505   0.0000211407
       -0.0000203933   0.0000194493  -0.0000111693   0.0000138879  -0.0000124644
       -0.0000091843   0.0000073244  -0.0000020073   0.0000072812  -0.0000047866
       -0.0000133897  -0.0000101163   0.0000094525  -0.0000394126   0.0000110652
       -0.0000086499   0.0000114418  -0.0000025887  -0.0000011537  -0.0000118585
       -0.0000043676   0.0000016776   0.0000105378   0.0000081142  -0.0000157283
       -0.0000176927  -0.0000262778   0.0000156699   0.0000933004   0.0001046954
       -0.0000551135   0.0002736581   0.0000224554  -0.0001451412  -0.0003992232
       -0.0001005248  -0.0005155136   0.0589468499  -0.0227765859  -0.0618961443
       -0.0136706974  -0.1006279241  -0.0918283564  -0.1096330382   0.0265167819
       -0.2003682849  -0.0010372042  -0.0013869873  -0.0005344705   0.0000589324
        0.0000076065  -0.0000451187   0.0000000945   0.0000170877   0.0000184943
        0.0000050384   0.0000077058   0.0000089625   0.0000124187   0.0000062276
        0.0000072139  -0.0000022919  -0.0000021330   0.0000018265   0.0000073383
       -0.0000030433   0.0000001572   0.0000062313   0.0000034947  -0.0000013652
       -0.0000034430   0.0000025158   0.0000026311   0.0000181680   0.0000012780
       -0.0000026090   0.0000199876  -0.0000027372  -0.0000072806   0.0000108833
        0.0000015167  -0.0000048561   0.0000478133   0.0000445705   0.0000193373
        0.0000058753  -0.0000221164   0.0000075685   0.0001404603   0.0001032884
       -0.0000877611  -0.0000961581  -0.0000863595   0.0000629111   0.0004701348
        0.0006554767  -0.0005410476  -0.0000044849   0.0000740986  -0.0000077538
       -0.0000176119   0.0000234517   0.0000144737  -0.0000025668  -0.0000066425
        0.0000057057  -0.0000020318   0.0000015422   0.0000003395  -0.0000068060
        0.0000012406  -0.0000000641  -0.0000094750   0.0000001999  -0.0000000232
       -0.0000044796  -0.0000036006   0.0000027331  -0.0000044085  -0.0000044138
        0.0000037761  -0.0000087280  -0.0000104233   0.0000100822   0.0000190763
        0.0000204738  -0.0000163280  -0.0000893810   0.0000104466   0.0000027517
       -0.0005657071   0.0004968604  -0.0004331161
       -0.0957197196  -0.0426784370   0.0421885683   0.6387372209  -0.0053506283
        0.0034812510  -0.3157495197   0.0233414276  -0.0204653936  -0.0324835645
       -0.0642254224   0.0573249899   0.0008709567  -0.0016738726   0.0015468968
       -0.0004969309  -0.0000078304  -0.0000690895  -0.0001546268   0.0002282147
       -0.0000051262   0.0001111278   0.0000011193   0.0000030335   0.0000305106
       -0.0000150566   0.0000211875  -0.0000322822   0.0000043321   0.0000084937
        0.0000745402   0.0001039185  -0.0001380446   0.0000515038   0.0000097368
       -0.0000085972  -0.0000556137  -0.0000369088   0.0000374808   0.0000185255
        0.0000134506  -0.0000055529  -0.0000095734  -0.0000024061   0.0000000127
        0.0000147398   0.0000042677  -0.0000022412  -0.0000121741   0.0000013492
       -0.0000004018   0.0000047430  -0.0000002387   0.0000002474  -0.0000088275
        0.0000022235  -0.0000035252   0.0000056074  -0.0000219555   0.0000036316
        0.0000725522   0.0001513688  -0.0000877040  -0.0000257516  -0.0000102126
       -0.0000064430   0.0000340037  -0.0000271647   0.0000090059   0.0001289866
        0.0000013591  -0.0000086762  -0.0001631697   0.0000132845  -0.0002417813
       -0.0005398137   0.0001071073  -0.0000172587  -0.0501250636   0.0232375258
       -0.0203610263  -0.0003874349  -0.0003588310   0.0005162102   0.0573757355
        0.0220573210  -0.0208312727  -0.1404405276   0.0426648155  -0.0396002940
       -0.0265378246   0.0185264353  -0.0161114473  -0.0026382713  -0.0017416276
       -0.0006591223  -0.0010358567   0.0003346272   0.0014181129   0.0009921865
       -0.0001726903   0.0000685347  -0.0004651917   0.0000773836  -0.0003159583
        0.0001007338  -0.0002155594   0.0000395543  -0.0000230674   0.0000440338
       -0.0000423924   0.0000249000  -0.0000161351   0.0000256787  -0.0000220494
       -0.0000209931   0.0000155927   0.0000184758   0.0000224844  -0.0000051654
       -0.0000605576  -0.0000377152   0.0000371672  -0.0000452134   0.0000586744
       -0.0000381687   0.0000169861  -0.0000282959   0.0000145558  -0.0000120771
        0.0000099370  -0.0000096152   0.0000353727   0.0000190998  -0.0000168317
       -0.0000356925  -0.0000515253   0.0000411390   0.0001852570   0.0001848350
       -0.0000584353  -0.0009811644  -0.0001539401   0.0009781458   0.0009982357
        0.0028050265   0.0003517959  -0.0173810529  -0.0183505145   0.0175685283
       -0.0022032567  -0.0072244374   0.0029155965   0.0072378352   0.0092685903
       -0.0089580146  -0.0188413492   0.0019675625  -0.0022811086  -0.0000822172
       -0.0002358035  -0.0000147070  -0.0000036245   0.0000063471  -0.0000150719
        0.0000180117   0.0000050975   0.0000069646   0.0000160846   0.0000013314
       -0.0000118874  -0.0000129650  -0.0000062413  -0.0000007032   0.0000018779
       -0.0000030795   0.0000001011   0.0000015956   0.0000032999  -0.0000011747
        0.0000004694   0.0000138861  -0.0000002630   0.0000183497   0.0000126770
       -0.0000019372   0.0000218516  -0.0000034824  -0.0000084588  -0.0000016826
        0.0000220083  -0.0000045490   0.0000296421   0.0000090922   0.0002125335
        0.0002100378   0.0000528107  -0.0000259477   0.0001519653  -0.0003152348
        0.0000153124   0.0002078238  -0.0000123503   0.0002733671  -0.0006948321
       -0.0023898158   0.0023194979   0.0001082441   0.0001424972  -0.0004354735
       -0.0003252197   0.0000423462   0.0000206610   0.0000076521  -0.0000189363
        0.0000134563   0.0000023175   0.0000063647  -0.0000046758  -0.0000062015
        0.0000060293  -0.0000058731  -0.0000137537   0.0000021474   0.0000004493
       -0.0000102150   0.0000027815  -0.0000045141  -0.0000111965  -0.0000043477
        0.0000014494  -0.0000069696  -0.0000048453   0.0000029974  -0.0000047786
        0.0000182887  -0.0000130497  -0.0000738084  -0.0000244443   0.0000423567
       -0.0000019767  -0.0001675370  -0.0006275835
       -0.0436877503  -0.1248778466   0.0655407984  -0.0053506283   0.4088040926
       -0.2383508582  -0.0355671862  -0.0712559763   0.0214813697  -0.0198151349
        0.0124232290  -0.0120979862  -0.0017587110   0.0011177353   0.0057772187
        0.0007002278   0.0000077614  -0.0001698331   0.0000248380  -0.0001243084
        0.0001012686   0.0000052054  -0.0000480061  -0.0000317495   0.0000095174
       -0.0000384615   0.0000026357   0.0000579823  -0.0000098101   0.0000099137
        0.0000709605   0.0002424865   0.0000118614   0.0000090562   0.0000193781
        0.0000053486  -0.0000338714  -0.0000575267   0.0000448210   0.0000465461
        0.0000039831  -0.0000055417  -0.0000116944  -0.0000072817  -0.0000056541
        0.0000358996  -0.0000053020   0.0000004135  -0.0000474995   0.0000033657
        0.0000013792   0.0000266685  -0.0000024887  -0.0000014593  -0.0000160416
        0.0000035159  -0.0000003161   0.0000214873  -0.0000088371  -0.0000053288
       -0.0000778932   0.0003251908   0.0000292585  -0.0000882151  -0.0000304484
        0.0000027319   0.0000177367   0.0000055855  -0.0000067297   0.0000314580
       -0.0000105820   0.0000275871  -0.0000434184  -0.0001661075  -0.0000604656
       -0.0011870024   0.0000306314   0.0000564507   0.0219289983  -0.0082146256
        0.0029028488  -0.0001538517  -0.0001701466   0.0000191074  -0.0178187753
       -0.0355909116   0.0326196227   0.0902204149  -0.1570999249   0.0944733671
        0.0130599224   0.0000300643   0.0005822236  -0.0018546326   0.0015697727
        0.0002612049   0.0007746477   0.0001602848  -0.0000728367   0.0000484365
       -0.0001669875  -0.0001159135  -0.0005516990  -0.0000038930  -0.0000266463
        0.0001738706  -0.0002667293   0.0001106456  -0.0000448397   0.0000492655
       -0.0000453840   0.0000567535  -0.0000256661   0.0000322150  -0.0000446409
       -0.0000176455   0.0000158932   0.0000277730   0.0000071436   0.0000058370
       -0.0000967786  -0.0000530848   0.0000516162  -0.0000895655   0.0000460470
       -0.0000468832   0.0000161678  -0.0000173774   0.0000026278  -0.0000128793
       -0.0000077327   0.0000031908   0.0000804993   0.0000159240  -0.0000228153
       -0.0000451999  -0.0000515113   0.0000490199   0.0001751466   0.0002637941
       -0.0000985136   0.0004373563  -0.0003048723   0.0001217924  -0.0024326200
       -0.0015863991   0.0015209242   0.0003996580   0.0055209022  -0.0050933248
       -0.0144221857  -0.0242824439   0.0164171499  -0.0003894878  -0.0069810699
        0.0074928154   0.0192499255  -0.0004708877   0.0019950716  -0.0001607478
       -0.0001392932  -0.0001672046   0.0000015070   0.0000304685  -0.0000011344
        0.0000287913   0.0000154049   0.0000118426   0.0000429837   0.0000269371
        0.0000063529  -0.0000084556   0.0000035032   0.0000014551   0.0000058672
       -0.0000026953  -0.0000014208   0.0000008118   0.0000034856  -0.0000006051
       -0.0000062021   0.0000015283   0.0000020857   0.0000097359   0.0000314536
       -0.0000135906   0.0000197432  -0.0000033355  -0.0000202488   0.0000035091
       -0.0000123945  -0.0000237824  -0.0000017048   0.0001517542   0.0000875021
       -0.0000779068   0.0002120989  -0.0001486192   0.0001518855   0.0001651258
       -0.0003043694   0.0001348610   0.0002707977  -0.0000922209  -0.0017797480
        0.0008484456   0.0057443861   0.0001236004  -0.0002391810  -0.0000626246
       -0.0001007187   0.0000625685   0.0000337821   0.0000356557  -0.0000071284
        0.0000082670   0.0000067618   0.0000140831  -0.0000084970  -0.0000057844
        0.0000098847  -0.0000077674  -0.0000192008   0.0000027726  -0.0000000738
       -0.0000183947   0.0000051731  -0.0000053992  -0.0000159792  -0.0000047023
        0.0000047918  -0.0000169032  -0.0000116391   0.0000082365  -0.0000334108
        0.0000175518  -0.0000252532  -0.0001125465  -0.0000414517  -0.0001560763
       -0.0002729615  -0.0001064776  -0.0003818049
        0.0401726230   0.0601526863  -0.1188228005   0.0034812510  -0.2383508582
        0.3581854829   0.0311960996   0.0204863312  -0.0669913711   0.0180929036
       -0.0111684697   0.0093928179   0.0016220303   0.0057749072   0.0025319937
        0.0012622815   0.0000264897   0.0000067997   0.0000445866  -0.0000733911
       -0.0001643929  -0.0000358798   0.0000305889  -0.0000075319  -0.0000236730
       -0.0000021509   0.0000069525   0.0001034945   0.0000079840  -0.0000312292
        0.0001287778   0.0000058766   0.0003309134  -0.0000191484   0.0000107530
        0.0000189173   0.0000481470   0.0000410550  -0.0000492627  -0.0000471756
       -0.0000052375  -0.0000014326   0.0000170442   0.0000083584   0.0000055695
       -0.0000436885   0.0000003751  -0.0000004505   0.0000616424  -0.0000030198
       -0.0000014058  -0.0000348397  -0.0000004772  -0.0000003484   0.0000167487
       -0.0000057407  -0.0000010569  -0.0000293836   0.0000106257  -0.0000000165
       -0.0001127936   0.0000419448   0.0002326535  -0.0000647916   0.0000003169
       -0.0000016130  -0.0000073205   0.0000017113  -0.0000355543  -0.0000047129
       -0.0000305859  -0.0000492933  -0.0000391478   0.0000973411  -0.0001193028
       -0.0008639789  -0.0001804952  -0.0000302645  -0.0195817203   0.0031088191
       -0.0074907468   0.0001794056   0.0000996193  -0.0001107075   0.0165395844
        0.0323708896  -0.0284335335  -0.0863335927   0.0963613269  -0.1342433868
       -0.0057387069   0.0009452422   0.0002421296   0.0019076781  -0.0007371210
       -0.0000807526  -0.0000694327  -0.0000384111  -0.0000232987  -0.0001660318
        0.0002678404   0.0001377068   0.0002592177  -0.0000135326   0.0000110163
       -0.0000818653   0.0001119589  -0.0000484933   0.0000271384  -0.0000145746
        0.0000119417  -0.0000249291   0.0000111648  -0.0000129869   0.0000262134
        0.0000083132  -0.0000086072  -0.0000128432  -0.0000002465  -0.0000036368
        0.0000383657   0.0000287113  -0.0000222350   0.0000281062  -0.0000188651
        0.0000185727  -0.0000006000   0.0000109531  -0.0000032985   0.0000011403
        0.0000124566  -0.0000067518  -0.0000427820  -0.0000078660   0.0000065137
        0.0000189996   0.0000201764  -0.0000183945  -0.0000658944  -0.0001012853
        0.0000390353   0.0003717339  -0.0000299692   0.0000177188   0.0004358595
        0.0003360565  -0.0008114021   0.0078607019   0.0065775091  -0.0056056704
       -0.0036095461  -0.0031906230   0.0082290964   0.0087513430   0.0204160601
       -0.0190625218  -0.0172791290   0.0015478831  -0.0006726171  -0.0000018142
        0.0000673901   0.0001187145  -0.0000022335  -0.0000141957  -0.0000203733
       -0.0000182422  -0.0000142652  -0.0000104431  -0.0000088600  -0.0000090387
        0.0000274893   0.0000108120  -0.0000044028   0.0000039345  -0.0000054633
        0.0000019417   0.0000000398  -0.0000024583  -0.0000051399   0.0000010062
        0.0000065036  -0.0000035061   0.0000003885  -0.0000458686   0.0000023501
        0.0000367487  -0.0000266227   0.0000069217   0.0000223542  -0.0000003143
       -0.0000058657   0.0000352284   0.0001131132  -0.0001390602  -0.0001057406
        0.0000751347  -0.0001640143   0.0001758385  -0.0001490166  -0.0001182673
        0.0002196368  -0.0001096926  -0.0002784287   0.0000938989   0.0016514469
        0.0057060945   0.0026359479  -0.0000681384   0.0001300620   0.0000373474
        0.0001043599  -0.0000801677  -0.0000190053  -0.0000269217   0.0000009944
       -0.0000002170  -0.0000060739  -0.0000066588   0.0000035327  -0.0000001632
       -0.0000048987   0.0000035531   0.0000079932  -0.0000022147   0.0000012394
        0.0000073285  -0.0000025201   0.0000050943   0.0000091810   0.0000020388
        0.0000014495   0.0000153520   0.0000077012   0.0000002681   0.0000275554
       -0.0000116237   0.0000143462   0.0001120094   0.0000341459   0.0000567993
       -0.0000284164  -0.0000547773   0.0002014597
       -0.0216274650  -0.0075037703   0.0064132835  -0.3157495197  -0.0355671862
        0.0311960996   0.6525167259   0.0003304132  -0.0021128478  -0.1399180818
       -0.0467930238   0.0416587542  -0.0263172750  -0.0188984117   0.0166846054
       -0.0012457905   0.0007903839   0.0015001927   0.0001029402  -0.0004235106
        0.0004460108   0.0001101615   0.0000065593   0.0000680183   0.0000099390
        0.0000123313   0.0001049431  -0.0000483641   0.0000054371   0.0000791730
       -0.0006411230   0.0006724835  -0.0010580684   0.0001273600   0.0000337063
       -0.0000357101   0.0001645599  -0.0003111535   0.0002901285  -0.0000411490
       -0.0000468891  -0.0000159847   0.0000799047   0.0000248145  -0.0000082918
       -0.0001227951  -0.0000045732   0.0000029117   0.0001709561   0.0000008444
        0.0000011525  -0.0001039247   0.0000004011   0.0000005838   0.0000373029
       -0.0000535986  -0.0000245492  -0.0001573562   0.0000339365  -0.0000105579
       -0.0004783062   0.0011666376  -0.0005718274  -0.0000346692  -0.0000790013
       -0.0000161778   0.0000003420  -0.0000983571  -0.0000353630   0.0001163389
       -0.0000704795  -0.0000223972   0.0001548781  -0.0004912826   0.0003663971
       -0.0012793356  -0.0013386133  -0.0008237866   0.0576930659  -0.0191995189
        0.0169551488  -0.0009374698   0.0029504038  -0.0025085526  -0.0454050800
       -0.0218834104   0.0197245201  -0.0397524299   0.0587862303  -0.0518187438
        0.0016408063   0.0021429892  -0.0014514340  -0.0012605820   0.0006877271
       -0.0000215428   0.0001427830   0.0001714727   0.0001010493  -0.0003076073
        0.0000237536  -0.0000167000   0.0002445216  -0.0000205544  -0.0000143832
       -0.0000316280   0.0000749616  -0.0000096136   0.0000254301  -0.0000121060
        0.0000136866  -0.0000209256   0.0000038090  -0.0000039833   0.0000094375
        0.0000056773  -0.0000026050  -0.0000053412  -0.0000137479   0.0000065876
        0.0000212929   0.0000189057  -0.0000138913   0.0000209576  -0.0000286085
        0.0000203373  -0.0000074255   0.0000069112  -0.0000049851   0.0000138273
       -0.0000100722   0.0000034695  -0.0000119291  -0.0000131625   0.0000073193
        0.0000259076   0.0000094421  -0.0000167503  -0.0000648825  -0.0000815487
        0.0000177631   0.0003722335  -0.0002221766   0.0001198194  -0.0004179792
       -0.0006654934   0.0003300698  -0.0011755265  -0.0013972757   0.0015497504
       -0.0006622236   0.0011686365   0.0001117317   0.0002467414   0.0010507927
       -0.0016017671  -0.1149263059   0.0851425999  -0.0748744725  -0.0000663909
       -0.0005487425  -0.0004767035   0.0000072321   0.0000158250  -0.0000408873
       -0.0000118796  -0.0000215810  -0.0000318499  -0.0000548583   0.0000362281
       -0.0001237691  -0.0000002944  -0.0000142737   0.0000020291  -0.0000190521
        0.0000081998  -0.0000020796  -0.0000247508  -0.0000106304   0.0000055579
        0.0000013207   0.0000244993   0.0000068568  -0.0000487541   0.0001122780
       -0.0000207195  -0.0000120371   0.0000330765   0.0000197422   0.0000069721
        0.0000444734  -0.0000163935  -0.0001132506   0.0003934582   0.0006790147
        0.0000524662   0.0007389283  -0.0006605047  -0.0003842040   0.0001312673
        0.0000740605  -0.0003976203  -0.0000513351  -0.0001369802  -0.0000762828
       -0.0005534972   0.0002112799  -0.0000241429  -0.0002197834  -0.0000722457
       -0.0000140640  -0.0000504602   0.0000006324   0.0000013592  -0.0000031970
        0.0000054383  -0.0000013235  -0.0000017194   0.0000044886  -0.0000015946
       -0.0000014881   0.0000045335   0.0000022689  -0.0000015357   0.0000005703
        0.0000014848  -0.0000032485   0.0000009595   0.0000009217  -0.0000031547
       -0.0000028110   0.0000015436  -0.0000004096  -0.0000045864  -0.0000176624
       -0.0000131423   0.0000075288   0.0000610654   0.0000322081  -0.0000221204
       -0.0001643948  -0.0001669789  -0.0000895625
       -0.0211841831  -0.0027709930   0.0045805939   0.0233414276  -0.0712559763
        0.0204863312   0.0003304132   0.4142142638  -0.2696542470  -0.0980660744
       -0.1678678092   0.1105140140  -0.0091384056   0.0001148735   0.0016173692
        0.0012147292   0.0007320655  -0.0000053337   0.0001331423  -0.0002761419
        0.0000808994   0.0001129204   0.0000620119   0.0000472210  -0.0000617671
        0.0000508994  -0.0000322997  -0.0000118369  -0.0000521508   0.0000127914
       -0.0000640147   0.0001564246   0.0000593824   0.0002039363   0.0000208716
        0.0000330254  -0.0001426949   0.0000163035   0.0000045407   0.0000946095
        0.0000143485  -0.0000091027  -0.0000509791  -0.0000087337   0.0000027079
        0.0000729928  -0.0000071761  -0.0000044331  -0.0001466425   0.0000021345
       -0.0000006248   0.0000738850  -0.0000013006   0.0000025094  -0.0000435285
        0.0000000487   0.0000055959   0.0000962404  -0.0000151992   0.0000173166
       -0.0002892845  -0.0000796426   0.0000128970  -0.0000217513   0.0000388069
       -0.0000645421  -0.0000640267  -0.0000383988  -0.0000053864   0.0002659206
        0.0000484070   0.0000092894   0.0001447409  -0.0000926030  -0.0001845992
        0.0015459636  -0.0018097262  -0.0005116811   0.0227294302  -0.0369085151
        0.0335122630   0.0024776679   0.0012946255   0.0043108049  -0.0220260288
       -0.0101800945   0.0054867626   0.0171958591   0.0155317296  -0.0128293662
        0.0020284808   0.0010417571   0.0057083975  -0.0004342580   0.0001474278
       -0.0000635920   0.0000344051   0.0002473126  -0.0004635857  -0.0001346462
        0.0000684525  -0.0000098522   0.0000706174  -0.0000321749   0.0001059228
        0.0000092841   0.0000190805   0.0000112549   0.0000009547  -0.0000036969
        0.0000017465  -0.0000027727  -0.0000000466   0.0000001299   0.0000089919
        0.0000005135   0.0000013833   0.0000075959  -0.0000035453   0.0000010869
        0.0000010896   0.0000039338  -0.0000040754   0.0000013809  -0.0000091248
        0.0000027236   0.0000023838   0.0000018108  -0.0000032815   0.0000077666
        0.0000011014  -0.0000027154  -0.0000109899  -0.0000050970  -0.0000037738
        0.0000153316   0.0000013263  -0.0000065446  -0.0000378065  -0.0000203780