$hessian                                                                        
        0.4518243940   0.0229517835   0.0293950287  -0.1500224863   0.0274677776
        0.0321071804  -0.0176563278   0.0011786783   0.0097743632  -0.0260794302
        0.0089688032  -0.0048285539  -0.0005251002   0.0004974325   0.0007010430
        0.0003654995   0.0005597228  -0.0002419003  -0.0000057530   0.0001625136
       -0.0001118482   0.0003545113   0.0006681172  -0.0008329252  -0.0014196546
       -0.0026605012  -0.0013557864   0.0003431429   0.0007189402   0.0009448803
        0.0000944976   0.0000086212  -0.0000129713   0.0000038754  -0.0000136426
        0.0000210818  -0.0000095038   0.0000296551  -0.0000031887  -0.0000023948
        0.0000226123  -0.0000034269   0.0000209327  -0.0000171221  -0.0000194602
       -0.0000330788   0.0000141293   0.0000111120  -0.0000087441   0.0000022722
       -0.0000052453  -0.0000065646   0.0000091581   0.0000002124  -0.0000035788
       -0.0000036991   0.0000023150  -0.0000063251   0.0000020189   0.0000015462
       -0.0000026475   0.0000005033   0.0000014765   0.0000010886   0.0000040003
       -0.0000001239  -0.0000107067  -0.0000034286   0.0000027514   0.0000049952
        0.0000056102  -0.0000007879  -0.0000221922  -0.0000020592   0.0000040842
        0.0000164622  -0.0000121537  -0.0000019132  -0.0000274640   0.0000047212
       -0.0000018230   0.0000547298   0.0000226117  -0.0000137937   0.0000012519
       -0.0000398329   0.0000074421   0.0000772688   0.0000027642  -0.0000219731
       -0.0000054653   0.0000015851   0.0000117419  -0.0000157904  -0.0000591109
        0.0000145197  -0.0005767918  -0.0011092365  -0.0001910282   0.0000842253
        0.0003104773   0.0003155342   0.0000163134   0.0000009642  -0.0001916055
        0.0001328927   0.0004577639   0.0001781788  -0.0007162199  -0.0006195191
       -0.0012336036   0.0003083525   0.0074706371   0.0048569764  -0.1329282969
        0.0166383089  -0.1159116543  -0.0433001804  -0.0195069954  -0.0102226216
       -0.0786356537  -0.0633041654   0.0566821862   0.0003769474   0.0007133215
       -0.0003439542  -0.0014285152  -0.0018181697   0.0021161684   0.0007612085
        0.0005160350  -0.0008831578  -0.0010971860   0.0001643275  -0.0001008534
       -0.0000000619   0.0000130294   0.0000275738  -0.0001238096  -0.0000109710
        0.0000828589  -0.0001165130   0.0000197574  -0.0001274437  -0.0000077737
        0.0000045302  -0.0000095780  -0.0000066207   0.0000085416  -0.0000018103
       -0.0000001348   0.0000079857  -0.0000025203  -0.0000001173   0.0000005346
        0.0000005409  -0.0000026439   0.0000000820   0.0000018265  -0.0000034024
        0.0000007562   0.0000014198   0.0000010619  -0.0000001974   0.0000009668
       -0.0000046057  -0.0000007445   0.0000022606  -0.0000146114  -0.0000046084
        0.0000024659  -0.0000072448   0.0000174942   0.0000038864   0.0000247319
        0.0000171916  -0.0000114320   0.0000121565  -0.0000471993  -0.0000208088
        0.0000063898  -0.0000325483  -0.0000066232  -0.0000759474  -0.0000298377
        0.0000155154   0.0000226088  -0.0003700268  -0.0005747214
        0.0229517835   0.5170083193  -0.0060363288   0.0326212685  -0.0693560915
       -0.0142830168  -0.0157134836   0.0037709075   0.0072371781   0.0077339090
       -0.0005151199   0.0032541833  -0.0000145473  -0.0006888031  -0.0012032371
        0.0000377583  -0.0000172413   0.0004522909  -0.0001871872  -0.0000403102
       -0.0000480794   0.0000108582  -0.0001412566   0.0003426146   0.0003668685
        0.0002200506  -0.0000889066   0.0004882970   0.0003134522   0.0010039732
       -0.0001579107   0.0002107642  -0.0000104171  -0.0000111154  -0.0000068490
       -0.0000398902   0.0000014242   0.0000086404  -0.0000176079  -0.0000006938
       -0.0000194669   0.0000083924   0.0000119543   0.0000160623  -0.0000096455
        0.0000089758  -0.0000240980   0.0000080480  -0.0000197934   0.0000505449
       -0.0000084868  -0.0000036656   0.0000002467   0.0000036706   0.0000044698
        0.0000024413  -0.0000016745  -0.0000019774   0.0000012251  -0.0000005356
       -0.0000005355   0.0000055149  -0.0000017179   0.0000015919  -0.0000015670
       -0.0000013407   0.0000038529  -0.0000045283   0.0000002995  -0.0000121246
       -0.0000108434   0.0000067089  -0.0000000458   0.0000163227  -0.0000031538
        0.0000140415   0.0000174064  -0.0000025468  -0.0000036852  -0.0000168910
       -0.0000117870   0.0000013397   0.0000088429  -0.0000399378   0.0000056622
       -0.0000027690  -0.0000008480   0.0000169582  -0.0000592093  -0.0000010778
       -0.0000395339  -0.0000126285   0.0000052458  -0.0000030322   0.0000171311
        0.0000354706  -0.0010637911  -0.0019351965  -0.0037700488  -0.0004179647
       -0.0009450033   0.0008942770  -0.0001682399  -0.0000809788  -0.0000670153
       -0.0002287121  -0.0004815518   0.0006495309   0.0012786729  -0.0002080747
       -0.0003557761   0.0214503735  -0.0168680496  -0.0124100761   0.0169068655
       -0.0464614213   0.0231608380  -0.0189066144  -0.2277894624  -0.1012793151
       -0.0636478581  -0.1546001102   0.1010890670  -0.0006578321   0.0007576346
        0.0002072636  -0.0025386481  -0.0019821759   0.0029118091  -0.0003663614
        0.0005072004  -0.0002606338  -0.0008467833  -0.0001187393  -0.0005071224
        0.0000334668  -0.0000146175  -0.0000501335   0.0000236957   0.0000268903
       -0.0000250235   0.0000799579  -0.0000094314  -0.0000161590   0.0000114487
       -0.0000065285  -0.0000151569   0.0000067377  -0.0000107512   0.0000021995
        0.0000022326  -0.0000021132   0.0000008580  -0.0000040413   0.0000026577
       -0.0000007524   0.0000008308   0.0000000821  -0.0000011804   0.0000011703
        0.0000006202  -0.0000008871   0.0000029907   0.0000012057  -0.0000011141
       -0.0000034479   0.0000024757  -0.0000004594   0.0000013964   0.0000008650
        0.0000008164   0.0000071457   0.0000274379   0.0000108312   0.0000066325
       -0.0000398065   0.0000492557   0.0001145154  -0.0002246271  -0.0002043309
        0.0001517340   0.0000401793  -0.0001082819  -0.0000020869   0.0000107312
        0.0000258149   0.0006608321  -0.0003495408  -0.0004769339
        0.0293950287  -0.0060363288   0.5160462612   0.0286289315  -0.0114281086
       -0.0715951894   0.0199474213  -0.0021162237  -0.0086004584  -0.0202731498
        0.0077776314   0.0036650908  -0.0015160697  -0.0002435532  -0.0005146499
        0.0005937650   0.0004438254   0.0001746894  -0.0000954340  -0.0000362762
       -0.0001247591   0.0007052709   0.0008201299  -0.0004040667  -0.0018346149
       -0.0022630514  -0.0032481488   0.0007801431   0.0013016538   0.0016327304
        0.0001014873  -0.0002386251   0.0000927602  -0.0000448535   0.0001065532
        0.0000265304   0.0000601873  -0.0000467341   0.0000123751  -0.0000260728
       -0.0000060327   0.0000104867  -0.0000059605   0.0000024670  -0.0000185480
        0.0000098832   0.0000250850   0.0000008674   0.0000314030  -0.0000593732
       -0.0000044986  -0.0000010938  -0.0000008111  -0.0000018275  -0.0000037335
       -0.0000029057   0.0000026718   0.0000056336  -0.0000020781  -0.0000003182
        0.0000022382  -0.0000035588   0.0000000568  -0.0000061416   0.0000042918
        0.0000010417   0.0000046450   0.0000007340  -0.0000008793   0.0000040249
        0.0000073474  -0.0000047397   0.0000156021  -0.0000160085   0.0000007709
       -0.0000199516  -0.0000028263   0.0000006724  -0.0000189223   0.0000174512
        0.0000155273  -0.0000061251  -0.0000143942   0.0000503138  -0.0000102507
        0.0000106842   0.0000082027  -0.0000654548   0.0000498785  -0.0000048658
        0.0000484868   0.0000690175   0.0000518436  -0.0000529269  -0.0000816808
       -0.0000435980  -0.0009576786  -0.0005648919  -0.0025247815  -0.0002309910
       -0.0004710063   0.0005470078   0.0000055904  -0.0001956614  -0.0001582054
        0.0000850531  -0.0000414727   0.0006346225  -0.0001731526  -0.0003513824
       -0.0007029015   0.0125683157  -0.0097352162  -0.0050995131  -0.1166954133
        0.0232473091  -0.1906720104  -0.0100661644  -0.1008077005  -0.0991369022
        0.0569184303   0.1008922231  -0.1367476124  -0.0004192759  -0.0005693245
        0.0004196820   0.0026283436   0.0025022028  -0.0024456965   0.0006330421
       -0.0007019154   0.0005127391  -0.0012172590  -0.0000681877  -0.0002224320
        0.0000620516   0.0000009936  -0.0000304809  -0.0001535806  -0.0000070875
        0.0000643245  -0.0002126010   0.0000875031  -0.0001506880   0.0000098789
        0.0000185941  -0.0000072112   0.0000013256   0.0000050322  -0.0000096479
        0.0000022897  -0.0000005482   0.0000004353   0.0000029406  -0.0000037949
       -0.0000015372  -0.0000012784   0.0000006841  -0.0000010163  -0.0000014785
       -0.0000006559  -0.0000008459  -0.0000021700  -0.0000009746  -0.0000005944
        0.0000020807  -0.0000013535  -0.0000001278  -0.0000010495  -0.0000028491
       -0.0000005509  -0.0000053353  -0.0000192159  -0.0000092639   0.0000450246
        0.0000452492  -0.0000853686  -0.0000184650  -0.0001342401  -0.0000773603
        0.0000993767   0.0000013262  -0.0000451472  -0.0000354967  -0.0000128470
        0.0000161652   0.0007742498  -0.0011489713  -0.0012914263
       -0.1500224863   0.0326212685   0.0286289315   0.4457766354  -0.0005507954
        0.0281477500  -0.0778834338  -0.0349273684   0.0300437341  -0.1023312874
        0.0107616709  -0.0637304314  -0.0052637354  -0.0051521940  -0.0087746080
        0.0049039648   0.0003983678  -0.0020295579  -0.0003056130   0.0002870956
       -0.0002949337   0.0037533166   0.0032144904  -0.0024010804  -0.0081855471
        0.0058850839  -0.0121867406  -0.0016341049  -0.0026687359   0.0012381309
        0.0000275014  -0.0001571829  -0.0000475937   0.0001568393   0.0001102573
        0.0001075783   0.0000817610  -0.0000532603   0.0000436006  -0.0000471765
       -0.0000125235   0.0000084319  -0.0000625995   0.0000413179   0.0000295641
        0.0000707910   0.0000125222  -0.0000255484   0.0000327127  -0.0001091404
        0.0000262133   0.0000335780  -0.0000123960  -0.0000109772   0.0000059802
        0.0000142251   0.0000002478   0.0000017085   0.0000064425   0.0000022569
       -0.0000066686  -0.0000108699   0.0000062950  -0.0000045289  -0.0000185765
        0.0000058978   0.0000084526   0.0000002285   0.0000028291  -0.0000057436
        0.0000100551   0.0000001370   0.0000075700  -0.0000172763   0.0000026630
       -0.0000004432   0.0000106251  -0.0000101786   0.0001274824   0.0000216274
       -0.0000196804  -0.0001981751  -0.0000941264   0.0000762317   0.0000841326
        0.0000747242  -0.0000213209  -0.0003033436   0.0000295388   0.0000542596
        0.0002542924  -0.0001117370  -0.0000094573   0.0000783458   0.0000436598
       -0.0001307531   0.0030505309   0.0113166312   0.0065813146   0.0020725351
        0.0034708540  -0.0039383510   0.0002717167  -0.0000076180   0.0003851425
        0.0017718350   0.0021316088  -0.0053018616  -0.0031581063  -0.0153405190
       -0.0101333734  -0.0601721478  -0.0105294630  -0.0115364524  -0.0213712525
        0.0072247923   0.0027944595  -0.0001891992   0.0026308819   0.0010928481
       -0.0149416195   0.0023568155   0.0069651733  -0.0024260019  -0.0050053660
        0.0029446505  -0.0139524401  -0.0168058204   0.0179887554   0.0060414357
        0.0101740880  -0.0103116843  -0.0017885435   0.0002312184   0.0015224963
        0.0001123873   0.0001777495  -0.0001161615  -0.0009237580  -0.0002404681
        0.0007356454  -0.0005919637  -0.0000542555  -0.0002773159  -0.0000395919
       -0.0000489828   0.0000180099  -0.0000017704  -0.0000260202  -0.0000055458
       -0.0000011955  -0.0000166759   0.0000018931   0.0000016713  -0.0000027811
        0.0000017182   0.0000092388  -0.0000057825   0.0000030086   0.0000092771
       -0.0000002673   0.0000015387  -0.0000013653   0.0000014957   0.0000019024
        0.0000186798   0.0000100545  -0.0000020022   0.0000225071   0.0000218150
       -0.0000109902   0.0000054982  -0.0000322740   0.0000147661  -0.0001528291
       -0.0000362020  -0.0000246570  -0.0003380992   0.0006138425   0.0005609529
       -0.0008709301  -0.0003747974   0.0006803562  -0.0000784495  -0.0006408404
       -0.0006905713  -0.0015382274  -0.0008407318   0.0013224438
        0.0274677776  -0.0693560915  -0.0114281086  -0.0005507954   0.4633621870
        0.0204308026  -0.0288619414  -0.1071308258   0.0435961447   0.0079834826
       -0.0643649541   0.0064432265  -0.0127023745   0.0024855492  -0.0179283996
        0.0011129074  -0.0035571058  -0.0030784974   0.0002678456   0.0006259454
        0.0006987778   0.0026127993  -0.0040269636  -0.0010659824   0.0146563505
       -0.0024818790   0.0204389517  -0.0028829599   0.0015666748  -0.0016474641
        0.0002663884  -0.0000191585  -0.0001496357  -0.0000977605   0.0000631491
       -0.0000388847  -0.0000679960   0.0000172405   0.0000131294   0.0000145261
        0.0000337482  -0.0000148634  -0.0000401803  -0.0000136721   0.0000226216
       -0.0000170249  -0.0000101457   0.0000053722   0.0000278456   0.0000114030
       -0.0000132882  -0.0000308017  -0.0000012861   0.0000102854   0.0000037586
       -0.0000082657  -0.0000042944   0.0000056515  -0.0000096048  -0.0000033491
        0.0000017287   0.0000059930  -0.0000059165  -0.0000015280   0.0000027384
       -0.0000028257   0.0000029370   0.0000088623  -0.0000053745   0.0000233982
       -0.0000002042  -0.0000090574   0.0000375428  -0.0000228740  -0.0000020427
       -0.0000329586   0.0000190708  -0.0000019100  -0.0000022168   0.0000066469
        0.0000158997  -0.0000088053  -0.0000300144   0.0000666913  -0.0000171297
       -0.0000277902  -0.0000037158   0.0000188324   0.0000781509  -0.0000135611
       -0.0000398726  -0.0000364078  -0.0000225986  -0.0001170814   0.0001202378
        0.0000563018   0.0025353355  -0.0267509601  -0.0090682813   0.0035927852
       -0.0013640134   0.0014631021  -0.0003058628  -0.0006579534  -0.0006789420
        0.0013779467   0.0017055834  -0.0001137593  -0.0066204557  -0.0037260098
       -0.0096850477  -0.0086622241  -0.1553043933  -0.0527370815   0.0045058323
       -0.0015924273   0.0000841978   0.0230567369  -0.0114298940  -0.0099639049
       -0.0164721526   0.0052984874   0.0059417315  -0.0118600754  -0.0224981135
        0.0150102549   0.0018410723   0.0051224657  -0.0040637116  -0.0008433915
       -0.0046203906   0.0058511664  -0.0007517595  -0.0000324096   0.0001199698
       -0.0006686944  -0.0001956829  -0.0011183454  -0.0003777250  -0.0000842642
        0.0001499729   0.0005224509  -0.0003200820   0.0010804660   0.0000339912
       -0.0000226521   0.0000007375  -0.0000010748   0.0000226162   0.0000055057
       -0.0000045939   0.0000039013  -0.0000048962   0.0000000918   0.0000007307
       -0.0000033481  -0.0000033121   0.0000029925  -0.0000054194  -0.0000015275
        0.0000000313  -0.0000049322  -0.0000039857  -0.0000001422  -0.0000025768
       -0.0000004076   0.0000005198  -0.0000036053   0.0000061221   0.0000018646
       -0.0000014103   0.0000083764  -0.0000383153   0.0000029238  -0.0000289793
        0.0001141444  -0.0000656940  -0.0001634404  -0.0007647538  -0.0004939108
       -0.0002473852   0.0000738351   0.0003542106   0.0002326145   0.0001104773
        0.0002389092   0.0002713463  -0.0003655458   0.0013532837
        0.0321071804  -0.0142830168  -0.0715951894   0.0281477500   0.0204308026
        0.4758500901   0.0265900259   0.0469040085  -0.1045848530  -0.0628725067
        0.0079134629  -0.1411814379  -0.0125021123  -0.0055227641  -0.0211559397
       -0.0027030111  -0.0036021691   0.0014289937  -0.0002992082  -0.0003286648
       -0.0006878199  -0.0026749000  -0.0000136523   0.0030086511  -0.0093383392
        0.0101116221  -0.0070471386   0.0009492738  -0.0015387615  -0.0034534777
       -0.0002563602  -0.0000340800   0.0000052579  -0.0000445770  -0.0001536302
       -0.0001214842   0.0000072701  -0.0000071273  -0.0000329677  -0.0000006061
       -0.0000291940  -0.0000038712   0.0000370116   0.0000105442   0.0000377599
       -0.0000267104  -0.0000367307  -0.0000313334  -0.0000262531   0.0000773172
        0.0000334577   0.0000016719   0.0000046286  -0.0000081736  -0.0000037483
        0.0000026831   0.0000019694  -0.0000004431  -0.0000024450   0.0000021481
        0.0000054704   0.0000053947  -0.0000001801   0.0000038372   0.0000010877
        0.0000002064  -0.0000022013  -0.0000010088  -0.0000010957   0.0000143330
       -0.0000152961   0.0000041575  -0.0000083093   0.0000087460  -0.0000006744
        0.0000139054   0.0000102589   0.0000042711   0.0000113354   0.0000083384
       -0.0000324561  -0.0000272973  -0.0000192573  -0.0000860395   0.0000203656
        0.0000118787  -0.0000198399   0.0001270513  -0.0000331434   0.0000343856
       -0.0000964750  -0.0000169858  -0.0001557115   0.0000478142   0.0000012149
        0.0000387534   0.0039159786   0.0005442557   0.0067690932  -0.0039100545
        0.0003411708   0.0018427549   0.0001543392  -0.0001609898   0.0000490304
       -0.0058046070   0.0000031297  -0.0005426994  -0.0062116521  -0.0211053851
       -0.0176331415  -0.0108505442  -0.0541404220  -0.0902780833  -0.0201613943
        0.0066596504   0.0055503147   0.0134678525  -0.0066221565  -0.0057949747
        0.0181288902  -0.0044427103  -0.0073596609  -0.0048865460  -0.0067864052
        0.0072169946   0.0069982870   0.0068114961  -0.0080377093   0.0077972438
        0.0173631791  -0.0192247551   0.0012378177   0.0015358713  -0.0004378501
       -0.0004326872   0.0000930018  -0.0005589753   0.0008239772   0.0001932570
       -0.0002822013   0.0001856722  -0.0001566102  -0.0002290486   0.0000116609
        0.0000310346   0.0000173053   0.0000055284   0.0000033947   0.0000154586
        0.0000033992   0.0000062615   0.0000119667   0.0000011406  -0.0000007051
        0.0000033515  -0.0000000640   0.0000021238   0.0000033036  -0.0000012978
       -0.0000001585   0.0000032374   0.0000031206   0.0000012983   0.0000023652
       -0.0000026728  -0.0000022523   0.0000039879   0.0000011306  -0.0000034595
        0.0000045190   0.0000146204   0.0000053514   0.0000098626  -0.0000956412
       -0.0000256736   0.0001315886   0.0001204417   0.0005442290   0.0001100753
        0.0007156349   0.0003493594  -0.0004857155  -0.0002204787  -0.0008947111
       -0.0006620413   0.0017896662  -0.0000104866  -0.0004687713
       -0.0176563278  -0.0157134836   0.0199474213  -0.0778834338  -0.0288619414
        0.0265900259   0.5048972258  -0.0241453671   0.0263766911   0.0055070112
        0.0094785084  -0.0097937443   0.0000729900   0.0003290319  -0.0009683141
       -0.0003273193   0.0000896022   0.0003591534  -0.0000263902  -0.0002099080
       -0.0001286256  -0.0005499088   0.0002206957   0.0006356271  -0.0014043037
       -0.0005637656  -0.0025981520   0.0002655437   0.0004833681   0.0008740535
        0.0001393598  -0.0001240945   0.0000237759  -0.0000392767   0.0000238636
        0.0000167347   0.0000236630  -0.0000189933   0.0000053657  -0.0000171364
        0.0000016853   0.0000142122  -0.0000005705  -0.0000103431  -0.0000443212
        0.0000156338   0.0000170727   0.0000311731   0.0000236064  -0.0000586351
       -0.0000514255  -0.0000022111   0.0000002374   0.0000068017   0.0000047992
       -0.0000055076   0.0000003649   0.0000031802   0.0000059874  -0.0000018232
       -0.0000027568  -0.0000081673   0.0000018834  -0.0000031657   0.0000058136
        0.0000019224  -0.0000048298  -0.0000054882   0.0000035718  -0.0000288409
        0.0000364367  -0.0000095355  -0.0000245491   0.0000059182   0.0000068126
        0.0000473572  -0.0000068623  -0.0000189489   0.0000865427  -0.0000432619
        0.0000208823   0.0002501536   0.0001242441   0.0001182358   0.0000044750
       -0.0000527392   0.0000089668  -0.0001481442   0.0000463421  -0.0000314313
        0.0001080805  -0.0000284176   0.0002368583   0.0000075952  -0.0000030521
       -0.0000897840  -0.0009502128   0.0004547166  -0.0004143088   0.0001609218
       -0.0001023497  -0.0001915134   0.0000281155  -0.0001690468   0.0000436482
        0.0001995366   0.0001371503   0.0001681015   0.0000320543  -0.0001676150
       -0.0002711044  -0.0007796690  -0.0070573956   0.0015512298   0.0008550628
       -0.0008077975   0.0004806481   0.0008319125  -0.0007210115  -0.0003355377
       -0.0055118263   0.0009406682   0.0027780098  -0.0481749961  -0.0278449425
       -0.0156568825  -0.2298250292   0.0739592232   0.0655907736  -0.1295182295
        0.0209326810  -0.1143117726   0.0001739499   0.0000959731  -0.0003899926
       -0.0000417962  -0.0000221042   0.0000223684   0.0000947062   0.0000350802
       -0.0000764397   0.0000129446   0.0000805088  -0.0001925853  -0.0000069790
       -0.0000030868  -0.0000026338  -0.0000034801   0.0000031886  -0.0000047581
        0.0000031414  -0.0000032052  -0.0000051489  -0.0000004021  -0.0000013688
       -0.0000008392   0.0000008649  -0.0000022063  -0.0000008579   0.0000013866
        0.0000013709  -0.0000026682  -0.0000011935   0.0000005144  -0.0000019022
       -0.0000023431   0.0000101355  -0.0000039812  -0.0000183130   0.0000014494
        0.0000008022   0.0000129248   0.0000457209  -0.0000071551  -0.0004938118
       -0.0000860226  -0.0002679944   0.0000242894   0.0000065486  -0.0000577727
       -0.0000108783  -0.0000175759   0.0000321269   0.0000004294  -0.0000012982
       -0.0000152738  -0.0004311331  -0.0007066825  -0.0000010140
        0.0011786783   0.0037709075  -0.0021162237  -0.0349273684  -0.1071308258
        0.0469040085  -0.0241453671   0.4858958429   0.0382829567   0.0023642471
       -0.0036787292   0.0114478203  -0.0009643938  -0.0011753032  -0.0010759825
        0.0005661991  -0.0000190096   0.0003351323   0.0000491554   0.0000849578
       -0.0001690514   0.0003665096  -0.0000450588   0.0001825003  -0.0003796632
       -0.0001011428   0.0002669067   0.0006312849   0.0001618307   0.0011879182
       -0.0000866989   0.0002997104  -0.0001354580  -0.0000067696  -0.0000083301
        0.0000286763  -0.0000344903   0.0000179532   0.0000014757   0.0000481932
       -0.0000081419  -0.0000063614   0.0000271675  -0.0000058867   0.0000210739
        0.0000183157  -0.0000049920  -0.0000113084  -0.0000266972   0.0000628516
        0.0000128543  -0.0000066633   0.0000021102  -0.0000021723  -0.0000006742
        0.0000014946  -0.0000013934   0.0000017147  -0.0000014177  -0.0000016984
        0.0000071703   0.0000059221  -0.0000046211  -0.0000023708   0.0000116359
       -0.0000048168   0.0000111038  -0.0000186215   0.0000002808  -0.0000327190
       -0.0000187271   0.0000143511  -0.0000056964   0.0000242274  -0.0000052136
        0.0000661313   0.0000445721  -0.0000165159   0.0000094450  -0.0000377580
       -0.0000334250   0.0000118730  -0.0000074025  -0.0001103331   0.0000247526
       -0.0000256562  -0.0000077817   0.0000105852  -0.0000802776   0.0000239828
       -0.0000430393   0.0000094034  -0.0000640646  -0.0000137883  -0.0000221397
        0.0000364476  -0.0028852221  -0.0012930795  -0.0023919090   0.0012092145
       -0.0002270807  -0.0006471775   0.0000704012  -0.0000427835  -0.0000913825
        0.0009249774  -0.0000345422  -0.0003157136  -0.0001743085  -0.0006607501
        0.0013981084  -0.0119481223  -0.0304130904   0.0096400188   0.0002853902
        0.0002674832  -0.0003029589   0.0005220996   0.0006834912  -0.0005530986
        0.0017557141   0.0002037351  -0.0007782468  -0.0283159455  -0.2259045861
       -0.0989331497   0.0742238833  -0.0726581121  -0.0272477262   0.0205307446
       -0.0470170904   0.0252685775  -0.0001263070  -0.0000847598  -0.0007590417
       -0.0000573257  -0.0000488592   0.0000020285  -0.0000509292   0.0000083546
        0.0000029775  -0.0000454777  -0.0000052006   0.0000479953   0.0000189776
        0.0000240429  -0.0000207359   0.0000111026  -0.0000026692   0.0000014290
        0.0000044368   0.0000006321  -0.0000010651  -0.0000041853   0.0000035838
       -0.0000014659  -0.0000028895   0.0000050258  -0.0000025070  -0.0000046433
        0.0000018029  -0.0000008293   0.0000050029   0.0000013198  -0.0000006869
       -0.0000165045   0.0000064083   0.0000021192  -0.0000126581  -0.0000097138
        0.0000074268  -0.0000570600   0.0000543202   0.0000552375   0.0000459544
       -0.0000127169   0.0001387092  -0.0000937875  -0.0002056363  -0.0000595983
       -0.0001580502  -0.0000692612   0.0001398073   0.0000162727   0.0000198015
        0.0000299583  -0.0003868822  -0.0005940687   0.0003929352
        0.0097743632   0.0072371781  -0.0086004584   0.0300437341   0.0435961447
       -0.1045848530   0.0263766911   0.0382829567   0.4894614827   0.0022181845
        0.0182766228  -0.0236393182   0.0002363775   0.0007106246  -0.0004063095
       -0.0006426048   0.0002980780   0.0005139611  -0.0001346635  -0.0000487730
       -0.0001995370  -0.0011864633   0.0002539587   0.0004469354  -0.0002867244
       -0.0017312974  -0.0032690479   0.0010147833   0.0008111862   0.0014827839
       -0.0001176875   0.0000102578   0.0000812365   0.0000331181  -0.0000976200
        0.0000298060  -0.0000596172   0.0000390880  -0.0000092651   0.0000296537
        0.0000323582  -0.0000084074   0.0000151230  -0.0000384031  -0.0000157625
       -0.0000251875   0.0000201615   0.0000175146  -0.0000064628   0.0000111399
        0.0000024516  -0.0000073624   0.0000081372   0.0000005003  -0.0000038391
       -0.0000019965   0.0000032626  -0.0000057744  -0.0000017446   0.0000029443
       -0.0000043108   0.0000054274   0.0000013233  -0.0000000210   0.0000030622
        0.0000010356  -0.0000255650  -0.0000012612   0.0000050526  -0.0000207613
        0.0000108175   0.0000180568  -0.0000273420   0.0000162399   0.0000027488
        0.0000295158  -0.0000463218   0.0000228126  -0.0001389219   0.0000904220
        0.0000126868   0.0001715373   0.0001275905  -0.0002526944  -0.0000628473
       -0.0001073775   0.0000232662   0.0001535267  -0.0000086791  -0.0000382812
       -0.0001051816   0.0000223083   0.0000035134  -0.0000064999  -0.0000348297
        0.0000196749  -0.0011495483  -0.0013647393  -0.0021573098   0.0006523340
        0.0002409276   0.0000476059  -0.0001352612  -0.0001722290  -0.0000756248
        0.0003655486   0.0004943169   0.0003084119  -0.0008770397  -0.0012978081
       -0.0010914693  -0.0026101157  -0.0042766356   0.0084319773  -0.0009421485
       -0.0001448780   0.0005582119  -0.0003366662   0.0005613720   0.0001897486
        0.0022918730  -0.0003127329  -0.0005839301  -0.0157723250  -0.0994763977
       -0.0949207775   0.0653749510  -0.0270750094  -0.0674866961  -0.1137016637
        0.0254219672  -0.1929324333   0.0002320043   0.0005111954  -0.0011610823
       -0.0000221624   0.0000016675   0.0000122994   0.0001603206   0.0000677456
       -0.0000916563  -0.0000473259   0.0000415512  -0.0002068029  -0.0000007958
        0.0000063989  -0.0000178064  -0.0000043592   0.0000044783   0.0000013207
       -0.0000007335   0.0000056470  -0.0000016209   0.0000001992  -0.0000007131
        0.0000004351  -0.0000005991  -0.0000007384   0.0000020933  -0.0000009559
       -0.0000000041   0.0000014793   0.0000005519   0.0000005791   0.0000011176
        0.0000016082  -0.0000063188   0.0000004086  -0.0000325689  -0.0000194793
        0.0000078126  -0.0000174008  -0.0000187311  -0.0000283722   0.0000182804
       -0.0000541948   0.0002086380  -0.0000230778  -0.0001292267  -0.0000506489
       -0.0000538549  -0.0000618753   0.0000486598   0.0000346866   0.0000211841
       -0.0000742137  -0.0006325258  -0.0007127755  -0.0000688908
       -0.0260794302   0.0077339090  -0.0202731498  -0.1023312874   0.0079834826
       -0.0628725067   0.0055070112   0.0023642471   0.0022181845   0.3127924466
       -0.1023566974   0.1967351163  -0.0667096488  -0.0385277748  -0.0489583507
       -0.0011036924  -0.0167665601  -0.0095696090  -0.0028990501   0.0074484043
        0.0057962318  -0.0172807337   0.0108101403  -0.0206278439  -0.1076054505
        0.1094779853  -0.0344801997   0.0034565820   0.0037161320   0.0020674337
        0.0008095345   0.0000143296  -0.0007365224  -0.0001233987   0.0000274515
       -0.0000462874  -0.0000089789   0.0000068537   0.0000690130   0.0000252398
       -0.0000266842  -0.0000122848  -0.0000253368   0.0000355870  -0.0000192741
       -0.0000061865  -0.0000569368  -0.0000217142   0.0000683305   0.0000314983
        0.0000359518  -0.0000238252  -0.0000165625   0.0000094421   0.0000155555
       -0.0000058013  -0.0000071881   0.0000000422  -0.0000055472  -0.0000030017
        0.0000008207   0.0000037920  -0.0000045076   0.0000015907  -0.0000077489
       -0.0000076019   0.0000091844   0.0000225557  -0.0000017382   0.0000202698
       -0.0000025786   0.0000111173   0.0000186640   0.0000066899  -0.0000100799
        0.0000120040   0.0000174952  -0.0000047170   0.0000478842   0.0000118613
       -0.0000344575  -0.0001637170  -0.0000306493  -0.0000926505   0.0000322765
        0.0000446263  -0.0000246616  -0.0002073364   0.0000185145   0.0000303901
        0.0001287201  -0.0002607955  -0.0003582304   0.0001753089   0.0002875051
        0.0000549199   0.0002452463   0.0003880808   0.0012929795  -0.0000248000
       -0.0002568499  -0.0002583813  -0.0001182905   0.0000779195  -0.0001026888
       -0.0001245817  -0.0004520709  -0.0005268404   0.0010905201   0.0003313771
        0.0000450241  -0.0035581662  -0.0044747319  -0.0069138124  -0.0059874660
        0.0018822675   0.0004910171   0.0010127919  -0.0002946417  -0.0004160457
        0.0003411586  -0.0000934474  -0.0007525794   0.0002817419   0.0000001352
        0.0000816431   0.0005744568  -0.0003735644   0.0007304143  -0.0002991833
       -0.0016593625   0.0014948474   0.0018186246   0.0101833535   0.0063066361
        0.0029922639   0.0012184566  -0.0060132289   0.0003078972  -0.0000210147
        0.0003353671   0.0032499384   0.0015018168  -0.0053417674  -0.0000253090