$hessian                                                                        
        0.5278968915  -0.0034367651  -0.0024643979  -0.0625216950   0.0011014251
        0.0001994393  -0.0068811043   0.0154463281   0.0218809378   0.0008226745
       -0.0004734820  -0.0026557307  -0.0019362240  -0.0138187156  -0.0170259458
       -0.0009686347  -0.0004906995  -0.0004159859   0.0004772292  -0.0000265749
        0.0003124953   0.0005672661  -0.0000060560   0.0000429471  -0.0005148846
       -0.0008721073   0.0010380578  -0.0018634836  -0.0004369202  -0.0006884575
       -0.0000729069   0.0001393032   0.0001683192  -0.0000794514  -0.0000167813
       -0.0000043080   0.0000198633   0.0000392660  -0.0000088389  -0.0000287402
        0.0000023241   0.0000063134   0.0000195377  -0.0000098768  -0.0000071501
        0.0000191318  -0.0000099708   0.0000032807   0.0000075767  -0.0000120204
       -0.0000001504  -0.0000207025  -0.0000115482   0.0000063936   0.0000226131
        0.0000129471  -0.0000140953  -0.0001901824   0.0000726398  -0.0000944622
       -0.0003892763  -0.0004586286  -0.0000890646   0.0003158070  -0.0000428109
       -0.0000325665  -0.0000753876  -0.0000134130   0.0000004957   0.0000280551
       -0.0000187890  -0.0000012165  -0.0000170773  -0.0000017410   0.0000019446
        0.0000251841  -0.0000015787  -0.0000029479  -0.0000218706  -0.0000012980
        0.0000016208   0.0000049493  -0.0000016535   0.0000040230  -0.0000041597
       -0.0000004135   0.0000005813   0.0000024668  -0.0000068676  -0.0000002632
        0.0000029312  -0.0000068793   0.0000003821  -0.0000044503   0.0000008089
       -0.0000014820  -0.0000012168   0.0000005654   0.0000000517   0.0000082936
       -0.0000014972   0.0000008114  -0.0000018378  -0.0000024405   0.0000020511
        0.0000025044   0.0000011014  -0.0000007761  -0.0000017304  -0.0000004744
        0.0000005275   0.0000013468  -0.0000028039   0.0000001222   0.0000010965
       -0.0000001487  -0.0000006302  -0.0000048106   0.0000032473  -0.0000004383
       -0.0000021773  -0.0000020558  -0.0000005031   0.0000003950  -0.0000013366
        0.0000000488  -0.0000004402   0.0000008849  -0.0000001134   0.0000001323
       -0.0000005676   0.0000002104  -0.0000004388  -0.0000001093  -0.0000000309
       -0.0000005296  -0.0000008256  -0.0000000910  -0.0000010564  -0.0000007258
       -0.0000000373   0.0000010197   0.0000034897  -0.0000001485  -0.0000012719
       -0.0000029655   0.0000007692  -0.0000000672   0.0000009502   0.0000002344
       -0.0000001404  -0.0000002602   0.0000012336  -0.0000013078  -0.0000012891
        0.0000004096  -0.0000013484  -0.0000004630  -0.0000004071  -0.0000008068
        0.0000005342   0.0000006120   0.0000015700  -0.0000018400   0.0000009079
       -0.0000015125   0.0000030493  -0.0000028563   0.0000004742   0.0000051910
        0.0000007167  -0.0000038060   0.0000052650  -0.0000008676   0.0000031471
       -0.0000022892  -0.0000012203  -0.0000064495   0.0000007940   0.0000003506
        0.0000078682  -0.0000023644   0.0000010348  -0.0000134180   0.0000009008
        0.0000023167   0.0000000765  -0.0000007610  -0.0000014899  -0.0000030555
        0.0000021527   0.0000002213   0.0000424113   0.0000083170  -0.0000121750
       -0.0000656389   0.0000306363   0.0000035419  -0.2194324746   0.1061173711
        0.0178617978  -0.0456385665   0.0099269953  -0.0114858812  -0.1855531015
       -0.1163421614  -0.0083461302   0.0006200289   0.0010041617   0.0010797925
       -0.0047582788   0.0033110580   0.0018489039   0.0005380860  -0.0002092414
        0.0007378798   0.0002450803  -0.0003212967  -0.0006908863   0.0003541784
        0.0004025030  -0.0004569875   0.0001224848   0.0001626010   0.0005598420
       -0.0009462489  -0.0006972991  -0.0010042626   0.0000008120   0.0000212959
        0.0000034802  -0.0000899822  -0.0000060860  -0.0002642994  -0.0000013032
       -0.0000005406   0.0000058196   0.0000071718  -0.0000168979   0.0000036891
        0.0000018730   0.0000099098  -0.0000036611  -0.0000059290   0.0000026921
       -0.0000031114   0.0000062574  -0.0000155876  -0.0000066374  -0.0000058626
        0.0000026763   0.0000027305   0.0000027665   0.0000093016   0.0000049125
       -0.0000096392  -0.0000005844   0.0000036652  -0.0000104081   0.0000000312
       -0.0000024340   0.0000103116  -0.0000117563  -0.0000020790  -0.0000028057
       -0.0000186206   0.0000003864  -0.0000161356  -0.0000199103  -0.0000077801
        0.0000011794   0.0000012772   0.0000090793  -0.0000112046   0.0000008169
       -0.0000044043   0.0000048591  -0.0000004274  -0.0000002961  -0.0000052442
        0.0000044012  -0.0000009294  -0.0000021203   0.0000044102  -0.0000003097
       -0.0000033884   0.0000014673   0.0000003662  -0.0000003879   0.0000003600
        0.0000001643  -0.0000024081   0.0000001593  -0.0000011205  -0.0000002426
        0.0000001201  -0.0000000557  -0.0000005408   0.0000000162  -0.0000001579
       -0.0000006971   0.0000000675  -0.0000001012  -0.0000005146   0.0000002830
       -0.0000000305  -0.0000001104  -0.0000002709  -0.0000001215  -0.0000002292
       -0.0000002276  -0.0000001095  -0.0000003341  -0.0000000003  -0.0000003914
        0.0000000953   0.0000002539  -0.0000003843   0.0000000588  -0.0000005484
        0.0000001152  -0.0000001647  -0.0000002265  -0.0000008791  -0.0000017275
       -0.0000000017   0.0000003074  -0.0000008586  -0.0000010838  -0.0000003182
       -0.0000022852  -0.0000028574  -0.0000003689   0.0000005714  -0.0000014447
       -0.0000003023   0.0000003748   0.0000012231   0.0000002004  -0.0000029657
        0.0000060390  -0.0000026176  -0.0000178209   0.0000018683   0.0000137779
        0.0000085706  -0.0000076017  -0.0000044167
       -0.0034367651   0.5049928441  -0.0343127075   0.0038501755  -0.0889698701
       -0.0533497581   0.0059164832  -0.0108267315  -0.0156072476  -0.0000073409
        0.0062514517   0.0142919819  -0.0071875450  -0.0162216649  -0.0175629289
        0.0005608457  -0.0003725809  -0.0009480504   0.0001455354  -0.0002015307
        0.0004948846   0.0003703190   0.0000237249   0.0000854019  -0.0004580928
       -0.0009874101   0.0010221017  -0.0018603118  -0.0000364969  -0.0005143628
       -0.0001031193   0.0000771605   0.0001452711   0.0000028468  -0.0000687680
        0.0000022836   0.0000106901   0.0000280723  -0.0000114376  -0.0000179610
        0.0000142517   0.0000007495   0.0000047505  -0.0000040796  -0.0000096240
        0.0000063916   0.0000026898   0.0000079079  -0.0000021800  -0.0000038378
       -0.0000089114  -0.0000066794  -0.0000010879   0.0000088008  -0.0000019960
       -0.0000273311  -0.0000104251  -0.0000993479  -0.0000043681  -0.0000882549
       -0.0001423858  -0.0002372027  -0.0000893773   0.0000648645  -0.0000030806
       -0.0000262596  -0.0000287340  -0.0000029367  -0.0000026690  -0.0000033389
       -0.0000010352   0.0000087856  -0.0000064535   0.0000000815  -0.0000028247
        0.0000148271  -0.0000021910  -0.0000009142  -0.0000008048   0.0000002117
        0.0000008221   0.0000018034   0.0000008849   0.0000015328  -0.0000031734
       -0.0000004500   0.0000004097   0.0000017522   0.0000000074   0.0000006184
       -0.0000015890  -0.0000003341   0.0000003251   0.0000000664  -0.0000004385
       -0.0000003548  -0.0000004910  -0.0000004018  -0.0000002150   0.0000018253
       -0.0000004894   0.0000000723  -0.0000004155  -0.0000003920  -0.0000003677
        0.0000010097   0.0000002862  -0.0000000045  -0.0000008737  -0.0000000606
       -0.0000000786   0.0000010103   0.0000003069  -0.0000009302   0.0000020433
       -0.0000008663  -0.0000001734  -0.0000025505  -0.0000000310  -0.0000004435
        0.0000004136  -0.0000002227  -0.0000006641   0.0000005121  -0.0000003768
       -0.0000001958   0.0000000595   0.0000002657  -0.0000004810   0.0000006945
        0.0000000373  -0.0000000853   0.0000001406  -0.0000005451  -0.0000001281
        0.0000000593  -0.0000006579  -0.0000000252  -0.0000000027  -0.0000004810
        0.0000000940   0.0000013533  -0.0000006856   0.0000006918   0.0000000947
       -0.0000005859  -0.0000001426   0.0000005510   0.0000005103   0.0000004427
        0.0000002829   0.0000001387   0.0000005729  -0.0000000317   0.0000001552
        0.0000003179   0.0000001125   0.0000003581   0.0000003569  -0.0000001363
        0.0000000848   0.0000002463   0.0000005754  -0.0000005313  -0.0000006256
       -0.0000007755   0.0000011057  -0.0000012473  -0.0000004563   0.0000007642
        0.0000001721  -0.0000007568   0.0000006068  -0.0000000752   0.0000005761
       -0.0000006972  -0.0000003974   0.0000005220   0.0000021280   0.0000001019
        0.0000003669   0.0000026332   0.0000011467  -0.0000019564   0.0000035516
        0.0000006464   0.0000020662  -0.0000017839   0.0000000959  -0.0000012906
        0.0000016187   0.0000000318   0.0000038887  -0.0000040844  -0.0000034923
       -0.0000226395   0.0000021374   0.0000165676   0.1061381509  -0.1075048040
       -0.0097785494   0.0100408755  -0.1458171354   0.1186969856  -0.1159999947
       -0.1390743544  -0.0056137192  -0.0009704083   0.0005278971   0.0003143043
        0.0029889012  -0.0016191069  -0.0009638376  -0.0003252544   0.0002414517
       -0.0007715855  -0.0002252885   0.0006447664   0.0006129692   0.0002565570
       -0.0015471802   0.0038973764   0.0002780654   0.0007109734   0.0006831092
        0.0002388011  -0.0001118942  -0.0002100113   0.0000288839  -0.0000008349
       -0.0000268774  -0.0000110956   0.0001222280  -0.0003703761  -0.0000049659
        0.0000106098  -0.0000079247   0.0000025529  -0.0000063989   0.0000024821
       -0.0000011980   0.0000030652  -0.0000010837   0.0000007183   0.0000023512
        0.0000024816   0.0000033835  -0.0000049269  -0.0000023353   0.0000005032
        0.0000030687   0.0000064407  -0.0000014389   0.0000040297   0.0000017016
        0.0000014094   0.0000036437   0.0000000154  -0.0000024776   0.0000033872
        0.0000100990   0.0000029057  -0.0000058964   0.0000001634  -0.0000075218
       -0.0000095804  -0.0000001369  -0.0000059009  -0.0000082665  -0.0000102152
        0.0000040280   0.0000033719   0.0000080178  -0.0000034200   0.0000017772
       -0.0000022379   0.0000009864  -0.0000010604   0.0000009443  -0.0000016582
        0.0000006082   0.0000003018  -0.0000001683   0.0000000203   0.0000003674
       -0.0000005057   0.0000002660   0.0000000564   0.0000005856   0.0000002166
        0.0000002877   0.0000000868   0.0000002525  -0.0000003009   0.0000004693
       -0.0000004998  -0.0000005660  -0.0000000197  -0.0000004928  -0.0000006209
        0.0000000648  -0.0000002947  -0.0000001966   0.0000000487  -0.0000002041
        0.0000000958   0.0000002372  -0.0000004049  -0.0000000565   0.0000001883
       -0.0000001235  -0.0000002993   0.0000002741   0.0000003394   0.0000000268
        0.0000002416   0.0000001047   0.0000005215   0.0000001583  -0.0000002591
        0.0000002579   0.0000003884  -0.0000004601  -0.0000000079  -0.0000002144
       -0.0000004663  -0.0000001677   0.0000009441  -0.0000006390   0.0000000021
       -0.0000002463  -0.0000004998  -0.0000006693   0.0000009130  -0.0000005307
       -0.0000006419   0.0000007360  -0.0000019116  -0.0000003137   0.0000029936
        0.0000021520  -0.0000012129  -0.0000042696   0.0000026801   0.0000028526
        0.0000016799   0.0000072146  -0.0000154706
       -0.0024643979  -0.0343127075   0.4600776177   0.0053089372  -0.0487586613
       -0.1502724894   0.0044054288  -0.0064855927  -0.0076275741   0.0004635389
       -0.0075450693  -0.0299685276  -0.0056603457  -0.0078690919  -0.0040919059
        0.0007987241   0.0001147221   0.0000116488   0.0000291686  -0.0001862523
        0.0001282324  -0.0001200598  -0.0001551612   0.0000299487  -0.0002018282
       -0.0003136737   0.0001402293   0.0000162206   0.0010406768  -0.0005168161
       -0.0000234461   0.0000500329   0.0000481027   0.0000591267  -0.0000519064
       -0.0000155757   0.0000173967   0.0000053150  -0.0000038058   0.0000086513
        0.0000057966   0.0000038297  -0.0000035078   0.0000095127  -0.0000003492
       -0.0000042132   0.0000098699   0.0000004824  -0.0000028695   0.0000167684
        0.0000011390  -0.0000067579   0.0000060655  -0.0000017038  -0.0000214396
       -0.0000288975  -0.0000005349   0.0000464532  -0.0000554235  -0.0000010576
        0.0001644253   0.0001255083  -0.0000208229  -0.0001465510   0.0000235267
        0.0000083238   0.0000249703   0.0000037349  -0.0000038942  -0.0000171401
        0.0000106877   0.0000048398   0.0000074241  -0.0000012154  -0.0000019875
       -0.0000061491   0.0000017004   0.0000020738   0.0000061897  -0.0000015896
        0.0000002949  -0.0000020850   0.0000006120  -0.0000009066   0.0000019412
        0.0000009702   0.0000001858  -0.0000019331   0.0000024307   0.0000002674
        0.0000003813   0.0000007864   0.0000000929   0.0000012268  -0.0000005118
        0.0000005152  -0.0000008486   0.0000011884   0.0000000268  -0.0000014849
        0.0000010167  -0.0000008836   0.0000013100   0.0000006855   0.0000002643
        0.0000005074  -0.0000001596  -0.0000001455   0.0000011101   0.0000003352
       -0.0000005533  -0.0000006867   0.0000002085  -0.0000002101  -0.0000000360
        0.0000001178   0.0000000354   0.0000026414  -0.0000003336   0.0000003015
        0.0000010677   0.0000001108  -0.0000002548   0.0000004674   0.0000003419
       -0.0000000523   0.0000007080  -0.0000007050   0.0000000166   0.0000002511
       -0.0000001063  -0.0000002203   0.0000006744  -0.0000001826   0.0000000126
        0.0000007201  -0.0000002291   0.0000000523   0.0000002440  -0.0000001596
       -0.0000001684  -0.0000008653  -0.0000005109  -0.0000003339   0.0000011126
        0.0000010937   0.0000000546   0.0000003401  -0.0000000329  -0.0000004606
        0.0000003955   0.0000000382  -0.0000003145   0.0000005465  -0.0000000485
        0.0000002863  -0.0000000636  -0.0000009066   0.0000000142   0.0000006452
        0.0000002970  -0.0000007662   0.0000001027   0.0000002685   0.0000005121
        0.0000019835  -0.0000010039   0.0000005877  -0.0000001654  -0.0000014210
       -0.0000004320   0.0000020603  -0.0000012198   0.0000001037  -0.0000003241
        0.0000006471   0.0000002965   0.0000004615  -0.0000000590   0.0000000967
        0.0000015046  -0.0000021998  -0.0000003438   0.0000039677   0.0000019710
       -0.0000007309   0.0000006610   0.0000009669   0.0000006893   0.0000005156
       -0.0000004110   0.0000000092  -0.0000205116  -0.0000057286   0.0000013210
        0.0000172715  -0.0000051193  -0.0000024771   0.0173525229  -0.0094421458
       -0.0442408218  -0.0113068797   0.1180796189  -0.1782285466  -0.0078338182
       -0.0050405104  -0.0431528010  -0.0007126378   0.0002511385   0.0002030477
        0.0008597277  -0.0005985811   0.0001685350  -0.0008177200   0.0005715597
        0.0007084978   0.0004191367  -0.0010430995   0.0008888581  -0.0003138439
        0.0028150774  -0.0047330609  -0.0002365254  -0.0009624157   0.0006862169
       -0.0000321687  -0.0002320727  -0.0001986347   0.0000093358  -0.0000081795
       -0.0000275910  -0.0000869853  -0.0000360298  -0.0000159142  -0.0000189880
       -0.0000115744   0.0000034009  -0.0000040744   0.0000073113   0.0000004741
       -0.0000011995  -0.0000030774   0.0000017198   0.0000014098  -0.0000037151
       -0.0000053886  -0.0000043485   0.0000073313   0.0000034010   0.0000026504
       -0.0000027832   0.0000025254  -0.0000012429  -0.0000028435  -0.0000019090
       -0.0000001290  -0.0000046592   0.0000001735   0.0000014639  -0.0000031929
        0.0000011187  -0.0000055542   0.0000039981   0.0000024719  -0.0000023423
        0.0000032856   0.0000029942   0.0000079000   0.0000009402  -0.0000001151
        0.0000011401   0.0000015694   0.0000052857   0.0000049924   0.0000021776
        0.0000038207   0.0000014015   0.0000029259  -0.0000009291   0.0000008539
       -0.0000004343   0.0000005590   0.0000006724  -0.0000004554   0.0000002997
        0.0000015524  -0.0000001304   0.0000001149   0.0000009532   0.0000005001
       -0.0000009376   0.0000009667   0.0000001952   0.0000002752   0.0000006204
        0.0000000143  -0.0000002631   0.0000009133  -0.0000000537  -0.0000001139
        0.0000006356  -0.0000002103   0.0000000018   0.0000004691  -0.0000000735
        0.0000001001   0.0000007181   0.0000001397   0.0000002264   0.0000006639
        0.0000002709   0.0000001215   0.0000005395   0.0000002942   0.0000002680
        0.0000005793   0.0000005049  -0.0000000110   0.0000007778   0.0000006589
        0.0000005299   0.0000005032  -0.0000000951   0.0000008398   0.0000009973
       -0.0000001967  -0.0000003738   0.0000006289  -0.0000000672   0.0000001918
        0.0000016825   0.0000013204  -0.0000000067   0.0000005303   0.0000009824
       -0.0000000372   0.0000006883   0.0000007951  -0.0000002305   0.0000032894
       -0.0000016415   0.0000007168   0.0000003467  -0.0000008045  -0.0000021914
        0.0000034303  -0.0000052808  -0.0000031151
       -0.0625216950   0.0038501755   0.0053089372   0.4954508023  -0.0038277969
       -0.0019271023  -0.1594753833   0.0481251715   0.0076618643  -0.0632259963
        0.0091575991  -0.0094280490  -0.1330375792  -0.0587978956  -0.0024636700
       -0.0296789003  -0.0146952663  -0.0001504274  -0.0032452481   0.0027701051
        0.0004345132  -0.0009537952  -0.0004013006  -0.0000126221   0.0009880750
        0.0017099099   0.0003761730   0.0026810552  -0.0056841631  -0.0006818808
        0.0001129510   0.0001138191   0.0000231782   0.0002025413  -0.0000366138
       -0.0000212944   0.0000552704   0.0000088311  -0.0000105871   0.0000588136
        0.0000130777   0.0000018473  -0.0000255967   0.0000252011   0.0000113290
       -0.0000287477   0.0000276458  -0.0000029494  -0.0000208601   0.0000453068
        0.0000049332  -0.0000575895   0.0000609036   0.0000036905  -0.0000532520
       -0.0001180920  -0.0000015048   0.0001831281   0.0001090938   0.0000472180
        0.0005621826   0.0005808673   0.0000032656  -0.0004370829   0.0000779126
        0.0000310429   0.0000884721   0.0000171859  -0.0000059544  -0.0000416725
        0.0000290363   0.0000038292   0.0000311533   0.0000033886  -0.0000054254
       -0.0000293238   0.0000036065   0.0000043871   0.0000254793  -0.0000002436
        0.0000029007  -0.0000087069   0.0000050332  -0.0000032427   0.0000097299
       -0.0000000465   0.0000002206  -0.0000112697   0.0000134079   0.0000012118
        0.0000012193  -0.0000006564   0.0000005492   0.0000037405  -0.0000019233
        0.0000027244  -0.0000070112   0.0000044402  -0.0000005757  -0.0000069652
        0.0000026018  -0.0000020675   0.0000097569   0.0000019736   0.0000033228
        0.0000002249   0.0000003584  -0.0000047399   0.0000006599   0.0000000248
       -0.0000008420  -0.0000076042   0.0000029654   0.0000005426  -0.0000016023
       -0.0000006647  -0.0000004530   0.0000145684  -0.0000042253  -0.0000011359
        0.0000025727   0.0000025252   0.0000007659  -0.0000010984   0.0000011444
       -0.0000008864   0.0000030734  -0.0000025751   0.0000001211  -0.0000001077
       -0.0000013362  -0.0000016668   0.0000004479  -0.0000008196  -0.0000005164
        0.0000015112   0.0000009010   0.0000002865   0.0000021840  -0.0000013412
       -0.0000007325  -0.0000016597  -0.0000014928  -0.0000032742   0.0000006373
        0.0000017041  -0.0000005242   0.0000014707  -0.0000008765  -0.0000007682
        0.0000011874   0.0000003872  -0.0000011038   0.0000020320   0.0000004932
        0.0000006291   0.0000014013  -0.0000002655  -0.0000013951   0.0000021258
       -0.0000018099  -0.0000008203   0.0000023502  -0.0000000721   0.0000038102
        0.0000089076  -0.0000039804  -0.0000009911  -0.0000013187  -0.0000042165
       -0.0000026717   0.0000063914  -0.0000040822   0.0000004373   0.0000005432
        0.0000019551   0.0000009535   0.0000023959   0.0000006265   0.0000000043
        0.0000014732  -0.0000084466  -0.0000007407   0.0000141281   0.0000055785
       -0.0000038234   0.0000020756   0.0000015068   0.0000025635   0.0000029219
       -0.0000005986  -0.0000001615  -0.0000543433  -0.0000249886   0.0000041096
        0.0000861662  -0.0000284087   0.0000238005  -0.0031945026   0.0136243632
        0.0217730716  -0.0000591003  -0.0006422903  -0.0021435626  -0.0019212661
       -0.0128917603  -0.0197452061  -0.0269068768   0.0069953209   0.0015403918
       -0.0039540843   0.0035698590   0.0030402276  -0.0055194449   0.0048399169
       -0.0021293721  -0.0046732733   0.0175020593  -0.0187142656  -0.0000221639
        0.0000374559   0.0002271166  -0.0005611429  -0.0160242319   0.0170300177
        0.0006060113  -0.0007985353  -0.0001633756  -0.0009891491  -0.0006395890
        0.0000033901  -0.0004989256   0.0012496525   0.0000553443  -0.0000619634
       -0.0000078914   0.0000045515  -0.0000156530   0.0000361742  -0.0000036381
       -0.0000093659  -0.0000151686   0.0000062073   0.0000107367  -0.0000110389
       -0.0000138584  -0.0000146365   0.0000356099   0.0000131307   0.0000125730
       -0.0000118090   0.0000087144  -0.0000104901  -0.0000131407  -0.0000097694
        0.0000081697  -0.0000060567  -0.0000118365   0.0000120432  -0.0000092469
        0.0000195336  -0.0000207966   0.0000226660   0.0000042225  -0.0000040443
        0.0000177566   0.0000041269   0.0000325515   0.0000199476  -0.0000028589
       -0.0000098590   0.0000022710   0.0000054437   0.0000191084   0.0000070350
        0.0000112302   0.0000009679   0.0000045048  -0.0000002246   0.0000058766
       -0.0000067833   0.0000018466   0.0000043712  -0.0000053840   0.0000012296
        0.0000065950  -0.0000013512  -0.0000003370   0.0000010811   0.0000010349
       -0.0000030953   0.0000036088  -0.0000007027   0.0000025346   0.0000011446
       -0.0000006701  -0.0000012391   0.0000031201  -0.0000001544  -0.0000002506
        0.0000027198  -0.0000016155   0.0000003915   0.0000011419  -0.0000017302
        0.0000004858   0.0000013162   0.0000002390   0.0000010605   0.0000017039
        0.0000011090   0.0000003508   0.0000014277   0.0000005669   0.0000019181
        0.0000003653   0.0000006263   0.0000014018   0.0000007409   0.0000013241
        0.0000018152   0.0000004970  -0.0000000641   0.0000020378   0.0000030394
       -0.0000002573  -0.0000031038   0.0000005396  -0.0000000979   0.0000005944
        0.0000059760   0.0000048289  -0.0000001992   0.0000007434   0.0000036555
       -0.0000005134   0.0000004794   0.0000033390  -0.0000012395   0.0000042674
       -0.0000047705   0.0000030055   0.0000131381  -0.0000030546  -0.0000126406
       -0.0000107276  -0.0000061866  -0.0000253690
        0.0011014251  -0.0889698701  -0.0487586613  -0.0038277969   0.4678495634
        0.0006300157   0.0503040837  -0.0894647713  -0.0041567113   0.0051895401
       -0.1092965026   0.0561855275  -0.0541453624  -0.1112363658  -0.0031114360
       -0.0014113025   0.0070584228   0.0007309926   0.0033207900   0.0006209123
       -0.0005604430  -0.0000635539  -0.0011396796  -0.0000954302   0.0014393079
       -0.0042157972  -0.0012342163  -0.0199204687  -0.0235746361  -0.0014080139
       -0.0009103905  -0.0002322104  -0.0000118975  -0.0000124861  -0.0001222555
       -0.0000104661   0.0000937642   0.0000342399  -0.0000051298  -0.0000207035
        0.0000177862   0.0000015198   0.0000014535   0.0000122129  -0.0000072639
        0.0000019736   0.0000124332   0.0000089738   0.0000007472   0.0000070994
       -0.0000023618  -0.0000670808   0.0000828652   0.0000029048  -0.0000703212
       -0.0001019390   0.0000124307  -0.0001213291  -0.0002154702   0.0000357034
        0.0002969771   0.0000137087   0.0000399140  -0.0001102849   0.0000238344
        0.0000171734   0.0000053941  -0.0000290559  -0.0000249514  -0.0000053084
        0.0000121372   0.0000026692   0.0000000179   0.0000036097   0.0000069472
        0.0000003030  -0.0000011499   0.0000036176   0.0000181981   0.0000013196
        0.0000032723  -0.0000006562   0.0000053110  -0.0000009289   0.0000037453
       -0.0000005623   0.0000003103  -0.0000023682   0.0000083562   0.0000009840
       -0.0000005082   0.0000009554   0.0000003210   0.0000029790  -0.0000013615
        0.0000010647  -0.0000023397   0.0000013873  -0.0000004010  -0.0000022723
        0.0000010070  -0.0000009787   0.0000046643   0.0000009884   0.0000005779
        0.0000011834   0.0000003208  -0.0000021071   0.0000005490   0.0000003129
       -0.0000005939  -0.0000024225   0.0000034731  -0.0000012975   0.0000012724
       -0.0000012841   0.0000001147   0.0000047263  -0.0000028747  -0.0000005974
        0.0000034191   0.0000020789  -0.0000001150   0.0000004027   0.0000009897
       -0.0000005357   0.0000018041  -0.0000005864  -0.0000003853   0.0000012509
        0.0000003656  -0.0000006709   0.0000013025  -0.0000003001  -0.0000001826
        0.0000014739   0.0000005146   0.0000002092   0.0000020476   0.0000000385
        0.0000000158   0.0000003814  -0.0000037227   0.0000002082   0.0000022798
        0.0000031123  -0.0000009555   0.0000015076  -0.0000002359  -0.0000000223
        0.0000017059   0.0000010333  -0.0000003431   0.0000020087   0.0000010303
        0.0000005435   0.0000019206   0.0000005739   0.0000001118   0.0000016996
       -0.0000005205  -0.0000003834   0.0000015328  -0.0000000679   0.0000007974
        0.0000041458  -0.0000014037  -0.0000009069  -0.0000002712  -0.0000018459
       -0.0000012114   0.0000033239  -0.0000020765   0.0000000245   0.0000012884
        0.0000012272   0.0000003457   0.0000031453   0.0000014120  -0.0000002516
       -0.0000005083   0.0000023461  -0.0000004159   0.0000080775   0.0000031699
       -0.0000027776   0.0000042599  -0.0000013292   0.0000010599   0.0000023001
        0.0000003730  -0.0000000607  -0.0000249314  -0.0000056764   0.0000081724
        0.0000164027   0.0000365661   0.0000059959   0.0032076665  -0.0097319173
       -0.0139460627  -0.0002112100   0.0082271777   0.0152087018  -0.0026582938
       -0.0128495344  -0.0182360902  -0.0176055570   0.0074192042   0.0012693340
        0.0142220052  -0.0084963506  -0.0036361105   0.0185114495  -0.0112839544
        0.0011485129   0.0045464128  -0.0126189606   0.0120566152  -0.0009113858
        0.0081766317  -0.0088622327  -0.0018149680  -0.0168080245   0.0162216264
        0.0009815186  -0.0003666158   0.0001193425   0.0007973898   0.0002345559
       -0.0000272072  -0.0002200310   0.0009340081   0.0003491708  -0.0000229595
       -0.0000217423  -0.0000010928  -0.0000041004   0.0000074442   0.0000000854
        0.0000023211   0.0000046046  -0.0000015097   0.0000000791  -0.0000059866
       -0.0000070718  -0.0000036700   0.0000078840   0.0000021812   0.0000009419
       -0.0000065985   0.0000080369   0.0000022820   0.0000054296   0.0000001038
        0.0000010289  -0.0000068233   0.0000115532  -0.0000006787  -0.0000075184
        0.0000001310  -0.0000076122   0.0000067171   0.0000012275  -0.0000063133
       -0.0000035624  -0.0000000425   0.0000003506  -0.0000255112   0.0000025109
        0.0000003775   0.0000031628   0.0000126127   0.0000130506   0.0000078277
        0.0000030389  -0.0000031405   0.0000028581   0.0000007544   0.0000041443
       -0.0000046883   0.0000008969   0.0000032271  -0.0000040804   0.0000009357
        0.0000039305  -0.0000007443  -0.0000001011   0.0000011226   0.0000006374
       -0.0000008469   0.0000027026   0.0000000944   0.0000012745   0.0000014520
       -0.0000001634  -0.0000009302   0.0000018312  -0.0000000106  -0.0000005799
        0.0000019560  -0.0000003397   0.0000000890   0.0000014315  -0.0000007107
        0.0000003511   0.0000010650  -0.0000000639   0.0000002824   0.0000014674
        0.0000006903   0.0000000116   0.0000015911   0.0000007746   0.0000010559
        0.0000010082   0.0000001706   0.0000013435   0.0000008431   0.0000004352
        0.0000007336   0.0000010815  -0.0000000664   0.0000009798   0.0000019523
       -0.0000002150  -0.0000015135   0.0000014722  -0.0000000815   0.0000002244
        0.0000030355   0.0000018646  -0.0000005619   0.0000012652   0.0000008542
       -0.0000006067   0.0000011875  -0.0000010882  -0.0000006514   0.0000048120
       -0.0000040267   0.0000013134   0.0000076626   0.0000005560  -0.0000053112
       -0.0000053042   0.0000022591   0.0000040781
        0.0001994393  -0.0533497581  -0.1502724894  -0.0019271023   0.0006300157
        0.4591674295   0.0078742224  -0.0040846208  -0.0636202838  -0.0048888445
        0.0604984646  -0.1293349300  -0.0022246235  -0.0030657533  -0.0554385933
        0.0010323511   0.0012932509  -0.0011535625   0.0006035802  -0.0004916972
        0.0050955096   0.0000981436  -0.0000548989   0.0003023788   0.0004643786
       -0.0012089408   0.0072420996  -0.0019248790  -0.0019430241   0.0007541779
       -0.0000718529  -0.0000457865   0.0005162012   0.0000024136  -0.0000364043
       -0.0000538443   0.0000196912   0.0000224140  -0.0000401506  -0.0000047238
        0.0000010725   0.0000389262   0.0000066092   0.0000012619   0.0000000427
       -0.0000029192  -0.0000008231   0.0000051576   0.0000013025  -0.0000039302
        0.0000114361  -0.0000185015   0.0000133655   0.0000345180  -0.0000048213
       -0.0000283012  -0.0000627303  -0.0000402970   0.0000580386  -0.0004253847
        0.0000833681  -0.0000053215  -0.0008502513  -0.0001600546   0.0000805477
       -0.0000840998   0.0000226127   0.0000424488   0.0000221603  -0.0000562910
        0.0000076993   0.0000228648  -0.0000030233  -0.0000272222  -0.0000413141
       -0.0000001990   0.0000007226  -0.0000062550  -0.0000005557  -0.0000020002
       -0.0000037588  -0.0000000779  -0.0000004989  -0.0000024155   0.0000001341
        0.0000003748   0.0000007861   0.0000005366   0.0000000189  -0.0000017373
       -0.0000000303   0.0000007838  -0.0000007484   0.0000004500   0.0000001368
        0.0000001309   0.0000004206   0.0000001353   0.0000001575  -0.0000004980
        0.0000003867  -0.0000003592  -0.0000014788  -0.0000004856   0.0000006669