 Entering Gaussian System
 *********************************************
 Gaussian 98:
 frequency output generated by the xtb code
 *********************************************
                         Standard orientation:
 --------------------------------------------------------------------
  Center     Atomic     Atomic              Coordinates (Angstroms)
  Number     Number      Type              X           Y           Z
 --------------------------------------------------------------------
    1          6             0      -10.529758   -4.797994   -1.516003
    2          6             0      -10.570720   -4.038320   -0.182406
    3          6             0      -11.932453   -3.346828   -0.072710
    4          6             0      -10.444697   -5.028119    0.984303
    5          6             0       -9.410188   -3.054948   -0.134494
    6          6             0       -8.101828   -3.548798   -0.225986
    7          6             0       -6.988768   -2.733618   -0.205285
    8          6             0       -7.185295   -1.365479   -0.098476
    9          6             0       -8.490225   -0.844968    0.026689
   10          6             0       -9.592733   -1.689136    0.003447
   11          6             0       -8.349204    0.577296    0.173315
   12          6             0       -9.267575    1.609124    0.316767
   13          6             0       -8.822816    2.916927    0.414916
   14          6             0       -9.769844    4.096137    0.584673
   15          6             0       -9.601065    5.055972   -0.601545
   16          6             0       -9.435719    4.824044    1.894517
   17          6             0      -11.238652    3.667318    0.642192
   18          6             0       -7.444556    3.161217    0.346343
   19          6             0       -6.510245    2.155862    0.203719
   20          6             0       -6.965458    0.848219    0.135604
   21          7             0       -6.268740   -0.333658   -0.030329
   22          6             0       -4.879741   -0.461578   -0.125593
   23          6             0       -4.049350    0.168137    0.798809
   24          6             0       -2.678284    0.053258    0.692060
   25          6             0       -2.102853   -0.704621   -0.325927
   26          6             0       -0.642873   -0.859787   -0.424623
   27          6             0       -0.108823   -2.145124   -0.424517
   28          6             0        1.252618   -2.356236   -0.466162
   29          6             0        2.138241   -1.278388   -0.512048
   30          6             0        3.549181   -1.461300   -0.555507
   31          6             0        4.396295   -0.407209   -0.599132
   32          6             0        3.911139    0.934306   -0.603317
   33          6             0        4.770751    2.046619   -0.649987
   34          6             0        6.233724    1.899783   -0.595004
   35          6             0        6.848614    1.227776    0.459374
   36          6             0        8.221949    1.100864    0.512419
   37          6             0        9.014771    1.638798   -0.499751
   38          6             0       10.461134    1.523392   -0.500031
   39          7             0       11.278818    2.444570   -0.941708
   40          7             0       12.529399    2.020099   -0.769907
   41          6             0       12.496500    0.830769   -0.224758
   42          6             0       13.674445    0.036626    0.075828
   43          6             0       14.843372    0.703760    0.440809
   44          6             0       15.992103   -0.009710    0.720903
   45          6             0       15.990673   -1.393045    0.635437
   46          6             0       14.838495   -2.058826    0.252276
   47          6             0       13.684116   -1.352397   -0.030726
   48          7             0       11.187690    0.455191   -0.024709
   49          6             0       10.699273   -0.736727    0.536959
   50          6             0       11.116705   -1.125939    1.805057
   51          6             0       10.628140   -2.297351    2.353335
   52          6             0        9.724052   -3.074493    1.647812
   53          6             0        9.309212   -2.682371    0.385523
   54          6             0        9.795683   -1.516826   -0.176730
   55          6             0        8.406211    2.345700   -1.536618
   56          6             0        7.034283    2.475458   -1.579979
   57          6             0        4.234884    3.327862   -0.744200
   58          6             0        2.872453    3.535798   -0.755816
   59          6             0        1.987906    2.458931   -0.676237
   60          6             0        0.576039    2.639471   -0.689220
   61          6             0       -0.270160    1.586838   -0.609326
   62          6             0        0.216947    0.250009   -0.508903
   63          6             0        1.619653    0.039322   -0.540260
   64          6             0        2.507688    1.143256   -0.604862
   65          6             0       -2.940059   -1.350420   -1.232135
   66          6             0       -4.311367   -1.222086   -1.144716
   67          1             0       -9.608054   -5.363113   -1.622861
   68          1             0      -10.599349   -4.099689   -2.347621
   69          1             0      -11.364375   -5.493430   -1.578045
   70          1             0      -12.723067   -4.093277   -0.119588
   71          1             0      -12.027145   -2.817086    0.872367
   72          1             0      -12.082624   -2.646960   -0.891510
   73          1             0       -9.523885   -5.601215    0.921679
   74          1             0      -10.449030   -4.493478    1.931987
   75          1             0      -11.280191   -5.725253    0.976848
   76          1             0       -7.943065   -4.612930   -0.313648
   77          1             0       -5.997136   -3.157583   -0.258733
   78          1             0      -10.574631   -1.256367    0.098329
   79          1             0      -10.316343    1.364703    0.344054
   80          1             0      -10.287916    5.894572   -0.506285
   81          1             0       -8.589877    5.449685   -0.653610
   82          1             0       -9.813678    4.539414   -1.535319
   83          1             0      -10.115321    5.660773    2.043149
   84          1             0       -9.535888    4.143626    2.737760
   85          1             0       -8.419742    5.208805    1.886947
   86          1             0      -11.537849    3.171872   -0.278572
   87          1             0      -11.418673    3.000159    1.482017
   88          1             0      -11.868135    4.545840    0.770239
   89          1             0       -7.084011    4.177137    0.402684
   90          1             0       -5.458474    2.390505    0.135591
   91          1             0       -4.486883    0.732201    1.608860
   92          1             0       -2.041185    0.532221    1.421650
   93          1             0       -0.782564   -2.988485   -0.367859
   94          1             0        1.645942   -3.362774   -0.455868
   95          1             0        3.929989   -2.473125   -0.560410
   96          1             0        5.462832   -0.568954   -0.650699
   97          1             0        6.242029    0.820339    1.255455
   98          1             0        8.675693    0.599143    1.354573
   99          1             0       14.827276    1.780975    0.495364
  100          1             0       16.892799    0.513053    1.006648
  101          1             0       16.888199   -1.950965    0.857802
  102          1             0       14.838259   -3.135688    0.167354
  103          1             0       12.799867   -1.882604   -0.352928
  104          1             0       11.819113   -0.510937    2.348153
  105          1             0       10.952417   -2.600740    3.337227
  106          1             0        9.342864   -3.986257    2.081860
  107          1             0        8.606386   -3.287635   -0.166832
  108          1             0        9.481365   -1.203668   -1.161559
  109          1             0        9.030707    2.783386   -2.299581
  110          1             0        6.568219    3.010201   -2.394748
  111          1             0        4.908808    4.171716   -0.785792
  112          1             0        2.477655    4.539564   -0.820593
  113          1             0        0.193612    3.646992   -0.773332
  114          1             0       -1.337910    1.743923   -0.641507
  115          1             0       -2.505529   -1.935166   -2.030039
  116          1             0       -4.950602   -1.695833   -1.874509
 --------------------------------------------------------------------
     1 basis functions        1 primitive gaussians
     1 alpha electrons        1 beta electrons
 
 Harmonic frequencies (cm**-1), IR intensities (km*mol⁻¹),
 Raman scattering activities (A**4/amu), Raman depolarization ratios,
 reduced masses (AMU), force constants (mDyne/A) and normal coordinates:
                      1                      2                      3
                        a                      a                      a 
 Frequencies --     5.8122                 6.0031                 8.5654
 Red. masses --    11.0284                11.0117                11.0074
 Frc consts  --     0.0000                 0.0000                 0.0000
 IR Inten    --     0.0232                 0.1824                 0.8063
 Raman Activ --     0.0000                 0.0000                 0.0000
 Depolar     --     0.0000                 0.0000                 0.0000
 Atom AN      X      Y      Z        X      Y      Z        X      Y      Z
   1   6     0.09  -0.06  -0.02    -0.07   0.10  -0.15    -0.08   0.01   0.12
   2   6     0.05  -0.04  -0.04    -0.10   0.08  -0.14    -0.07   0.05   0.10
   3   6     0.04  -0.05  -0.09    -0.08   0.11  -0.17    -0.05   0.07   0.09
   4   6     0.02  -0.02  -0.02    -0.15   0.06  -0.15    -0.08   0.07   0.12
   5   6     0.04  -0.03  -0.02    -0.07   0.05  -0.09    -0.05   0.03   0.07
   6   6     0.04  -0.02   0.02    -0.08   0.02  -0.06    -0.06  -0.00   0.08
   7   6     0.03  -0.01   0.04    -0.07  -0.00  -0.02    -0.04  -0.02   0.06
   8   6     0.02  -0.01   0.01    -0.04   0.00  -0.01    -0.02  -0.01   0.03
   9   6     0.01  -0.02  -0.03    -0.03   0.03  -0.04    -0.01   0.01   0.02
  10   6     0.02  -0.03  -0.05    -0.05   0.05  -0.08    -0.02   0.03   0.04
  11   6    -0.01  -0.02  -0.05    -0.01   0.02  -0.02     0.02   0.01  -0.02
  12   6    -0.02  -0.02  -0.10     0.01   0.04  -0.03     0.04   0.04  -0.05
  13   6    -0.03  -0.02  -0.11     0.04   0.03  -0.00     0.06   0.03  -0.08
  14   6    -0.05  -0.02  -0.16     0.06   0.05  -0.02     0.09   0.05  -0.12
  15   6    -0.02  -0.04  -0.17     0.11   0.06  -0.00     0.11   0.01  -0.14
  16   6    -0.09   0.01  -0.16     0.04   0.03   0.00     0.09   0.08  -0.14
  17   6    -0.04  -0.03  -0.19     0.05   0.08  -0.06     0.08   0.08  -0.11
  18   6    -0.03  -0.01  -0.07     0.04   0.00   0.03     0.07   0.00  -0.08
  19   6    -0.02  -0.00  -0.03     0.03  -0.02   0.05     0.05  -0.02  -0.05
  20   6    -0.01  -0.01  -0.02     0.00  -0.00   0.02     0.02  -0.01  -0.02
  21   7     0.01  -0.00   0.02    -0.02  -0.02   0.03     0.00  -0.03   0.01
  22   6     0.01   0.01   0.05    -0.02  -0.04   0.05    -0.00  -0.05   0.01
  23   6    -0.01   0.03   0.05    -0.03  -0.06   0.07     0.01  -0.05   0.00
  24   6    -0.01   0.03   0.08    -0.03  -0.08   0.09     0.01  -0.06  -0.00
  25   6     0.02   0.03   0.10    -0.02  -0.07   0.09    -0.00  -0.07  -0.00
  26   6     0.02   0.04   0.12    -0.02  -0.08   0.10    -0.00  -0.07  -0.01
  27   6     0.03   0.04   0.14    -0.02  -0.08   0.11     0.00  -0.06  -0.04
  28   6     0.03   0.05   0.15    -0.02  -0.07   0.10     0.01  -0.05  -0.05
  29   6     0.02   0.05   0.14    -0.02  -0.07   0.09    -0.00  -0.05  -0.04
  30   6     0.02   0.06   0.14    -0.02  -0.07   0.09    -0.00  -0.04  -0.05
  31   6     0.02   0.06   0.13    -0.02  -0.07   0.07    -0.01  -0.03  -0.02
  32   6     0.01   0.06   0.12    -0.02  -0.07   0.06    -0.01  -0.04   0.01
  33   6     0.01   0.06   0.11    -0.02  -0.07   0.04    -0.02  -0.03   0.05
  34   6     0.01   0.06   0.10    -0.02  -0.07   0.01    -0.02  -0.02   0.05
  35   6     0.03   0.07   0.09     0.01  -0.05   0.01    -0.02  -0.06   0.02
  36   6     0.03   0.06   0.06     0.01  -0.03  -0.02    -0.02  -0.04   0.03
  37   6     0.01   0.04   0.04    -0.02  -0.04  -0.04    -0.01   0.03   0.07
  38   6     0.01   0.02   0.00    -0.01  -0.01  -0.06    -0.01   0.06   0.09
  39   7     0.02   0.01   0.00    -0.05  -0.01  -0.12    -0.02   0.12   0.19
  40   7     0.01  -0.03  -0.04    -0.03   0.03  -0.13    -0.02   0.13   0.18
  41   6    -0.00  -0.04  -0.06     0.01   0.05  -0.08    -0.00   0.08   0.08
  42   6    -0.01  -0.07  -0.11     0.03   0.08  -0.08     0.01   0.08   0.05
  43   6     0.01  -0.11  -0.13     0.03   0.13  -0.13    -0.02   0.08   0.12
  44   6     0.00  -0.15  -0.18     0.05   0.17  -0.13    -0.01   0.08   0.10
  45   6    -0.03  -0.14  -0.21     0.08   0.16  -0.08     0.02   0.09  -0.01
  46   6    -0.06  -0.11  -0.19     0.09   0.12  -0.03     0.05   0.09  -0.09
  47   6    -0.05  -0.07  -0.14     0.07   0.08  -0.03     0.04   0.09  -0.06
  48   7    -0.01  -0.01  -0.04     0.02   0.02  -0.05    -0.00   0.04   0.03
  49   6    -0.02  -0.01  -0.05     0.06   0.03   0.01     0.01  -0.01  -0.08
  50   6     0.00  -0.04  -0.07     0.10   0.09   0.02    -0.00  -0.11  -0.10
  51   6    -0.02  -0.04  -0.07     0.14   0.09   0.07     0.00  -0.16  -0.20
  52   6    -0.06   0.00  -0.06     0.15   0.04   0.11     0.02  -0.11  -0.28
  53   6    -0.09   0.04  -0.04     0.12  -0.02   0.10     0.04  -0.02  -0.25
  54   6    -0.07   0.04  -0.04     0.07  -0.02   0.05     0.03   0.03  -0.15
  55   6    -0.01   0.05   0.05    -0.04  -0.06  -0.04    -0.02   0.07   0.10
  56   6    -0.01   0.06   0.08    -0.05  -0.08  -0.01    -0.02   0.04   0.09
  57   6     0.00   0.06   0.11    -0.02  -0.08   0.04    -0.03  -0.03   0.08
  58   6     0.00   0.05   0.11    -0.02  -0.08   0.05    -0.03  -0.04   0.07
  59   6     0.01   0.05   0.12    -0.02  -0.08   0.07    -0.02  -0.05   0.04
  60   6     0.01   0.04   0.11    -0.02  -0.08   0.08    -0.02  -0.05   0.04
  61   6     0.01   0.04   0.11    -0.02  -0.08   0.09    -0.02  -0.06   0.02
  62   6     0.01   0.04   0.12    -0.02  -0.08   0.09    -0.01  -0.06  -0.00
  63   6     0.02   0.05   0.13    -0.02  -0.08   0.09    -0.01  -0.05  -0.01
  64   6     0.01   0.05   0.13    -0.02  -0.07   0.07    -0.01  -0.04   0.02
  65   6     0.04   0.01   0.09    -0.01  -0.06   0.07    -0.01  -0.08   0.01
  66   6     0.04   0.00   0.07    -0.01  -0.04   0.06    -0.01  -0.07   0.02
  67   1     0.03  -0.02   0.00    -0.02   0.02  -0.04    -0.03  -0.00   0.04
  68   1     0.03  -0.02  -0.01    -0.01   0.03  -0.04    -0.02  -0.00   0.03
  69   1     0.03  -0.02  -0.01    -0.03   0.03  -0.05    -0.03   0.01   0.04
  70   1     0.01  -0.02  -0.03    -0.03   0.04  -0.06    -0.02   0.03   0.03
  71   1     0.00  -0.01  -0.03    -0.03   0.03  -0.05    -0.01   0.03   0.02
  72   1     0.02  -0.02  -0.03    -0.01   0.03  -0.05    -0.01   0.02   0.02
  73   1     0.01  -0.00   0.00    -0.05   0.01  -0.04    -0.03   0.02   0.04
  74   1    -0.00  -0.00  -0.01    -0.05   0.01  -0.04    -0.02   0.03   0.03
  75   1     0.01  -0.01  -0.01    -0.05   0.02  -0.05    -0.03   0.03   0.04
  76   1     0.02  -0.01   0.01    -0.03   0.01  -0.02    -0.02  -0.00   0.03
  77   1     0.01  -0.00   0.02    -0.02  -0.01   0.00    -0.01  -0.01   0.02
  78   1     0.00  -0.01  -0.02    -0.01   0.02  -0.03    -0.00   0.02   0.01
  79   1    -0.00  -0.01  -0.04     0.00   0.02  -0.02     0.01   0.02  -0.01
  80   1    -0.01  -0.01  -0.06     0.04   0.02  -0.00     0.04   0.01  -0.05
  81   1    -0.01  -0.01  -0.04     0.03   0.01   0.01     0.03  -0.00  -0.04
  82   1     0.00  -0.02  -0.05     0.04   0.02  -0.00     0.03  -0.00  -0.04
  83   1    -0.03   0.00  -0.06     0.02   0.01  -0.00     0.03   0.03  -0.05
  84   1    -0.03   0.01  -0.04     0.00   0.01  -0.00     0.02   0.03  -0.03
  85   1    -0.03   0.00  -0.04     0.01   0.00   0.01     0.03   0.02  -0.04
  86   1    -0.00  -0.02  -0.06     0.02   0.03  -0.02     0.02   0.02  -0.03
  87   1    -0.02  -0.01  -0.05     0.00   0.02  -0.02     0.02   0.03  -0.03
  88   1    -0.02  -0.01  -0.07     0.02   0.03  -0.02     0.03   0.03  -0.04
  89   1    -0.01  -0.00  -0.02     0.02  -0.00   0.02     0.03  -0.00  -0.03
  90   1    -0.01   0.00  -0.00     0.01  -0.01   0.02     0.02  -0.01  -0.02
  91   1    -0.01   0.01   0.01    -0.01  -0.02   0.02     0.00  -0.01  -0.00
  92   1    -0.01   0.01   0.03    -0.01  -0.03   0.03     0.00  -0.02  -0.00
  93   1     0.01   0.01   0.04    -0.01  -0.02   0.03     0.00  -0.02  -0.01
  94   1     0.01   0.01   0.05    -0.01  -0.02   0.03     0.00  -0.02  -0.02
  95   1     0.01   0.02   0.04    -0.01  -0.02   0.03     0.00  -0.01  -0.02
  96   1     0.01   0.02   0.04    -0.01  -0.02   0.02    -0.00  -0.01  -0.01
  97   1     0.01   0.02   0.03     0.01  -0.01   0.01    -0.01  -0.03  -0.00
  98   1     0.01   0.02   0.01     0.01  -0.01  -0.01    -0.00  -0.02   0.00
  99   1     0.01  -0.03  -0.03     0.00   0.04  -0.05    -0.01   0.02   0.06
 100   1     0.01  -0.05  -0.06     0.01   0.06  -0.05    -0.01   0.02   0.05
 101   1    -0.01  -0.05  -0.07     0.03   0.06  -0.02     0.01   0.03  -0.01
 102   1    -0.03  -0.03  -0.06     0.03   0.03   0.00     0.02   0.03  -0.05
 103   1    -0.02  -0.01  -0.04     0.02   0.01   0.00     0.02   0.03  -0.04
 104   1     0.01  -0.02  -0.02     0.03   0.04  -0.01    -0.01  -0.04  -0.01
 105   1     0.00  -0.02  -0.03     0.05   0.04   0.02    -0.00  -0.07  -0.06
 106   1    -0.02   0.00  -0.02     0.05   0.01   0.04     0.01  -0.04  -0.10
 107   1    -0.04   0.02  -0.01     0.04  -0.02   0.04     0.02   0.01  -0.09
 108   1    -0.03   0.02  -0.01     0.01  -0.02   0.01     0.01   0.03  -0.04
 109   1    -0.01   0.01   0.01    -0.02  -0.02  -0.02    -0.00   0.03   0.04
 110   1    -0.01   0.02   0.02    -0.02  -0.03  -0.00    -0.01   0.02   0.03
 111   1    -0.00   0.02   0.03    -0.01  -0.02   0.01    -0.01  -0.01   0.03
 112   1    -0.00   0.01   0.03    -0.01  -0.02   0.01    -0.01  -0.01   0.03
 113   1     0.00   0.01   0.03    -0.01  -0.02   0.02    -0.01  -0.02   0.02
 114   1     0.00   0.01   0.03    -0.01  -0.02   0.03    -0.01  -0.02   0.00
 115   1     0.02   0.00   0.03    -0.00  -0.02   0.02    -0.01  -0.03   0.00
 116   1     0.02  -0.00   0.02    -0.00  -0.01   0.01    -0.00  -0.02   0.01
                      4                      5                      6
                        a                      a                      a 
 Frequencies --    11.8389                14.7393                22.2758
 Red. masses --    10.9577                10.9012                10.7460
 Frc consts  --     0.0000                 0.0000                 0.0000
 IR Inten    --     0.3910                 0.0764                 0.0725
 Raman Activ --     0.0000                 0.0000                 0.0000
 Depolar     --     0.0000                 0.0000                 0.0000
 Atom AN      X      Y      Z        X      Y      Z        X      Y      Z
   1   6     0.03  -0.06   0.08     0.12  -0.00  -0.10    -0.09   0.02   0.04
   2   6     0.04  -0.04   0.07     0.05  -0.02  -0.10    -0.01   0.01   0.05
   3   6     0.02  -0.08   0.09     0.03  -0.04  -0.15    -0.00  -0.00   0.14
   4   6     0.08  -0.02   0.08     0.01  -0.02  -0.10     0.08  -0.00   0.03
   5   6     0.01  -0.01   0.04     0.03  -0.00  -0.04    -0.01   0.01  -0.02
   6   6     0.02   0.02   0.02     0.04   0.02   0.01    -0.01   0.02  -0.09
   7   6     0.00   0.05  -0.01     0.03   0.03   0.06    -0.02   0.03  -0.15
   8   6    -0.03   0.04  -0.02     0.01   0.03   0.05    -0.02   0.03  -0.14
   9   6    -0.04   0.01  -0.00    -0.01   0.01   0.01    -0.01   0.02  -0.07
  10   6    -0.02  -0.02   0.02     0.01  -0.00  -0.03    -0.01   0.01  -0.02
  11   6    -0.07   0.02  -0.02    -0.03   0.01   0.02    -0.01   0.02  -0.07
  12   6    -0.10  -0.00  -0.02    -0.05  -0.00   0.00    -0.01   0.01   0.00
  13   6    -0.13   0.01  -0.04    -0.07   0.00   0.02    -0.02   0.01   0.00
  14   6    -0.15  -0.01  -0.04    -0.10  -0.01  -0.00    -0.01  -0.00   0.11
  15   6    -0.19  -0.02  -0.05    -0.07  -0.00   0.01    -0.12   0.02   0.11
  16   6    -0.16   0.01  -0.05    -0.16  -0.02   0.01     0.09  -0.03   0.09
  17   6    -0.14  -0.05  -0.02    -0.09  -0.04  -0.06    -0.00  -0.02   0.22
  18   6    -0.13   0.04  -0.05    -0.08   0.02   0.06    -0.02   0.02  -0.08
  19   6    -0.11   0.06  -0.05    -0.06   0.04   0.09    -0.02   0.03  -0.15
  20   6    -0.08   0.05  -0.04    -0.03   0.03   0.07    -0.02   0.03  -0.14
  21   7    -0.06   0.07  -0.04    -0.01   0.05   0.09    -0.02   0.03  -0.19
  22   6    -0.05   0.09  -0.05    -0.01   0.06   0.10    -0.02   0.03  -0.14
  23   6    -0.05   0.09  -0.05    -0.01   0.07   0.09    -0.04   0.05  -0.13
  24   6    -0.05   0.09  -0.05    -0.01   0.07   0.10    -0.04   0.04  -0.08
  25   6    -0.05   0.09  -0.06    -0.01   0.05   0.12    -0.01  -0.00  -0.03
  26   6    -0.05   0.07  -0.05    -0.01   0.04   0.13    -0.01  -0.02   0.05
  27   6    -0.08   0.06  -0.09    -0.02   0.03   0.19    -0.01  -0.02   0.17
  28   6    -0.09   0.03  -0.09    -0.03   0.01   0.18    -0.01  -0.03   0.25
  29   6    -0.06   0.01  -0.05    -0.01  -0.00   0.11    -0.00  -0.04   0.20
  30   6    -0.06  -0.02  -0.05    -0.02  -0.02   0.08    -0.00  -0.04   0.27
  31   6    -0.04  -0.04  -0.01    -0.01  -0.03   0.01     0.00  -0.05   0.21
  32   6    -0.01  -0.03   0.04     0.01  -0.03  -0.04     0.01  -0.05   0.08
  33   6     0.02  -0.05   0.08     0.02  -0.04  -0.11     0.01  -0.05   0.01
  34   6     0.02  -0.08   0.06     0.02  -0.05  -0.11     0.01  -0.04   0.03
  35   6     0.02  -0.13   0.02     0.02  -0.03  -0.09     0.02   0.02   0.07
  36   6     0.02  -0.13   0.01     0.02  -0.03  -0.09     0.02   0.05   0.08
  37   6     0.02  -0.09   0.02     0.02  -0.04  -0.09     0.01   0.02   0.05
  38   6     0.02  -0.07   0.01     0.03  -0.02  -0.05     0.02   0.04   0.06
  39   7    -0.01  -0.05   0.00     0.03  -0.00  -0.01     0.01   0.06   0.09
  40   7     0.00  -0.01  -0.01     0.03   0.02   0.04     0.01   0.06   0.08
  41   6     0.04  -0.01  -0.01     0.03   0.01   0.02     0.02   0.04   0.04
  42   6     0.07   0.03  -0.02     0.02   0.03   0.07     0.02   0.03  -0.01
  43   6     0.05   0.06  -0.04    -0.01   0.04   0.16     0.03   0.01  -0.01
  44   6     0.08   0.10  -0.05    -0.02   0.06   0.22     0.04   0.00  -0.06
  45   6     0.13   0.10  -0.05     0.02   0.06   0.19     0.04   0.01  -0.11
  46   6     0.14   0.06  -0.04     0.06   0.05   0.10     0.03   0.02  -0.11
  47   6     0.12   0.03  -0.02     0.06   0.03   0.04     0.02   0.03  -0.06
  48   7     0.06  -0.05   0.00     0.02  -0.02  -0.04     0.02   0.03   0.03
  49   6     0.10  -0.06   0.01     0.01  -0.04  -0.09     0.01   0.02  -0.00
  50   6     0.13  -0.05   0.01    -0.03  -0.08  -0.09     0.03  -0.04  -0.02
  51   6     0.19  -0.07   0.01    -0.04  -0.10  -0.15     0.02  -0.04  -0.05
  52   6     0.22  -0.11   0.02    -0.01  -0.08  -0.21    -0.01  -0.00  -0.06
  53   6     0.19  -0.12   0.03     0.02  -0.04  -0.21    -0.03   0.05  -0.03
  54   6     0.13  -0.10   0.02     0.04  -0.01  -0.15    -0.02   0.06  -0.01
  55   6     0.01  -0.05   0.05     0.03  -0.06  -0.11     0.01  -0.04   0.02
  56   6     0.01  -0.05   0.07     0.03  -0.07  -0.12     0.00  -0.07   0.01
  57   6     0.05  -0.03   0.13     0.04  -0.04  -0.16     0.01  -0.06  -0.10
  58   6     0.05   0.00   0.13     0.04  -0.02  -0.14     0.01  -0.06  -0.15
  59   6     0.03   0.02   0.09     0.03  -0.01  -0.07     0.01  -0.05  -0.10
  60   6     0.03   0.06   0.08     0.03   0.01  -0.04     0.01  -0.05  -0.16
  61   6     0.01   0.07   0.04     0.02   0.02   0.02     0.01  -0.04  -0.11
  62   6    -0.03   0.06  -0.01     0.00   0.02   0.07     0.00  -0.03   0.00
  63   6    -0.03   0.03  -0.00     0.00   0.00   0.05     0.00  -0.04   0.08
  64   6    -0.00   0.01   0.04     0.01  -0.01  -0.02     0.01  -0.04   0.02
  65   6    -0.05   0.10  -0.06    -0.00   0.05   0.12     0.02  -0.02  -0.04
  66   6    -0.05   0.10  -0.06    -0.00   0.05   0.11     0.02  -0.00  -0.10
  67   1     0.01  -0.01   0.02     0.04   0.00  -0.02    -0.03   0.01  -0.01
  68   1    -0.00  -0.02   0.02     0.04   0.00  -0.03    -0.05   0.01   0.01
  69   1     0.01  -0.02   0.03     0.04  -0.00  -0.04    -0.03   0.00   0.03
  70   1     0.01  -0.03   0.03     0.01  -0.01  -0.06    -0.00  -0.00   0.06
  71   1     0.01  -0.02   0.02    -0.01  -0.01  -0.04     0.02  -0.00   0.04
  72   1    -0.00  -0.03   0.02     0.02  -0.01  -0.04    -0.02  -0.00   0.05
  73   1     0.03  -0.00   0.02     0.01  -0.00  -0.02     0.02  -0.00  -0.01
  74   1     0.03  -0.00   0.02    -0.01  -0.01  -0.03     0.04  -0.00   0.01
  75   1     0.03  -0.01   0.03     0.00  -0.01  -0.04     0.02  -0.00   0.02
  76   1     0.01   0.01   0.01     0.02   0.01   0.00    -0.00   0.01  -0.03
  77   1     0.00   0.02  -0.01     0.01   0.01   0.03    -0.00   0.01  -0.06
  78   1    -0.01  -0.01   0.01    -0.00  -0.01  -0.02    -0.00   0.00   0.01
  79   1    -0.03  -0.01  -0.00    -0.01  -0.01  -0.01    -0.00   0.00   0.02
  80   1    -0.06  -0.01  -0.02    -0.03  -0.00  -0.00    -0.03   0.01   0.05
  81   1    -0.06   0.00  -0.02    -0.02   0.00   0.01    -0.04   0.01   0.01
  82   1    -0.05  -0.01  -0.01    -0.01   0.00  -0.00    -0.06   0.01   0.03
  83   1    -0.05  -0.00  -0.02    -0.05  -0.01  -0.00     0.03  -0.01   0.05
  84   1    -0.04   0.01  -0.01    -0.05  -0.01   0.00     0.05  -0.01   0.03
  85   1    -0.05   0.01  -0.02    -0.05  -0.00   0.02     0.02  -0.00   0.00
  86   1    -0.04  -0.02  -0.00    -0.02  -0.01  -0.02    -0.02   0.00   0.07
  87   1    -0.03  -0.01  -0.00    -0.03  -0.01  -0.02     0.02  -0.01   0.06
  88   1    -0.05  -0.02  -0.01    -0.03  -0.01  -0.02    -0.00  -0.01   0.09
  89   1    -0.04   0.01  -0.02    -0.03   0.01   0.02    -0.01   0.01  -0.03
  90   1    -0.03   0.02  -0.02    -0.02   0.02   0.04    -0.01   0.01  -0.06
  91   1    -0.02   0.03  -0.02    -0.01   0.02   0.02    -0.02   0.02  -0.05
  92   1    -0.02   0.03  -0.01    -0.01   0.02   0.03    -0.02   0.02  -0.02
  93   1    -0.03   0.02  -0.03    -0.01   0.01   0.07    -0.00  -0.00   0.06
  94   1    -0.03   0.01  -0.03    -0.01   0.00   0.06    -0.00  -0.01   0.10
  95   1    -0.03  -0.01  -0.02    -0.01  -0.01   0.04    -0.00  -0.01   0.11
  96   1    -0.01  -0.02  -0.00    -0.00  -0.01  -0.00     0.00  -0.02   0.07
  97   1     0.01  -0.04   0.00     0.00  -0.00  -0.03     0.01   0.02   0.03
  98   1     0.01  -0.05  -0.01     0.00  -0.00  -0.02     0.01   0.03   0.03
  99   1     0.01   0.02  -0.01    -0.01   0.01   0.05     0.01   0.00   0.01
 100   1     0.02   0.04  -0.02    -0.01   0.02   0.09     0.01  -0.00  -0.02
 101   1     0.04   0.04  -0.02     0.00   0.02   0.07     0.01  -0.00  -0.05
 102   1     0.05   0.02  -0.01     0.02   0.01   0.02     0.01   0.01  -0.04
 103   1     0.04  -0.00  -0.00     0.03   0.01  -0.01     0.00   0.01  -0.02
 104   1     0.03  -0.00   0.00    -0.01  -0.03  -0.01     0.02  -0.02  -0.01
 105   1     0.06  -0.01   0.00    -0.02  -0.04  -0.04     0.01  -0.02  -0.02
 106   1     0.08  -0.04   0.01    -0.01  -0.03  -0.07    -0.01  -0.00  -0.02
 107   1     0.06  -0.05   0.01     0.01  -0.01  -0.07    -0.02   0.03  -0.01
 108   1     0.03  -0.03   0.01     0.02   0.01  -0.04    -0.01   0.03   0.00
 109   1     0.00  -0.01   0.02     0.01  -0.02  -0.03    -0.00  -0.02   0.00
 110   1     0.00  -0.00   0.03     0.01  -0.03  -0.04    -0.00  -0.04  -0.01
 111   1     0.02  -0.01   0.05     0.01  -0.01  -0.06     0.00  -0.02  -0.04
 112   1     0.02   0.00   0.05     0.01  -0.01  -0.05     0.00  -0.02  -0.07
 113   1     0.02   0.02   0.03     0.01   0.00  -0.02     0.00  -0.02  -0.07
 114   1     0.00   0.03   0.01     0.01   0.01   0.01     0.00  -0.01  -0.05
 115   1    -0.01   0.03  -0.02     0.00   0.01   0.04     0.01  -0.01  -0.00
 116   1    -0.01   0.03  -0.02     0.00   0.01   0.03     0.01  -0.00  -0.03
                      7                      8                      9
                        a                      a                      a 
 Frequencies --    27.4046                31.0272                31.7683
 Red. masses --    11.2111                 8.9167                10.2821
 Frc consts  --     0.0000                 0.0000                 0.0000
 IR Inten    --     0.4047                 0.0771                 0.1852
 Raman Activ --     0.0000                 0.0000                 0.0000
 Depolar     --     0.0000                 0.0000                 0.0000
 Atom AN      X      Y      Z        X      Y      Z        X      Y      Z
   1   6     0.12  -0.02  -0.04    -0.11   0.27  -0.21     0.01   0.06  -0.04
   2   6     0.01   0.01  -0.06    -0.01   0.00  -0.06     0.02   0.00  -0.01
   3   6     0.01   0.01  -0.18    -0.00  -0.01   0.19     0.02  -0.01   0.03
   4   6    -0.07   0.03  -0.02     0.06  -0.23  -0.27     0.04  -0.05  -0.06
   5   6     0.01   0.01   0.01    -0.01  -0.01   0.03     0.02   0.00   0.01
   6   6     0.02   0.01   0.08    -0.01  -0.01  -0.00     0.02   0.01   0.01
   7   6     0.01   0.01   0.12    -0.01  -0.01   0.03     0.02   0.01   0.02
   8   6     0.00   0.01   0.10    -0.00  -0.01   0.07     0.01   0.01   0.03
   9   6    -0.00   0.01   0.06    -0.00  -0.02   0.10     0.01   0.01   0.03
  10   6     0.00   0.01   0.01    -0.00  -0.01   0.09     0.01   0.00   0.02
  11   6    -0.01   0.01   0.06     0.00  -0.02   0.10     0.00   0.01   0.03
  12   6    -0.02   0.01   0.02     0.00  -0.01   0.09    -0.00   0.00   0.02
  13   6    -0.03   0.01   0.03     0.00  -0.01   0.03    -0.01   0.01   0.01
  14   6    -0.05   0.00  -0.01    -0.00  -0.00  -0.05    -0.01   0.01  -0.02
  15   6     0.02   0.02   0.01    -0.16  -0.22  -0.25    -0.03  -0.03  -0.05
  16   6    -0.12  -0.01   0.02     0.13   0.25  -0.22    -0.01   0.05  -0.04
  17   6    -0.05  -0.00  -0.10     0.01  -0.02   0.21    -0.01  -0.00   0.02
  18   6    -0.03   0.01   0.08    -0.00  -0.01  -0.01    -0.01   0.01   0.01
  19   6    -0.02   0.02   0.11    -0.00  -0.01   0.02    -0.00   0.02   0.02
  20   6    -0.01   0.02   0.10    -0.00  -0.01   0.07     0.00   0.01   0.03
  21   7    -0.00   0.02   0.13    -0.00  -0.02   0.07     0.01   0.02   0.03
  22   6    -0.00   0.02   0.08    -0.00  -0.01   0.05     0.01   0.02   0.01
  23   6     0.03   0.04   0.04     0.00   0.00   0.04     0.02   0.01   0.01
  24   6     0.03   0.03  -0.01     0.00   0.01   0.02     0.01   0.00   0.00
  25   6    -0.01   0.01  -0.01    -0.00   0.01   0.02     0.00   0.00  -0.01
  26   6    -0.01  -0.01  -0.04    -0.00   0.01   0.01     0.00  -0.01  -0.01
  27   6    -0.02  -0.01  -0.01    -0.00   0.01   0.01    -0.01  -0.01  -0.02
  28   6    -0.02  -0.02  -0.01    -0.00   0.01   0.00    -0.01  -0.02  -0.03
  29   6    -0.02  -0.03  -0.05    -0.00   0.01  -0.01    -0.00  -0.02  -0.02
  30   6    -0.02  -0.03  -0.04    -0.00   0.01  -0.02    -0.00  -0.03  -0.02
  31   6    -0.01  -0.04  -0.05    -0.00   0.01  -0.02     0.00  -0.03  -0.01
  32   6    -0.01  -0.03  -0.09    -0.00   0.01  -0.02     0.01  -0.03   0.00
  33   6    -0.00  -0.04  -0.09    -0.00   0.01  -0.02     0.02  -0.03   0.01
  34   6    -0.00  -0.03  -0.02    -0.00   0.01  -0.02     0.01  -0.04   0.02
  35   6    -0.04  -0.03   0.00    -0.01  -0.00  -0.02     0.01  -0.04   0.02
  36   6    -0.04  -0.01   0.07    -0.01  -0.00  -0.00     0.01  -0.04   0.03
  37   6    -0.00   0.03   0.12    -0.00   0.01   0.01     0.01  -0.03   0.04
  38   6    -0.00   0.05   0.17    -0.00   0.01   0.02     0.01  -0.03   0.05
  39   7    -0.01   0.08   0.23    -0.00   0.01   0.02     0.02  -0.02   0.07
  40   7    -0.00   0.08   0.20    -0.00   0.01   0.02     0.01  -0.03   0.07
  41   6     0.00   0.04   0.12    -0.00   0.01   0.01     0.01  -0.03   0.05
  42   6     0.01   0.01   0.01    -0.00  -0.00   0.00     0.04   0.00   0.02
  43   6     0.05  -0.03  -0.03    -0.01  -0.02   0.05     0.10   0.09  -0.28
  44   6     0.06  -0.06  -0.17    -0.02  -0.04   0.04     0.15   0.16  -0.35
  45   6     0.04  -0.05  -0.27    -0.02  -0.03  -0.02     0.16   0.14  -0.10
  46   6     0.00  -0.01  -0.23    -0.02  -0.01  -0.07     0.11   0.06   0.22
  47   6    -0.01   0.02  -0.08    -0.01   0.00  -0.05     0.05  -0.01   0.27
  48   7     0.01   0.03   0.12     0.00   0.01   0.01     0.01  -0.04   0.04
  49   6     0.02   0.01   0.10     0.01   0.00   0.02    -0.05  -0.03  -0.00
  50   6     0.06  -0.01   0.08     0.05   0.00   0.00    -0.21  -0.02   0.05
  51   6     0.09  -0.03   0.07     0.07  -0.01   0.01    -0.33   0.01   0.02
  52   6     0.06  -0.01   0.08     0.07  -0.01   0.03    -0.29   0.04  -0.07
  53   6     0.02   0.01   0.10     0.03  -0.01   0.04    -0.12   0.03  -0.13
  54   6     0.00   0.03   0.11     0.01  -0.00   0.03    -0.01  -0.00  -0.09
  55   6     0.04   0.04   0.11     0.01   0.01   0.01     0.02  -0.03   0.04
  56   6     0.04   0.01   0.04     0.01   0.01  -0.00     0.02  -0.04   0.03
  57   6     0.00  -0.04  -0.14    -0.00   0.01  -0.03     0.02  -0.03   0.02
  58   6     0.00  -0.04  -0.20     0.00   0.01  -0.03     0.02  -0.02   0.01
  59   6    -0.00  -0.03  -0.18    -0.00   0.01  -0.03     0.02  -0.02   0.01
  60   6    -0.00  -0.03  -0.20    -0.00   0.01  -0.02     0.02  -0.01   0.00
  61   6    -0.01  -0.02  -0.16    -0.00   0.01  -0.01     0.01  -0.01  -0.00
  62   6    -0.01  -0.02  -0.10    -0.00   0.01  -0.00     0.01  -0.01  -0.01
  63   6    -0.01  -0.02  -0.10    -0.00   0.01  -0.01     0.01  -0.02  -0.01
  64   6    -0.01  -0.03  -0.13    -0.00   0.01  -0.02     0.01  -0.02  -0.00
  65   6    -0.04  -0.01   0.03    -0.01   0.00   0.03    -0.01   0.01  -0.00
  66   6    -0.04  -0.00   0.08    -0.01  -0.01   0.05    -0.01   0.02   0.01
  67   1     0.03  -0.01   0.01    -0.03   0.10  -0.12     0.01   0.02  -0.02
  68   1     0.05  -0.01  -0.02    -0.06   0.13  -0.02    -0.00   0.03  -0.00
  69   1     0.03  -0.00  -0.03    -0.03   0.07  -0.08     0.01   0.01  -0.02
  70   1     0.00   0.00  -0.07    -0.00  -0.00   0.05     0.01  -0.00   0.01
  71   1    -0.02   0.01  -0.06     0.03  -0.04   0.08     0.01  -0.01   0.01
  72   1     0.02   0.00  -0.06    -0.03   0.03   0.09     0.00   0.00   0.02
  73   1    -0.02   0.01   0.02     0.01  -0.08  -0.13     0.01  -0.01  -0.03
  74   1    -0.05   0.02  -0.01     0.05  -0.12  -0.05     0.02  -0.02  -0.01
  75   1    -0.02   0.01  -0.02     0.01  -0.06  -0.09     0.01  -0.01  -0.02
  76   1     0.01   0.00   0.03    -0.00  -0.00  -0.02     0.01   0.00  -0.00
  77   1     0.00   0.00   0.05    -0.00  -0.00   0.00     0.01   0.01   0.00
  78   1    -0.00   0.00  -0.01    -0.00  -0.00   0.03     0.00  -0.00   0.01
  79   1    -0.01  -0.00  -0.00     0.00  -0.00   0.03    -0.00   0.00   0.01
  80   1     0.00   0.00  -0.01    -0.04  -0.06  -0.09    -0.01  -0.01  -0.02
  81   1     0.00   0.01   0.02    -0.04  -0.07  -0.13    -0.01  -0.01  -0.02
  82   1     0.02   0.01  -0.00    -0.08  -0.11  -0.04    -0.01  -0.02  -0.01
  83   1    -0.04  -0.00  -0.00     0.03   0.07  -0.08    -0.00   0.01  -0.02
  84   1    -0.05  -0.01   0.00     0.08   0.12  -0.03     0.00   0.02  -0.01
  85   1    -0.03  -0.01   0.02     0.03   0.09  -0.12    -0.00   0.02  -0.02
  86   1     0.00   0.00  -0.04    -0.03  -0.04   0.09    -0.01  -0.01   0.01
  87   1    -0.03  -0.00  -0.03     0.04   0.02   0.09     0.00   0.00   0.01
  88   1    -0.02  -0.00  -0.04     0.00  -0.01   0.06    -0.00  -0.00   0.00
  89   1    -0.01   0.00   0.03    -0.00  -0.00  -0.02    -0.00   0.00   0.00
  90   1    -0.01   0.01   0.04    -0.00  -0.00  -0.00    -0.00   0.01   0.01
  91   1     0.02   0.02   0.01     0.00   0.00   0.01     0.01   0.00   0.00
  92   1     0.02   0.02  -0.01     0.00   0.01   0.00     0.01  -0.00  -0.00
  93   1    -0.01  -0.00   0.01    -0.00   0.00   0.01    -0.00  -0.00  -0.01
  94   1    -0.01  -0.01   0.00    -0.00   0.00   0.00    -0.00  -0.01  -0.01
  95   1    -0.01  -0.01  -0.00    -0.00   0.00  -0.01    -0.00  -0.01  -0.01
  96   1    -0.00  -0.01  -0.01    -0.00   0.00  -0.01     0.00  -0.01  -0.00
  97   1    -0.02  -0.02  -0.01    -0.00  -0.00  -0.01     0.00  -0.01   0.00
  98   1    -0.02  -0.01   0.02    -0.00  -0.00  -0.00    -0.00  -0.01   0.01
  99   1     0.02  -0.01   0.01    -0.00  -0.01   0.03     0.02   0.03  -0.14
 100   1     0.03  -0.03  -0.06    -0.01  -0.02   0.02     0.06   0.06  -0.17
 101   1     0.02  -0.02  -0.11    -0.01  -0.01  -0.01     0.06   0.06  -0.04
 102   1    -0.00  -0.00  -0.09    -0.01  -0.00  -0.03     0.03   0.01   0.12
 103   1    -0.01   0.01  -0.01    -0.00   0.01  -0.03     0.00  -0.03   0.15
 104   1     0.02  -0.01   0.02     0.02   0.00  -0.00    -0.07  -0.01   0.03
 105   1     0.03  -0.01   0.01     0.03  -0.00   0.00    -0.13   0.00   0.02
 106   1     0.02  -0.01   0.02     0.03  -0.01   0.01    -0.11   0.02  -0.03
 107   1     0.00   0.01   0.03     0.01  -0.00   0.01    -0.02   0.01  -0.06
 108   1    -0.01   0.01   0.04    -0.01  -0.00   0.01     0.03  -0.00  -0.04
 109   1     0.02   0.02   0.04     0.00   0.01   0.00     0.01  -0.01   0.01
 110   1     0.02   0.00   0.01     0.00   0.01  -0.00     0.01  -0.01   0.01
 111   1     0.00  -0.01  -0.04     0.00   0.00  -0.01     0.01  -0.01   0.01
 112   1     0.00  -0.01  -0.07     0.00   0.00  -0.01     0.01  -0.01   0.01
 113   1     0.00  -0.01  -0.07    -0.00   0.00  -0.01     0.01  -0.00   0.00
 114   1    -0.00  -0.01  -0.05    -0.00   0.00  -0.00     0.00  -0.00  -0.00
 115   1    -0.02  -0.01   0.01    -0.00   0.00   0.01    -0.00   0.00  -0.00
 116   1    -0.02  -0.00   0.03    -0.00  -0.00   0.02    -0.00   0.01   0.00
                     10                     11                     12
                        a                      a                      a 
 Frequencies --    33.6776                42.1266                45.4616
 Red. masses --     8.5798                10.9868                10.8364
 Frc consts  --     0.0000                 0.0000                 0.0000
 IR Inten    --     0.0068                 0.1969                 0.1112
 Raman Activ --     0.0000                 0.0000                 0.0000
 Depolar     --     0.0000                 0.0000                 0.0000
 Atom AN      X      Y      Z        X      Y      Z        X      Y      Z
   1   6    -0.18   0.23  -0.08    -0.14   0.01  -0.01    -0.06  -0.06   0.06
   2   6     0.01  -0.00   0.06    -0.12  -0.00  -0.00     0.00  -0.01   0.03
   3   6     0.02  -0.04   0.39    -0.10   0.04   0.00     0.00  -0.01   0.08
   4   6     0.18  -0.21  -0.13    -0.15  -0.02  -0.01     0.08   0.04   0.06
   5   6     0.00  -0.00   0.04    -0.09  -0.04   0.01    -0.00   0.00  -0.06
   6   6     0.00   0.01  -0.02    -0.10  -0.07   0.01    -0.00   0.01  -0.10
   7   6     0.00   0.01  -0.04    -0.08  -0.10   0.01    -0.01   0.01  -0.12
   8   6     0.00   0.01  -0.01    -0.04  -0.09   0.01    -0.01   0.01  -0.11
   9   6     0.00   0.00   0.01    -0.03  -0.06  -0.00    -0.01   0.01  -0.10
  10   6     0.00  -0.00   0.04    -0.05  -0.03   0.00    -0.01   0.01  -0.07
  11   6    -0.00   0.00  -0.00    -0.00  -0.06  -0.01    -0.01   0.01  -0.09
  12   6    -0.00   0.00  -0.03     0.01  -0.05  -0.01    -0.01   0.01  -0.06
  13   6    -0.01   0.01  -0.04     0.04  -0.06  -0.02    -0.01   0.00  -0.03
  14   6    -0.01   0.01  -0.06     0.07  -0.04   0.01    -0.00  -0.00   0.01
  15   6     0.21   0.17   0.10     0.09   0.00   0.04    -0.06   0.01   0.02
  16   6    -0.22  -0.18   0.09     0.09  -0.10   0.04     0.05  -0.01   0.01
  17   6    -0.03   0.03  -0.39     0.06  -0.00  -0.01    -0.00  -0.01   0.07
  18   6    -0.00   0.00   0.03     0.04  -0.08  -0.05    -0.01   0.01  -0.04
  19   6    -0.00   0.00   0.04     0.02  -0.10  -0.05    -0.01   0.01  -0.06
  20   6    -0.00   0.00   0.01    -0.00  -0.09  -0.02    -0.01   0.01  -0.08
  21   7     0.00   0.01   0.00    -0.02  -0.11  -0.00    -0.01   0.01  -0.10
  22   6     0.00   0.01   0.00    -0.02  -0.09   0.02    -0.00   0.00  -0.01
  23   6     0.00  -0.01   0.01    -0.05  -0.00  -0.01    -0.06  -0.04   0.07
  24   6     0.00  -0.02   0.01    -0.04   0.08  -0.01    -0.05  -0.05   0.16
  25   6     0.00  -0.00   0.00     0.00   0.07   0.02     0.01  -0.01   0.17
  26   6     0.00  -0.01   0.00     0.01   0.11   0.03     0.01  -0.00   0.19
  27   6    -0.00  -0.01   0.01     0.02   0.12   0.10     0.01  -0.00   0.15
  28   6    -0.00  -0.01   0.01     0.02   0.13   0.11     0.01  -0.01   0.05
  29   6    -0.00  -0.01   0.01     0.01   0.13   0.06     0.00  -0.01  -0.03
  30   6    -0.00  -0.01   0.01     0.01   0.14   0.04    -0.00  -0.01  -0.19
  31   6    -0.00  -0.01   0.00     0.00   0.14  -0.00    -0.00  -0.01  -0.25
  32   6     0.00  -0.01  -0.01    -0.00   0.14  -0.02     0.00  -0.01  -0.15
  33   6     0.00  -0.01  -0.01    -0.00   0.14  -0.03     0.00  -0.01  -0.17
  34   6     0.00  -0.01  -0.01    -0.01   0.12   0.01     0.00  -0.01  -0.15
  35   6    -0.00   0.00  -0.00    -0.04   0.03  -0.02    -0.05  -0.10  -0.18
  36   6    -0.00   0.01   0.00    -0.05  -0.05  -0.02    -0.05  -0.08  -0.11
  37   6     0.00   0.00   0.00    -0.01  -0.03   0.02     0.00   0.02  -0.01
  38   6     0.00   0.01   0.01    -0.02  -0.08   0.02     0.00   0.04   0.06
  39   7     0.00   0.01   0.02    -0.02  -0.09   0.01     0.02   0.07   0.13
  40   7     0.00   0.01   0.02    -0.02  -0.09   0.00     0.01   0.06   0.15
  41   6     0.00   0.01   0.01    -0.01  -0.07   0.02    -0.00   0.04   0.09
  42   6    -0.00   0.00   0.00     0.01  -0.04   0.02    -0.01   0.00   0.04
  43   6     0.00  -0.00   0.01     0.01   0.01  -0.08     0.03  -0.04  -0.00
  44   6    -0.00  -0.01   0.00     0.04   0.07  -0.10     0.02  -0.08  -0.08
  45   6    -0.00  -0.01  -0.02     0.08   0.06  -0.01    -0.02  -0.08  -0.11
  46   6    -0.01  -0.00  -0.02     0.08   0.00   0.10    -0.07  -0.04  -0.06
  47   6    -0.00   0.00  -0.01     0.04  -0.05   0.11    -0.06   0.00   0.02
  48   7     0.00   0.01   0.01    -0.02  -0.08   0.03    -0.01   0.03   0.05
  49   6     0.00   0.01   0.01     0.01  -0.09   0.02     0.00   0.02   0.04
  50   6     0.01   0.00   0.00     0.01  -0.08   0.02    -0.09   0.09   0.09
  51   6     0.01   0.00   0.00     0.07  -0.12  -0.01    -0.07   0.09   0.09
  52   6     0.00   0.01   0.01     0.13  -0.17  -0.03     0.04   0.01   0.04
  53   6    -0.00   0.01   0.01     0.12  -0.16  -0.03     0.13  -0.06  -0.01
  54   6    -0.00   0.01   0.01     0.06  -0.12  -0.00     0.11  -0.05  -0.01
  55   6     0.00  -0.00  -0.00     0.03   0.07   0.06     0.05   0.10   0.01
  56   6     0.00  -0.01  -0.01     0.04   0.14   0.05     0.05   0.08  -0.06
  57   6     0.00  -0.01  -0.02    -0.01   0.13  -0.08    -0.00  -0.01  -0.11
  58   6     0.00  -0.01  -0.02    -0.01   0.12  -0.12    -0.00  -0.01  -0.02
  59   6     0.00  -0.01  -0.01    -0.01   0.12  -0.09     0.00  -0.01   0.05
  60   6     0.00  -0.01  -0.01    -0.01   0.11  -0.11     0.00   0.00   0.19
  61   6     0.00  -0.01   0.00    -0.01   0.11  -0.07     0.00   0.00   0.24
  62   6     0.00  -0.01   0.00    -0.00   0.12  -0.01     0.01  -0.00   0.16
  63   6     0.00  -0.01   0.00     0.00   0.13  -0.00     0.00  -0.01   0.04
  64   6     0.00  -0.01  -0.01    -0.00   0.13  -0.04     0.00  -0.01  -0.03
  65   6     0.00   0.02  -0.01     0.03  -0.03   0.06     0.06   0.02   0.09
  66   6     0.00   0.02  -0.01     0.02  -0.10   0.05     0.05   0.03   0.01
  67   1    -0.05   0.09  -0.09    -0.05  -0.01  -0.00    -0.02  -0.01   0.01
  68   1    -0.10   0.11   0.02    -0.04   0.00  -0.00    -0.04  -0.03   0.01
  69   1    -0.04   0.06  -0.02    -0.05   0.01  -0.00    -0.02  -0.02   0.04
  70   1     0.01  -0.01   0.14    -0.03   0.02   0.00     0.00  -0.01   0.04
  71   1     0.06  -0.04   0.13    -0.02   0.01   0.00     0.01   0.00   0.02
  72   1    -0.05   0.01   0.14    -0.02   0.01   0.00    -0.01  -0.01   0.02
  73   1     0.04  -0.07  -0.11    -0.05  -0.01  -0.00     0.02   0.01   0.01
  74   1     0.11  -0.11  -0.01    -0.04  -0.01  -0.00     0.04   0.02   0.01
  75   1     0.04  -0.05  -0.03    -0.05   0.00  -0.00     0.02   0.01   0.04
  76   1     0.00   0.00  -0.02    -0.04  -0.02   0.00     0.00   0.00  -0.03
  77   1     0.00   0.00  -0.02    -0.03  -0.04   0.00    -0.00   0.01  -0.04
  78   1     0.00  -0.00   0.02    -0.01  -0.00  -0.00    -0.00   0.00  -0.02
  79   1    -0.00   0.00  -0.02     0.00  -0.01  -0.00    -0.00   0.00  -0.02
  80   1     0.05   0.04   0.02     0.03   0.00   0.02    -0.01   0.00   0.02
  81   1     0.06   0.06   0.10     0.03  -0.00   0.02    -0.02   0.00  -0.01
  82   1     0.12   0.08  -0.00     0.03   0.01   0.01    -0.03   0.01   0.01
  83   1    -0.05  -0.04   0.02     0.03  -0.02   0.02     0.01  -0.01   0.01
  84   1    -0.12  -0.08  -0.00     0.02  -0.04   0.00     0.03  -0.01   0.00
  85   1    -0.05  -0.08   0.10     0.03  -0.04   0.01     0.01   0.00  -0.01
  86   1     0.04   0.03  -0.14     0.02   0.01  -0.01    -0.01   0.00   0.02
  87   1    -0.06  -0.00  -0.13     0.01  -0.00  -0.01     0.01  -0.01   0.02
  88   1    -0.01   0.01  -0.14     0.02   0.00   0.00     0.00  -0.00   0.04
  89   1    -0.00  -0.00   0.02     0.02  -0.02  -0.02    -0.00   0.00  -0.01
  90   1     0.00   0.00   0.02     0.01  -0.03  -0.02    -0.00   0.00  -0.02
  91   1     0.00  -0.01   0.01    -0.02   0.00  -0.01    -0.03  -0.02   0.02
  92   1     0.00  -0.01   0.01    -0.02   0.04  -0.01    -0.03  -0.02   0.06
  93   1    -0.00  -0.00   0.00     0.01   0.03   0.04     0.00  -0.00   0.05
  94   1    -0.00  -0.00   0.00     0.01   0.04   0.05     0.00  -0.00   0.00
  95   1    -0.00  -0.00   0.00     0.00   0.04   0.02    -0.00  -0.00  -0.08
  96   1    -0.00  -0.00   0.00     0.00   0.04  -0.01    -0.00  -0.00  -0.11
  97   1    -0.00   0.00  -0.00    -0.02   0.01  -0.01    -0.03  -0.05  -0.07
  98   1    -0.00   0.00   0.00    -0.03  -0.04  -0.01    -0.03  -0.04  -0.04
  99   1     0.00  -0.00   0.01    -0.01   0.00  -0.05     0.02  -0.01   0.01
 100   1     0.00  -0.00   0.00     0.01   0.03  -0.05     0.01  -0.03  -0.04
 101   1    -0.00  -0.00  -0.01     0.03   0.03  -0.00    -0.01  -0.03  -0.05
 102   1    -0.00  -0.00  -0.01     0.03  -0.00   0.05    -0.03  -0.01  -0.02
 103   1    -0.00   0.00  -0.01     0.01  -0.03   0.05    -0.03   0.01   0.02
 104   1     0.00   0.00   0.00    -0.01  -0.02   0.01    -0.05   0.04   0.04
 105   1     0.00   0.00   0.00     0.02  -0.04  -0.00    -0.04   0.04   0.04
 106   1     0.00   0.00   0.00     0.05  -0.06  -0.02     0.02   0.00   0.01
 107   1    -0.00   0.00   0.00     0.05  -0.06  -0.01     0.06  -0.04  -0.02
 108   1    -0.00   0.00   0.00     0.01  -0.04   0.00     0.05  -0.03  -0.01
 109   1     0.00  -0.00  -0.00     0.02   0.03   0.03     0.03   0.05   0.03
 110   1     0.00  -0.00  -0.00     0.02   0.06   0.02     0.03   0.04  -0.01
 111   1     0.00  -0.00  -0.01    -0.00   0.04  -0.02    -0.00  -0.00  -0.04
 112   1     0.00  -0.00  -0.01    -0.00   0.03  -0.05    -0.00  -0.00   0.01
 113   1     0.00  -0.00  -0.00    -0.00   0.03  -0.04    -0.00   0.00   0.08
 114   1     0.00  -0.00   0.00    -0.00   0.03  -0.02     0.00   0.00   0.10
 115   1     0.00   0.01  -0.01     0.02  -0.01   0.02     0.03   0.01   0.03
 116   1     0.00   0.01  -0.01     0.02  -0.05   0.02     0.03   0.02  -0.01
                     13                     14                     15
                        a                      a                      a 
 Frequencies --    48.0221                52.3680                57.2374
 Red. masses --    11.0313                10.4358                 9.9923
 Frc consts  --     0.0000                 0.0000                 0.0000
 IR Inten    --     0.1344                 0.3488                 0.0290
 Raman Activ --     0.0000                 0.0000                 0.0000
 Depolar     --     0.0000                 0.0000                 0.0000
 Atom AN      X      Y      Z        X      Y      Z        X      Y      Z
   1   6    -0.20  -0.01   0.02     0.01  -0.07   0.04     0.12   0.14  -0.10
   2   6    -0.17   0.02   0.01     0.04  -0.02   0.01     0.02  -0.00  -0.02
   3   6    -0.14   0.07  -0.01     0.04  -0.04   0.03     0.01  -0.01  -0.04
   4   6    -0.21   0.03   0.03     0.10   0.02   0.04    -0.08  -0.13  -0.12
   5   6    -0.13  -0.03   0.00     0.03  -0.00  -0.04     0.02  -0.01   0.12
   6   6    -0.14  -0.06  -0.01     0.03   0.00  -0.08     0.02  -0.02   0.26
   7   6    -0.12  -0.08  -0.01     0.03   0.01  -0.08     0.02  -0.01   0.25
   8   6    -0.07  -0.08   0.01     0.02   0.01  -0.05     0.01  -0.00   0.10
   9   6    -0.07  -0.06   0.02     0.02   0.00  -0.04     0.00   0.00   0.02
  10   6    -0.09  -0.02   0.02     0.02  -0.01  -0.04     0.01  -0.00   0.03
  11   6    -0.04  -0.06   0.02     0.02   0.00  -0.02    -0.01   0.02  -0.09
  12   6    -0.04  -0.05   0.02     0.02   0.01  -0.01    -0.01   0.02  -0.10
  13   6    -0.02  -0.06   0.01     0.03   0.00   0.01    -0.01   0.02  -0.16
  14   6    -0.01  -0.05  -0.01     0.04   0.01  -0.01     0.00   0.01   0.03
  15   6     0.01  -0.05  -0.01     0.05  -0.02  -0.03    -0.10   0.17   0.15
  16   6    -0.02  -0.05  -0.01     0.05   0.05  -0.02     0.12  -0.17   0.10
  17   6    -0.02  -0.03  -0.03     0.04   0.03   0.01     0.01  -0.00   0.10
  18   6    -0.02  -0.07   0.01     0.03  -0.00   0.04    -0.02   0.04  -0.29
  19   6    -0.03  -0.09   0.02     0.03  -0.01   0.04    -0.02   0.04  -0.29
  20   6    -0.04  -0.08   0.02     0.02  -0.00   0.00    -0.01   0.03  -0.15
  21   7    -0.06  -0.10   0.02     0.02   0.00  -0.02     0.00   0.01  -0.02
  22   6    -0.05  -0.06   0.01     0.01   0.00   0.01     0.00   0.00   0.01
  23   6    -0.06  -0.02  -0.00    -0.01  -0.06   0.06    -0.00   0.12  -0.07
  24   6    -0.06   0.06  -0.03    -0.00  -0.06   0.09    -0.00   0.11  -0.04
  25   6    -0.03   0.10  -0.03     0.01  -0.00   0.05     0.00  -0.01   0.05
  26   6    -0.02   0.11  -0.03     0.01   0.01   0.05     0.00  -0.01   0.04
  27   6    -0.05   0.09  -0.08     0.02   0.02   0.01     0.01  -0.01   0.01
  28   6    -0.06   0.06  -0.07     0.02   0.03  -0.03     0.00  -0.01  -0.04
  29   6    -0.02   0.03  -0.03     0.00   0.03  -0.03     0.00  -0.01  -0.06
  30   6    -0.03  -0.02  -0.01     0.00   0.04  -0.07     0.00  -0.01  -0.11
  31   6     0.01  -0.04   0.00    -0.01   0.05  -0.08     0.00  -0.01  -0.10
  32   6     0.05  -0.03  -0.00    -0.02   0.04  -0.06    -0.00  -0.01  -0.04
  33   6     0.09  -0.06  -0.03    -0.03   0.05  -0.07     0.00  -0.01  -0.00
  34   6     0.09  -0.08  -0.06    -0.03   0.02  -0.07     0.00  -0.02  -0.02
  35   6     0.11   0.01  -0.01    -0.07   0.08  -0.01    -0.00  -0.02  -0.02
  36   6     0.11   0.06   0.01    -0.08   0.03   0.02    -0.00  -0.02  -0.01
  37   6     0.10   0.01  -0.03    -0.05  -0.09  -0.02    -0.00  -0.02  -0.01
  38   6     0.11   0.04   0.00    -0.05  -0.10   0.01    -0.00  -0.02  -0.01
  39   7     0.13   0.06   0.05    -0.07  -0.09   0.04    -0.01  -0.01   0.01
  40   7     0.13   0.05   0.08    -0.06  -0.06   0.07    -0.00  -0.00   0.02
  41   6     0.11   0.04   0.04    -0.05  -0.06   0.07     0.00  -0.00   0.01
  42   6     0.09   0.01   0.03    -0.00   0.00   0.05     0.01   0.01   0.01
  43   6     0.10  -0.04   0.08    -0.05   0.08   0.08    -0.01   0.02   0.04
  44   6     0.08  -0.08   0.05     0.01   0.16   0.01     0.00   0.03   0.03
  45   6     0.06  -0.07  -0.04     0.13   0.16  -0.10     0.03   0.03  -0.02
  46   6     0.04  -0.03  -0.08     0.18   0.09  -0.12     0.04   0.02  -0.06
  47   6     0.06   0.02  -0.05     0.11   0.01  -0.04     0.03   0.01  -0.04
  48   7     0.11   0.04   0.00    -0.05  -0.10   0.04     0.00  -0.02  -0.01
  49   6     0.06   0.05  -0.01    -0.05  -0.09   0.04    -0.00  -0.01  -0.00
  50   6     0.04   0.02  -0.01     0.13  -0.21  -0.06     0.02  -0.03  -0.02
  51   6    -0.06   0.07   0.00     0.10  -0.19  -0.04    -0.01  -0.00   0.00
  52   6    -0.13   0.14   0.02    -0.12  -0.04   0.08    -0.08   0.04   0.04
  53   6    -0.11   0.16   0.02    -0.30   0.08   0.17    -0.10   0.05   0.05
  54   6    -0.01   0.12   0.00    -0.25   0.05   0.15    -0.06   0.02   0.03
  55   6     0.08  -0.11  -0.10    -0.01  -0.15  -0.09     0.00  -0.02  -0.02
  56   6     0.08  -0.15  -0.11    -0.01  -0.10  -0.11     0.00  -0.02  -0.02
  57   6     0.13  -0.04  -0.02    -0.03   0.04  -0.07     0.00  -0.00   0.06
  58   6     0.13   0.00   0.03    -0.03   0.04  -0.03     0.00   0.00   0.09
  59   6     0.10   0.03   0.05    -0.03   0.04   0.02     0.00  -0.00   0.05
  60   6     0.10   0.08   0.10    -0.03   0.03   0.09     0.00  -0.00   0.06
  61   6     0.07   0.11   0.08    -0.02   0.02   0.11     0.00  -0.00   0.04
  62   6     0.02   0.09   0.02    -0.00   0.02   0.06     0.00  -0.01   0.02
  63   6     0.01   0.04   0.01    -0.01   0.03   0.01     0.00  -0.01  -0.01
  64   6     0.05   0.02   0.02    -0.02   0.04  -0.01     0.00  -0.01  -0.00
  65   6    -0.01   0.05  -0.02     0.03   0.06  -0.01     0.01  -0.14   0.14
  66   6    -0.02  -0.03   0.01     0.03   0.06  -0.03     0.01  -0.13   0.12
  67   1    -0.06  -0.01   0.01     0.00  -0.02   0.01     0.04   0.05  -0.03
  68   1    -0.05  -0.01   0.00    -0.01  -0.03   0.00     0.05   0.07  -0.01
  69   1    -0.07   0.01   0.01     0.01  -0.02   0.02     0.04   0.04  -0.07
  70   1    -0.05   0.03  -0.00     0.01  -0.01   0.02     0.00  -0.00  -0.03
  71   1    -0.04   0.02  -0.00     0.02  -0.01   0.01    -0.01  -0.02  -0.01
  72   1    -0.03   0.02  -0.00     0.00  -0.02   0.01     0.01   0.01  -0.00
  73   1    -0.06   0.00   0.01     0.03   0.01   0.01    -0.03  -0.04  -0.04
  74   1    -0.06   0.01   0.01     0.03   0.01   0.01    -0.04  -0.07  -0.02
  75   1    -0.07   0.02   0.01     0.03   0.00   0.03    -0.03  -0.03  -0.07
  76   1    -0.05  -0.02  -0.01     0.01   0.00  -0.03     0.01  -0.01   0.10
  77   1    -0.04  -0.03  -0.01     0.01   0.01  -0.03     0.01  -0.00   0.10
  78   1    -0.02   0.00   0.01     0.01  -0.00  -0.01    -0.00   0.00  -0.01
  79   1    -0.01  -0.01   0.00     0.01   0.01  -0.01    -0.00   0.00  -0.01
  80   1     0.01  -0.01  -0.01     0.02  -0.00  -0.01    -0.03   0.04   0.09
  81   1     0.01  -0.02   0.00     0.02  -0.01  -0.01    -0.03   0.05   0.04
  82   1     0.01  -0.02  -0.00     0.01  -0.01  -0.00    -0.05   0.09   0.03
  83   1    -0.00  -0.01  -0.01     0.01   0.01  -0.01     0.04  -0.05   0.08
  84   1    -0.01  -0.01  -0.00     0.01   0.02  -0.00     0.05  -0.08   0.01
  85   1    -0.00  -0.02   0.00     0.01   0.01  -0.01     0.03  -0.05   0.02
  86   1    -0.00  -0.01  -0.01     0.01   0.01   0.00    -0.02   0.02   0.02
  87   1    -0.01  -0.01  -0.01     0.01   0.01   0.00     0.02  -0.02   0.01
  88   1    -0.00  -0.01  -0.01     0.01   0.01   0.00     0.00  -0.00   0.06
  89   1    -0.00  -0.02   0.00     0.01  -0.00   0.02    -0.01   0.01  -0.11
  90   1    -0.01  -0.03   0.00     0.01  -0.01   0.02    -0.01   0.01  -0.11
  91   1    -0.02  -0.01   0.00    -0.01  -0.03   0.02    -0.00   0.07  -0.04
  92   1    -0.02   0.03  -0.01    -0.00  -0.03   0.04    -0.00   0.05  -0.03
  93   1    -0.02   0.03  -0.03     0.01   0.00   0.00     0.00  -0.00   0.01
  94   1    -0.03   0.01  -0.03     0.01   0.01  -0.02     0.00  -0.00  -0.02
  95   1    -0.02  -0.01  -0.00     0.00   0.01  -0.03    -0.00  -0.00  -0.05
  96   1     0.00  -0.02   0.01    -0.00   0.02  -0.03    -0.00  -0.00  -0.04
  97   1     0.03   0.02   0.01    -0.03   0.05   0.00    -0.00  -0.01  -0.01
  98   1     0.04   0.04   0.02    -0.03   0.02   0.02    -0.00  -0.01  -0.00
  99   1     0.04  -0.01   0.04    -0.04   0.02   0.05    -0.01   0.00   0.02
 100   1     0.03  -0.03   0.02    -0.01   0.06   0.01    -0.00   0.01   0.02
 101   1     0.01  -0.03  -0.02     0.05   0.06  -0.05     0.01   0.01  -0.01
 102   1     0.01  -0.01  -0.04     0.08   0.03  -0.06     0.02   0.01  -0.03
 103   1     0.01   0.02  -0.02     0.04  -0.01  -0.02     0.01   0.00  -0.02
 104   1     0.03  -0.01  -0.01     0.08  -0.09  -0.04     0.02  -0.02  -0.01
 105   1    -0.02   0.01   0.00     0.07  -0.08  -0.04     0.00  -0.00  -0.00
 106   1    -0.06   0.05   0.01    -0.04  -0.01   0.03    -0.03   0.02   0.02
 107   1    -0.05   0.06   0.01    -0.13   0.06   0.08    -0.04   0.02   0.02
 108   1     0.00   0.04   0.00    -0.11   0.04   0.06    -0.02   0.01   0.01
 109   1     0.02  -0.05  -0.04     0.00  -0.07  -0.03     0.00  -0.01  -0.00
 110   1     0.02  -0.07  -0.05     0.01  -0.04  -0.05     0.00  -0.00  -0.00
 111   1     0.04  -0.02  -0.01    -0.01   0.01  -0.03     0.00  -0.00   0.03
 112   1     0.05   0.01   0.01    -0.01   0.01  -0.01     0.00   0.00   0.04
 113   1     0.04   0.03   0.04    -0.01   0.01   0.04     0.00   0.00   0.02
 114   1     0.02   0.04   0.03    -0.01   0.00   0.05     0.00   0.00   0.01
 115   1     0.00   0.02  -0.01     0.01   0.03  -0.01     0.00  -0.07   0.06
 116   1    -0.00  -0.02   0.01     0.01   0.03  -0.02     0.00  -0.07   0.05
                     16                     17                     18
                        a                      a                      a 
 Frequencies --    67.2864                71.7049                76.7980
 Red. masses --    10.3306                10.2077                10.3140
 Frc consts  --     0.0000                 0.0000                 0.0000
 IR Inten    --     0.7961                 0.0750                 0.2125
 Raman Activ --     0.0000                 0.0000                 0.0000
 Depolar     --     0.0000                 0.0000                 0.0000
 Atom AN      X      Y      Z        X      Y      Z        X      Y      Z
   1   6     0.17  -0.08  -0.03    -0.05   0.00   0.01     0.08  -0.11  -0.01
   2   6     0.08  -0.11  -0.02    -0.01   0.02   0.00     0.03  -0.11  -0.01
   3   6     0.05  -0.17  -0.07    -0.00   0.04   0.01     0.00  -0.17  -0.02
   4   6     0.07  -0.14  -0.04    -0.00   0.04   0.02     0.08  -0.10  -0.01
   5   6     0.04  -0.06   0.05    -0.00   0.01  -0.03    -0.01  -0.05  -0.01
   6   6     0.05  -0.04   0.05    -0.01   0.01  -0.05    -0.00  -0.03  -0.01
   7   6     0.02  -0.01   0.05     0.00  -0.00  -0.05    -0.02  -0.01  -0.01
   8   6    -0.02  -0.02   0.05     0.02  -0.00  -0.02    -0.06  -0.01   0.01
   9   6    -0.02  -0.03   0.06     0.02  -0.00  -0.01    -0.06  -0.02   0.01
  10   6    -0.00  -0.07   0.06     0.01   0.01  -0.01    -0.04  -0.05   0.00
  11   6    -0.02  -0.02   0.04     0.02  -0.01   0.02    -0.06  -0.01   0.01
  12   6     0.02   0.03   0.04     0.01  -0.01   0.02    -0.02   0.03   0.01
  13   6     0.07   0.02  -0.01     0.00  -0.01   0.03     0.02   0.02  -0.00
  14   6     0.15   0.08  -0.01    -0.01  -0.02   0.00     0.10   0.08   0.00
  15   6     0.21   0.08   0.00    -0.00  -0.05  -0.02     0.15   0.07   0.00
  16   6     0.20   0.04  -0.00    -0.05   0.01  -0.01     0.15   0.06  -0.00
  17   6     0.12   0.17  -0.01    -0.01  -0.04  -0.02     0.07   0.17   0.01
  18   6     0.08  -0.02  -0.05     0.00  -0.01   0.05     0.03  -0.01  -0.02
  19   6     0.04  -0.05  -0.05     0.01  -0.00   0.05    -0.01  -0.04  -0.01
  20   6    -0.02  -0.03   0.00     0.02  -0.00   0.02    -0.06  -0.02   0.00
  21   7    -0.03  -0.03   0.01     0.02  -0.00  -0.00    -0.07  -0.02   0.01
  22   6    -0.03   0.00  -0.03     0.02  -0.00  -0.00    -0.06   0.01   0.01
  23   6    -0.04  -0.04   0.01     0.02   0.03  -0.03    -0.08  -0.02   0.05
  24   6    -0.04   0.00  -0.01     0.02   0.04  -0.03    -0.08   0.02   0.05
  25   6    -0.05   0.08  -0.07     0.02   0.00  -0.00    -0.06   0.07   0.02
  26   6    -0.05   0.07  -0.05     0.02  -0.00   0.01    -0.06   0.06   0.04
  27   6    -0.08   0.07  -0.05     0.02   0.00   0.08    -0.10   0.04   0.08
  28   6    -0.08   0.05   0.02     0.03   0.01   0.09    -0.10   0.01   0.07
  29   6    -0.07   0.04   0.07     0.02   0.01   0.03    -0.08  -0.02   0.01
  30   6    -0.07   0.02   0.13     0.02   0.01   0.01    -0.08  -0.06  -0.04
  31   6    -0.06   0.00   0.12     0.01   0.02  -0.01    -0.05  -0.08  -0.06
  32   6    -0.04   0.01   0.06     0.01   0.02   0.01    -0.01  -0.06  -0.04
  33   6    -0.02  -0.01   0.00     0.01   0.02   0.06     0.02  -0.08  -0.01
  34   6    -0.03  -0.05  -0.03     0.00   0.02   0.06     0.01  -0.06   0.03
  35   6    -0.02   0.01  -0.00     0.00  -0.15  -0.04     0.01  -0.19  -0.05
  36   6    -0.02  -0.01  -0.02    -0.00  -0.20  -0.08     0.02  -0.13  -0.02
  37   6    -0.04  -0.07  -0.06    -0.00  -0.09  -0.02     0.04   0.05   0.09
  38   6    -0.03  -0.03  -0.01    -0.00  -0.10  -0.06     0.04   0.04   0.03
  39   7    -0.05   0.01   0.04    -0.03  -0.07  -0.03     0.03   0.03   0.00
  40   7    -0.04   0.05   0.10    -0.02  -0.03  -0.02     0.04   0.00  -0.10
  41   6    -0.03   0.04   0.08     0.01  -0.04  -0.04     0.04  -0.01  -0.12
  42   6    -0.03   0.03   0.06     0.03   0.00  -0.02     0.04  -0.01  -0.11
  43   6    -0.02   0.01   0.09    -0.05   0.03   0.19     0.04  -0.01  -0.10
  44   6    -0.02  -0.02   0.00    -0.02   0.07   0.18     0.00  -0.00   0.03
  45   6    -0.01  -0.01  -0.13     0.09   0.08  -0.08    -0.02  -0.01   0.16
  46   6    -0.02   0.02  -0.15     0.17   0.06  -0.27    -0.01  -0.02   0.13
  47   6    -0.03   0.04  -0.05     0.13   0.02  -0.22     0.03  -0.02  -0.02
  48   7    -0.03  -0.00   0.01     0.02  -0.10  -0.10     0.05   0.01  -0.06
  49   6    -0.02  -0.01   0.01     0.02  -0.08  -0.06     0.05   0.01  -0.05
  50   6    -0.14   0.08   0.08    -0.11   0.04   0.02     0.13  -0.04  -0.09
  51   6    -0.13   0.08   0.08    -0.26   0.16   0.13     0.08  -0.00  -0.06
  52   6     0.00  -0.02   0.01    -0.25   0.13   0.15    -0.08   0.10   0.03
  53   6     0.13  -0.11  -0.06    -0.06  -0.03   0.04    -0.15   0.15   0.07
  54   6     0.12  -0.10  -0.06     0.07  -0.14  -0.06    -0.08   0.09   0.02
  55   6    -0.04  -0.16  -0.11     0.00   0.10   0.10     0.04   0.22   0.20
  56   6    -0.04  -0.15  -0.10     0.01   0.15   0.14     0.04   0.17   0.17
  57   6     0.00  -0.00  -0.03    -0.00   0.02   0.09     0.03  -0.07  -0.02
  58   6     0.01   0.02  -0.00    -0.00   0.02   0.03     0.04  -0.04  -0.06
  59   6    -0.01   0.04   0.03     0.00   0.01  -0.03     0.02  -0.02  -0.06
  60   6    -0.01   0.06   0.04     0.00  -0.00  -0.11     0.02   0.02  -0.05
  61   6    -0.03   0.08   0.03     0.01  -0.01  -0.11    -0.01   0.04  -0.02
  62   6    -0.04   0.07   0.01     0.01   0.00  -0.04    -0.03   0.03   0.00
  63   6    -0.05   0.05   0.05     0.01   0.01  -0.01    -0.04  -0.01  -0.02
  64   6    -0.03   0.03   0.05     0.01   0.01  -0.02    -0.01  -0.03  -0.04
  65   6    -0.04   0.13  -0.12     0.02  -0.04   0.02    -0.04   0.11  -0.02
  66   6    -0.04   0.09  -0.09     0.02  -0.03   0.02    -0.04   0.08  -0.03
  67   1     0.06  -0.02   0.00    -0.02  -0.00   0.00     0.03  -0.02  -0.00
  68   1     0.06  -0.02  -0.01    -0.02  -0.00   0.00     0.02  -0.03  -0.00
  69   1     0.06  -0.03  -0.03    -0.02   0.00   0.01     0.03  -0.04  -0.00
  70   1     0.02  -0.06  -0.04    -0.00   0.01   0.01     0.01  -0.06  -0.01
  71   1    -0.01  -0.06  -0.02     0.00   0.01   0.00    -0.01  -0.05  -0.01
  72   1     0.02  -0.05  -0.02    -0.00   0.01   0.00    -0.01  -0.05  -0.01
  73   1     0.03  -0.03  -0.00    -0.00   0.01   0.00     0.03  -0.02  -0.00
  74   1    -0.00  -0.05  -0.01     0.01   0.02   0.00     0.01  -0.03  -0.00
  75   1     0.03  -0.05  -0.03    -0.00   0.01   0.01     0.03  -0.04  -0.01
  76   1     0.02  -0.01   0.02    -0.00   0.00  -0.02     0.01  -0.01  -0.01
  77   1     0.01   0.01   0.01    -0.00  -0.00  -0.02    -0.00   0.01  -0.01
  78   1    -0.00  -0.03   0.02     0.00   0.01   0.00    -0.02  -0.03   0.00
  79   1     0.00   0.02   0.02     0.00  -0.01   0.00    -0.01   0.02   0.01
  80   1     0.07   0.03   0.00    -0.00  -0.02  -0.02     0.06   0.03   0.00
  81   1     0.07   0.01   0.00    -0.00  -0.01  -0.00     0.05   0.00  -0.00
  82   1     0.06   0.03  -0.00     0.01  -0.02  -0.00     0.03   0.02  -0.00
  83   1     0.08   0.03   0.00    -0.02   0.00  -0.01     0.06   0.03   0.00
  84   1     0.04   0.01  -0.00    -0.02   0.01   0.00     0.03   0.02  -0.00
  85   1     0.07  -0.01   0.00    -0.02   0.01   0.00     0.05  -0.00  -0.00
  86   1     0.03   0.05  -0.00     0.00  -0.02  -0.01     0.01   0.05   0.00
  87   1     0.02   0.06  -0.00    -0.01  -0.01  -0.00     0.01   0.05   0.00
  88   1     0.05   0.06  -0.01    -0.01  -0.01  -0.01     0.04   0.06   0.00
  89   1     0.03  -0.01  -0.02    -0.00  -0.00   0.02     0.02  -0.01  -0.01
  90   1     0.01  -0.03  -0.02     0.00   0.00   0.02     0.00  -0.02  -0.01
  91   1    -0.02  -0.03   0.01     0.01   0.02  -0.01    -0.03  -0.02   0.02
  92   1    -0.01  -0.01   0.00     0.01   0.02  -0.02    -0.03   0.00   0.02
  93   1    -0.03   0.02  -0.03     0.01   0.00   0.04    -0.03   0.02   0.04
  94   1    -0.03   0.01   0.01     0.01   0.00   0.04    -0.04  -0.00   0.03
  95   1    -0.02   0.00   0.05     0.01   0.00   0.00    -0.03  -0.02  -0.01
  96   1    -0.02  -0.00   0.04     0.00   0.00  -0.01    -0.02  -0.03  -0.03
  97   1    -0.00   0.02   0.01     0.00  -0.07  -0.02     0.00  -0.10  -0.04
  98   1    -0.00   0.01   0.00    -0.00  -0.09  -0.04     0.00  -0.07  -0.02
  99   1    -0.01   0.00   0.05    -0.04   0.01   0.11     0.01  -0.00  -0.05
 100   1    -0.00  -0.01   0.01    -0.03   0.03   0.10    -0.00   0.00   0.01
 101   1     0.00  -0.01  -0.06     0.03   0.03  -0.03    -0.02  -0.00   0.08
 102   1    -0.01   0.01  -0.07     0.07   0.02  -0.13    -0.01  -0.01   0.06
 103   1    -0.01   0.02  -0.02     0.05   0.00  -0.10     0.01  -0.01  -0.01
 104   1    -0.07   0.04   0.04    -0.04   0.02   0.01     0.07  -0.03  -0.04
 105   1    -0.07   0.04   0.04    -0.11   0.08   0.06     0.04  -0.01  -0.03
 106   1     0.00  -0.01   0.00    -0.11   0.07   0.07    -0.04   0.04   0.02
 107   1     0.07  -0.05  -0.03    -0.01  -0.02   0.01    -0.08   0.06   0.04
 108   1     0.06  -0.05  -0.03     0.06  -0.07  -0.04    -0.04   0.04   0.02
 109   1    -0.01  -0.06  -0.05     0.00   0.06   0.05     0.01   0.11   0.08
 110   1    -0.02  -0.06  -0.04     0.00   0.08   0.06     0.01   0.08   0.07
 111   1     0.01  -0.01  -0.02    -0.00   0.01   0.04     0.01  -0.02   0.00
 112   1     0.01   0.01  -0.01    -0.00   0.00   0.01     0.02  -0.01  -0.02
 113   1     0.00   0.02   0.02    -0.00  -0.00  -0.04     0.01   0.01  -0.02
 114   1    -0.01   0.03   0.01     0.00  -0.01  -0.05    -0.00   0.02   0.00
 115   1    -0.01   0.06  -0.05     0.01  -0.02   0.01    -0.01   0.05  -0.01
 116   1    -0.01   0.04  -0.03     0.01  -0.02   0.01    -0.01   0.03  -0.02
                     19                     20                     21
                        a                      a                      a 
 Frequencies --    85.5719                92.6386               104.4218
 Red. masses --    10.1489                10.0806                11.2789
 Frc consts  --     0.0000                 0.0000                 0.0000
 IR Inten    --     0.4259                 1.3371                 3.5551
 Raman Activ --     0.0000                 0.0000                 0.0000
 Depolar     --     0.0000                 0.0000                 0.0000
 Atom AN      X      Y      Z        X      Y      Z        X      Y      Z
   1   6    -0.10  -0.10   0.02    -0.02   0.08   0.00     0.01   0.01  -0.00
   2   6     0.02  -0.05  -0.01    -0.03   0.03   0.03     0.01  -0.00   0.00
   3   6     0.01  -0.10   0.13    -0.01   0.06   0.04     0.01  -0.01   0.03
   4   6     0.18   0.01   0.02    -0.07  -0.01  -0.00     0.03  -0.00  -0.00
   5   6    -0.01  -0.00  -0.15    -0.01   0.01   0.05     0.01   0.01  -0.01
   6   6    -0.00  -0.01  -0.00    -0.00  -0.01   0.18     0.01  -0.00   0.08
   7   6    -0.01  -0.00   0.07     0.01  -0.01   0.18     0.01  -0.00   0.08
   8   6    -0.02   0.00  -0.02     0.01  -0.00   0.06     0.01   0.01  -0.01
   9   6    -0.03   0.02  -0.25    -0.00   0.01  -0.09     0.00   0.02  -0.09
  10   6    -0.03   0.01  -0.33    -0.01   0.02  -0.10     0.00   0.02  -0.11
  11   6    -0.03   0.02  -0.22    -0.00   0.01  -0.15     0.01   0.01  -0.07
  12   6    -0.02   0.04  -0.27    -0.01   0.01  -0.20     0.01   0.01  -0.07
  13   6     0.00   0.02  -0.06    -0.02   0.00  -0.12     0.01   0.00   0.05
  14   6     0.03   0.03   0.01    -0.04  -0.03  -0.02     0.01   0.00   0.02
  15   6    -0.02   0.04   0.02    -0.15   0.04   0.03     0.03  -0.04  -0.01
  16   6     0.13   0.01   0.00     0.03  -0.10   0.00    -0.02   0.05   0.00
  17   6     0.03   0.06   0.12    -0.02  -0.07   0.07     0.01   0.00   0.02
  18   6     0.02  -0.01   0.12    -0.01   0.00  -0.04     0.01  -0.01   0.15
  19   6     0.01  -0.02   0.17    -0.00   0.00   0.02     0.01  -0.00   0.12
  20   6    -0.02  -0.01   0.03     0.00   0.00  -0.03     0.01   0.00   0.01
  21   7    -0.01  -0.02   0.15     0.01  -0.01   0.09     0.01   0.00   0.01
  22   6    -0.01  -0.03   0.17     0.01  -0.02   0.06     0.00  -0.01  -0.03
  23   6     0.01   0.04   0.10     0.03  -0.23   0.18     0.04   0.08  -0.13
  24   6     0.01   0.08   0.04     0.03  -0.24   0.13     0.03   0.08  -0.18
  25   6    -0.01   0.03   0.07    -0.00  -0.02  -0.05    -0.00  -0.02  -0.12
  26   6    -0.02   0.04  -0.01     0.00  -0.02  -0.07    -0.01  -0.01  -0.11
  27   6    -0.03   0.04  -0.03     0.00  -0.02  -0.19     0.00  -0.01  -0.12
  28   6    -0.03   0.02  -0.08     0.01  -0.01  -0.11     0.01   0.00   0.01
  29   6    -0.03   0.02  -0.09     0.01  -0.00   0.04    -0.00   0.01   0.12
  30   6    -0.03   0.00  -0.06     0.01   0.01   0.15     0.00   0.02   0.19
  31   6    -0.02  -0.00   0.01     0.01   0.01   0.17    -0.00   0.02   0.13
  32   6    -0.01  -0.00   0.01     0.01   0.01   0.07    -0.00   0.02   0.06
  33   6     0.00  -0.01   0.08     0.01   0.02  -0.04    -0.01   0.02  -0.06
  34   6     0.00  -0.03   0.08     0.01   0.05   0.00    -0.01   0.01  -0.13
  35   6     0.03   0.04   0.11     0.00   0.01  -0.01    -0.02  -0.10  -0.19
  36   6     0.03   0.04   0.08     0.00  -0.01  -0.01    -0.02  -0.13  -0.20
  37   6     0.00  -0.02   0.02     0.02   0.03   0.03    -0.01  -0.03  -0.14
  38   6     0.00  -0.00   0.00     0.02  -0.01   0.00    -0.01  -0.01  -0.05
  39   7    -0.01  -0.00  -0.03     0.03  -0.03  -0.02     0.01   0.11   0.24
  40   7    -0.00   0.01  -0.03     0.02  -0.05  -0.04     0.01   0.12   0.30
  41   6     0.01   0.02  -0.01     0.01  -0.04  -0.03    -0.01   0.01   0.05
  42   6     0.01   0.01  -0.01     0.02  -0.03  -0.02    -0.01  -0.01   0.01
  43   6     0.01  -0.00   0.01    -0.01  -0.01   0.02     0.01  -0.01  -0.06
  44   6     0.00  -0.01   0.01     0.01   0.02   0.04     0.01  -0.01  -0.06
  45   6    -0.01  -0.01   0.00     0.04   0.02   0.00    -0.02  -0.02   0.03
  46   6    -0.01   0.00  -0.02     0.07  -0.00  -0.03    -0.04  -0.02   0.10
  47   6    -0.00   0.01  -0.02     0.05  -0.02  -0.04    -0.03  -0.01   0.07
  48   7     0.02   0.01   0.01     0.01  -0.02  -0.01    -0.02  -0.08  -0.18
  49   6     0.01   0.01   0.01     0.01  -0.02  -0.00    -0.01  -0.06  -0.14
  50   6    -0.02   0.02   0.02    -0.01  -0.00   0.01     0.08   0.00  -0.14
  51   6    -0.03   0.02   0.01    -0.04   0.01   0.02     0.10   0.05  -0.03
  52   6     0.00   0.00  -0.02    -0.03   0.01   0.02     0.01   0.04   0.10
  53   6     0.04  -0.00  -0.04     0.00  -0.01  -0.00    -0.08  -0.03   0.11
  54   6     0.04   0.00  -0.02     0.02  -0.03  -0.01    -0.08  -0.09  -0.02
  55   6    -0.03  -0.11  -0.02     0.03   0.11   0.07     0.01   0.08  -0.07
  56   6    -0.03  -0.11   0.00     0.03   0.12   0.06     0.00   0.09  -0.07
  57   6     0.02  -0.00   0.09    -0.01  -0.00  -0.21    -0.01   0.02  -0.05
  58   6     0.02   0.01   0.02    -0.01  -0.01  -0.20    -0.02   0.01   0.06
  59   6     0.01   0.02  -0.06    -0.01  -0.01  -0.04    -0.01   0.01   0.11
  60   6     0.01   0.02  -0.13    -0.01  -0.01   0.05    -0.01   0.01   0.11
  61   6    -0.00   0.03  -0.12    -0.00  -0.01   0.12    -0.01   0.00   0.03
  62   6    -0.02   0.03  -0.07     0.01  -0.01   0.04    -0.01  -0.00   0.01
  63   6    -0.02   0.02  -0.08     0.01  -0.00   0.05    -0.00   0.01   0.09
  64   6    -0.01   0.01  -0.05     0.01  -0.00   0.04    -0.01   0.01   0.11
  65   6    -0.04  -0.07   0.16    -0.02   0.19  -0.18    -0.04  -0.13  -0.01
  66   6    -0.03  -0.09   0.21    -0.02   0.18  -0.11    -0.04  -0.12   0.03
  67   1    -0.01   0.00  -0.03    -0.00   0.03  -0.00     0.01   0.02  -0.01
  68   1    -0.09  -0.04  -0.00    -0.01   0.03   0.01    -0.02   0.00   0.00
  69   1    -0.00  -0.06   0.05    -0.00   0.02  -0.01     0.01  -0.01   0.01
  70   1     0.01  -0.04   0.09    -0.01   0.02   0.02     0.00  -0.01   0.02
  71   1     0.04  -0.00   0.03     0.01   0.02   0.01     0.01   0.00   0.01
  72   1    -0.04  -0.05   0.03    -0.01   0.01   0.01    -0.01  -0.01   0.01
  73   1     0.04  -0.01  -0.03    -0.03  -0.02  -0.01     0.00  -0.01  -0.01
  74   1     0.11   0.02  -0.00    -0.01  -0.01   0.00     0.03  -0.00  -0.00
  75   1     0.04   0.01   0.06    -0.03   0.01  -0.01     0.00   0.01   0.01
  76   1     0.00  -0.00   0.02    -0.00  -0.00   0.08     0.00  -0.00   0.05
  77   1    -0.00  -0.00   0.06     0.00  -0.00   0.07     0.00  -0.00   0.05
  78   1    -0.01   0.00  -0.14    -0.00   0.01  -0.06    -0.00   0.01  -0.05
  79   1    -0.01   0.02  -0.13    -0.00   0.00  -0.08     0.00   0.01  -0.04
  80   1     0.02   0.03   0.03    -0.03   0.02   0.05     0.01  -0.01  -0.01
  81   1     0.00  -0.02  -0.03    -0.04   0.00  -0.02     0.01  -0.02  -0.00
  82   1    -0.05   0.02   0.01    -0.08   0.03   0.01     0.01  -0.02   0.00
  83   1     0.03  -0.01   0.03    -0.01  -0.05   0.04    -0.01   0.01  -0.01
  84   1     0.07  -0.01  -0.00     0.05  -0.05  -0.01    -0.00   0.02   0.01
  85   1     0.03   0.02  -0.02    -0.00   0.00  -0.02    -0.01   0.02   0.00
  86   1    -0.02   0.04   0.03    -0.03  -0.00   0.02     0.00   0.00   0.00
  87   1     0.03  -0.01   0.02     0.02  -0.04   0.01     0.00  -0.00   0.00
  88   1     0.02   0.02   0.07    -0.01  -0.03   0.05     0.00   0.00   0.01
  89   1     0.01  -0.01   0.07    -0.00   0.00   0.00     0.01  -0.00   0.07
  90   1     0.01  -0.01   0.09     0.00  -0.00   0.04     0.00   0.00   0.05
  91   1     0.01   0.02   0.03     0.01  -0.10   0.08     0.02   0.04  -0.04
  92   1     0.01   0.04  -0.01     0.02  -0.12   0.06     0.02   0.04  -0.07
  93   1    -0.01   0.01   0.00     0.00  -0.01  -0.09     0.00  -0.01  -0.06
  94   1    -0.01   0.01  -0.03     0.00  -0.00  -0.05     0.00   0.00   0.00
  95   1    -0.01  -0.00  -0.02     0.01   0.00   0.06     0.00   0.01   0.07
  96   1    -0.00  -0.00   0.02     0.00   0.00   0.07    -0.00   0.00   0.03
  97   1     0.01   0.03   0.04    -0.00  -0.00  -0.01    -0.00  -0.04  -0.06
  98   1     0.02   0.03   0.03    -0.00  -0.02  -0.01    -0.01  -0.06  -0.07
  99   1     0.01  -0.00   0.00    -0.01  -0.00   0.01     0.01  -0.00  -0.04
 100   1     0.00  -0.01   0.01    -0.00   0.01   0.02     0.01  -0.00  -0.04
 101   1    -0.01  -0.01   0.00     0.02   0.01   0.00    -0.01  -0.01   0.02
 102   1    -0.01   0.00  -0.01     0.03   0.00  -0.02    -0.02  -0.01   0.05
 103   1    -0.00   0.01  -0.01     0.02  -0.01  -0.02    -0.01  -0.01   0.03
 104   1    -0.01   0.01   0.01    -0.01   0.00   0.00     0.04   0.01  -0.07
 105   1    -0.02   0.01   0.01    -0.02   0.01   0.01     0.05   0.03  -0.01
 106   1     0.00  -0.00  -0.01    -0.01   0.01   0.01     0.00   0.02   0.06
 107   1     0.02  -0.00  -0.02     0.00  -0.01  -0.00    -0.04  -0.01   0.06
 108   1     0.02  -0.00  -0.01     0.01  -0.01  -0.01    -0.05  -0.04  -0.00
 109   1    -0.01  -0.05  -0.02     0.01   0.05   0.03     0.00   0.04  -0.01
 110   1    -0.01  -0.05  -0.01     0.02   0.05   0.02     0.00   0.05  -0.01
 111   1     0.01  -0.00   0.04    -0.01   0.00  -0.09    -0.01   0.00  -0.04
 112   1     0.01   0.00   0.01    -0.01  -0.01  -0.09    -0.01   0.00   0.02
 113   1     0.00   0.01  -0.05    -0.00  -0.00   0.02    -0.00   0.00   0.04
 114   1    -0.00   0.01  -0.05    -0.00  -0.00   0.06    -0.00   0.00  -0.01
 115   1    -0.02  -0.03   0.05    -0.01   0.11  -0.09    -0.02  -0.06   0.01
 116   1    -0.01  -0.04   0.07    -0.02   0.09  -0.05    -0.02  -0.06   0.03
                     22                     23                     24
                        a                      a                      a 
 Frequencies --   106.3115               112.1039               118.5912
 Red. masses --    10.9010                10.8090                11.2588
 Frc consts  --     0.0000                 0.0000                 0.0000
 IR Inten    --     1.7448                 0.9581                 1.1103
 Raman Activ --     0.0000                 0.0000                 0.0000
 Depolar     --     0.0000                 0.0000                 0.0000
 Atom AN      X      Y      Z        X      Y      Z        X      Y      Z
   1   6    -0.04   0.07   0.01    -0.03  -0.04   0.00     0.02  -0.08  -0.00
   2   6    -0.01   0.06   0.01     0.01   0.01  -0.03    -0.02  -0.06  -0.01
   3   6     0.02   0.13   0.01     0.02   0.02  -0.01    -0.06  -0.13  -0.02
   4   6    -0.07   0.04   0.01     0.06   0.06   0.01     0.04  -0.05  -0.01
   5   6     0.03   0.00   0.03     0.02   0.01  -0.06    -0.06  -0.00  -0.01
   6   6     0.03  -0.02   0.04     0.01   0.02  -0.17    -0.06   0.03  -0.08
   7   6     0.04  -0.03   0.03     0.01   0.01  -0.12    -0.07   0.04  -0.06
   8   6     0.06  -0.03   0.03     0.02   0.00   0.01    -0.09   0.03   0.02
   9   6     0.06  -0.02   0.00     0.03  -0.01   0.09    -0.09   0.02   0.07
  10   6     0.05   0.01   0.00     0.02  -0.00   0.08    -0.08  -0.01   0.07
  11   6     0.06  -0.02  -0.03     0.02  -0.01   0.10    -0.09   0.03   0.06
  12   6     0.05  -0.04  -0.06     0.02  -0.01   0.10    -0.08   0.04   0.05
  13   6     0.04  -0.03  -0.07     0.01  -0.00  -0.03    -0.07   0.05  -0.03
  14   6     0.00  -0.07  -0.02     0.00  -0.01  -0.02    -0.04   0.08  -0.01
  15   6    -0.06  -0.03   0.00    -0.02   0.02   0.01    -0.04   0.12   0.02
  16   6     0.02  -0.11  -0.01     0.01  -0.04  -0.00     0.01   0.04   0.00
  17   6     0.02  -0.12   0.00     0.00  -0.02  -0.02    -0.06   0.13   0.01
  18   6     0.03  -0.02  -0.06     0.00   0.01  -0.14    -0.07   0.04  -0.10
  19   6     0.05  -0.02  -0.02     0.01   0.01  -0.10    -0.08   0.02  -0.06
  20   6     0.05  -0.02  -0.00     0.02   0.00   0.02    -0.08   0.02   0.01
  21   7     0.06  -0.02   0.04     0.02   0.00   0.02    -0.08   0.02   0.02
  22   6     0.05   0.01   0.02     0.02   0.00   0.06    -0.06  -0.02   0.04
  23   6     0.03  -0.10   0.12     0.01   0.06   0.03    -0.03  -0.14   0.10
  24   6     0.03  -0.07   0.11     0.01   0.06   0.05    -0.03  -0.18   0.11
  25   6     0.02   0.07   0.01     0.02   0.00   0.10    -0.01  -0.12   0.06
  26   6     0.02   0.05   0.03     0.01   0.02   0.04     0.01  -0.09   0.02
  27   6    -0.01   0.04   0.19    -0.00   0.02  -0.18     0.06  -0.07   0.03
  28   6    -0.01   0.03   0.17    -0.01   0.01  -0.24     0.07  -0.02  -0.02
  29   6    -0.01   0.02  -0.00    -0.00   0.01  -0.08     0.05   0.00  -0.05
[...]
 110   1    -0.00   0.00  -0.00    -0.00   0.00  -0.01     0.00  -0.00   0.00
 111   1    -0.00  -0.00   0.00    -0.00  -0.00   0.00    -0.01  -0.01   0.00
 112   1     0.00  -0.01   0.00    -0.00   0.00  -0.00     0.01  -0.01   0.00
 113   1     0.01  -0.03   0.00    -0.00   0.00  -0.00     0.01  -0.02   0.00
 114   1     0.09  -0.01   0.00    -0.01   0.00  -0.00     0.05  -0.01   0.00
 115   1     0.08  -0.10  -0.14     0.00  -0.00  -0.00    -0.13   0.17   0.23
 116   1    -0.26  -0.20  -0.30    -0.00  -0.00  -0.00     0.44   0.33   0.50
                    337                    338                    339
                        a                      a                      a 
 Frequencies --  3096.2151              3102.9668              3107.2450
 Red. masses --     1.8820                 1.9256                 1.8576
 Frc consts  --     0.0000                 0.0000                 0.0000
 IR Inten    --    57.7179                25.6750                15.3434
 Raman Activ --     0.0000                 0.0000                 0.0000
 Depolar     --     0.0000                 0.0000                 0.0000
 Atom AN      X      Y      Z        X      Y      Z        X      Y      Z
   1   6     0.00   0.00   0.00     0.00   0.00  -0.00     0.00   0.00   0.00
   2   6     0.00   0.00  -0.00     0.00   0.00  -0.00     0.00   0.00   0.00
   3   6     0.00   0.00  -0.00     0.00   0.00  -0.00     0.00   0.00   0.00
   4   6     0.00   0.00  -0.00     0.00   0.00   0.00     0.00   0.00   0.00
   5   6    -0.00   0.00   0.00    -0.00   0.00   0.00    -0.00   0.00   0.00
   6   6    -0.00   0.00   0.00    -0.00   0.00   0.00    -0.00   0.00   0.00
   7   6    -0.00   0.00  -0.00     0.00  -0.00  -0.00     0.00  -0.00  -0.00
   8   6     0.00   0.00   0.00     0.00   0.00   0.00     0.00   0.00   0.00
   9   6    -0.00   0.00   0.00    -0.00   0.00   0.00    -0.00   0.00   0.00
  10   6    -0.00   0.00   0.00    -0.00   0.00   0.00    -0.00   0.00   0.00
  11   6    -0.00  -0.00  -0.00    -0.00  -0.00  -0.00    -0.00  -0.00  -0.00
  12   6    -0.00  -0.00   0.00    -0.00  -0.00   0.00    -0.00  -0.00   0.00
  13   6     0.00  -0.00  -0.00    -0.00   0.00   0.00    -0.00  -0.00  -0.00
  14   6     0.00  -0.00  -0.00     0.00   0.00  -0.00     0.00  -0.00   0.00
  15   6    -0.00  -0.00   0.00     0.00   0.00  -0.00     0.00  -0.00   0.00
  16   6    -0.00  -0.00  -0.00     0.00   0.00  -0.00     0.00  -0.00  -0.00
  17   6     0.00  -0.00  -0.00     0.00  -0.00  -0.00     0.00  -0.00   0.00
  18   6    -0.00  -0.00  -0.00     0.00   0.00   0.00    -0.00  -0.00  -0.00
  19   6    -0.00  -0.00   0.00     0.00   0.00  -0.00     0.00   0.00  -0.00
  20   6     0.00  -0.00  -0.00     0.00  -0.00  -0.00     0.00  -0.00  -0.00
  21   7    -0.00   0.00   0.00    -0.00  -0.00   0.00    -0.00   0.00   0.00
  22   6     0.00  -0.00  -0.00     0.00  -0.00  -0.00     0.00  -0.00  -0.00
  23   6     0.00  -0.00  -0.00     0.00  -0.00  -0.00     0.00  -0.00  -0.00
  24   6    -0.00  -0.00  -0.00     0.00   0.00   0.00     0.00  -0.00  -0.00
  25   6    -0.00   0.00   0.00     0.00   0.00  -0.00    -0.00   0.00   0.00
  26   6     0.00   0.00  -0.00     0.00  -0.00  -0.00     0.00  -0.00  -0.00
  27   6     0.00   0.00  -0.00     0.00   0.00  -0.00     0.00   0.00  -0.00
  28   6     0.00  -0.00   0.00    -0.00   0.00  -0.00    -0.00   0.00  -0.00
  29   6     0.00  -0.00   0.00    -0.00   0.00  -0.00    -0.00   0.00   0.00
  30   6     0.00  -0.00  -0.00    -0.00   0.00   0.00    -0.00   0.00  -0.00
  31   6     0.00  -0.00  -0.00     0.00  -0.00  -0.00    -0.00   0.00  -0.00
  32   6    -0.00  -0.00   0.00     0.00   0.00  -0.00    -0.00   0.00   0.00
  33   6    -0.00  -0.00   0.00     0.00  -0.00   0.00    -0.00  -0.00   0.00
  34   6    -0.00   0.00  -0.00     0.00   0.00  -0.00     0.00   0.00  -0.00
  35   6    -0.00  -0.00   0.01     0.00   0.00  -0.00    -0.00   0.00  -0.00
  36   6     0.01  -0.01   0.01     0.00  -0.00   0.00     0.00   0.00  -0.00
  37   6     0.00  -0.00   0.00     0.00  -0.00   0.00    -0.01   0.00   0.00
  38   6    -0.00  -0.00  -0.00     0.00  -0.00   0.00     0.00  -0.00   0.00
  39   7     0.00  -0.00   0.00     0.00   0.00  -0.00     0.00   0.00  -0.00
  40   7     0.00   0.00   0.00     0.00   0.00  -0.00     0.00   0.00   0.00
  41   6     0.00   0.00  -0.00    -0.00  -0.00   0.00    -0.00   0.00  -0.00
  42   6     0.00  -0.00   0.00    -0.00   0.00   0.00    -0.00   0.00  -0.00
  43   6    -0.00   0.00   0.00    -0.00   0.00   0.00    -0.00   0.01   0.00
  44   6    -0.01  -0.00  -0.00    -0.00  -0.00  -0.00     0.00   0.00   0.00
  45   6    -0.01   0.01  -0.00    -0.00   0.00  -0.00     0.00  -0.00   0.00
  46   6     0.00   0.02   0.00     0.00   0.00   0.00    -0.00  -0.00  -0.00
  47   6     0.02   0.01   0.01     0.00   0.00   0.00     0.00   0.00   0.00
  48   7    -0.00   0.00  -0.00     0.00   0.00  -0.00     0.00  -0.00   0.00
  49   6     0.00  -0.00   0.00    -0.00  -0.00   0.00     0.00   0.00  -0.00
  50   6    -0.08  -0.07  -0.07    -0.05  -0.04  -0.04     0.00   0.00   0.00
  51   6    -0.04   0.04  -0.13    -0.05   0.04  -0.14     0.00  -0.00   0.00
  52   6    -0.01  -0.02   0.01     0.07   0.16  -0.07    -0.00  -0.00   0.00
  53   6    -0.10  -0.09  -0.08     0.08   0.07   0.07    -0.00  -0.00  -0.00
  54   6    -0.03   0.03  -0.11     0.02  -0.02   0.05    -0.00   0.00  -0.00
  55   6     0.00   0.00  -0.00    -0.00  -0.00   0.00    -0.16  -0.11   0.19
  56   6     0.00   0.00  -0.00     0.00  -0.00   0.00     0.03  -0.03   0.05
  57   6    -0.00  -0.00   0.00     0.00   0.00  -0.00    -0.00  -0.00   0.00
  58   6     0.00  -0.00   0.00     0.00  -0.00   0.00     0.00  -0.00   0.00
  59   6     0.00  -0.00  -0.00     0.00  -0.00   0.00     0.00   0.00   0.00
  60   6     0.00  -0.00   0.00     0.00  -0.00   0.00     0.00  -0.00   0.00
  61   6     0.00  -0.00   0.00     0.00  -0.00   0.00     0.00  -0.00   0.00
  62   6     0.00   0.00  -0.00    -0.00   0.00   0.00     0.00   0.00   0.00
  63   6    -0.00   0.00   0.00    -0.00  -0.00   0.00    -0.00  -0.00   0.00
  64   6    -0.00   0.00  -0.00    -0.00  -0.00   0.00     0.00  -0.00  -0.00
  65   6    -0.00   0.00   0.00    -0.00   0.00   0.00    -0.00   0.00   0.00
  66   6     0.00   0.00   0.00     0.00   0.00   0.00     0.00   0.00   0.00
  67   1     0.00  -0.00  -0.00    -0.00   0.00   0.00     0.00   0.00   0.00
  68   1     0.00   0.00  -0.00     0.00  -0.00   0.00     0.00   0.00  -0.00
  69   1    -0.00  -0.00  -0.00    -0.00  -0.00  -0.00    -0.00  -0.00  -0.00
  70   1    -0.00  -0.00  -0.00    -0.00  -0.00  -0.00    -0.00  -0.00  -0.00
  71   1    -0.00   0.00   0.00     0.00  -0.00  -0.00     0.00  -0.00  -0.00
  72   1     0.00   0.00  -0.00     0.00  -0.00   0.00     0.00   0.00  -0.00
  73   1     0.00  -0.00  -0.00    -0.00   0.00   0.00     0.00  -0.00   0.00
  74   1     0.00   0.00   0.00     0.00  -0.00  -0.00     0.00  -0.00  -0.00
  75   1    -0.00  -0.00  -0.00    -0.00  -0.00  -0.00    -0.00  -0.00   0.00
  76   1     0.00  -0.00  -0.00     0.00  -0.00  -0.00     0.00  -0.00  -0.00
  77   1     0.00  -0.00  -0.00    -0.00   0.00   0.00    -0.00   0.00   0.00
  78   1     0.00  -0.00  -0.00     0.00  -0.00  -0.00     0.00  -0.00  -0.00
  79   1     0.00   0.00  -0.00     0.00   0.00  -0.00     0.00   0.00  -0.00
  80   1    -0.00   0.00   0.00    -0.00   0.00   0.00    -0.00   0.00   0.00
  81   1     0.00   0.00  -0.00    -0.00  -0.00   0.00    -0.00  -0.00   0.00
  82   1    -0.00  -0.00  -0.00     0.00   0.00   0.00     0.00  -0.00  -0.00
  83   1    -0.00   0.00   0.00    -0.00   0.00   0.00    -0.00   0.00   0.00
  84   1    -0.00  -0.00   0.00     0.00   0.00  -0.00     0.00   0.00  -0.00
  85   1     0.00   0.00  -0.00    -0.00  -0.00   0.00    -0.00  -0.00   0.00
  86   1    -0.00  -0.00  -0.00     0.00  -0.00   0.00     0.00  -0.00  -0.00
  87   1     0.00  -0.00   0.00     0.00  -0.00   0.00     0.00   0.00  -0.00
  88   1    -0.00   0.00   0.00    -0.00   0.00   0.00    -0.00   0.00   0.00
  89   1     0.00   0.00   0.00    -0.00  -0.00  -0.00     0.00   0.00   0.00
  90   1     0.00   0.00  -0.00    -0.00  -0.00   0.00    -0.00  -0.00   0.00
  91   1    -0.00   0.01   0.01    -0.00   0.00   0.00    -0.00   0.00   0.00
  92   1     0.00   0.00   0.00    -0.00  -0.00  -0.00    -0.00  -0.00  -0.00
  93   1    -0.00  -0.00   0.00    -0.00  -0.00   0.00    -0.00  -0.00   0.00
  94   1    -0.00   0.00  -0.00     0.00  -0.00   0.00     0.00  -0.00   0.00
  95   1    -0.00   0.01   0.00     0.00  -0.00  -0.00     0.00  -0.00   0.00
  96   1    -0.00   0.00   0.00    -0.01   0.00   0.00     0.00   0.00   0.00
  97   1     0.01   0.01  -0.02    -0.00  -0.00   0.00     0.00   0.00  -0.00
  98   1    -0.02   0.03  -0.05    -0.00   0.00  -0.01     0.01  -0.01   0.01
  99   1     0.00  -0.00  -0.00     0.00  -0.01  -0.00     0.00  -0.04  -0.00
 100   1     0.02   0.01   0.01     0.01   0.00   0.00    -0.01  -0.00  -0.00
 101   1     0.04  -0.02   0.01     0.01  -0.01   0.00    -0.00   0.00  -0.00
 102   1    -0.00  -0.06  -0.00     0.00  -0.01  -0.00     0.00   0.00   0.00
 103   1    -0.07  -0.04  -0.03    -0.00  -0.00  -0.00    -0.00  -0.00  -0.00
 104   1     0.29   0.25   0.22     0.16   0.14   0.12    -0.00  -0.00  -0.00
 105   1     0.15  -0.14   0.46     0.15  -0.14   0.46    -0.00   0.00  -0.00
 106   1     0.03   0.08  -0.04    -0.22  -0.52   0.25     0.00   0.00  -0.00
 107   1     0.35   0.30   0.27    -0.28  -0.24  -0.22     0.00   0.00   0.00
 108   1     0.12  -0.11   0.36    -0.06   0.06  -0.18     0.00  -0.00   0.01
 109   1    -0.00  -0.00   0.01     0.00   0.00  -0.00     0.54   0.38  -0.66
 110   1    -0.00   0.00  -0.00    -0.00   0.00  -0.00    -0.09   0.10  -0.16
 111   1     0.00   0.00  -0.00    -0.00  -0.00   0.00     0.00   0.01  -0.00
 112   1    -0.00   0.00  -0.00    -0.00   0.00  -0.00    -0.00   0.00  -0.00
 113   1    -0.00   0.00  -0.00    -0.00   0.00  -0.00    -0.00   0.00  -0.00
 114   1    -0.01   0.00  -0.00    -0.00   0.00  -0.00    -0.00   0.00  -0.00
 115   1     0.00  -0.00  -0.00     0.00  -0.00  -0.00     0.00  -0.00  -0.00
 116   1    -0.00  -0.00  -0.00    -0.00  -0.00  -0.00    -0.00  -0.00  -0.00
                    340                    341                    342
                        a                      a                      a 
 Frequencies --  3108.4678              3114.7733              3118.1958
 Red. masses --     1.8638                 1.8212                 1.8163
 Frc consts  --     0.0000                 0.0000                 0.0000
 IR Inten    --    14.8027                 1.0209                39.1582
 Raman Activ --     0.0000                 0.0000                 0.0000
 Depolar     --     0.0000                 0.0000                 0.0000
 Atom AN      X      Y      Z        X      Y      Z        X      Y      Z
   1   6    -0.00   0.00   0.00     0.00  -0.00   0.00     0.00  -0.00   0.00
   2   6    -0.00   0.00   0.00     0.00  -0.00  -0.00     0.00  -0.00  -0.00
   3   6    -0.00  -0.00   0.00     0.00  -0.00  -0.00     0.00  -0.00  -0.00
   4   6    -0.00   0.00   0.00     0.00  -0.00  -0.00     0.00  -0.00  -0.00
   5   6     0.00  -0.00  -0.00     0.01   0.00   0.00     0.01   0.00   0.00
   6   6    -0.00   0.00   0.00    -0.00   0.01   0.00    -0.00   0.00   0.00
   7   6    -0.00   0.00   0.00    -0.00   0.00   0.00    -0.00   0.00   0.00
   8   6    -0.00  -0.00  -0.00    -0.00   0.00   0.00    -0.00   0.00   0.00
   9   6     0.00  -0.00  -0.00     0.00  -0.01  -0.00     0.00  -0.01  -0.00
  10   6     0.00   0.00  -0.00     0.18  -0.08  -0.02     0.17  -0.08  -0.02
  11   6     0.00   0.00   0.00    -0.00  -0.01  -0.00     0.00   0.01   0.00
  12   6    -0.00  -0.00  -0.00    -0.18  -0.04   0.00     0.19   0.05  -0.00
  13   6     0.00   0.00   0.00    -0.01   0.00   0.00     0.01  -0.00  -0.00
  14   6    -0.00  -0.00   0.00    -0.00  -0.00   0.00     0.00   0.00  -0.00
  15   6    -0.00  -0.00   0.00    -0.00  -0.00  -0.00     0.00   0.00   0.00
  16   6    -0.00   0.00  -0.00    -0.00  -0.00   0.00     0.00   0.00  -0.00
  17   6     0.00   0.00  -0.00    -0.00  -0.00  -0.00     0.00   0.00   0.00
  18   6    -0.00  -0.00  -0.00     0.00   0.01   0.00    -0.00  -0.00  -0.00
  19   6    -0.00  -0.00   0.00     0.00   0.00  -0.00    -0.00  -0.00   0.00
  20   6    -0.00   0.00   0.00     0.00   0.00  -0.00    -0.00  -0.00  -0.00
  21   7     0.00  -0.00  -0.00     0.00   0.00  -0.00     0.00  -0.00  -0.00
  22   6    -0.00   0.00   0.00     0.00   0.00   0.00    -0.00   0.00   0.00
  23   6    -0.00   0.00   0.00     0.00  -0.00  -0.00     0.00  -0.00  -0.00
  24   6    -0.00  -0.00  -0.00    -0.00  -0.00  -0.00    -0.00  -0.00  -0.00
  25   6    -0.00   0.00   0.00     0.00   0.00   0.00    -0.00   0.00   0.00
  26   6    -0.00   0.00   0.00    -0.00   0.00   0.00    -0.00  -0.00   0.00
  27   6    -0.00  -0.00   0.00    -0.00  -0.00   0.00    -0.00  -0.00   0.00
  28   6    -0.00   0.00  -0.00     0.00  -0.00   0.00    -0.00   0.00  -0.00
  29   6     0.00   0.00  -0.00     0.00  -0.00   0.00     0.00   0.00  -0.00
  30   6    -0.00   0.00   0.00     0.00  -0.00   0.00    -0.00   0.00   0.00
  31   6    -0.00   0.00   0.00     0.00   0.00  -0.00    -0.00   0.00   0.00
  32   6    -0.00  -0.00   0.00     0.00   0.00  -0.00    -0.00  -0.00   0.00
  33   6    -0.00   0.00  -0.00    -0.00   0.00   0.00    -0.00   0.00  -0.00
  34   6    -0.00  -0.00   0.00     0.00   0.00  -0.00    -0.00   0.00  -0.00
  35   6    -0.00  -0.00   0.00     0.00   0.00  -0.00    -0.00  -0.00   0.00
  36   6     0.00  -0.00   0.00     0.00  -0.00   0.00    -0.00   0.00  -0.00
  37   6     0.00  -0.00  -0.00    -0.00   0.00  -0.00    -0.00   0.00  -0.00
  38   6    -0.00   0.00   0.00     0.00  -0.00   0.00    -0.00   0.00   0.00
  39   7     0.00  -0.00   0.00     0.00   0.00  -0.00    -0.00   0.00  -0.00
  40   7    -0.00  -0.00  -0.00    -0.00   0.00  -0.00     0.00  -0.00   0.00
  41   6     0.00   0.00  -0.00    -0.00  -0.00  -0.00    -0.00   0.00   0.00
  42   6    -0.01   0.01  -0.00     0.00  -0.00  -0.00    -0.00   0.00  -0.00
  43   6    -0.00   0.27   0.01    -0.00  -0.00  -0.00     0.00   0.00   0.00
  44   6     0.06   0.04   0.02     0.00   0.00   0.00    -0.00  -0.00  -0.00
  45   6     0.02  -0.02   0.00    -0.00   0.00  -0.00    -0.00   0.00  -0.00
  46   6    -0.00  -0.01  -0.00    -0.00  -0.00  -0.00     0.00   0.00   0.00
  47   6    -0.00  -0.00  -0.00    -0.00  -0.00  -0.00    -0.00  -0.00  -0.00
  48   7     0.00   0.00  -0.00     0.00   0.00  -0.00    -0.00  -0.00  -0.00
  49   6    -0.00  -0.00   0.00    -0.00  -0.00   0.00     0.00   0.00   0.00
  50   6    -0.00  -0.00  -0.00    -0.00  -0.00  -0.00    -0.00  -0.00  -0.00
  51   6    -0.00   0.00  -0.00     0.00  -0.00   0.00    -0.00   0.00  -0.00
  52   6    -0.00  -0.00   0.00    -0.00  -0.00   0.00     0.00   0.00  -0.00
  53   6    -0.00  -0.00  -0.00    -0.00  -0.00  -0.00    -0.00  -0.00  -0.00
  54   6    -0.00   0.00  -0.00     0.00   0.00   0.00    -0.00   0.00  -0.00
  55   6     0.01   0.00  -0.01    -0.00  -0.00   0.00    -0.00  -0.00   0.00
  56   6    -0.00   0.00  -0.00     0.00  -0.00   0.00     0.00  -0.00   0.00
  57   6     0.00   0.00  -0.00    -0.00  -0.00   0.00    -0.00  -0.00   0.00
  58   6    -0.00   0.00  -0.00     0.00  -0.00   0.00     0.00  -0.00   0.00
  59   6    -0.00   0.00  -0.00     0.00  -0.00   0.00     0.00  -0.00   0.00
  60   6    -0.00   0.00  -0.00     0.00  -0.00   0.00     0.00  -0.00   0.00
  61   6    -0.00   0.00  -0.00     0.00  -0.00   0.00    -0.00   0.00  -0.00
  62   6    -0.00  -0.00  -0.00    -0.00  -0.00   0.00     0.00  -0.00  -0.00
  63   6     0.00  -0.00  -0.00     0.00   0.00   0.00     0.00   0.00   0.00
  64   6     0.00  -0.00   0.00    -0.00   0.00   0.00     0.00  -0.00  -0.00
  65   6    -0.00   0.00   0.00     0.00  -0.00  -0.00    -0.00   0.00   0.00
  66   6    -0.00  -0.00  -0.00    -0.00  -0.00  -0.00     0.00  -0.00  -0.00
  67   1     0.00  -0.00  -0.00    -0.00   0.00   0.00    -0.00   0.00   0.00
  68   1    -0.00   0.00  -0.00     0.00   0.00  -0.00     0.00   0.00  -0.00
  69   1     0.00   0.00  -0.00    -0.00  -0.00   0.00    -0.00  -0.00   0.00
  70   1     0.00   0.00   0.00     0.00   0.00   0.00     0.00   0.00   0.00
  71   1    -0.00  -0.00  -0.00    -0.00   0.01   0.01    -0.00   0.01   0.01
  72   1    -0.00   0.00  -0.00    -0.00   0.01  -0.01    -0.00   0.01  -0.01
  73   1     0.00  -0.00  -0.00    -0.00   0.00   0.00    -0.00   0.00   0.00
  74   1    -0.00   0.00   0.00     0.00   0.00   0.00     0.00   0.00   0.00
  75   1    -0.00  -0.00  -0.00    -0.00  -0.00  -0.00    -0.00  -0.00  -0.00
  76   1     0.00  -0.00  -0.00     0.00  -0.02  -0.00     0.00  -0.02  -0.00
  77   1     0.00  -0.00  -0.00     0.01  -0.00  -0.00     0.00  -0.00  -0.00
  78   1    -0.00   0.00   0.00    -0.63   0.27   0.06    -0.61   0.26   0.06
  79   1     0.00   0.00  -0.00     0.65   0.14  -0.02    -0.67  -0.15   0.02
  80   1     0.00  -0.00  -0.00     0.00  -0.00  -0.00    -0.00   0.00   0.00
  81   1     0.00   0.00  -0.00     0.00   0.00  -0.00    -0.00  -0.00   0.00
  82   1    -0.00  -0.00  -0.00     0.00   0.00   0.00    -0.00  -0.00  -0.00
  83   1     0.00  -0.00  -0.00     0.00  -0.00   0.00    -0.00   0.00   0.00
  84   1    -0.00  -0.00   0.00    -0.00   0.00  -0.00     0.00  -0.00   0.00
  85   1     0.00   0.00  -0.00     0.00   0.00   0.00    -0.00  -0.00  -0.00
  86   1    -0.00  -0.00  -0.00     0.00   0.01   0.01    -0.00  -0.01  -0.01
  87   1    -0.00  -0.00   0.00     0.00   0.01  -0.01    -0.00  -0.01   0.01
  88   1     0.00  -0.00  -0.00    -0.00   0.00   0.00     0.00  -0.00  -0.00
  89   1     0.00   0.00   0.00    -0.01  -0.02  -0.00     0.01   0.02   0.00
  90   1     0.00   0.00  -0.00    -0.01  -0.00   0.00     0.00   0.00  -0.00
  91   1     0.00  -0.00  -0.00    -0.00   0.00   0.00    -0.00   0.00   0.00
  92   1     0.00   0.00   0.00     0.00   0.00   0.00     0.00   0.00   0.00
  93   1     0.00   0.00  -0.00     0.00   0.00  -0.00     0.00   0.00  -0.00
  94   1     0.00  -0.00   0.00    -0.00   0.00  -0.00     0.00  -0.00   0.00
  95   1     0.00  -0.00  -0.00    -0.00   0.00   0.00     0.00  -0.00  -0.00
  96   1     0.00  -0.00  -0.00    -0.00   0.00   0.00     0.00  -0.00  -0.00
  97   1     0.00   0.00  -0.00    -0.00  -0.00   0.00     0.00   0.00  -0.00
  98   1    -0.00   0.00  -0.00    -0.00   0.00  -0.00     0.00  -0.00   0.00
  99   1     0.01  -0.92  -0.05     0.00   0.00  -0.00    -0.00  -0.00  -0.00
 100   1    -0.20  -0.12  -0.06    -0.00  -0.00  -0.00     0.00   0.00   0.00
 101   1    -0.07   0.04  -0.02     0.00  -0.00   0.00     0.00  -0.00   0.00
 102   1     0.00   0.02   0.00    -0.00   0.00   0.00     0.00  -0.00  -0.00
 103   1     0.02   0.01   0.01     0.00   0.00  -0.00     0.00   0.00   0.00
 104   1     0.01   0.01   0.00     0.00   0.00   0.00     0.00   0.00   0.00
 105   1     0.00  -0.00   0.00    -0.00   0.00  -0.00     0.00  -0.00   0.00
 106   1     0.00   0.00  -0.00     0.00   0.00  -0.00    -0.00  -0.00   0.00
 107   1     0.00   0.00   0.00     0.00   0.00   0.00     0.00   0.00   0.00
 108   1     0.00  -0.00   0.00    -0.00   0.00  -0.00     0.00  -0.00   0.00
 109   1    -0.02  -0.02   0.03     0.00   0.00  -0.00     0.00   0.00  -0.00
 110   1     0.00  -0.00   0.01    -0.00   0.00  -0.00    -0.00   0.00  -0.00
 111   1    -0.00  -0.00   0.00     0.00   0.00  -0.00     0.00   0.00  -0.00
 112   1     0.00  -0.00   0.00    -0.00   0.00  -0.00    -0.00   0.00  -0.00
 113   1     0.00  -0.00   0.00    -0.00   0.00  -0.00    -0.00   0.00  -0.00
 114   1     0.00  -0.00   0.00    -0.00   0.00  -0.00     0.00  -0.00   0.00
 115   1     0.00  -0.00  -0.00    -0.00   0.00   0.00     0.00  -0.00  -0.00
 116   1     0.00   0.00   0.00     0.00   0.00   0.00     0.00   0.00   0.00
