$hessian                                                                        
        0.5261661311  -0.0082725617  -0.0113514812  -0.0634678216  -0.0057899716
       -0.0113160773  -0.0035558670   0.0149088555   0.0213499474  -0.0002481539
       -0.0019602426  -0.0075951481  -0.0044980256  -0.0145482873  -0.0160488196
       -0.0009827458  -0.0004819330  -0.0001945898   0.0005747705   0.0001258346
        0.0002380470   0.0003888126  -0.0001454884  -0.0000128622  -0.0002710766
       -0.0008608260   0.0010602293  -0.0018356702  -0.0004708283  -0.0004094497
       -0.0000447876   0.0000423457   0.0001522612  -0.0000615077   0.0000261978
        0.0000066768  -0.0000022132  -0.0000198978  -0.0000101345  -0.0000221771
        0.0000022787   0.0000077154   0.0000084002  -0.0000030628  -0.0000061970
        0.0000097958  -0.0000035518   0.0000016469   0.0000061722  -0.0000110960
       -0.0000009182  -0.0000044986  -0.0000197451   0.0000022547  -0.0000055799
        0.0000004974  -0.0000137767  -0.0001725548   0.0000330082  -0.0000624773
       -0.0002456579  -0.0003313963  -0.0000634431   0.0002326428  -0.0000205417
       -0.0000481752  -0.0000831754  -0.0000434779   0.0000159201   0.0000625863
       -0.0000278092  -0.0000288877  -0.0000893131   0.0000067393   0.0000213682
        0.0000296586  -0.0000395158  -0.0000111910  -0.0000458910   0.0000075006
        0.0000148537  -0.0000094304  -0.0000362201  -0.0000059439   0.0000550277
        0.0000388665   0.0000071543  -0.0000877704  -0.0000746341  -0.0000177138
        0.0000475645   0.0000982363   0.0000150202  -0.0000354582  -0.0000946157
       -0.0000189210   0.0000690866   0.0000318475   0.0000133989  -0.0000186589
        0.0000020406  -0.0000003334  -0.0000006508  -0.0000256211   0.0000078617
        0.0000007510  -0.0000060951   0.0000096929   0.0000000604  -0.0000014774
        0.0000026081   0.0000060096  -0.0000147408  -0.0000011852   0.0000235849
       -0.0000014997   0.0000017701  -0.0000317123   0.0000196325  -0.0000014085
       -0.0000108224  -0.0000150439  -0.0000096181   0.0000073018  -0.0000052041
        0.0000011640  -0.0000028523   0.0000051721  -0.0000005462   0.0000028122
        0.0000014377   0.0000027028   0.0000044082  -0.0000027963   0.0000012019
        0.0000006879  -0.0000017437  -0.0000021190  -0.0000025022  -0.0000009911
       -0.0000017258   0.0000175257   0.0000247099   0.0000100224  -0.0000082913
       -0.0000234822  -0.0000031171   0.0000006679   0.0000041588   0.0000060589
       -0.0000041767  -0.0000076135   0.0000023168  -0.0000011794   0.0000008476
       -0.0000023553  -0.0000046809  -0.0000048261   0.0000024956  -0.0000022493
        0.0000028133  -0.0000017511  -0.0000006869   0.0000044195  -0.0000035422
        0.0000097495   0.0000224835  -0.0000057551  -0.0000286901   0.0000510304
       -0.0000070170   0.0000551037   0.0000464552   0.0000067661  -0.0000889429
       -0.0000430345  -0.0000059780   0.0000796859   0.0000347811   0.0000035990
       -0.0000210877  -0.0000831910  -0.0000102105   0.0000121307   0.0000592963
       -0.0000073142  -0.0000042131  -0.0000010757   0.0000047748  -0.0000081114
       -0.0000057198   0.0000038451   0.0000872119   0.0000153321  -0.0000124902
       -0.0000835115   0.0000502905   0.0000039021  -0.2162437723   0.1012531775
        0.0420574522  -0.0538654379   0.0298593531  -0.0350159042  -0.1778529741
       -0.1168893915   0.0154434251   0.0006803745   0.0010669183   0.0009763610
       -0.0043991272   0.0031301261   0.0024844825   0.0005557175  -0.0001101834
        0.0007906516   0.0002581299  -0.0005024575  -0.0006079456   0.0000674578
        0.0008506781  -0.0013415272   0.0001824647   0.0000221070   0.0006007370
       -0.0010860497  -0.0008074180  -0.0008526719   0.0000050402   0.0000005207
       -0.0000123758  -0.0001546899  -0.0000275307  -0.0002224471  -0.0000045147
        0.0000009501   0.0000072230   0.0000044839  -0.0000095082   0.0000010804
        0.0000015123   0.0000062881  -0.0000023955  -0.0000035707   0.0000016663
        0.0000009316   0.0000031196  -0.0000092789  -0.0000029776  -0.0000047529
        0.0000023812  -0.0000006321   0.0000029891   0.0000057562   0.0000024532
       -0.0000044649  -0.0000012194   0.0000061518  -0.0000075974   0.0000002610
       -0.0000053463   0.0000054999  -0.0000067820  -0.0000009182   0.0000017017
       -0.0000041771   0.0000005524  -0.0000060276  -0.0000094436  -0.0000015411
        0.0000046895   0.0000030757   0.0000002241  -0.0000044284   0.0000032659
        0.0000041798   0.0000070672   0.0000046628  -0.0000003515  -0.0000033474
        0.0000046781  -0.0000006450  -0.0000019347   0.0000084831   0.0000026590
       -0.0000053896   0.0000015719   0.0000008913   0.0000034964   0.0000028924
       -0.0000008884  -0.0000033911   0.0000038745  -0.0000031623   0.0000004941
       -0.0000006032   0.0000007671  -0.0000030743  -0.0000006147  -0.0000018407
       -0.0000031421   0.0000020567  -0.0000009012  -0.0000009322   0.0000031918
        0.0000008505   0.0000014168  -0.0000003112  -0.0000003517  -0.0000007254
       -0.0000010918  -0.0000011978  -0.0000002136   0.0000020770  -0.0000030533
        0.0000017897   0.0000029395  -0.0000005835   0.0000019342   0.0000002032
        0.0000009918   0.0000009537  -0.0000004082  -0.0000024140  -0.0000034823
       -0.0000011354   0.0000004150   0.0000014979  -0.0000047309   0.0000017707
       -0.0000027146  -0.0000066652  -0.0000008855   0.0000031546  -0.0000048954
        0.0000024187   0.0000012348   0.0000019228   0.0000008015  -0.0000020693
        0.0000014197  -0.0000013763  -0.0000114443  -0.0000038054   0.0000092430
        0.0000171046  -0.0000120969   0.0000030169
       -0.0082725617   0.5033178634  -0.0344815379  -0.0035475764  -0.0912046519
       -0.0549833224   0.0037959281  -0.0107236715  -0.0156495176   0.0019082779
        0.0063656106   0.0131580201  -0.0094354810  -0.0173468607  -0.0164720991
        0.0002945547  -0.0003623219  -0.0010043676   0.0002371633  -0.0003031495
        0.0004812181   0.0002220523  -0.0001785743   0.0000956743  -0.0002230388
       -0.0009359848   0.0010911014  -0.0020910939  -0.0003793225  -0.0001929622
       -0.0000267631  -0.0000174001   0.0001316753  -0.0000450919   0.0001374657
        0.0000359486  -0.0000128191  -0.0000664092  -0.0000141343  -0.0000140951
        0.0000050684  -0.0000013506   0.0000014474  -0.0000072334  -0.0000006015
        0.0000021299  -0.0000008906  -0.0000020674  -0.0000013880  -0.0000028042
       -0.0000067485  -0.0000421854  -0.0000249284   0.0000136187   0.0000025851
        0.0000443915  -0.0000088220  -0.0002531278   0.0001892584  -0.0000764829
       -0.0002399955  -0.0001904975  -0.0000584944   0.0004356310  -0.0000352008
       -0.0001148729  -0.0000166405  -0.0000311399   0.0000944575   0.0000965141
       -0.0000459864  -0.0000368771  -0.0000496991   0.0000071233   0.0000184890
       -0.0000038749  -0.0000438427  -0.0000073581   0.0000231681  -0.0000156083
        0.0000035713  -0.0000437414   0.0000222379   0.0000071575   0.0000959064
        0.0000128618   0.0000028871  -0.0001260120   0.0000079803   0.0000030253
       -0.0000038693   0.0001426692   0.0000206082  -0.0000163170  -0.0000802947
       -0.0000180763   0.0000845666   0.0000014323   0.0000234750  -0.0001121544
        0.0000152400  -0.0000057684  -0.0000004771   0.0000119517  -0.0000215088
       -0.0000522465  -0.0000195522   0.0000116856   0.0000332638  -0.0000090488
        0.0000073241  -0.0000193501  -0.0000052678   0.0000039138   0.0000063197
        0.0000167017  -0.0000053600   0.0000049996   0.0000063957  -0.0000004872
        0.0000093691  -0.0000030690   0.0000028724  -0.0000007920   0.0000005493
       -0.0000001940  -0.0000005024   0.0000024498   0.0000003920   0.0000011925
        0.0000078777   0.0000024941   0.0000074844  -0.0000064648   0.0000007744
       -0.0000024129   0.0000045297  -0.0000018331   0.0000034344  -0.0000005808
       -0.0000003716  -0.0000013871  -0.0000060879   0.0000017134  -0.0000015785
       -0.0000054829  -0.0000040120   0.0000006302   0.0000024446   0.0000052512
       -0.0000040774  -0.0000055571   0.0000003219  -0.0000012141   0.0000054265
       -0.0000056414  -0.0000003059   0.0000024598   0.0000041036  -0.0000058329
       -0.0000047518  -0.0000057685  -0.0000276610   0.0000247941  -0.0000243522
       -0.0000107820  -0.0000077609   0.0000193637  -0.0000194332  -0.0000238210
       -0.0000296354   0.0000790643  -0.0000315434   0.0000085767  -0.0000752551
       -0.0000445462  -0.0000056670   0.0001329120   0.0000663293   0.0000047109
       -0.0000052517  -0.0001244479  -0.0000100788   0.0000021027   0.0000864738
       -0.0000056479   0.0000103476   0.0000011413   0.0000008172   0.0000250670
        0.0000000657   0.0000135747   0.0001291571   0.0000287258  -0.0000173919
       -0.0000678733   0.0000226698  -0.0000660185   0.1011719165  -0.1024276426
       -0.0234863575   0.0300959347  -0.1393549010   0.1142551628  -0.1166464584
       -0.1456907842   0.0145856423  -0.0009155266   0.0005362875   0.0004629413
        0.0027697885  -0.0014859653  -0.0012917337  -0.0004305473   0.0002290046
       -0.0006817703  -0.0001442362   0.0006343654   0.0006083051   0.0008624284
       -0.0013500875   0.0036756119   0.0003714357   0.0007364132   0.0006136425
        0.0001850571  -0.0001481153  -0.0002675175   0.0000099333   0.0000154170
       -0.0000401352  -0.0000633528   0.0001223971  -0.0003641573   0.0000001470
        0.0000029623  -0.0000089639   0.0000025720  -0.0000087557   0.0000003241
       -0.0000007957  -0.0000017606  -0.0000011084  -0.0000001816  -0.0000026550
       -0.0000000098   0.0000023915  -0.0000077857  -0.0000021911   0.0000003436
       -0.0000027616   0.0000070987  -0.0000003758  -0.0000010700   0.0000011740
       -0.0000000659  -0.0000009137  -0.0000040965  -0.0000020421  -0.0000006692
        0.0000083464   0.0000028066  -0.0000119438  -0.0000016018  -0.0000007643
       -0.0000113934  -0.0000013452  -0.0000226740  -0.0000244643  -0.0000009857
       -0.0000021098   0.0000004299  -0.0000164012  -0.0000197537   0.0000109661
       -0.0000070001  -0.0000091070  -0.0000101940   0.0000006384   0.0000044527
       -0.0000192355  -0.0000090015   0.0000070900  -0.0000234990  -0.0000022267
        0.0000180944  -0.0000091568  -0.0000077116   0.0000000548  -0.0000067036
        0.0000129498   0.0000050834  -0.0000020868   0.0000030937   0.0000006305
       -0.0000001745   0.0000000508  -0.0000006755   0.0000003650  -0.0000001389
       -0.0000004135   0.0000014639   0.0000002071   0.0000008225   0.0000012798
        0.0000005559   0.0000020870   0.0000006199   0.0000011175   0.0000007142
        0.0000000407   0.0000009064   0.0000007491  -0.0000003138   0.0000006610
        0.0000009871  -0.0000011675   0.0000007019   0.0000025254  -0.0000014882
       -0.0000000586   0.0000031914  -0.0000009290   0.0000005347   0.0000053235
       -0.0000008385  -0.0000004418   0.0000045215   0.0000076589  -0.0000077905
        0.0000087713   0.0000187060   0.0000039263  -0.0000114701   0.0000205751
        0.0000098847  -0.0000088261   0.0000087305  -0.0000041065  -0.0000216690
        0.0000036934   0.0000009152  -0.0000157211  -0.0000126596   0.0000127647
        0.0000056031   0.0000033060   0.0000103071
       -0.0113514812  -0.0344815379   0.4640006080  -0.0063055484  -0.0497175245
       -0.1469696595   0.0039341795  -0.0086164045  -0.0110322996  -0.0039008460
       -0.0081954283  -0.0290697733  -0.0050906819  -0.0056362925  -0.0002970719
        0.0009023610   0.0002345908  -0.0000550644  -0.0000623360  -0.0003235223
        0.0000791374  -0.0001120042  -0.0000629713   0.0000388770  -0.0001912657
       -0.0001976939  -0.0000071158   0.0002093986   0.0011198165  -0.0004801552
       -0.0000092378   0.0000951147   0.0000348653   0.0000540527  -0.0000574734
       -0.0000234622   0.0000276655   0.0000293012  -0.0000070063   0.0000205722
       -0.0000170308  -0.0000035386  -0.0000045827  -0.0000007707   0.0000042540
       -0.0000079576  -0.0000010117  -0.0000052806  -0.0000022964   0.0000121075
       -0.0000001929  -0.0000255911   0.0000003936   0.0000042651  -0.0000163351
       -0.0000178089   0.0000014344   0.0000537570  -0.0000355601   0.0000088662
        0.0001752667   0.0001308128  -0.0000233838  -0.0001491256   0.0000132387
        0.0000229479   0.0000555289   0.0000289583  -0.0000138772  -0.0000545584
        0.0000163912   0.0000207452   0.0000634153  -0.0000090196  -0.0000165076
       -0.0000142703   0.0000332483   0.0000058916   0.0000137682   0.0000036571
       -0.0000069521   0.0000141725   0.0000258398   0.0000052561  -0.0000495604
       -0.0000213439  -0.0000051050   0.0000720999   0.0000492834   0.0000101493
       -0.0000344310  -0.0000818865  -0.0000134660   0.0000232154   0.0000735155
        0.0000135920  -0.0000595203  -0.0000233058  -0.0000116857   0.0000285626
       -0.0000022511   0.0000013731   0.0000009640   0.0000144894  -0.0000014701
        0.0000057747   0.0000132066  -0.0000120564  -0.0000082253   0.0000029487
       -0.0000006313  -0.0000094082   0.0000122827   0.0000017097  -0.0000138595
       -0.0000010476   0.0000003171   0.0000200092  -0.0000135133   0.0000012555
        0.0000081624   0.0000121060   0.0000083905  -0.0000087770   0.0000052462
       -0.0000006919   0.0000006020  -0.0000044916   0.0000010138  -0.0000025129
        0.0000008942  -0.0000004972  -0.0000010555  -0.0000010357  -0.0000001378
       -0.0000003352   0.0000025744   0.0000011326   0.0000020911   0.0000009180
        0.0000011087  -0.0000110258  -0.0000202531  -0.0000065221   0.0000059440
        0.0000179448   0.0000003676  -0.0000019733  -0.0000051429  -0.0000013552
        0.0000004939   0.0000023785  -0.0000028468  -0.0000001352  -0.0000004092
        0.0000001785   0.0000006654   0.0000029169  -0.0000020556  -0.0000010423
       -0.0000028582  -0.0000024266   0.0000021139  -0.0000137465   0.0000143017
       -0.0000019736  -0.0000174587   0.0000040632   0.0000114976  -0.0000266369
        0.0000071834  -0.0000466312  -0.0000377556  -0.0000052641   0.0000669724
        0.0000332453   0.0000048351  -0.0000719247  -0.0000453362  -0.0000045690
        0.0000289051   0.0000708671   0.0000075646  -0.0000137584  -0.0000542829
        0.0000057961   0.0000007517  -0.0000000851  -0.0000031197  -0.0000020950
        0.0000049070  -0.0000041326  -0.0000558095  -0.0000115623   0.0000041860
        0.0000424381  -0.0000373187  -0.0000102300   0.0415409720  -0.0231672209
       -0.0525484778  -0.0348453495   0.1136274118  -0.1765197771   0.0159169286
        0.0152177244  -0.0445206055  -0.0007584162   0.0000594996   0.0001310742
        0.0015390106  -0.0010492317  -0.0003070999  -0.0007697517   0.0005668318
        0.0007164953   0.0005558275  -0.0009515685   0.0008950483  -0.0011776345
        0.0026299336  -0.0046366345  -0.0001291028  -0.0009737438   0.0006122775
        0.0001102196  -0.0001246042  -0.0000531090  -0.0000023470  -0.0000068446
       -0.0000314558  -0.0000638969  -0.0000370363   0.0000379677  -0.0000213827
       -0.0000141699   0.0000047843  -0.0000056778   0.0000041543   0.0000009537
       -0.0000004128  -0.0000062699   0.0000026664  -0.0000015450  -0.0000051899
       -0.0000062093  -0.0000054978   0.0000035402   0.0000041510   0.0000007257
       -0.0000047400   0.0000030594  -0.0000013291  -0.0000066450  -0.0000014251
       -0.0000037489  -0.0000064671  -0.0000066021  -0.0000009628  -0.0000049056
        0.0000022719  -0.0000068053  -0.0000004062   0.0000031036   0.0000014464
        0.0000052940   0.0000021827   0.0000052301  -0.0000031861  -0.0000021481
       -0.0000019604   0.0000010104   0.0000092717  -0.0000003683  -0.0000024727
        0.0000000584  -0.0000058820  -0.0000095110  -0.0000025823   0.0000017417
       -0.0000053890  -0.0000011291   0.0000015130  -0.0000069315  -0.0000039299
        0.0000032525  -0.0000015044  -0.0000007367  -0.0000033873  -0.0000015600
       -0.0000013416   0.0000014893  -0.0000055652   0.0000045523  -0.0000015489
       -0.0000002173   0.0000002502   0.0000009388   0.0000000809   0.0000021071
        0.0000012985  -0.0000011425   0.0000009887   0.0000000728  -0.0000016053
       -0.0000004546  -0.0000011256   0.0000005620   0.0000010664  -0.0000003890
       -0.0000000054   0.0000010302  -0.0000006682  -0.0000021648   0.0000014209
       -0.0000015447  -0.0000017577  -0.0000007139  -0.0000014631  -0.0000000796
       -0.0000001687  -0.0000015619  -0.0000002111   0.0000023757   0.0000022141
        0.0000031039  -0.0000008812  -0.0000037162   0.0000030372  -0.0000001689
        0.0000024512   0.0000040406   0.0000027282  -0.0000037488   0.0000048957
       -0.0000003713  -0.0000038508   0.0000061298   0.0000008155  -0.0000054562
        0.0000007907  -0.0000007222  -0.0000019609  -0.0000007145  -0.0000036625
       -0.0000060678  -0.0000064018  -0.0000083568
       -0.0634678216  -0.0035475764  -0.0063055484   0.4943679508  -0.0029086206
       -0.0071307389  -0.1578228340   0.0453009158   0.0211291061  -0.0678876495
        0.0192850347  -0.0212144194  -0.1285508845  -0.0591749494   0.0102190740
       -0.0284734844  -0.0152724271   0.0043580625  -0.0030319146   0.0022908740
        0.0017151917  -0.0010570767  -0.0005344824   0.0002007784   0.0011322737
        0.0017317935   0.0013518167   0.0029227559  -0.0052680506  -0.0008453987
        0.0001569588   0.0001704754   0.0000707914   0.0001771850   0.0000826024
       -0.0000387787   0.0000632956  -0.0000229555  -0.0000229238   0.0000653115
       -0.0000246332  -0.0000106685  -0.0000182097   0.0000141531   0.0000239912
       -0.0000292010   0.0000154126  -0.0000106547  -0.0000113603   0.0000384148
        0.0000091797  -0.0001205582   0.0000185378   0.0000266871  -0.0000204741
        0.0000066920  -0.0000074725   0.0000293472   0.0003025572  -0.0000276508
        0.0004660012   0.0006580043  -0.0002049301  -0.0001058762   0.0000328071
        0.0000085037   0.0001480448   0.0000594394   0.0000679254  -0.0000154999
       -0.0000089857  -0.0000089162   0.0000499280   0.0000025517  -0.0000111334
       -0.0000399984   0.0000144556   0.0000031651   0.0000397239   0.0000038856
       -0.0000017614  -0.0000178072   0.0000559906   0.0000089388  -0.0000010970
       -0.0000265364  -0.0000014683  -0.0000025498   0.0000714236   0.0000121187
       -0.0000509784   0.0000063695  -0.0000019640   0.0000208497   0.0000453985
        0.0000009641  -0.0000004081  -0.0000338704   0.0000009962  -0.0000567670
        0.0000122413  -0.0000004270   0.0000099907   0.0000341151  -0.0000211884
       -0.0000509924   0.0000019031  -0.0000077497   0.0000348490  -0.0000108215
        0.0000089315  -0.0000505676   0.0000155877   0.0000106626  -0.0000097686
        0.0000229290  -0.0000109257   0.0000562257  -0.0000195316  -0.0000032148
        0.0000301016   0.0000226250   0.0000158567  -0.0000179921   0.0000136122
       -0.0000033785   0.0000083860  -0.0000106814   0.0000002533  -0.0000075258
        0.0000125709  -0.0000067739   0.0000091512  -0.0000110906  -0.0000020125
        0.0000006768   0.0000214400   0.0000043473   0.0000213333  -0.0000032841
        0.0000010233  -0.0000211610  -0.0000495735  -0.0000104762   0.0000112070
        0.0000330628  -0.0000089824  -0.0000030944  -0.0000124351   0.0000117792
       -0.0000090879  -0.0000052600  -0.0000087631   0.0000046457   0.0000174992
       -0.0000083414   0.0000030335   0.0000041348   0.0000139188  -0.0000132790
       -0.0000205281  -0.0000204681  -0.0000278369   0.0000022255  -0.0000008901
       -0.0000034833  -0.0000368004   0.0000257549  -0.0000085453  -0.0000547511
       -0.0000150526   0.0000083343  -0.0000831303  -0.0000007206   0.0000352406
        0.0000126896  -0.0000012003   0.0000159133  -0.0000120813  -0.0000018798
        0.0000268047  -0.0000013247  -0.0000040903  -0.0000117156  -0.0000101863
        0.0000066465   0.0000104617   0.0000050335  -0.0000007046   0.0000209653
        0.0000083044   0.0000055424   0.0000217559   0.0000047759   0.0000103005
        0.0000750139  -0.0000823789  -0.0000731551   0.0000222828   0.0136268892
        0.0211669574  -0.0010117118  -0.0024755859  -0.0063077811  -0.0045914000
       -0.0135361068  -0.0188408214  -0.0257448226   0.0060562566   0.0052629730
       -0.0005508631   0.0019153508   0.0025383539  -0.0094702858   0.0064932434
       -0.0009604178  -0.0084300967   0.0171559407  -0.0181891277  -0.0008443630
        0.0019863127  -0.0033793878   0.0027111806  -0.0142029941   0.0161030350
        0.0004830525  -0.0007466289  -0.0005651836  -0.0009690928  -0.0006161509
        0.0001794188  -0.0005396289   0.0012106556  -0.0002841353  -0.0000650402
       -0.0000161057   0.0000147822  -0.0000132968   0.0000242387  -0.0000017308
       -0.0000031938  -0.0000197095   0.0000075657   0.0000055943  -0.0000120250
       -0.0000149552  -0.0000111070   0.0000235420   0.0000119019   0.0000107495
       -0.0000121290   0.0000047206  -0.0000064318  -0.0000192799  -0.0000072134
       -0.0000017896  -0.0000104988  -0.0000242489   0.0000120549  -0.0000120973
        0.0000171373  -0.0000162574   0.0000152579   0.0000061620   0.0000140041
        0.0000185926   0.0000018830   0.0000102324   0.0000016168  -0.0000059855
       -0.0000172527  -0.0000039194  -0.0000062933  -0.0000061539   0.0000052564
        0.0000025021  -0.0000132297  -0.0000191608   0.0000011169   0.0000092622
       -0.0000210908  -0.0000055543   0.0000107625  -0.0000263995  -0.0000059452
        0.0000186309  -0.0000099736  -0.0000069925  -0.0000050962  -0.0000072688
        0.0000089799   0.0000098569  -0.0000107041   0.0000114930  -0.0000005388
        0.0000005389  -0.0000020948   0.0000066159   0.0000016343   0.0000038221
        0.0000067383  -0.0000035144   0.0000018996   0.0000021947  -0.0000058116
       -0.0000015640  -0.0000000966   0.0000011130   0.0000026508   0.0000022533
        0.0000023878   0.0000025503   0.0000009812  -0.0000042360   0.0000065000
       -0.0000024478  -0.0000056450   0.0000018162  -0.0000005152  -0.0000018407
       -0.0000001865   0.0000010649  -0.0000008910   0.0000051519   0.0000125660
        0.0000049542  -0.0000060893  -0.0000010356   0.0000127417  -0.0000108227
        0.0000158150   0.0000213260   0.0000053777  -0.0000145478   0.0000234328
        0.0000065549  -0.0000132027   0.0000196875  -0.0000010592  -0.0000224220
        0.0000037892   0.0000021037  -0.0000034148  -0.0000171713  -0.0000078322
       -0.0000227739  -0.0000134130  -0.0000094719
       -0.0057899716  -0.0912046519  -0.0497175245  -0.0029086206   0.4670391665
        0.0015323424   0.0474146203  -0.0869224406  -0.0106780377   0.0145462558
       -0.1057450512   0.0535537257  -0.0541197559  -0.1142643037   0.0063267562
       -0.0027074379   0.0066460228   0.0009869436   0.0032049319   0.0007703872
       -0.0009670491  -0.0004453603  -0.0015495207  -0.0000235978   0.0015712072
       -0.0040139444  -0.0012840694  -0.0192152523  -0.0246818446   0.0019321926
       -0.0008412665  -0.0003327384   0.0001294939  -0.0000587264   0.0000981178
        0.0000156125   0.0000649079  -0.0000367722  -0.0000190253   0.0000030254
       -0.0000407562  -0.0000061917  -0.0000003064   0.0000008188   0.0000125346
       -0.0000056647   0.0000038900  -0.0000126299   0.0000128545   0.0000066592
       -0.0000026111  -0.0000772626  -0.0000025905   0.0000102234  -0.0000980224
        0.0000742130   0.0000403042  -0.0001419945  -0.0001431171   0.0000317641
        0.0004547775   0.0003838231  -0.0000268151   0.0001130380  -0.0000163206
       -0.0000074624   0.0000173026  -0.0000234956   0.0000464886   0.0000745784
       -0.0000333485  -0.0000460248  -0.0000965288   0.0000143069   0.0000302595
       -0.0000122611  -0.0000534238  -0.0000136000   0.0000095174  -0.0000030703
        0.0000177805  -0.0000405911  -0.0000169026  -0.0000050127   0.0001015011
        0.0000300833   0.0000085349  -0.0001221658  -0.0000167422  -0.0000065666
        0.0000108739   0.0001492217   0.0000195796  -0.0000290587  -0.0000918948
       -0.0000257689   0.0000910073   0.0000139627   0.0000183474  -0.0000705650
        0.0000140742   0.0000019243   0.0000071147   0.0000073135  -0.0000176934
       -0.0000386606   0.0000019811   0.0000022511   0.0000229557  -0.0000113085
        0.0000138282  -0.0000250330   0.0000000745   0.0000054091   0.0000178404
        0.0000054326  -0.0000058856  -0.0000028035   0.0000050251  -0.0000054866
        0.0000139345   0.0000012747  -0.0000009032  -0.0000055526   0.0000044946
       -0.0000028775   0.0000009665  -0.0000002138  -0.0000023516   0.0000003346
        0.0000169682   0.0000001847   0.0000184037  -0.0000154465   0.0000005194
        0.0000002151   0.0000182481  -0.0000001427   0.0000178487  -0.0000001904
        0.0000013102   0.0000015697  -0.0000149566   0.0000049210   0.0000041643
        0.0000032468  -0.0000108220  -0.0000021552  -0.0000019337   0.0000142717
       -0.0000100120  -0.0000095774  -0.0000012159   0.0000017668   0.0000162741
       -0.0000111660  -0.0000022794  -0.0000001686   0.0000159503  -0.0000117337
       -0.0000108897  -0.0000186582  -0.0000169065   0.0000016094  -0.0000048874
       -0.0000023502  -0.0000074026   0.0000200389  -0.0000249410  -0.0000001094
       -0.0000230840   0.0000872738   0.0000089255   0.0000108629  -0.0000890218
       -0.0000578140  -0.0000122594   0.0001396091   0.0000819628   0.0000092378
       -0.0000455895  -0.0001254508  -0.0000182273   0.0000226353   0.0000839523
       -0.0000065551   0.0000149162   0.0000066340   0.0000055359   0.0000221424
       -0.0000054958   0.0000122722   0.0000901638   0.0000309052   0.0000213876
       -0.0000126839   0.0000180919  -0.0000731794   0.0013984841  -0.0096743145
       -0.0135565116   0.0016984187   0.0083359951   0.0141288718  -0.0051327635
       -0.0137934445  -0.0179710454  -0.0180454023   0.0071726147   0.0038949240
        0.0141088307  -0.0083578600  -0.0056617130   0.0182336486  -0.0104101022
       -0.0014614506   0.0064215280  -0.0116843130   0.0109525855  -0.0026627083
        0.0082767702  -0.0093513285   0.0013627409  -0.0167333541   0.0170646789
        0.0009768433  -0.0003411218  -0.0000687563   0.0007275902   0.0002673114
       -0.0001229588  -0.0001909502   0.0009455692   0.0003193992  -0.0000207941
       -0.0000309286   0.0000056886  -0.0000061666   0.0000065582  -0.0000016211
        0.0000089372  -0.0000008758  -0.0000023045  -0.0000019235  -0.0000084354
       -0.0000053807  -0.0000045684   0.0000065697   0.0000053125   0.0000000237
       -0.0000082555   0.0000064148   0.0000094284  -0.0000001555  -0.0000015377
        0.0000006537  -0.0000088777   0.0000043907  -0.0000022034  -0.0000085798
       -0.0000021512  -0.0000084401   0.0000025630   0.0000026677   0.0000156163
        0.0000138614  -0.0000039096  -0.0000010168  -0.0000350631   0.0000006029
       -0.0000049000   0.0000030026  -0.0000052678  -0.0000019843   0.0000080562
        0.0000057491  -0.0000117661  -0.0000072588   0.0000020938   0.0000067188
       -0.0000120579  -0.0000065385   0.0000074290  -0.0000175313  -0.0000014914
        0.0000110778  -0.0000082566  -0.0000067549  -0.0000027396  -0.0000050945
        0.0000109462   0.0000056010  -0.0000053449   0.0000073122   0.0000018416
        0.0000001511  -0.0000013243   0.0000014871   0.0000010032  -0.0000003884
        0.0000018182   0.0000007735   0.0000003012   0.0000019105  -0.0000005667
        0.0000001613   0.0000020499   0.0000003703   0.0000011278   0.0000020985
        0.0000006527   0.0000016193   0.0000015572  -0.0000011145   0.0000025253
        0.0000008844  -0.0000021665   0.0000017392   0.0000022535  -0.0000022626
        0.0000005558   0.0000031985  -0.0000025837   0.0000011527   0.0000065742
        0.0000031013  -0.0000056357   0.0000020519   0.0000061781  -0.0000095786
        0.0000087672   0.0000118855   0.0000019692  -0.0000084220   0.0000083586
        0.0000084405  -0.0000074570   0.0000070304  -0.0000015898  -0.0000101455
       -0.0000019003   0.0000012318  -0.0000037404  -0.0000132850  -0.0000064946
       -0.0000056900  -0.0000065452   0.0000278640
       -0.0113160773  -0.0549833224  -0.1469696595  -0.0071307389   0.0015323424
        0.4599421376   0.0212673699  -0.0103136244  -0.0677275370  -0.0164887843
        0.0575681626  -0.1277028191   0.0103611488   0.0071297064  -0.0567037229
        0.0053286119   0.0036406848  -0.0018845995   0.0018182271  -0.0008106273
        0.0048214971   0.0002585545  -0.0000023084   0.0002548411   0.0014502194
       -0.0013099398   0.0068577109  -0.0019295484  -0.0009549747   0.0015389583
       -0.0000290234  -0.0000940074   0.0004141340  -0.0000330472  -0.0000036294
       -0.0000277499  -0.0000029261   0.0000042126  -0.0000177996  -0.0000060545
       -0.0000002196   0.0000275269   0.0000080050  -0.0000012122  -0.0000016972
        0.0000025136  -0.0000071745   0.0000041715   0.0000052803  -0.0000088538
        0.0000082171   0.0000075032  -0.0000028169   0.0000149288  -0.0000122525
       -0.0000012442  -0.0000663252  -0.0000793696   0.0000119638  -0.0003762668
       -0.0001070008  -0.0000707470  -0.0008825668  -0.0001239296   0.0000793310
       -0.0000668748   0.0000070441   0.0000052893   0.0000240659  -0.0000407199
        0.0000060322   0.0000231565  -0.0000129657  -0.0000172369  -0.0000307971
       -0.0000055831  -0.0000089268  -0.0000062775  -0.0000025418   0.0000024627
       -0.0000052330  -0.0000061124  -0.0000126051  -0.0000064679   0.0000145817
        0.0000099185   0.0000001369  -0.0000125646  -0.0000131721  -0.0000038391
        0.0000093175   0.0000159808   0.0000024454  -0.0000054906  -0.0000181307
       -0.0000028849   0.0000067218   0.0000075671   0.0000011432   0.0000031169
       -0.0000001714   0.0000010661  -0.0000012199  -0.0000080249   0.0000039383