 Entering Gaussian System
 *********************************************
 Gaussian 98:
 frequency output generated by the xtb code
 *********************************************
                         Standard orientation:
 --------------------------------------------------------------------
  Center     Atomic     Atomic              Coordinates (Angstroms)
  Number     Number      Type              X           Y           Z
 --------------------------------------------------------------------
    1          6             0        8.223768    3.052875    2.625313
    2          8             0        6.892659    3.465380    2.402461
    3          6             0        6.021858    2.585067    1.830148
    4          6             0        4.720727    3.056404    1.627998
    5          6             0        3.763684    2.253813    1.054829
    6          6             0        4.073280    0.946500    0.659106
    7          7             0        3.086515    0.140403    0.095819
    8          6             0        3.406209   -0.820216   -0.861705
    9          6             0        4.421074   -0.599305   -1.799850
   10          6             0        4.710432   -1.547528   -2.752588
   11          6             0        3.992052   -2.745641   -2.811394
   12          8             0        4.359602   -3.611942   -3.799955
   13          6             0        3.658111   -4.829630   -3.926877
   14          6             0        2.978008   -2.968777   -1.884739
   15          6             0        2.693317   -2.018152   -0.923934
   16          6             0        1.781849    0.237386    0.589740
   17          6             0        1.600035    0.268900    1.996384
   18          6             0        0.344540    0.296873    2.527295
   19          6             0       -0.785844    0.283806    1.686642
   20          6             0       -0.652858    0.260073    0.297080
   21          6             0       -1.777259    0.277074   -0.579356
   22          7             0       -3.080700    0.111197   -0.099841
   23          6             0       -3.390003   -0.954633    0.742454
   24          6             0       -2.658716   -2.146116    0.670483
   25          6             0       -2.944350   -3.193287    1.513669
   26          6             0       -3.970509   -3.093049    2.457509
   27          8             0       -4.171516   -4.193734    3.239190
   28          6             0       -5.199621   -4.158801    4.204995
   29          6             0       -4.700008   -1.910035    2.536047
   30          6             0       -4.407707   -0.856087    1.691577
   31          6             0       -4.075895    0.962577   -0.574756
   32          6             0       -5.370305    0.501864   -0.845067
   33          6             0       -6.326710    1.357549   -1.337988
   34          6             0       -6.027403    2.701002   -1.586563
   35          8             0       -7.050974    3.457744   -2.077194
   36          6             0       -6.808468    4.817177   -2.367863
   37          6             0       -4.740265    3.163800   -1.326246
   38          6             0       -3.781578    2.303814   -0.827857
   39          6             0       -1.597228    0.465276   -1.973894
   40          6             0       -0.342600    0.569661   -2.497597
   41          6             0        0.788589    0.481327   -1.662574
   42          6             0        0.657084    0.301762   -0.284228
   43          6             0        5.370428    0.477030    0.872515
   44          6             0        6.334269    1.283576    1.446049
   45          1             0        8.269053    2.205184    3.315821
   46          1             0        8.722952    3.910750    3.072977
   47          1             0        8.722696    2.790048    1.687591
   48          1             0        4.489661    4.066926    1.927105
   49          1             0        2.764033    2.628682    0.894516
   50          1             0        4.967829    0.331732   -1.784397
   51          1             0        5.488904   -1.380521   -3.480753
   52          1             0        2.595605   -4.659410   -4.125428
   53          1             0        4.109081   -5.337682   -4.777825
   54          1             0        3.769576   -5.449911   -3.032264
   55          1             0        2.405877   -3.882669   -1.895607
   56          1             0        1.912259   -2.203991   -0.202007
   57          1             0        2.474533    0.231100    2.629763
   58          1             0        0.201816    0.302602    3.598051
   59          1             0       -1.765934    0.309271    2.135917
   60          1             0       -1.871198   -2.237619   -0.062018
   61          1             0       -2.387879   -4.115962    1.458607
   62          1             0       -5.022791   -3.375973    4.948869
   63          1             0       -5.174454   -5.132391    4.691919
   64          1             0       -6.179106   -4.009617    3.740357
   65          1             0       -5.492487   -1.792135    3.257753
   66          1             0       -4.966551    0.064123    1.778651
   67          1             0       -5.611261   -0.537525   -0.680369
   68          1             0       -7.323900    1.006993   -1.554382
   69          1             0       -6.029700    4.930153   -3.128150
   70          1             0       -6.527315    5.373773   -1.468642
   71          1             0       -7.750091    5.204677   -2.753493
   72          1             0       -4.473274    4.193608   -1.501892
   73          1             0       -2.787322    2.670821   -0.620636
   74          1             0       -2.471871    0.483252   -2.608077
   75          1             0       -0.200507    0.695219   -3.561153
   76          1             0        1.767748    0.571327   -2.105619
   77          1             0        5.621399   -0.536587    0.597416
   78          1             0        7.323282    0.881750    1.598291
 --------------------------------------------------------------------
     1 basis functions        1 primitive gaussians
     1 alpha electrons        1 beta electrons
 
 Harmonic frequencies (cm**-1), IR intensities (km*mol⁻¹),
 Raman scattering activities (A**4/amu), Raman depolarization ratios,
 reduced masses (AMU), force constants (mDyne/A) and normal coordinates:
                      1                      2                      3
                        a                      a                      a 
 Frequencies --    10.6819                12.6145                20.9956
 Red. masses --    11.9197                11.8316                11.6523
 Frc consts  --     0.0000                 0.0000                 0.0000
 IR Inten    --     3.6459                 6.3220                 7.8979
 Raman Activ --     0.0000                 0.0000                 0.0000
 Depolar     --     0.0000                 0.0000                 0.0000
 Atom AN      X      Y      Z        X      Y      Z        X      Y      Z
   1   6     0.10  -0.25   0.13    -0.08   0.02   0.07     0.14   0.07  -0.22
   2   8     0.13  -0.22   0.15    -0.10  -0.00   0.08     0.14   0.07  -0.15
   3   6     0.08  -0.14   0.10    -0.06  -0.01   0.04     0.10   0.05  -0.07
   4   6     0.10  -0.07   0.10    -0.07  -0.03   0.04     0.08   0.03   0.02
   5   6     0.08  -0.02   0.07    -0.05  -0.04   0.01     0.05   0.02   0.07
   6   6     0.02  -0.02   0.04    -0.02  -0.03  -0.00     0.04   0.02   0.04
   7   7    -0.00   0.03   0.02     0.00  -0.04  -0.03     0.03   0.02   0.09
   8   6    -0.03   0.04  -0.00     0.04   0.00  -0.06    -0.00   0.03   0.06
   9   6    -0.02   0.04   0.00     0.03   0.08  -0.05    -0.05   0.04   0.01
  10   6    -0.05   0.05  -0.02     0.06   0.13  -0.09    -0.11   0.06  -0.03
  11   6    -0.08   0.08  -0.05     0.10   0.11  -0.14    -0.12   0.07  -0.02
  12   8    -0.13   0.11  -0.09     0.15   0.19  -0.21    -0.22   0.11  -0.08
  13   6    -0.15   0.12  -0.11     0.16   0.15  -0.24    -0.22   0.11  -0.07
  14   6    -0.08   0.08  -0.05     0.11   0.03  -0.16    -0.06   0.05   0.04
  15   6    -0.06   0.06  -0.03     0.07  -0.02  -0.11    -0.01   0.03   0.07
  16   6    -0.00   0.06   0.01     0.00  -0.09  -0.02     0.03   0.02   0.09
  17   6    -0.01   0.07   0.01     0.02  -0.11  -0.02     0.04  -0.00   0.09
  18   6    -0.02   0.09  -0.00     0.02  -0.12  -0.00     0.04  -0.03   0.10
  19   6    -0.01   0.09  -0.01     0.01  -0.11   0.01     0.03  -0.04   0.10
  20   6    -0.00   0.07  -0.01    -0.00  -0.10   0.01     0.03  -0.01   0.10
  21   6     0.00   0.05  -0.01    -0.01  -0.09   0.02     0.03  -0.02   0.10
  22   7     0.00   0.03  -0.02    -0.01  -0.05   0.03     0.03  -0.02   0.09
  23   6     0.03   0.03   0.00    -0.04  -0.01   0.07     0.00  -0.02   0.06
  24   6     0.06   0.05   0.03    -0.08  -0.03   0.11     0.01  -0.02   0.09
  25   6     0.10   0.07   0.06    -0.11   0.01   0.15    -0.05  -0.04   0.06
  26   6     0.10   0.07   0.07    -0.10   0.08   0.15    -0.12  -0.05  -0.01
  27   8     0.16   0.10   0.12    -0.16   0.13   0.23    -0.21  -0.09  -0.07
  28   6     0.16   0.09   0.12    -0.13   0.19   0.21    -0.27  -0.10  -0.15
  29   6     0.07   0.05   0.03    -0.07   0.10   0.10    -0.11  -0.05  -0.03
  30   6     0.03   0.03   0.00    -0.04   0.06   0.06    -0.05  -0.03   0.01
  31   6    -0.03  -0.02  -0.05     0.01  -0.03   0.01     0.04  -0.03   0.04
  32   6    -0.00  -0.08  -0.05     0.00  -0.00   0.02     0.06  -0.05  -0.03
  33   6    -0.04  -0.13  -0.07     0.03   0.01  -0.01     0.08  -0.06  -0.09
  34   6    -0.09  -0.12  -0.10     0.06  -0.00  -0.04     0.08  -0.06  -0.09
  35   8    -0.13  -0.20  -0.15     0.10   0.01  -0.08     0.11  -0.09  -0.19
  36   6    -0.17  -0.17  -0.15     0.12  -0.00  -0.10     0.10  -0.08  -0.17
  37   6    -0.11  -0.07  -0.10     0.07  -0.03  -0.05     0.05  -0.04  -0.01
  38   6    -0.08  -0.02  -0.08     0.05  -0.05  -0.02     0.04  -0.03   0.05
  39   6     0.01   0.05  -0.01    -0.02  -0.11   0.01     0.04   0.00   0.10
  40   6     0.01   0.07  -0.00    -0.03  -0.11   0.00     0.03   0.04   0.10
  41   6     0.01   0.08   0.00    -0.02  -0.10  -0.01     0.03   0.05   0.10
  42   6     0.00   0.07   0.00    -0.01  -0.09  -0.01     0.03   0.02   0.10
  43   6     0.00  -0.08   0.04    -0.01  -0.00  -0.00     0.06   0.04  -0.03
  44   6     0.03  -0.14   0.07    -0.03   0.00   0.02     0.09   0.05  -0.09
  45   1     0.02  -0.08   0.03    -0.02   0.00   0.02     0.06   0.02  -0.06
  46   1     0.04  -0.08   0.04    -0.03   0.01   0.03     0.05   0.02  -0.07
  47   1     0.03  -0.07   0.04    -0.02   0.01   0.02     0.02   0.02  -0.07
  48   1     0.04  -0.02   0.04    -0.03  -0.01   0.02     0.02   0.01   0.01
  49   1     0.03   0.01   0.02    -0.02  -0.02   0.00     0.01   0.00   0.04
  50   1    -0.00   0.01   0.01     0.00   0.03  -0.00    -0.01   0.01  -0.00
  51   1    -0.01   0.02  -0.01     0.02   0.05  -0.02    -0.04   0.02  -0.02
  52   1    -0.04   0.05  -0.03     0.05   0.04  -0.07    -0.07   0.04   0.00
  53   1    -0.05   0.04  -0.04     0.05   0.06  -0.08    -0.08   0.04  -0.04
  54   1    -0.05   0.02  -0.04     0.05   0.03  -0.08    -0.05   0.02  -0.03
  55   1    -0.03   0.03  -0.02     0.04   0.01  -0.06    -0.02   0.01   0.01
  56   1    -0.02   0.02  -0.01     0.02  -0.02  -0.04     0.01   0.00   0.03
  57   1    -0.01   0.02   0.00     0.01  -0.03  -0.01     0.01   0.00   0.03
  58   1    -0.01   0.03  -0.00     0.01  -0.04  -0.00     0.01  -0.01   0.03
  59   1    -0.00   0.03  -0.00     0.01  -0.03   0.01     0.01  -0.02   0.03
  60   1     0.02   0.02   0.01    -0.02  -0.02   0.03     0.01  -0.00   0.04
  61   1     0.04   0.02   0.02    -0.04  -0.00   0.06    -0.02  -0.01   0.02
  62   1     0.04   0.04   0.03    -0.03   0.06   0.05    -0.10  -0.04  -0.03
  63   1     0.06   0.03   0.04    -0.04   0.06   0.07    -0.09  -0.04  -0.05
  64   1     0.04   0.01   0.04    -0.04   0.06   0.06    -0.07  -0.02  -0.07
  65   1     0.02   0.01   0.01    -0.02   0.04   0.03    -0.04  -0.02  -0.02
  66   1     0.00   0.00  -0.01    -0.00   0.02   0.01    -0.01  -0.01  -0.00
  67   1     0.01  -0.02  -0.01    -0.01   0.00   0.01     0.02  -0.01  -0.01
  68   1    -0.01  -0.05  -0.02     0.01   0.01  -0.00     0.03  -0.02  -0.04
  69   1    -0.05  -0.05  -0.04     0.04  -0.01  -0.03     0.04  -0.03  -0.04
  70   1    -0.06  -0.04  -0.05     0.04   0.00  -0.03     0.01  -0.02  -0.05
  71   1    -0.05  -0.06  -0.05     0.04   0.00  -0.03     0.04  -0.03  -0.07
  72   1    -0.04  -0.02  -0.04     0.03  -0.01  -0.02     0.01  -0.01  -0.00
  73   1    -0.03   0.01  -0.02     0.02  -0.02  -0.01     0.01  -0.00   0.03
  74   1     0.00   0.01  -0.01    -0.01  -0.03   0.01     0.01  -0.00   0.03
  75   1     0.01   0.02  -0.00    -0.01  -0.03  -0.00     0.01   0.01   0.03
  76   1     0.00   0.03   0.00    -0.01  -0.03  -0.01     0.01   0.02   0.03
  77   1    -0.01  -0.03   0.01     0.00   0.00  -0.01     0.02   0.01  -0.01
  78   1     0.00  -0.05   0.02    -0.01   0.01   0.01     0.03   0.02  -0.04
                      4                      5                      6
                        a                      a                      a 
 Frequencies --    28.8404                33.6421                36.6757
 Red. masses --    11.4447                11.0968                10.4905
 Frc consts  --     0.0000                 0.0000                 0.0000
 IR Inten    --     0.6236                 0.2150                 0.9017
 Raman Activ --     0.0000                 0.0000                 0.0000
 Depolar     --     0.0000                 0.0000                 0.0000
 Atom AN      X      Y      Z        X      Y      Z        X      Y      Z
   1   6    -0.12   0.16   0.06    -0.06   0.19  -0.13     0.00   0.04   0.06
   2   8    -0.15   0.13   0.04    -0.12   0.11  -0.06     0.01   0.05   0.02
   3   6    -0.09   0.07   0.03    -0.07   0.03  -0.01     0.02   0.04   0.01
   4   6    -0.10   0.03   0.01    -0.11  -0.06   0.05     0.02   0.04  -0.02
   5   6    -0.07  -0.01   0.01    -0.07  -0.13   0.08     0.03   0.03  -0.03
   6   6    -0.03  -0.01   0.04     0.00  -0.10   0.05     0.03   0.02   0.01
   7   7    -0.01  -0.05   0.06     0.04  -0.16   0.06     0.04   0.01   0.01
   8   6    -0.01  -0.05   0.06     0.03  -0.11   0.03     0.04  -0.00   0.03
   9   6    -0.01  -0.07   0.06     0.04  -0.10   0.04     0.05  -0.04   0.03
  10   6    -0.08  -0.06   0.02     0.03  -0.08   0.01     0.02  -0.04   0.03
  11   6    -0.15  -0.01  -0.01     0.02  -0.07  -0.02    -0.03  -0.01   0.01
  12   8    -0.27   0.02  -0.08     0.01  -0.05  -0.05    -0.10  -0.01  -0.01
  13   6    -0.35   0.09  -0.15    -0.00  -0.03  -0.09    -0.17   0.05  -0.05
  14   6    -0.12  -0.01   0.01     0.01  -0.08  -0.03    -0.03   0.01   0.02
  15   6    -0.06  -0.02   0.05     0.02  -0.11  -0.01     0.01   0.01   0.03
  16   6    -0.01  -0.03   0.04     0.03  -0.16   0.06     0.03   0.03  -0.02
  17   6    -0.04  -0.02   0.03     0.03  -0.28   0.06     0.00   0.06  -0.02
  18   6    -0.05  -0.02   0.01     0.02  -0.27   0.06    -0.01   0.05  -0.05
  19   6    -0.03  -0.03  -0.01     0.03  -0.12   0.05     0.01  -0.00  -0.07
  20   6    -0.01  -0.04  -0.01     0.03  -0.00   0.04     0.04  -0.03  -0.07
  21   6     0.01  -0.06  -0.03     0.04   0.13   0.03     0.05  -0.07  -0.09
  22   7     0.01  -0.06  -0.05     0.04   0.11  -0.01     0.05  -0.11  -0.13
  23   6     0.01  -0.06  -0.05     0.03   0.09  -0.03     0.02  -0.05  -0.08
  24   6     0.03  -0.05  -0.07     0.02   0.08  -0.04     0.07  -0.03   0.08
  25   6     0.08  -0.04  -0.04     0.02   0.08  -0.04     0.04   0.02   0.14
  26   6     0.13  -0.04   0.01     0.03   0.09  -0.03    -0.05   0.06   0.04
  27   8     0.23  -0.02   0.06     0.04   0.11  -0.02    -0.10   0.13   0.13
  28   6     0.28   0.00   0.14     0.06   0.11   0.01    -0.18   0.16   0.01
  29   6     0.09  -0.06   0.00     0.03   0.09  -0.02    -0.11   0.03  -0.12
  30   6     0.04  -0.07  -0.03     0.03   0.09  -0.02    -0.07  -0.02  -0.17
  31   6     0.03  -0.02  -0.03     0.01   0.07  -0.02     0.05  -0.09  -0.13
  32   6     0.01   0.04  -0.01     0.05  -0.01  -0.08     0.08  -0.12  -0.24
  33   6     0.04   0.09  -0.01     0.01  -0.06  -0.08     0.06  -0.10  -0.16
  34   6     0.11   0.07  -0.03    -0.07  -0.03  -0.03     0.00  -0.05   0.04
  35   8     0.17   0.13  -0.05    -0.13  -0.10  -0.04    -0.03  -0.02   0.19
  36   6     0.21   0.09  -0.07    -0.19  -0.06   0.02    -0.11   0.06   0.45
  37   6     0.13   0.01  -0.05    -0.11   0.04   0.02    -0.02  -0.03   0.11
  38   6     0.09  -0.03  -0.04    -0.07   0.09   0.03     0.01  -0.06   0.02
  39   6     0.04  -0.07  -0.03     0.07   0.25   0.05     0.08  -0.07  -0.08
  40   6     0.04  -0.06  -0.01     0.08   0.24   0.07     0.08  -0.04  -0.06
  41   6     0.03  -0.05   0.01     0.07   0.09   0.08     0.07  -0.01  -0.04
  42   6     0.00  -0.04   0.01     0.04  -0.03   0.06     0.05  -0.00  -0.04
  43   6    -0.01   0.04   0.06     0.04  -0.01  -0.00     0.03   0.02   0.04
  44   6    -0.05   0.08   0.05     0.01   0.05  -0.03     0.02   0.03   0.04
  45   1    -0.03   0.05   0.02     0.01   0.06  -0.04    -0.01   0.02   0.02
  46   1    -0.04   0.05   0.02    -0.03   0.07  -0.05    -0.00   0.01   0.02
  47   1    -0.03   0.05   0.02    -0.03   0.07  -0.05     0.01   0.01   0.02
  48   1    -0.04   0.01  -0.00    -0.05  -0.02   0.02     0.01   0.01  -0.01
  49   1    -0.02  -0.01  -0.00    -0.03  -0.06   0.03     0.01   0.01  -0.02
  50   1     0.01  -0.03   0.02     0.01  -0.03   0.02     0.02  -0.02   0.01
  51   1    -0.02  -0.02   0.00     0.01  -0.02   0.00     0.01  -0.02   0.01
  52   1    -0.10   0.06  -0.02    -0.00  -0.00  -0.02    -0.05   0.04  -0.01
  53   1    -0.13   0.04  -0.06    -0.00  -0.00  -0.03    -0.06   0.02  -0.03
  54   1    -0.10  -0.00  -0.06    -0.00  -0.02  -0.03    -0.06  -0.00  -0.03
  55   1    -0.05   0.01  -0.00     0.00  -0.02  -0.02    -0.02   0.01   0.00
  56   1    -0.01  -0.00   0.02     0.00  -0.03  -0.00     0.00   0.01   0.01
  57   1    -0.01  -0.00   0.01     0.01  -0.11   0.02    -0.00   0.03  -0.00
  58   1    -0.02  -0.00   0.00     0.00  -0.10   0.02    -0.01   0.02  -0.01
  59   1    -0.01  -0.01  -0.01     0.01  -0.03   0.01    -0.00  -0.00  -0.03
  60   1    -0.00  -0.01  -0.03     0.00   0.02  -0.01     0.04  -0.02   0.04
  61   1     0.03  -0.01  -0.01     0.00   0.02  -0.01     0.02   0.01   0.08
  62   1     0.09   0.01   0.03     0.03   0.03  -0.00    -0.08   0.07  -0.01
  63   1     0.10   0.01   0.05     0.02   0.03   0.01    -0.05   0.06   0.03
  64   1     0.07  -0.01   0.06     0.02   0.03   0.01    -0.04   0.02  -0.03
  65   1     0.03  -0.02   0.01     0.01   0.03  -0.01    -0.05   0.02  -0.06
  66   1     0.01  -0.02  -0.01     0.01   0.03  -0.01    -0.03  -0.01  -0.08
  67   1    -0.01   0.02   0.00     0.03  -0.01  -0.03     0.04  -0.04  -0.11
  68   1     0.01   0.04   0.00     0.01  -0.03  -0.04     0.02  -0.03  -0.07
  69   1     0.06   0.01  -0.02    -0.05   0.01   0.01    -0.04   0.08   0.13
  70   1     0.07   0.03  -0.02    -0.07  -0.02   0.01    -0.04  -0.04   0.16
  71   1     0.07   0.04  -0.02    -0.06  -0.03   0.00    -0.04   0.02   0.16
  72   1     0.05  -0.00  -0.02    -0.05   0.02   0.02    -0.02  -0.00   0.07
  73   1     0.03  -0.02  -0.02    -0.03   0.04   0.02    -0.00  -0.01   0.02
  74   1     0.01  -0.02  -0.01     0.02   0.10   0.01     0.03  -0.03  -0.03
  75   1     0.02  -0.02  -0.00     0.03   0.10   0.03     0.03  -0.01  -0.02
  76   1     0.01  -0.01   0.01     0.02   0.02   0.03     0.02   0.00  -0.01
  77   1     0.01   0.01   0.02     0.03   0.00  -0.00     0.01   0.00   0.02
  78   1    -0.01   0.03   0.02     0.01   0.03  -0.02     0.00   0.01   0.02
                      7                      8                      9
                        a                      a                      a 
 Frequencies --    38.0055                42.9740                47.1360
 Red. masses --    10.6387                10.9505                10.6751
 Frc consts  --     0.0000                 0.0000                 0.0000
 IR Inten    --     0.4678                 0.4506                 0.9858
 Raman Activ --     0.0000                 0.0000                 0.0000
 Depolar     --     0.0000                 0.0000                 0.0000
 Atom AN      X      Y      Z        X      Y      Z        X      Y      Z
   1   6     0.16  -0.05  -0.33     0.11   0.05  -0.22     0.02   0.04   0.06
   2   8     0.13  -0.08  -0.11     0.11   0.05  -0.21    -0.01  -0.02   0.22
   3   6     0.05  -0.05  -0.02     0.05  -0.00  -0.05     0.01   0.02   0.09
   4   6     0.02  -0.06   0.15     0.06   0.01  -0.06    -0.02  -0.03   0.23
   5   6    -0.03  -0.04   0.20     0.03  -0.02   0.03    -0.01  -0.00   0.17
   6   6    -0.05  -0.01   0.09    -0.00  -0.06   0.13     0.04   0.06  -0.02
   7   7    -0.07   0.02   0.08    -0.00  -0.08   0.14     0.05   0.07  -0.03
   8   6    -0.06   0.05   0.05     0.03  -0.05   0.12     0.03   0.05  -0.02
   9   6    -0.13   0.13  -0.00     0.08  -0.03   0.18    -0.09   0.07  -0.14
  10   6    -0.09   0.14  -0.01     0.10   0.02   0.15    -0.15   0.05  -0.14
  11   6     0.01   0.08   0.04     0.06   0.05   0.04    -0.09   0.00  -0.00
  12   8     0.07   0.10   0.06     0.08   0.12  -0.01    -0.18  -0.02  -0.01
  13   6     0.21  -0.00   0.14    -0.02   0.18  -0.18    -0.07  -0.08   0.16
  14   6     0.06   0.01   0.08     0.02   0.02  -0.01     0.04  -0.02   0.12
  15   6     0.02  -0.00   0.08     0.01  -0.03   0.03     0.09   0.01   0.11
  16   6    -0.08  -0.00   0.06    -0.02  -0.03   0.07     0.04   0.02  -0.02
  17   6    -0.11  -0.04   0.05    -0.07   0.05   0.06     0.03  -0.02  -0.02
  18   6    -0.13  -0.08   0.02    -0.09   0.10   0.02     0.03  -0.08  -0.03
  19   6    -0.11  -0.08  -0.01    -0.06   0.07  -0.02     0.04  -0.09  -0.05
  20   6    -0.07  -0.05  -0.01    -0.01  -0.01  -0.01     0.04  -0.05  -0.05
  21   6    -0.05  -0.05  -0.04     0.01  -0.03  -0.04     0.05  -0.05  -0.06
  22   7    -0.06  -0.08  -0.10     0.00   0.01  -0.06     0.05  -0.02  -0.07
  23   6    -0.07  -0.07  -0.09    -0.00   0.02  -0.04     0.03  -0.00  -0.04
  24   6    -0.02  -0.05  -0.05    -0.10  -0.03  -0.13    -0.10  -0.08  -0.13
  25   6     0.03  -0.02   0.01    -0.12  -0.04  -0.15    -0.16  -0.07  -0.14
  26   6     0.03  -0.01   0.01    -0.04   0.01  -0.07    -0.06   0.02  -0.05
  27   8     0.13   0.04   0.11    -0.09   0.00  -0.11    -0.15   0.02  -0.08
  28   6     0.18   0.07   0.17     0.01   0.06  -0.01    -0.02   0.13   0.05
  29   6    -0.04  -0.05  -0.07     0.06   0.07   0.03     0.09   0.11   0.06
  30   6    -0.09  -0.08  -0.12     0.08   0.07   0.04     0.13   0.09   0.05
  31   6    -0.04  -0.04  -0.08    -0.00   0.00  -0.05     0.05  -0.02  -0.05
  32   6    -0.03  -0.00  -0.15    -0.04   0.02   0.11     0.01  -0.01   0.10
  33   6    -0.00   0.04  -0.13    -0.07   0.02   0.16    -0.02  -0.01   0.15
  34   6     0.02   0.05  -0.04    -0.07  -0.00   0.05    -0.02  -0.03   0.05
  35   8     0.06   0.11  -0.03    -0.13  -0.01   0.16    -0.07  -0.04   0.14
  36   6     0.08   0.12   0.08    -0.12  -0.02   0.05    -0.06  -0.06   0.03
  37   6     0.02   0.02   0.03    -0.02  -0.03  -0.14     0.02  -0.05  -0.12
  38   6    -0.01  -0.03   0.01     0.01  -0.02  -0.18     0.05  -0.04  -0.17
  39   6    -0.01  -0.00  -0.03     0.05  -0.11  -0.05     0.06  -0.05  -0.06
  40   6     0.00   0.04   0.01     0.07  -0.16  -0.01     0.07  -0.03  -0.04
  41   6    -0.02   0.04   0.04     0.05  -0.14   0.02     0.06   0.01  -0.03
  42   6    -0.05  -0.00   0.03     0.01  -0.06   0.03     0.05  -0.01  -0.03
  43   6    -0.03  -0.02  -0.05    -0.02  -0.08   0.19     0.09   0.12  -0.17
  44   6     0.02  -0.04  -0.11     0.01  -0.06   0.10     0.07   0.10  -0.12
  45   1     0.08  -0.02  -0.11     0.04   0.04  -0.03     0.03  -0.02  -0.02
  46   1     0.06  -0.02  -0.11     0.04   0.03  -0.11    -0.00  -0.00   0.05
  47   1     0.00  -0.00  -0.12     0.01  -0.02  -0.07    -0.00   0.07  -0.00
  48   1     0.01  -0.02   0.06     0.03   0.01  -0.04    -0.02  -0.02   0.11
  49   1    -0.01  -0.01   0.09     0.01  -0.00   0.00    -0.01  -0.01   0.08
  50   1    -0.06   0.05  -0.01     0.03  -0.01   0.07    -0.04   0.03  -0.07
  51   1    -0.04   0.06  -0.01     0.04   0.01   0.06    -0.07   0.02  -0.07
  52   1     0.05  -0.04   0.05    -0.00   0.08  -0.06    -0.03  -0.05   0.08
  53   1     0.07   0.00   0.04    -0.01   0.07  -0.07    -0.04  -0.03   0.04
  54   1     0.09   0.02   0.05    -0.03   0.02  -0.07     0.03  -0.00   0.05
  55   1     0.04  -0.01   0.03    -0.00   0.01  -0.03     0.03  -0.02   0.07
  56   1     0.02  -0.01   0.03    -0.01  -0.01  -0.00     0.05  -0.00   0.06
  57   1    -0.04  -0.01   0.02    -0.03   0.02   0.03     0.01  -0.00  -0.00
  58   1    -0.05  -0.03   0.00    -0.04   0.05   0.00     0.00  -0.03  -0.01
  59   1    -0.03  -0.03  -0.01    -0.02   0.03  -0.01     0.01  -0.04  -0.01
  60   1    -0.00  -0.01  -0.01    -0.04  -0.02  -0.05    -0.05  -0.04  -0.06
  61   1     0.02   0.00   0.02    -0.06  -0.02  -0.06    -0.08  -0.04  -0.06
  62   1     0.06   0.05   0.02     0.04   0.00   0.00     0.05   0.03   0.01
  63   1     0.08   0.04   0.08    -0.01   0.01  -0.01    -0.03   0.03   0.00
  64   1     0.04  -0.01   0.07    -0.01   0.05   0.02    -0.02   0.08   0.05
  65   1    -0.02  -0.02  -0.02     0.04   0.03   0.03     0.05   0.05   0.04
  66   1    -0.04  -0.03  -0.05     0.05   0.03   0.03     0.07   0.04   0.04
  67   1    -0.02  -0.00  -0.06    -0.02   0.01   0.06    -0.00   0.00   0.05
  68   1    -0.00   0.02  -0.05    -0.03   0.01   0.09    -0.02  -0.00   0.08
  69   1     0.03   0.05   0.03    -0.06  -0.02  -0.02    -0.04  -0.03  -0.02
  70   1     0.02   0.01   0.04     0.01   0.00  -0.01     0.02  -0.01  -0.01
  71   1     0.03   0.05   0.02    -0.05  -0.01   0.05    -0.03  -0.02   0.04
  72   1     0.01   0.01   0.03    -0.00  -0.01  -0.07     0.01  -0.02  -0.06
  73   1    -0.00  -0.02   0.02     0.01  -0.01  -0.09     0.02  -0.02  -0.08
  74   1     0.00  -0.00  -0.02     0.02  -0.03  -0.02     0.02  -0.02  -0.02
  75   1     0.01   0.02   0.00     0.03  -0.06  -0.00     0.02  -0.01  -0.01
  76   1    -0.00   0.02   0.02     0.02  -0.05   0.01     0.02   0.01  -0.01
  77   1    -0.01  -0.00  -0.03    -0.02  -0.03   0.08     0.04   0.05  -0.09
  78   1     0.01  -0.01  -0.07    -0.00  -0.02   0.04     0.03   0.04  -0.07
                     10                     11                     12
                        a                      a                      a 
 Frequencies --    56.8008                71.1727                75.9674
 Red. masses --    10.3089                10.1809                10.3872
 Frc consts  --     0.0000                 0.0000                 0.0000
 IR Inten    --     2.3170                 4.0023                10.7364
 Raman Activ --     0.0000                 0.0000                 0.0000
 Depolar     --     0.0000                 0.0000                 0.0000
 Atom AN      X      Y      Z        X      Y      Z        X      Y      Z
   1   6     0.03  -0.07   0.08     0.07   0.07  -0.22    -0.07  -0.08   0.20
   2   8     0.09   0.02  -0.08    -0.02  -0.04   0.11     0.04   0.05  -0.19
   3   6     0.05   0.03  -0.05    -0.02  -0.02   0.09     0.02   0.02  -0.11
   4   6     0.09   0.09  -0.15    -0.05  -0.05   0.20     0.05   0.07  -0.23
   5   6     0.07   0.11  -0.13    -0.04  -0.03   0.15     0.03   0.04  -0.15
   6   6     0.02   0.07  -0.04    -0.02   0.02   0.01    -0.01  -0.02   0.02
   7   7    -0.00   0.10  -0.05    -0.01   0.07  -0.06    -0.02  -0.04   0.07
   8   6    -0.01   0.07  -0.03    -0.01   0.05  -0.05    -0.04  -0.02   0.04
   9   6     0.08  -0.02   0.06     0.12  -0.06   0.06    -0.11   0.05  -0.02
  10   6     0.10  -0.06   0.10     0.16  -0.11   0.12    -0.14   0.10  -0.07
  11   6     0.01   0.00   0.04     0.04  -0.04   0.04    -0.08   0.06  -0.04
  12   8     0.05  -0.06   0.12     0.11  -0.12   0.14    -0.11   0.11  -0.09
  13   6    -0.06   0.01   0.04    -0.10   0.02  -0.02     0.13  -0.06   0.11
  14   6    -0.11   0.10  -0.06    -0.12   0.10  -0.11    -0.00  -0.01   0.03
  15   6    -0.11   0.13  -0.09    -0.14   0.13  -0.14     0.01  -0.04   0.06
  16   6     0.01   0.07  -0.01    -0.01   0.04  -0.06    -0.02  -0.04   0.07
  17   6     0.03  -0.03  -0.01    -0.02  -0.06  -0.06    -0.04  -0.10   0.06
  18   6     0.03  -0.18  -0.00    -0.02  -0.10  -0.06    -0.05  -0.16   0.03
  19   6     0.02  -0.23   0.01    -0.01  -0.07  -0.06    -0.03  -0.14   0.01
  20   6     0.00  -0.07   0.01    -0.01  -0.01  -0.06    -0.01  -0.05   0.01
  21   6    -0.00  -0.04   0.01    -0.01  -0.04  -0.06     0.02  -0.02  -0.03
  22   7    -0.01  -0.08  -0.02    -0.01  -0.08  -0.07     0.01  -0.06  -0.10
  23   6    -0.04  -0.08  -0.04     0.02  -0.03  -0.00     0.02  -0.02  -0.04
  24   6    -0.17  -0.15  -0.13     0.09  -0.00   0.09     0.08   0.01   0.04
  25   6    -0.21  -0.14  -0.14     0.12   0.03   0.15     0.11   0.04   0.10
  26   6    -0.11  -0.06  -0.04     0.06   0.02   0.09     0.07   0.04   0.05
  27   8    -0.15  -0.04  -0.01     0.07   0.05   0.13     0.09   0.07   0.10
  28   6     0.11   0.14   0.23    -0.17  -0.06  -0.13    -0.12  -0.02  -0.12
  29   6     0.00   0.01   0.04     0.01  -0.00   0.01     0.01   0.01  -0.03
  30   6     0.02  -0.01   0.03    -0.00  -0.03  -0.03     0.00  -0.02  -0.07
  31   6     0.00  -0.05   0.01    -0.01  -0.05  -0.03     0.01  -0.04  -0.08
  32   6     0.01  -0.04  -0.03    -0.06   0.01   0.11    -0.04   0.01   0.08
  33   6     0.02  -0.04  -0.03    -0.06   0.04   0.17    -0.06   0.04   0.16
  34   6     0.03  -0.03  -0.00    -0.01   0.01   0.06    -0.01   0.01   0.04
  35   8     0.05  -0.03  -0.03    -0.01   0.05   0.14    -0.04   0.06   0.17
  36   6     0.06  -0.02  -0.01     0.08  -0.02  -0.09     0.03  -0.00  -0.04
  37   6     0.01  -0.03   0.05     0.05  -0.06  -0.10     0.05  -0.06  -0.17
  38   6     0.00  -0.04   0.06     0.04  -0.08  -0.13     0.06  -0.08  -0.21
  39   6    -0.00   0.09   0.02    -0.01   0.01  -0.06     0.07   0.07  -0.02
  40   6    -0.01   0.24   0.03    -0.02   0.13  -0.04     0.08   0.17   0.04
  41   6    -0.01   0.24   0.03    -0.01   0.17  -0.04     0.05   0.14   0.07
  42   6    -0.00   0.09   0.00    -0.01   0.08  -0.06     0.01   0.02   0.05
  43   6    -0.02   0.00   0.07    -0.00   0.03  -0.04    -0.04  -0.06   0.11
  44   6    -0.01  -0.02   0.07    -0.00   0.02  -0.02    -0.03  -0.04   0.07
  45   1    -0.03  -0.00   0.04     0.08   0.01  -0.09    -0.09   0.00   0.09
  46   1     0.02  -0.02   0.01     0.03   0.02  -0.08    -0.02  -0.02   0.06
  47   1     0.03  -0.05   0.04    -0.03   0.05  -0.10     0.03  -0.08   0.10
  48   1     0.04   0.04  -0.07    -0.02  -0.03   0.09     0.03   0.03  -0.11
  49   1     0.03   0.04  -0.06    -0.02  -0.01   0.06     0.01   0.02  -0.06
  50   1     0.05  -0.02   0.03     0.06  -0.03   0.03    -0.04   0.02  -0.01
  51   1     0.05  -0.04   0.05     0.08  -0.06   0.07    -0.06   0.04  -0.04
  52   1    -0.00   0.03  -0.03    -0.01   0.06  -0.07     0.02  -0.08   0.05
  53   1    -0.00  -0.02   0.03    -0.01  -0.01   0.02     0.05  -0.02   0.04
  54   1    -0.07   0.01   0.02    -0.11  -0.00  -0.00     0.10   0.02   0.05
  55   1    -0.05   0.04  -0.03    -0.07   0.05  -0.05     0.01  -0.01   0.01
  56   1    -0.05   0.06  -0.05    -0.07   0.06  -0.07     0.02  -0.03   0.03
  57   1     0.01   0.00  -0.01    -0.00  -0.03  -0.02    -0.01  -0.03   0.02
  58   1     0.01  -0.08   0.00    -0.01  -0.05  -0.02    -0.02  -0.06   0.01
  59   1     0.01  -0.11   0.01    -0.00  -0.03  -0.02    -0.01  -0.05  -0.00
  60   1    -0.06  -0.06  -0.05     0.03  -0.00   0.04     0.03   0.00   0.02
  61   1    -0.09  -0.06  -0.06     0.05   0.02   0.06     0.05   0.02   0.05
  62   1     0.11   0.05   0.04    -0.12  -0.02  -0.02    -0.10  -0.01  -0.02
  63   1     0.03   0.05   0.08    -0.06  -0.02  -0.04    -0.04  -0.01  -0.04
  64   1     0.00   0.06   0.13    -0.02  -0.03  -0.10    -0.01  -0.02  -0.09
  65   1     0.02   0.02   0.03    -0.01  -0.00  -0.01    -0.00   0.00  -0.02
  66   1     0.03   0.01   0.02    -0.01  -0.01  -0.02    -0.01  -0.01  -0.03
  67   1     0.00  -0.01  -0.01    -0.03   0.01   0.05    -0.02   0.01   0.05
  68   1     0.01  -0.01  -0.02    -0.03   0.03   0.09    -0.03   0.03   0.09
  69   1     0.03  -0.01   0.01     0.00  -0.06  -0.05    -0.02  -0.04  -0.05
  70   1     0.01  -0.01   0.00     0.06   0.03  -0.06     0.06   0.02  -0.04
  71   1     0.02  -0.01  -0.02     0.02   0.00  -0.02     0.00   0.01   0.02
  72   1     0.00  -0.01   0.03     0.03  -0.02  -0.05     0.03  -0.03  -0.08
  73   1    -0.00  -0.01   0.03     0.02  -0.03  -0.07     0.03  -0.03  -0.10
  74   1    -0.00   0.03   0.01    -0.00  -0.01  -0.02     0.03   0.02  -0.01
  75   1    -0.01   0.10   0.01    -0.01   0.05  -0.01     0.03   0.07   0.01
  76   1    -0.00   0.10   0.01    -0.00   0.07  -0.01     0.02   0.06   0.03
  77   1    -0.02  -0.01   0.04     0.01   0.02  -0.03    -0.02  -0.03   0.06
  78   1    -0.01  -0.02   0.04     0.00   0.01  -0.02    -0.02  -0.02   0.05
                     13                     14                     15
                        a                      a                      a 
 Frequencies --    87.9942                93.1031                98.3886
 Red. masses --    10.0671                10.1624                 9.9582
 Frc consts  --     0.0000                 0.0000                 0.0000
 IR Inten    --     2.7598                 3.1594                 0.5891
 Raman Activ --     0.0000                 0.0000                 0.0000
 Depolar     --     0.0000                 0.0000                 0.0000
 Atom AN      X      Y      Z        X      Y      Z        X      Y      Z
   1   6     0.03  -0.12   0.12     0.00   0.07  -0.07    -0.00   0.04   0.08
   2   8     0.10  -0.01  -0.04    -0.04   0.01   0.03     0.00   0.03   0.02
   3   6     0.06   0.03  -0.06    -0.02  -0.02   0.05     0.03   0.02  -0.02
   4   6     0.06   0.05  -0.03    -0.02  -0.02   0.01     0.01  -0.02   0.02
   5   6     0.03   0.07  -0.01    -0.00  -0.03  -0.00     0.03  -0.04   0.02
   6   6     0.00   0.08  -0.04     0.01  -0.04   0.04     0.05  -0.02  -0.02
   7   7     0.00   0.08  -0.05     0.02  -0.05   0.03     0.05  -0.04   0.02
   8   6     0.07   0.02   0.03     0.01  -0.04   0.02     0.01  -0.01  -0.02
   9   6     0.02   0.04  -0.02    -0.01  -0.02  -0.00     0.05  -0.05   0.01
  10   6     0.06  -0.00   0.04    -0.04   0.01  -0.04     0.03  -0.04   0.01
  11   6     0.15  -0.06   0.14    -0.04   0.01  -0.04    -0.03   0.00  -0.06
  12   8     0.12  -0.06   0.14    -0.08   0.04  -0.10    -0.01  -0.02  -0.04
  13   6    -0.24   0.18  -0.19     0.07  -0.05   0.03     0.07  -0.06   0.03
  14   6     0.25  -0.11   0.24     0.00  -0.03  -0.01    -0.10   0.05  -0.12
  15   6     0.21  -0.07   0.19     0.02  -0.04   0.02    -0.08   0.04  -0.10
  16   6    -0.00  -0.00  -0.04     0.01  -0.00  -0.02     0.05  -0.01   0.04
  17   6     0.00  -0.08  -0.04    -0.03   0.07  -0.02     0.07   0.02   0.04
  18   6     0.00  -0.17  -0.03    -0.04   0.15  -0.05     0.07   0.05   0.06
  19   6    -0.00  -0.15  -0.02    -0.02   0.11  -0.08     0.05   0.06   0.08
  20   6    -0.02  -0.06  -0.02     0.02   0.03  -0.07     0.03   0.04   0.08
  21   6    -0.04   0.01  -0.01     0.03   0.00  -0.08     0.02   0.02   0.08
  22   7    -0.05   0.02  -0.01     0.05  -0.07  -0.09     0.00   0.06   0.07
  23   6    -0.06   0.00  -0.03     0.06  -0.06  -0.07    -0.05   0.02  -0.00
  24   6     0.01   0.04   0.02     0.05  -0.06  -0.01     0.06   0.08   0.10
  25   6     0.03   0.04   0.03     0.00  -0.04   0.00     0.03   0.04   0.05
  26   6    -0.02   0.00  -0.02    -0.04  -0.01  -0.05    -0.14  -0.07  -0.12
  27   8     0.04   0.02   0.03    -0.11   0.02  -0.02    -0.12  -0.08  -0.13
  28   6     0.03   0.00   0.02    -0.03   0.15   0.05     0.19   0.08   0.20
  29   6    -0.11  -0.05  -0.10    -0.03  -0.00  -0.11    -0.30  -0.16  -0.26
  30   6    -0.12  -0.05  -0.10     0.02  -0.03  -0.11    -0.24  -0.11  -0.19
  31   6    -0.05   0.03   0.01     0.01  -0.03   0.04     0.02   0.03  -0.02
  32   6    -0.06   0.04   0.02     0.03  -0.05   0.00    -0.01   0.04   0.07
  33   6    -0.07   0.05   0.07    -0.00  -0.02   0.11    -0.03   0.04   0.10
  34   6    -0.07   0.05   0.07    -0.04   0.01   0.24    -0.03   0.02   0.01
  35   8    -0.09   0.05   0.09    -0.04   0.00   0.26    -0.08   0.02   0.13
  36   6    -0.02  -0.02  -0.18     0.13  -0.15  -0.37    -0.07  -0.01  -0.04
  37   6    -0.07   0.04   0.05    -0.07   0.04   0.34     0.02  -0.01  -0.17
  38   6    -0.06   0.04   0.02    -0.04   0.02   0.25     0.04  -0.00  -0.17
  39   6    -0.04   0.03  -0.00     0.04   0.07  -0.07     0.03  -0.05   0.07
  40   6    -0.04  -0.02  -0.02     0.05   0.08  -0.05     0.02  -0.07   0.06
  41   6    -0.03  -0.06  -0.03     0.05   0.02  -0.04     0.02  -0.02   0.06
  42   6    -0.02  -0.04  -0.03     0.03   0.01  -0.05     0.03   0.01   0.06
  43   6     0.01   0.06  -0.09    -0.00  -0.05   0.09     0.08   0.03  -0.08
  44   6     0.03   0.03  -0.10    -0.02  -0.03   0.10     0.07   0.05  -0.09
  45   1    -0.03  -0.04   0.03     0.03   0.03  -0.01    -0.01  -0.00   0.01
  46   1     0.01  -0.05   0.06     0.00   0.03  -0.05    -0.02   0.01   0.05
  47   1     0.04  -0.03   0.05    -0.02   0.01  -0.03     0.02   0.03   0.03
  48   1     0.02   0.01  -0.00    -0.01  -0.00  -0.01    -0.00  -0.01   0.02
  49   1     0.01   0.03   0.01     0.00  -0.01  -0.01     0.00  -0.02   0.02
  50   1    -0.02   0.03  -0.03    -0.00  -0.00   0.00     0.03  -0.02   0.01
  51   1     0.00   0.01  -0.01    -0.02   0.01  -0.02     0.02  -0.02   0.01
  52   1    -0.06   0.16   0.00     0.01  -0.06   0.02     0.02  -0.04  -0.03
  53   1    -0.14   0.10  -0.12     0.02  -0.01   0.01     0.05  -0.04   0.04
  54   1    -0.09  -0.04  -0.12     0.06   0.01   0.02     0.00   0.01   0.03
  55   1     0.10  -0.05   0.10     0.00  -0.01  -0.00    -0.05   0.03  -0.05
  56   1     0.08  -0.03   0.07     0.01  -0.02   0.01    -0.03   0.02  -0.04
  57   1     0.00  -0.02  -0.01    -0.01   0.02   0.00     0.02   0.00   0.01
  58   1     0.00  -0.07  -0.01    -0.02   0.06  -0.02     0.03   0.02   0.02
  59   1     0.00  -0.06  -0.00    -0.01   0.04  -0.03     0.02   0.02   0.03
  60   1     0.01   0.02   0.02     0.03  -0.02   0.01     0.05   0.04   0.07
  61   1     0.03   0.02   0.03     0.00  -0.01   0.01     0.04   0.03   0.04
  62   1    -0.01   0.02  -0.01     0.02   0.06  -0.01     0.10   0.08  -0.02
  63   1     0.03   0.01   0.03    -0.01   0.06   0.04     0.13   0.06   0.13
  64   1     0.01  -0.03   0.00    -0.02   0.04   0.03     0.01  -0.04   0.14
  65   1    -0.05  -0.03  -0.04    -0.02   0.01  -0.04    -0.13  -0.07  -0.12
  66   1    -0.05  -0.02  -0.04     0.01  -0.01  -0.04    -0.10  -0.05  -0.07
  67   1    -0.02   0.01  -0.00     0.02  -0.02  -0.04    -0.01   0.02   0.03
  68   1    -0.02   0.01   0.02     0.00  -0.01   0.02    -0.02   0.01   0.06
  69   1    -0.00  -0.06  -0.06     0.07  -0.17  -0.09    -0.06  -0.03  -0.05
  70   1    -0.00   0.04  -0.08     0.02   0.07  -0.17     0.03   0.01  -0.04
  71   1    -0.00  -0.01  -0.07     0.06  -0.07  -0.20    -0.03  -0.00   0.03
  72   1    -0.02   0.01   0.02    -0.03   0.02   0.14     0.01  -0.01  -0.08
  73   1    -0.02   0.01   0.00    -0.02   0.01   0.09     0.02  -0.00  -0.08
  74   1    -0.01   0.02   0.00     0.01   0.03  -0.02     0.01  -0.03   0.02
  75   1    -0.01  -0.01  -0.01     0.02   0.04  -0.01     0.00  -0.04   0.02
  76   1    -0.01  -0.03  -0.01     0.01  -0.00  -0.01     0.01  -0.01   0.02
  77   1    -0.00   0.02  -0.03     0.00  -0.02   0.03     0.03   0.01  -0.03
  78   1     0.01   0.00  -0.04    -0.01  -0.01   0.04     0.03   0.02  -0.04
                     16                     17                     18
                        a                      a                      a 
 Frequencies --   103.6618               108.5459               136.1398
 Red. masses --    10.4833                10.1964                11.5986
 Frc consts  --     0.0000                 0.0000                 0.0000
 IR Inten    --     0.9972                 0.3109                13.3613
 Raman Activ --     0.0000                 0.0000                 0.0000
 Depolar     --     0.0000                 0.0000                 0.0000
 Atom AN      X      Y      Z        X      Y      Z        X      Y      Z
   1   6     0.11   0.09  -0.19    -0.01  -0.07   0.24     0.01   0.05  -0.11
   2   8     0.04   0.00   0.13     0.12   0.09  -0.19    -0.11  -0.12   0.31
   3   6     0.01  -0.00   0.15     0.09   0.07  -0.12    -0.02  -0.03   0.03
   4   6     0.06   0.07  -0.02     0.04   0.00   0.06     0.02   0.03  -0.13
   5   6     0.07   0.10  -0.07     0.00  -0.02   0.14     0.05   0.05  -0.21
   6   6     0.03   0.06   0.03     0.02   0.01   0.04     0.04   0.02  -0.11
   7   7     0.05   0.11  -0.08     0.01  -0.00   0.07    -0.00  -0.02   0.01
   8   6     0.09   0.07  -0.03    -0.01   0.03   0.03    -0.06  -0.02  -0.02
   9   6     0.09   0.02  -0.03     0.06  -0.02   0.10    -0.09   0.00  -0.04
  10   6     0.01   0.01  -0.05     0.05  -0.01   0.09    -0.05   0.00  -0.03
  11   6    -0.06   0.05  -0.05    -0.06   0.06  -0.02    -0.00  -0.03  -0.00
  12   8    -0.20   0.05  -0.09    -0.04   0.05   0.02     0.11  -0.05   0.05
  13   6    -0.03  -0.07   0.19     0.05  -0.02   0.10     0.03   0.00  -0.09
  14   6    -0.02   0.08   0.00    -0.18   0.14  -0.14    -0.02  -0.03  -0.03
  15   6     0.05   0.09   0.00    -0.14   0.11  -0.10    -0.05  -0.03  -0.03
  16   6     0.04   0.01  -0.07    -0.01  -0.03   0.04     0.04   0.03   0.10
  17   6     0.07  -0.11  -0.07    -0.04  -0.08   0.04     0.07   0.17   0.10
  18   6     0.08  -0.27  -0.04    -0.05  -0.13   0.02     0.07   0.10   0.11
  19   6     0.06  -0.22  -0.01    -0.03  -0.10  -0.01     0.05  -0.09   0.14
  20   6     0.02  -0.09  -0.02    -0.01  -0.07  -0.00     0.01  -0.06   0.13
  21   6    -0.01  -0.00   0.02     0.00  -0.03  -0.02     0.03  -0.04   0.10
  22   7    -0.01   0.08   0.05    -0.01   0.02  -0.03    -0.02   0.01  -0.01
  23   6    -0.04   0.05   0.01    -0.02   0.02  -0.04    -0.11  -0.02  -0.07
  24   6    -0.01   0.07   0.01    -0.04   0.01  -0.08    -0.17  -0.05  -0.16
  25   6     0.02   0.06   0.00    -0.00   0.03  -0.04    -0.11  -0.03  -0.11
  26   6     0.00   0.02  -0.01     0.06   0.06   0.02     0.02   0.03   0.02
  27   8     0.07   0.02  -0.00     0.13   0.09   0.06     0.23   0.12   0.20
  28   6     0.04  -0.04  -0.02    -0.04  -0.02  -0.10    -0.04  -0.07  -0.08
  29   6    -0.06  -0.01  -0.04     0.06   0.06   0.04    -0.01   0.01   0.01
  30   6    -0.08   0.01  -0.02     0.02   0.04   0.00    -0.08  -0.01  -0.04
  31   6    -0.01   0.07   0.02    -0.01   0.04  -0.01     0.02   0.01  -0.09
  32   6     0.00   0.05  -0.00     0.02   0.01  -0.08     0.04  -0.00  -0.16
  33   6    -0.01   0.03  -0.01     0.00   0.01  -0.05     0.02   0.00  -0.10
  34   6    -0.04   0.04  -0.01    -0.04   0.04   0.06    -0.03   0.04   0.02
  35   8    -0.06   0.01  -0.02    -0.06   0.02   0.05    -0.09   0.07   0.20
  36   6    -0.10   0.01  -0.04    -0.04  -0.02  -0.13    -0.04  -0.01  -0.10
  37   6    -0.05   0.06   0.01    -0.08   0.07   0.16    -0.02   0.03  -0.00
  38   6    -0.03   0.08   0.01    -0.05   0.07   0.12     0.01   0.02  -0.06
  39   6    -0.04  -0.09   0.00     0.02  -0.14  -0.03     0.07  -0.08   0.10
  40   6    -0.05  -0.21  -0.05     0.03  -0.25  -0.02     0.07  -0.05   0.11
  41   6    -0.03  -0.17  -0.07     0.02  -0.20   0.00     0.05   0.02   0.14
  42   6     0.01  -0.07  -0.05     0.00  -0.09   0.02     0.01  -0.01   0.13
  43   6    -0.04  -0.03   0.24     0.07   0.08  -0.13     0.04   0.01  -0.09
  44   6    -0.05  -0.07   0.32     0.10   0.10  -0.22     0.01  -0.00  -0.03
  45   1     0.10   0.06  -0.02    -0.09  -0.03   0.06     0.09  -0.02  -0.08
  46   1     0.06   0.05  -0.13    -0.02  -0.04   0.13    -0.00   0.01  -0.01
  47   1    -0.04  -0.01  -0.08     0.08  -0.02   0.11    -0.05   0.09  -0.08
  48   1     0.03   0.03  -0.03     0.00  -0.01   0.04     0.01   0.01  -0.04
  49   1     0.03   0.04  -0.06    -0.01  -0.02   0.08     0.02   0.02  -0.09
  50   1     0.04  -0.00  -0.01     0.04  -0.02   0.05    -0.04   0.01  -0.02
  51   1     0.00  -0.01  -0.02     0.04  -0.02   0.05    -0.02   0.01  -0.01
  52   1    -0.02  -0.07   0.08     0.02  -0.03  -0.03     0.02   0.02  -0.06
  53   1    -0.02  -0.04   0.07     0.06  -0.04   0.08     0.03   0.01  -0.02
  54   1     0.04   0.03   0.08    -0.02   0.04   0.07    -0.03  -0.02  -0.03
  55   1    -0.01   0.03   0.01    -0.09   0.06  -0.07    -0.00  -0.01  -0.01
  56   1     0.02   0.03   0.01    -0.06   0.04  -0.05    -0.02  -0.01  -0.01
  57   1     0.03  -0.03  -0.03    -0.01  -0.02   0.02     0.02   0.09   0.03
  58   1     0.03  -0.12  -0.01    -0.02  -0.05   0.00     0.03   0.05   0.03
  59   1     0.02  -0.08   0.01    -0.01  -0.03  -0.01     0.02  -0.06   0.05
  60   1     0.00   0.03   0.01    -0.03  -0.00  -0.04    -0.07  -0.02  -0.07
  61   1     0.02   0.03   0.00    -0.00   0.01  -0.02    -0.04  -0.01  -0.04
  62   1    -0.01  -0.00  -0.01    -0.06  -0.02  -0.01    -0.11  -0.01  -0.01
  63   1     0.03  -0.01  -0.00    -0.02  -0.01  -0.05     0.00  -0.02  -0.02
  64   1     0.01  -0.04  -0.01     0.01  -0.01  -0.07     0.01  -0.07  -0.09
  65   1    -0.03  -0.02  -0.02     0.03   0.02   0.02     0.01   0.01   0.02
  66   1    -0.03  -0.00  -0.01     0.01   0.01   0.00    -0.02  -0.00  -0.01
  67   1     0.01   0.01  -0.00     0.02  -0.00  -0.05     0.02  -0.01  -0.07
  68   1     0.00   0.00  -0.01     0.01  -0.01  -0.04     0.01  -0.00  -0.03
  69   1    -0.03   0.01  -0.01     0.01  -0.04  -0.02    -0.03  -0.06  -0.06
  70   1    -0.04   0.01  -0.01    -0.04   0.03  -0.06     0.02   0.04  -0.07
  71   1    -0.03  -0.01  -0.02    -0.00  -0.03  -0.08    -0.02  -0.01  -0.03
  72   1    -0.02   0.02   0.00    -0.03   0.03   0.08    -0.01   0.01   0.01
  73   1    -0.01   0.03   0.00    -0.02   0.03   0.05     0.00   0.01  -0.02
  74   1    -0.02  -0.02   0.01     0.01  -0.04  -0.01     0.02  -0.03   0.02
  75   1    -0.02  -0.09  -0.02     0.02  -0.10  -0.01     0.03  -0.02   0.03
  76   1    -0.01  -0.06  -0.03     0.01  -0.07   0.00     0.01   0.03   0.05
  77   1    -0.03  -0.02   0.10     0.03   0.03  -0.05     0.01   0.00  -0.03
  78   1    -0.03  -0.04   0.14     0.04   0.04  -0.11    -0.00  -0.00   0.01
                     19                     20                     21
                        a                      a                      a 
 Frequencies --   140.7625               157.1209               158.8264
 Red. masses --    11.4642                11.2426                11.2466
 Frc consts  --     0.0000                 0.0000                 0.0000
 IR Inten    --     2.5308                 0.7919                 9.4080
 Raman Activ --     0.0000                 0.0000                 0.0000
 Depolar     --     0.0000                 0.0000                 0.0000
 Atom AN      X      Y      Z        X      Y      Z        X      Y      Z
   1   6     0.07   0.14   0.11    -0.01   0.13   0.11     0.00  -0.12  -0.06
   2   8     0.09   0.10  -0.02     0.07   0.15  -0.29    -0.01  -0.08   0.13
   3   6     0.10   0.03   0.02     0.03  -0.03   0.04    -0.02   0.03  -0.03
   4   6     0.07  -0.04   0.08    -0.01  -0.09   0.14    -0.01   0.06  -0.05
   5   6     0.08  -0.05   0.09    -0.01  -0.11   0.18    -0.02   0.07  -0.07
   6   6     0.09  -0.04   0.04     0.03  -0.08   0.09    -0.03   0.07  -0.05
   7   7     0.09  -0.04   0.01     0.03   0.01  -0.05    -0.02   0.02  -0.01
   8   6     0.13  -0.07   0.05     0.01   0.05  -0.11     0.05  -0.04   0.08
   9   6     0.18  -0.13   0.08    -0.06   0.07  -0.18     0.15  -0.10   0.16
  10   6     0.12  -0.10   0.03    -0.06   0.04  -0.16     0.13  -0.09   0.15
  11   6     0.02  -0.04  -0.06     0.03  -0.02  -0.04     0.01  -0.00   0.02
  12   8    -0.18   0.07  -0.25     0.11  -0.16   0.09    -0.18   0.16  -0.19
  13   6     0.06  -0.09   0.01    -0.10  -0.02   0.01     0.08  -0.02   0.01
  14   6     0.07  -0.05   0.00     0.05   0.00  -0.02     0.03  -0.02   0.04
  15   6     0.13  -0.07   0.04     0.03   0.04  -0.06     0.05  -0.04   0.07
  16   6     0.04   0.00  -0.07     0.03   0.00  -0.04    -0.02  -0.00  -0.01
  17   6     0.02   0.14  -0.07     0.05  -0.03  -0.04    -0.01  -0.03  -0.01
  18   6     0.03   0.15  -0.06     0.07   0.04  -0.01    -0.01  -0.04   0.00
  19   6     0.01   0.02  -0.04     0.05   0.09   0.02    -0.02  -0.01   0.01
  20   6    -0.01  -0.03  -0.03     0.01   0.05   0.02    -0.03   0.01   0.01
  21   6    -0.07  -0.02   0.01    -0.01  -0.01   0.04    -0.03   0.00   0.01
  22   7    -0.09  -0.04  -0.01    -0.02   0.02   0.04    -0.04  -0.01  -0.01
  23   6    -0.13  -0.07  -0.04    -0.06   0.04   0.06     0.00   0.06   0.09
  24   6    -0.18  -0.10  -0.08    -0.08   0.03   0.02     0.05   0.08   0.13
  25   6    -0.13  -0.08  -0.04    -0.08   0.01   0.00     0.04   0.07   0.10
  26   6    -0.03  -0.04   0.07    -0.03   0.01   0.05    -0.01   0.02   0.05
  27   8     0.14   0.03   0.24     0.02  -0.04  -0.00    -0.14  -0.13  -0.18
  28   6    -0.06  -0.12   0.01     0.05  -0.17   0.04     0.08  -0.13   0.06
  29   6    -0.06  -0.05   0.03    -0.01   0.02   0.10     0.06   0.06   0.15
  30   6    -0.11  -0.07  -0.01    -0.04   0.03   0.09     0.04   0.07   0.14
  31   6    -0.09  -0.02   0.01     0.01  -0.02  -0.10    -0.03  -0.06  -0.12
  32   6    -0.12   0.03   0.04     0.05  -0.05  -0.24     0.00  -0.07  -0.25
  33   6    -0.10   0.05   0.02     0.04  -0.03  -0.20     0.00  -0.04  -0.22
  34   6    -0.06   0.03  -0.05    -0.01   0.01  -0.01    -0.03   0.01  -0.02
  35   8    -0.03   0.06  -0.12    -0.09   0.11   0.30    -0.09   0.15   0.28
  36   6    -0.02   0.07   0.02     0.03   0.01  -0.08     0.10   0.03  -0.06
  37   6    -0.05  -0.01  -0.04     0.01  -0.01  -0.05    -0.02  -0.03  -0.05
  38   6    -0.08  -0.02  -0.02     0.01  -0.02  -0.10    -0.02  -0.05  -0.10
  39   6    -0.07   0.15   0.03    -0.04  -0.07   0.03    -0.03   0.02   0.01
  40   6    -0.08   0.18   0.01    -0.05   0.01   0.01    -0.03   0.04   0.01
  41   6    -0.04   0.04  -0.04    -0.03   0.10  -0.01    -0.03   0.03   0.01
  42   6     0.00  -0.02  -0.05     0.00   0.06  -0.02    -0.03   0.01   0.00
  43   6     0.12   0.01   0.02     0.01  -0.09   0.15    -0.03   0.07  -0.09
  44   6     0.12   0.04  -0.01     0.01  -0.07   0.16    -0.02   0.05  -0.11
  45   1     0.01   0.04   0.03    -0.05   0.12   0.13     0.01  -0.08  -0.08
  46   1    -0.00   0.05   0.04    -0.00   0.08  -0.05     0.01  -0.07   0.03
  47   1     0.05   0.04   0.05     0.03  -0.09   0.08    -0.02   0.03  -0.05
  48   1     0.01  -0.01   0.03    -0.01  -0.03   0.04    -0.00   0.01  -0.01
  49   1     0.02  -0.02   0.04    -0.01  -0.04   0.07    -0.00   0.02  -0.02
  50   1     0.07  -0.05   0.03    -0.03   0.03  -0.06     0.06  -0.04   0.06
  51   1     0.04  -0.03   0.01    -0.03   0.02  -0.06     0.05  -0.03   0.05
  52   1    -0.01  -0.09   0.07    -0.02   0.05  -0.02    -0.00  -0.08   0.08
  53   1    -0.01  -0.01  -0.02    -0.04  -0.02   0.01    -0.01   0.02  -0.03
  54   1     0.11  -0.00   0.01    -0.08  -0.02   0.00     0.13   0.01  -0.00
  55   1     0.01  -0.01  -0.00     0.02  -0.01   0.01     0.00  -0.00   0.00
  56   1     0.04  -0.02   0.01     0.02   0.01  -0.01     0.01  -0.01   0.01
  57   1     0.00   0.06  -0.02     0.02  -0.03  -0.02    -0.00  -0.01  -0.00
  58   1     0.01   0.07  -0.02     0.03   0.01  -0.00    -0.00  -0.02   0.00
  59   1     0.00  -0.00  -0.01     0.02   0.04   0.01    -0.00   0.00   0.01
  60   1    -0.07  -0.04  -0.04    -0.03   0.01  -0.00     0.02   0.03   0.04
  61   1    -0.04  -0.02  -0.02    -0.03  -0.00  -0.01     0.01   0.02   0.02
  62   1    -0.10  -0.02   0.01     0.02  -0.07   0.04     0.12  -0.10   0.06
  63   1     0.00  -0.03   0.01     0.02  -0.07  -0.03    -0.01  -0.08  -0.06
  64   1     0.00  -0.09  -0.05     0.01  -0.03   0.03     0.00   0.06   0.09
  65   1    -0.01  -0.01   0.02     0.01   0.00   0.04     0.03   0.02   0.05
  66   1    -0.03  -0.02  -0.00    -0.01   0.01   0.03     0.01   0.02   0.04
  67   1    -0.05   0.01   0.02     0.02  -0.02  -0.09     0.01  -0.03  -0.10
  68   1    -0.03   0.02   0.01     0.02  -0.01  -0.07     0.00  -0.01  -0.08
  69   1    -0.00   0.04   0.01    -0.03  -0.08  -0.08    -0.01  -0.07  -0.06
  70   1    -0.01  -0.00   0.02     0.09   0.05  -0.07     0.10   0.05  -0.06
  71   1    -0.00   0.03   0.01     0.00   0.01   0.01     0.03   0.03   0.01
  72   1    -0.00  -0.01  -0.02     0.00   0.00  -0.00    -0.00  -0.00   0.01
  73   1    -0.02  -0.01  -0.01     0.00  -0.01  -0.02    -0.01  -0.02  -0.02
  74   1    -0.02   0.07   0.01    -0.01  -0.05   0.01    -0.01   0.00   0.00
  75   1    -0.03   0.09   0.01    -0.02  -0.00   0.00    -0.01   0.02   0.00
  76   1    -0.02   0.00  -0.02    -0.01   0.04  -0.01    -0.01   0.01   0.00
  77   1     0.05   0.01   0.00     0.01  -0.02   0.04    -0.01   0.02  -0.03
  78   1     0.04   0.02  -0.02     0.00  -0.02   0.05    -0.01   0.01  -0.04
                     22                     23                     24
                        a                      a                      a 
 Frequencies --   170.1607               178.7365               184.8251
 Red. masses --    10.7270                10.0802                 9.9855
 Frc consts  --     0.0000                 0.0000                 0.0000
 IR Inten    --     2.1526                 8.8537                 1.9022
 Raman Activ --     0.0000                 0.0000                 0.0000
 Depolar     --     0.0000                 0.0000                 0.0000
 Atom AN      X      Y      Z        X      Y      Z        X      Y      Z
   1   6     0.12   0.32   0.11    -0.03   0.01   0.01     0.05   0.09   0.03
   2   8     0.02   0.04   0.19    -0.02   0.01  -0.07     0.01  -0.01   0.10
   3   6     0.15  -0.02   0.03    -0.02  -0.02  -0.00     0.06   0.00  -0.00
   4   6     0.17  -0.02  -0.10    -0.03  -0.04   0.04     0.08   0.02  -0.08
   5   6     0.18  -0.04  -0.08    -0.02  -0.04   0.04     0.07   0.02  -0.07
   6   6     0.13  -0.08   0.01    -0.00  -0.03  -0.00     0.04  -0.01  -0.02
   7   7     0.04  -0.07   0.10    -0.02   0.01  -0.01     0.01   0.01  -0.01
   8   6    -0.06  -0.04   0.03    -0.06  -0.06   0.05     0.01  -0.00  -0.00
   9   6    -0.14   0.01  -0.04    -0.03  -0.07   0.08     0.02  -0.02   0.01
  10   6    -0.14   0.03  -0.05    -0.02  -0.06   0.08     0.02  -0.02   0.01
  11   6    -0.05  -0.02   0.00    -0.03  -0.06   0.05     0.01  -0.02   0.01
  12   8     0.13  -0.06   0.11    -0.05   0.08  -0.07    -0.03   0.01  -0.04
  13   6     0.06  -0.00  -0.11     0.14  -0.02  -0.14     0.02  -0.01  -0.02
  14   6    -0.08  -0.02  -0.02    -0.00  -0.09   0.08     0.03  -0.02   0.03
  15   6    -0.08  -0.04  -0.00    -0.04  -0.07   0.06     0.02  -0.01   0.01
  16   6     0.01   0.03   0.02    -0.02   0.14  -0.03    -0.00   0.03   0.01
  17   6    -0.06   0.06   0.01    -0.02   0.11  -0.03    -0.00  -0.39   0.02
  18   6    -0.08  -0.05  -0.04    -0.03  -0.04  -0.04     0.00  -0.16   0.03
  19   6    -0.06  -0.15  -0.07    -0.01  -0.16  -0.07    -0.01   0.37   0.04
  20   6    -0.03  -0.07  -0.06     0.02  -0.02  -0.07    -0.02   0.31   0.04
  21   6    -0.05  -0.04  -0.07     0.03  -0.12  -0.06    -0.02   0.10   0.03
  22   7    -0.07  -0.05  -0.09     0.05   0.02   0.03    -0.04   0.00   0.01
  23   6     0.00   0.02   0.03    -0.03   0.05   0.04    -0.00  -0.02  -0.02
  24   6     0.08   0.06   0.12    -0.03   0.04   0.04    -0.04  -0.03  -0.07
  25   6     0.09   0.06   0.13    -0.03   0.04   0.03    -0.04  -0.05  -0.08
  26   6     0.01   0.01   0.04    -0.04   0.02   0.02     0.01  -0.02  -0.03
  27   8    -0.15  -0.11  -0.16     0.02  -0.01  -0.01     0.05   0.05   0.06
  28   6     0.05  -0.06   0.04     0.05  -0.13   0.03    -0.04   0.08  -0.03
  29   6     0.05   0.04   0.08    -0.06   0.01   0.01     0.01  -0.02  -0.02
  30   6     0.04   0.03   0.06    -0.05   0.03   0.02    -0.00  -0.02  -0.02
  31   6    -0.10  -0.04  -0.04     0.11   0.11   0.04    -0.08  -0.06  -0.00
  32   6    -0.13   0.02  -0.01     0.12   0.09   0.05    -0.09  -0.04   0.01
  33   6    -0.12   0.05  -0.01     0.12   0.06   0.04    -0.08  -0.03   0.00
  34   6    -0.10   0.04  -0.02     0.09   0.06   0.03    -0.07  -0.03   0.01
  35   8    -0.04   0.09  -0.12     0.02  -0.10  -0.04    -0.00   0.04  -0.04
  36   6     0.01   0.09  -0.01    -0.24  -0.05  -0.05     0.14   0.02   0.04
  37   6    -0.10   0.01   0.04     0.07   0.11   0.07    -0.07  -0.05   0.04
  38   6    -0.11  -0.02   0.01     0.10   0.12   0.06    -0.08  -0.06   0.01
  39   6    -0.01  -0.02  -0.06     0.02  -0.36  -0.09    -0.02  -0.27  -0.02
  40   6     0.01  -0.01  -0.02     0.01  -0.04  -0.07    -0.02  -0.15  -0.01
  41   6     0.01   0.00  -0.01     0.01   0.39  -0.03    -0.02   0.21   0.03
  42   6     0.00  -0.02  -0.01     0.01   0.20  -0.05    -0.01   0.24   0.04
  43   6     0.16  -0.04   0.01    -0.00  -0.03  -0.01     0.04   0.00  -0.01
  44   6     0.16  -0.01   0.01    -0.01  -0.02  -0.01     0.05  -0.00  -0.00
  45   1     0.10   0.07   0.00    -0.02   0.02   0.02     0.04   0.01  -0.02
  46   1    -0.03   0.11   0.06    -0.01   0.01  -0.01    -0.01   0.03   0.03
  47   1     0.05   0.16   0.02    -0.00  -0.02   0.01     0.02   0.07  -0.00
  48   1     0.05  -0.00  -0.05    -0.01  -0.01   0.02     0.02   0.01  -0.03
  49   1     0.06  -0.01  -0.04    -0.01  -0.01   0.01     0.02   0.01  -0.03
  50   1    -0.05   0.01  -0.02    -0.01  -0.02   0.03     0.01  -0.01   0.00
  51   1    -0.05   0.02  -0.02    -0.01  -0.02   0.02     0.00  -0.01   0.00
  52   1     0.03   0.02  -0.11     0.02  -0.05   0.03    -0.01  -0.02   0.04
  53   1     0.07  -0.00  -0.00     0.02   0.06  -0.09    -0.02   0.02  -0.03
  54   1    -0.06  -0.01  -0.03     0.12  -0.05  -0.08     0.05  -0.02  -0.02
  55   1    -0.02  -0.01  -0.01     0.01  -0.03   0.02     0.01  -0.01   0.01
  56   1    -0.02  -0.02  -0.00    -0.01  -0.02   0.02     0.00  -0.00   0.00
  57   1    -0.02   0.04   0.01    -0.01   0.04  -0.01    -0.00  -0.23   0.00
  58   1    -0.03  -0.02  -0.01    -0.01  -0.02  -0.01     0.00  -0.12   0.01
  59   1    -0.02  -0.06  -0.02    -0.00  -0.09  -0.02    -0.00   0.16   0.01
  60   1     0.03   0.02   0.04    -0.01   0.01   0.01    -0.02  -0.01  -0.03
  61   1     0.03   0.02   0.04    -0.01   0.01   0.01    -0.02  -0.02  -0.03
  62   1     0.11  -0.07   0.05    -0.00  -0.04   0.01    -0.04   0.05  -0.03
  63   1    -0.03  -0.05  -0.05     0.05  -0.04   0.00    -0.00   0.04   0.02
  64   1    -0.00   0.08   0.07     0.00  -0.06   0.02    -0.00  -0.01  -0.04
  65   1     0.02   0.01   0.03    -0.02  -0.00  -0.00     0.01  -0.00  -0.00
  66   1     0.01   0.01   0.02    -0.02   0.01   0.01     0.00  -0.00  -0.00
  67   1    -0.05   0.01  -0.00     0.04   0.02   0.01    -0.03  -0.01   0.00
  68   1    -0.04   0.02  -0.00     0.04   0.01   0.00    -0.02  -0.01   0.00
  69   1     0.04   0.04   0.03    -0.06   0.03  -0.00     0.07  -0.00   0.04
  70   1    -0.04   0.01   0.02    -0.12   0.01  -0.01     0.02  -0.01   0.03
  71   1     0.02   0.03  -0.04    -0.09  -0.07  -0.03     0.07   0.03  -0.02
  72   1    -0.02   0.00   0.03     0.01   0.04   0.02    -0.02  -0.01   0.02
  73   1    -0.03  -0.01   0.01     0.03   0.04   0.01    -0.02  -0.02   0.01
  74   1     0.00  -0.00  -0.03     0.01  -0.19  -0.03    -0.00  -0.17  -0.01
  75   1     0.01   0.00  -0.01     0.00  -0.04  -0.02    -0.00  -0.11  -0.01
  76   1     0.00   0.01  -0.00     0.00   0.19   0.01    -0.01   0.08   0.01
  77   1     0.06  -0.01   0.00     0.00  -0.01  -0.00     0.01  -0.00   0.00
  78   1     0.05   0.00   0.01    -0.00  -0.00  -0.01     0.01  -0.00   0.00
                     25                     26                     27
                        a                      a                      a 
 Frequencies --   193.3967               197.9763               207.5067
 Red. masses --     9.8813                10.0207                 9.7438
 Frc consts  --     0.0000                 0.0000                 0.0000
 IR Inten    --     0.3484                 2.0833                 1.0363
 Raman Activ --     0.0000                 0.0000                 0.0000
 Depolar     --     0.0000                 0.0000                 0.0000
 Atom AN      X      Y      Z        X      Y      Z        X      Y      Z
   1   6     0.03   0.06   0.00     0.07   0.09   0.06    -0.06   0.04  -0.01
   2   8    -0.03  -0.05   0.15     0.07   0.05   0.00    -0.09  -0.04  -0.03
   3   6     0.04  -0.00  -0.05     0.06   0.02   0.04    -0.03  -0.07  -0.05
   4   6     0.07   0.02  -0.15     0.05   0.01   0.06    -0.03  -0.07  -0.03
   5   6     0.05   0.00  -0.09     0.04   0.03   0.04    -0.02  -0.07  -0.02
   6   6     0.02  -0.04   0.03     0.00   0.03   0.00     0.01  -0.07   0.00
   7   7     0.01  -0.07   0.09    -0.04   0.06  -0.02    -0.00  -0.04   0.01
   8   6     0.01  -0.01   0.05    -0.10  -0.05   0.06     0.01   0.01  -0.01
   9   6    -0.03   0.06   0.04    -0.11  -0.06   0.06     0.03   0.04   0.02
  10   6    -0.03   0.09   0.01    -0.13  -0.07   0.08     0.06   0.06   0.01
  11   6    -0.01   0.08   0.03    -0.13  -0.07   0.08     0.06   0.06   0.00
  12   8     0.03   0.04   0.10     0.01   0.05   0.03    -0.01   0.04   0.01
  13   6    -0.06   0.08   0.10     0.22  -0.04  -0.26    -0.10   0.07   0.15
  14   6    -0.04   0.05  -0.00    -0.13  -0.08   0.08     0.05   0.03  -0.01
  15   6    -0.02   0.01   0.03    -0.12  -0.05   0.08     0.02   0.01  -0.02
  16   6    -0.03  -0.09  -0.02    -0.04   0.13  -0.07     0.00   0.00   0.00
  17   6    -0.12  -0.22  -0.04    -0.02   0.07  -0.06    -0.00   0.10   0.00
  18   6    -0.14  -0.04  -0.08    -0.01  -0.11  -0.02    -0.01   0.03  -0.01
  19   6    -0.08   0.21  -0.15    -0.00  -0.09  -0.01     0.00  -0.12  -0.02
  20   6     0.02   0.04  -0.13    -0.01   0.05  -0.02     0.01  -0.06  -0.02
  21   6     0.01  -0.01  -0.09    -0.03   0.12   0.04     0.01  -0.02  -0.03
  22   7     0.06   0.02   0.05     0.03   0.10   0.14     0.02   0.06  -0.01
  23   6    -0.02   0.03   0.05     0.03   0.05   0.04    -0.06   0.15   0.04
  24   6    -0.10  -0.02   0.03    -0.00   0.05  -0.05    -0.08   0.15  -0.01
  25   6    -0.15  -0.02   0.02    -0.01   0.02  -0.10    -0.10   0.17  -0.04
  26   6    -0.11  -0.01   0.06     0.01   0.03  -0.08    -0.10   0.18  -0.05
  27   8     0.03  -0.02   0.11     0.08   0.08  -0.00     0.09   0.14  -0.12
  28   6     0.02  -0.26   0.10     0.00   0.12  -0.08     0.14  -0.19  -0.04
  29   6    -0.11  -0.01   0.03    -0.02   0.00  -0.06    -0.15   0.15  -0.03
  30   6    -0.05   0.00   0.04    -0.00   0.04   0.01    -0.09   0.18   0.01
  31   6     0.11   0.07   0.04     0.02   0.00   0.06    -0.02  -0.03  -0.03
  32   6     0.14   0.02   0.00     0.07  -0.09  -0.00    -0.01  -0.10   0.07
  33   6     0.15  -0.00  -0.02     0.06  -0.13  -0.04    -0.07  -0.14   0.11
  34   6     0.13   0.00   0.01     0.06  -0.12  -0.00    -0.06  -0.16   0.07
  35   8     0.04  -0.09   0.10     0.05  -0.07   0.17     0.06  -0.09  -0.03
  36   6    -0.13  -0.08  -0.02     0.21  -0.10   0.07     0.36  -0.09   0.14
  37   6     0.13   0.04  -0.03     0.05  -0.08  -0.08    -0.08  -0.10   0.05
  38   6     0.13   0.06   0.01     0.05  -0.02  -0.00    -0.03  -0.04  -0.01
  39   6    -0.03   0.14  -0.08    -0.15   0.16   0.03     0.04  -0.05  -0.03
  40   6    -0.02   0.11  -0.07    -0.17  -0.04  -0.05     0.04   0.00  -0.01
  41   6     0.01  -0.09  -0.11    -0.13  -0.13  -0.12     0.03   0.07   0.00
  42   6     0.03  -0.07  -0.11    -0.04   0.04  -0.08     0.01  -0.00  -0.01
  43   6     0.04  -0.02  -0.01     0.00   0.03   0.01     0.01  -0.08  -0.02
  44   6     0.05   0.00  -0.06     0.02   0.01   0.03     0.01  -0.06  -0.05
  45   1     0.04  -0.06  -0.09     0.02   0.05   0.04    -0.01  -0.01  -0.03
  46   1    -0.03  -0.01   0.10     0.01   0.04  -0.01    -0.04   0.01   0.04
  47   1     0.02   0.14  -0.03     0.03   0.01   0.03     0.00   0.05  -0.00
  48   1     0.02   0.01  -0.06     0.02   0.00   0.02    -0.00  -0.02  -0.01
  49   1     0.02   0.00  -0.04     0.01   0.02   0.02    -0.01  -0.03  -0.01
  50   1    -0.02   0.02   0.02    -0.03  -0.02   0.01     0.01   0.01   0.01
  51   1    -0.01   0.03   0.00    -0.04  -0.03   0.02     0.02   0.02   0.01
  52   1     0.00   0.05  -0.04     0.06  -0.05  -0.09    -0.03   0.03   0.09
  53   1     0.02  -0.02   0.08     0.11   0.06  -0.09    -0.07   0.00   0.03
  54   1    -0.09   0.06   0.06     0.07  -0.05  -0.10     0.00   0.03   0.05
  55   1    -0.01   0.02  -0.01    -0.04  -0.02   0.02     0.02   0.01  -0.01
  56   1    -0.00  -0.00   0.01    -0.04  -0.01   0.02     0.00   0.00  -0.01
  57   1    -0.04  -0.11  -0.00    -0.00   0.03  -0.03    -0.00   0.06   0.00
  58   1    -0.05  -0.02  -0.03     0.00  -0.07  -0.01    -0.01   0.03  -0.00
  59   1    -0.03   0.12  -0.07    -0.00  -0.05  -0.00     0.00  -0.06  -0.01
  60   1    -0.03  -0.02   0.01    -0.01   0.02  -0.02    -0.03   0.05  -0.01
  61   1    -0.05  -0.01   0.00    -0.01   0.00  -0.04    -0.04   0.04  -0.00
  62   1    -0.06  -0.05   0.02    -0.06   0.09  -0.07    -0.03  -0.01  -0.04
  63   1     0.09  -0.06   0.04     0.04   0.07   0.05     0.16  -0.04   0.01
  64   1    -0.01  -0.16   0.03     0.00  -0.05  -0.05     0.02  -0.18   0.00
  65   1    -0.04  -0.00   0.00    -0.01  -0.01  -0.02    -0.05   0.03  -0.02
  66   1    -0.01   0.00   0.01     0.00   0.01   0.01    -0.02   0.05  -0.00
  67   1     0.05   0.00  -0.00     0.04  -0.03  -0.00     0.01  -0.03   0.03
  68   1     0.05  -0.00  -0.01     0.02  -0.04  -0.02    -0.02  -0.05   0.05
  69   1    -0.09  -0.02  -0.06    -0.00  -0.08  -0.05     0.20  -0.05   0.13
  70   1     0.02  -0.00  -0.04     0.17  -0.05  -0.00     0.02  -0.06   0.08
  71   1    -0.07  -0.05   0.06     0.05   0.02   0.11     0.17   0.02  -0.07
  72   1     0.03   0.01  -0.02     0.01  -0.03  -0.04    -0.04  -0.02   0.02
  73   1     0.04   0.02   0.00     0.01  -0.00   0.00    -0.01  -0.01  -0.01
  74   1    -0.01   0.08  -0.02    -0.06   0.07   0.03     0.01  -0.02  -0.01
  75   1    -0.01   0.06  -0.02    -0.06  -0.03  -0.02     0.01   0.00  -0.00
  76   1    -0.00  -0.06  -0.04    -0.04  -0.08  -0.06     0.01   0.04   0.01
  77   1     0.01  -0.01   0.00     0.00   0.01   0.00     0.00  -0.02  -0.01
  78   1     0.02   0.01  -0.03     0.00  -0.00   0.01     0.01  -0.01  -0.02
                     28                     29                     30
                        a                      a                      a 
 Frequencies --   208.4352               224.7439               229.3417
 Red. masses --     9.2043                 3.8159                 3.7676
 Frc consts  --     0.0000                 0.0000                 0.0000
 IR Inten    --     5.7508                 0.4453                23.4333
 Raman Activ --     0.0000                 0.0000                 0.0000
 Depolar     --     0.0000                 0.0000                 0.0000
 Atom AN      X      Y      Z        X      Y      Z        X      Y      Z
   1   6     0.07  -0.24  -0.06    -0.03  -0.06  -0.04     0.03  -0.00  -0.01
   2   8     0.16   0.08   0.04    -0.02   0.00  -0.03     0.05   0.04  -0.04
   3   6    -0.02   0.18   0.09    -0.03   0.01  -0.03     0.02   0.04  -0.00
   4   6    -0.03   0.17   0.08    -0.03  -0.00  -0.01     0.01   0.03   0.01
   5   6    -0.03   0.15   0.05    -0.02  -0.02   0.01    -0.00   0.02   0.04
   6   6    -0.03   0.15   0.01    -0.01  -0.03   0.05    -0.03   0.00   0.06
   7   7     0.04   0.03   0.01     0.03  -0.04   0.02    -0.01   0.01  -0.00
   8   6     0.03  -0.03   0.03     0.10  -0.07   0.08     0.01   0.01  -0.02
   9   6    -0.04  -0.07  -0.06     0.05  -0.02   0.03     0.00  -0.01  -0.04
  10   6    -0.12  -0.08  -0.08     0.00   0.03  -0.03    -0.01  -0.02  -0.04
  11   6    -0.09  -0.10  -0.05    -0.00   0.03  -0.04     0.00  -0.03  -0.03
  12   8     0.04  -0.11  -0.02    -0.05   0.04  -0.07     0.01  -0.06  -0.02
  13   6     0.12  -0.13  -0.25    -0.06   0.03   0.01     0.00  -0.05  -0.03
  14   6    -0.08  -0.05  -0.02     0.07  -0.03   0.03     0.01  -0.01  -0.02
  15   6     0.02  -0.03   0.02     0.17  -0.11   0.13     0.01   0.01  -0.03
  16   6     0.03  -0.05   0.03     0.00   0.02  -0.04    -0.02  -0.01  -0.01
  17   6     0.01  -0.10   0.03     0.02   0.07  -0.04    -0.02  -0.01  -0.01
  18   6    -0.01   0.01  -0.01     0.03   0.01  -0.02    -0.01   0.02   0.01
  19   6     0.00   0.11  -0.03     0.02  -0.08  -0.00    -0.02   0.02   0.02
  20   6     0.02   0.01  -0.03     0.00  -0.01  -0.00    -0.02  -0.00   0.02
  21   6     0.03  -0.02  -0.05    -0.02  -0.01   0.02    -0.01  -0.01   0.03
  22   7     0.01  -0.03  -0.08    -0.02   0.03   0.06    -0.01   0.02   0.02
  23   6    -0.04   0.04  -0.00     0.01   0.01   0.03    -0.10  -0.01  -0.07
  24   6    -0.07   0.02   0.03     0.02   0.02  -0.01    -0.05   0.03  -0.06
  25   6    -0.10   0.05   0.04     0.04  -0.01  -0.04    -0.00   0.05  -0.02
  26   6    -0.09   0.06   0.04     0.04  -0.02  -0.03     0.02   0.07  -0.00
  27   8     0.01   0.02   0.00     0.01  -0.00  -0.02     0.10   0.10   0.03
  28   6     0.07  -0.24   0.07    -0.02   0.12  -0.05     0.05   0.03  -0.02
  29   6    -0.08   0.07   0.02     0.03  -0.03  -0.00    -0.08   0.02  -0.06
  30   6    -0.05   0.06  -0.01     0.02  -0.01   0.04    -0.17  -0.03  -0.14
  31   6    -0.01  -0.02  -0.05    -0.03   0.01   0.03     0.04   0.02   0.02
  32   6    -0.03  -0.01   0.02    -0.02  -0.00  -0.01     0.05  -0.02   0.04
  33   6    -0.05  -0.01   0.07    -0.01  -0.01  -0.04     0.04  -0.04   0.07
  34   6    -0.05  -0.01   0.03    -0.02  -0.01  -0.02     0.06  -0.05   0.04
  35   8     0.01  -0.01  -0.08    -0.02   0.03   0.01     0.06  -0.10   0.02
  36   6     0.06   0.00   0.03     0.03   0.01  -0.00     0.05  -0.09   0.04
  37   6    -0.05  -0.01   0.05    -0.02  -0.01  -0.01     0.05  -0.01   0.00
  38   6    -0.03  -0.02  -0.02    -0.03   0.00   0.02     0.06   0.01   0.01
  39   6     0.10   0.02  -0.04    -0.06  -0.12   0.01    -0.05  -0.01   0.02
  40   6     0.13   0.03   0.01    -0.08  -0.00  -0.01    -0.06   0.01   0.01
  41   6     0.11  -0.03   0.03    -0.05   0.16  -0.02    -0.05   0.01   0.00
  42   6     0.05  -0.04   0.02    -0.01   0.06  -0.03    -0.02   0.00   0.00
  43   6    -0.03   0.18   0.05    -0.01  -0.03   0.06    -0.04  -0.01   0.12
  44   6    -0.07   0.16   0.10    -0.01   0.01  -0.00    -0.02   0.02   0.05
  45   1    -0.02  -0.02   0.04    -0.03  -0.11  -0.13    -0.01  -0.15  -0.19
  46   1     0.11  -0.08  -0.10    -0.04  -0.08   0.13    -0.05  -0.09   0.22
  47   1    -0.04  -0.18  -0.02     0.03   0.12  -0.03     0.08   0.22  -0.03
  48   1    -0.02   0.05   0.02    -0.01   0.00  -0.01     0.00   0.01  -0.01
  49   1    -0.01   0.05   0.02    -0.01  -0.01  -0.00     0.00   0.01   0.01
  50   1    -0.00  -0.02  -0.04     0.00   0.00   0.01     0.01  -0.01  -0.01
  51   1    -0.04  -0.02  -0.03    -0.01   0.02  -0.02    -0.01  -0.00  -0.01
  52   1     0.06  -0.05  -0.24     0.06   0.02  -0.43    -0.00  -0.01   0.01
  53   1     0.17  -0.06   0.01     0.28  -0.21   0.29    -0.01  -0.00  -0.03
  54   1    -0.10  -0.01  -0.04    -0.38   0.20   0.18     0.02  -0.03  -0.02
  55   1    -0.04  -0.01  -0.01     0.00   0.00  -0.01     0.00  -0.00   0.00
  56   1     0.01  -0.01   0.01     0.06  -0.04   0.05     0.00   0.00  -0.01
  57   1    -0.00  -0.05   0.01     0.01   0.03  -0.01    -0.00  -0.01  -0.00
  58   1    -0.01   0.01  -0.00     0.01   0.01  -0.00     0.00   0.01   0.00
  59   1    -0.00   0.06  -0.02     0.01  -0.05   0.01    -0.01   0.01   0.01
  60   1    -0.02  -0.00   0.01     0.00   0.01  -0.01    -0.01   0.02  -0.01
  61   1    -0.03   0.01   0.02     0.01  -0.00  -0.02     0.01   0.02   0.01
  62   1    -0.00  -0.08   0.04    -0.03   0.08  -0.06     0.23  -0.27   0.24
  63   1     0.07  -0.08  -0.01     0.01   0.06   0.04    -0.27  -0.15  -0.31
  64   1     0.00  -0.10   0.04    -0.00  -0.01  -0.03     0.06   0.43   0.03
  65   1    -0.03   0.02   0.00     0.01  -0.02  -0.00    -0.01   0.01  -0.00
  66   1    -0.01   0.02  -0.01     0.00  -0.00   0.02    -0.06  -0.02  -0.06
  67   1    -0.01  -0.00   0.01    -0.00  -0.00  -0.00     0.03  -0.01   0.01
  68   1    -0.02  -0.00   0.03    -0.00  -0.01  -0.02     0.01  -0.01   0.02
  69   1     0.10   0.01   0.09    -0.03  -0.01  -0.04     0.02  -0.02   0.02
  70   1    -0.08  -0.00   0.04     0.07  -0.01  -0.01     0.01  -0.03   0.02
  71   1     0.05  -0.01  -0.09    -0.00   0.03   0.05     0.01  -0.02   0.01
  72   1    -0.02  -0.00   0.03    -0.00  -0.00  -0.01     0.01  -0.00  -0.01
  73   1    -0.01  -0.00  -0.01    -0.01   0.00   0.01     0.02   0.00   0.00
  74   1     0.04   0.02  -0.02    -0.02  -0.07   0.01    -0.02  -0.01   0.01
  75   1     0.05   0.02   0.00    -0.03  -0.01  -0.01    -0.02   0.00   0.00
  76   1     0.03  -0.01   0.02    -0.02   0.07  -0.01    -0.02   0.01  -0.00
  77   1    -0.00   0.05   0.01    -0.00  -0.01   0.03    -0.01  -0.01   0.04
  78   1    -0.03   0.03   0.04     0.00   0.01  -0.01    -0.00   0.01   0.00
                     31                     32                     33
                        a                      a                      a 
 Frequencies --   230.0455               237.0911               241.3581
 Red. masses --     4.1148                 5.0276                 8.9030
 Frc consts  --     0.0000                 0.0000                 0.0000
 IR Inten    --     1.0072                 4.5286                11.3746
 Raman Activ --     0.0000                 0.0000                 0.0000
 Depolar     --     0.0000                 0.0000                 0.0000
 Atom AN      X      Y      Z        X      Y      Z        X      Y      Z
   1   6    -0.05   0.06   0.04     0.05  -0.04   0.01     0.12   0.07   0.06
   2   8    -0.10  -0.08   0.05     0.06   0.02   0.10     0.09   0.01   0.13
   3   6    -0.01  -0.10  -0.01     0.03   0.07   0.03     0.08   0.05   0.03
   4   6    -0.00  -0.08  -0.02     0.03   0.06  -0.02     0.09   0.06  -0.02
   5   6     0.01  -0.04  -0.07     0.02   0.04  -0.00     0.04   0.07   0.00
   6   6     0.04  -0.01  -0.11    -0.00   0.03   0.01    -0.04   0.05   0.00
   7   7    -0.00   0.00  -0.02     0.01  -0.06   0.06    -0.04  -0.03   0.03
   8   6    -0.01  -0.03   0.05     0.03  -0.00  -0.02     0.02   0.00  -0.02
   9   6     0.01   0.01   0.08     0.02  -0.02  -0.04     0.03  -0.03  -0.03
  10   6     0.04   0.03   0.09     0.03  -0.01  -0.06     0.06  -0.03  -0.04
  11   6    -0.01   0.06   0.06     0.06  -0.03  -0.08     0.07  -0.04  -0.09
  12   8    -0.06   0.14   0.00     0.03  -0.10  -0.06    -0.00  -0.10  -0.10
  13   6    -0.01   0.10   0.06    -0.06  -0.06   0.03    -0.07  -0.06   0.02
  14   6     0.00   0.00   0.06     0.05   0.00  -0.08     0.08  -0.02  -0.07
  15   6     0.02  -0.04   0.10     0.04  -0.01  -0.08     0.07  -0.03  -0.06
  16   6     0.00   0.04  -0.02    -0.02  -0.10   0.06    -0.07  -0.14   0.03
  17   6     0.02  -0.02  -0.01    -0.10  -0.02   0.05    -0.16  -0.06   0.02
  18   6     0.02  -0.04  -0.00    -0.13   0.06  -0.01    -0.17   0.08   0.01
  19   6     0.02   0.04  -0.00    -0.11  -0.02  -0.03    -0.17   0.02   0.02
  20   6     0.01   0.06  -0.00    -0.04  -0.09  -0.02    -0.10  -0.14   0.04
  21   6     0.01   0.04   0.01    -0.03  -0.08  -0.04    -0.07  -0.13   0.02
  22   7     0.01   0.01  -0.00    -0.03   0.00   0.00    -0.04   0.01   0.07
  23   6    -0.04  -0.02  -0.05    -0.03   0.03   0.01    -0.05   0.04   0.05
  24   6    -0.03  -0.01  -0.02    -0.00   0.05  -0.01     0.01   0.08  -0.02
  25   6    -0.03   0.01   0.00     0.02   0.06  -0.01     0.08   0.05  -0.05
  26   6    -0.01   0.02   0.02     0.01   0.05  -0.03     0.07   0.02  -0.06
  27   8     0.04   0.04   0.05     0.03   0.05  -0.07     0.04   0.02  -0.11
  28   6     0.02  -0.03   0.02     0.04   0.03  -0.05     0.02   0.18  -0.12
  29   6    -0.05   0.01  -0.03    -0.02   0.03  -0.01     0.03  -0.01   0.01
  30   6    -0.08  -0.03  -0.09    -0.03   0.04  -0.00    -0.03   0.03   0.06
  31   6     0.01   0.01   0.00    -0.04   0.03   0.10     0.05   0.02  -0.01
  32   6     0.02  -0.01   0.02    -0.02  -0.01   0.06     0.07  -0.02  -0.01
  33   6     0.01  -0.01   0.04    -0.01  -0.03   0.01     0.09  -0.02  -0.02
  34   6     0.02  -0.02   0.02     0.00  -0.04  -0.03     0.11  -0.01   0.04
  35   8     0.02  -0.04  -0.00     0.03  -0.05  -0.08     0.05  -0.07   0.14
  36   6     0.02  -0.03   0.02     0.07  -0.04  -0.00    -0.06  -0.08   0.02
  37   6     0.01  -0.01  -0.00    -0.03  -0.00   0.06     0.11   0.00  -0.03
  38   6     0.02   0.00   0.00    -0.06   0.04   0.20     0.12  -0.01  -0.08
  39   6    -0.00   0.04   0.00     0.01  -0.12  -0.04    -0.14  -0.09   0.03
  40   6    -0.01  -0.01  -0.02     0.03   0.02   0.03    -0.15   0.10   0.06
  41   6    -0.00  -0.03  -0.03     0.01   0.11   0.07    -0.15   0.07   0.07
  42   6     0.01   0.04  -0.02    -0.02  -0.06   0.04    -0.10  -0.13   0.05
  43   6     0.06  -0.01  -0.20     0.02   0.08  -0.02    -0.01   0.08  -0.04
  44   6     0.03  -0.06  -0.10     0.01   0.07  -0.00     0.02   0.05  -0.02
  45   1     0.03   0.26   0.31     0.02   0.06   0.09     0.06   0.10   0.11
  46   1     0.06   0.16  -0.35     0.06   0.02  -0.11     0.06   0.07  -0.10
  47   1    -0.12  -0.33   0.05    -0.04  -0.12   0.01    -0.01  -0.09   0.03
  48   1     0.00  -0.03   0.01     0.00   0.02  -0.01     0.03   0.02  -0.01
  49   1     0.00  -0.02  -0.02     0.01   0.01   0.00     0.01   0.03   0.01
  50   1    -0.01   0.01   0.03     0.01  -0.01  -0.01     0.01  -0.01  -0.01
  51   1     0.01   0.01   0.03     0.01   0.01  -0.01     0.02   0.00  -0.00
  52   1     0.03   0.02  -0.15    -0.02   0.00   0.06    -0.02  -0.01  -0.01
  53   1     0.12  -0.06   0.13    -0.07  -0.02  -0.02    -0.02  -0.05   0.03
  54   1    -0.14   0.11   0.09     0.02  -0.02  -0.00    -0.04   0.01   0.03
  55   1    -0.01   0.00  -0.00     0.02   0.00  -0.02     0.02  -0.00  -0.02
  56   1     0.01  -0.01   0.03     0.01  -0.01  -0.03     0.02  -0.02  -0.02
  57   1     0.01  -0.02  -0.01    -0.04   0.01   0.03    -0.05  -0.01   0.02
  58   1     0.01  -0.03  -0.00    -0.05   0.05  -0.00    -0.05   0.07   0.00
  59   1     0.01   0.01   0.00    -0.03   0.01  -0.02    -0.05   0.04  -0.00
  60   1    -0.01  -0.00  -0.00    -0.00   0.02  -0.01    -0.01   0.04  -0.02
  61   1    -0.00   0.00   0.01     0.01   0.02   0.00     0.03   0.02  -0.02
  62   1     0.12  -0.17   0.15     0.01   0.01  -0.01    -0.00   0.10  -0.08
  63   1    -0.15  -0.10  -0.17     0.01   0.01  -0.02     0.01   0.08   0.03
  64   1     0.03   0.22   0.03     0.01   0.01  -0.01     0.01   0.02  -0.05
  65   1    -0.00   0.01   0.00    -0.01   0.00  -0.00     0.01  -0.02   0.00
  66   1    -0.03  -0.01  -0.03    -0.01   0.01  -0.00    -0.01   0.00   0.02
  67   1     0.01  -0.00   0.00     0.00  -0.01   0.01     0.03  -0.01  -0.00
  68   1     0.00  -0.00   0.01     0.00  -0.01  -0.01     0.02   0.00  -0.01
  69   1     0.01  -0.01   0.01    -0.27  -0.03  -0.31     0.14  -0.01   0.17
  70   1     0.00  -0.01   0.01     0.43  -0.11  -0.07    -0.25   0.05   0.04
[...]
 Frc consts  --     0.0000                 0.0000                 0.0000
 IR Inten    --     5.4146                77.3250                27.2110
 Raman Activ --     0.0000                 0.0000                 0.0000
 Depolar     --     0.0000                 0.0000                 0.0000
 Atom AN      X      Y      Z        X      Y      Z        X      Y      Z
   1   6     0.00  -0.00   0.00     0.00  -0.00  -0.00    -0.00  -0.00  -0.00
   2   8    -0.00  -0.00  -0.00     0.00  -0.00  -0.00     0.00   0.00   0.00
   3   6    -0.00  -0.00  -0.00    -0.00  -0.00  -0.00     0.00  -0.00   0.00
   4   6     0.00  -0.02  -0.01     0.00  -0.02  -0.01     0.00  -0.00  -0.00
   5   6     0.01  -0.00   0.00     0.01  -0.00   0.00     0.00  -0.00   0.00
   6   6    -0.00   0.00  -0.00     0.00   0.00   0.00    -0.00   0.00   0.00
   7   7    -0.00  -0.00   0.00    -0.00  -0.00   0.00    -0.00  -0.00   0.00
   8   6    -0.00  -0.00   0.00     0.00  -0.00  -0.00     0.00  -0.00  -0.00
   9   6     0.00   0.01   0.00    -0.02  -0.03  -0.00    -0.05  -0.09  -0.00
  10   6     0.03   0.01  -0.02    -0.06  -0.01   0.05    -0.17  -0.04   0.16
  11   6     0.00  -0.00  -0.00    -0.00   0.00   0.00    -0.00   0.00   0.00
  12   8     0.00   0.00   0.00    -0.00  -0.00  -0.00    -0.00  -0.00  -0.00
  13   6     0.00  -0.00  -0.00    -0.00   0.00   0.00    -0.00   0.00   0.00
  14   6     0.01   0.02   0.00    -0.01  -0.01  -0.00    -0.02  -0.04  -0.00
  15   6    -0.00  -0.00   0.00    -0.00  -0.00   0.00    -0.01  -0.00   0.01
  16   6     0.00  -0.00  -0.00     0.00  -0.00  -0.00     0.00  -0.00   0.00
  17   6     0.02  -0.00   0.01     0.00  -0.00   0.00     0.00   0.00   0.00
  18   6    -0.01   0.00   0.05    -0.00   0.00   0.01    -0.00   0.00   0.00
  19   6    -0.17   0.00   0.08    -0.02   0.00   0.01    -0.01   0.00   0.00
  20   6    -0.01   0.00  -0.00    -0.00   0.00  -0.00    -0.00   0.00  -0.00
  21   6    -0.00  -0.00   0.00    -0.00  -0.00  -0.00    -0.00  -0.00   0.00
  22   7     0.00  -0.00  -0.00    -0.00  -0.00   0.00     0.00  -0.00  -0.00
  23   6     0.00  -0.00  -0.00     0.00   0.00  -0.00    -0.00   0.00  -0.00
  24   6    -0.01   0.00   0.01     0.00   0.00  -0.00     0.01  -0.00  -0.01
  25   6    -0.02   0.04   0.00    -0.00   0.00   0.00     0.01  -0.02  -0.00
  26   6     0.00   0.00  -0.00     0.00   0.00  -0.00    -0.00  -0.00   0.00
  27   8    -0.00   0.00   0.00    -0.00   0.00  -0.00     0.00  -0.00  -0.00
  28   6    -0.00   0.00   0.00     0.00  -0.00   0.00     0.00  -0.00  -0.00
  29   6    -0.01   0.00   0.01     0.00  -0.00  -0.00    -0.00   0.00   0.00
  30   6     0.00  -0.00  -0.00    -0.00   0.00   0.00     0.00  -0.00  -0.00
  31   6    -0.00   0.00   0.00     0.00  -0.00   0.00    -0.00   0.00  -0.00
  32   6     0.00   0.01  -0.00    -0.03  -0.12   0.02     0.01   0.04  -0.01
  33   6     0.02   0.01   0.00    -0.21  -0.07  -0.05     0.07   0.03   0.02
  34   6     0.00  -0.00   0.00    -0.00   0.00  -0.00     0.00  -0.00   0.00
  35   8     0.00  -0.00   0.00     0.00  -0.00   0.00    -0.00   0.00  -0.00
  36   6     0.00   0.00  -0.00    -0.00   0.00  -0.00     0.00  -0.00   0.00
  37   6    -0.00  -0.01   0.00    -0.01  -0.04   0.01     0.00   0.02  -0.00
  38   6     0.00   0.00   0.00    -0.01  -0.00  -0.00     0.00   0.00   0.00
  39   6    -0.02   0.00  -0.01    -0.00   0.00  -0.00    -0.00  -0.00  -0.00
  40   6     0.01   0.01  -0.05     0.00   0.00  -0.01     0.00   0.00  -0.01
  41   6     0.15   0.01  -0.07     0.02   0.00  -0.01     0.04   0.00  -0.02
  42   6     0.01   0.00   0.00     0.00   0.00   0.00     0.00  -0.00   0.00
  43   6     0.00  -0.00  -0.00    -0.00   0.00   0.00    -0.00   0.00   0.00
  44   6    -0.00   0.00  -0.00     0.00  -0.00   0.00     0.01  -0.00   0.00
  45   1    -0.00   0.00  -0.00    -0.00   0.00  -0.00    -0.00   0.00  -0.00
  46   1    -0.00  -0.00  -0.00     0.00   0.00   0.00     0.00   0.00   0.00
  47   1    -0.00   0.00   0.00    -0.00   0.00   0.00    -0.00   0.00   0.00
  48   1    -0.02   0.07   0.02    -0.01   0.06   0.02    -0.00   0.01   0.00
  49   1    -0.02   0.01  -0.00    -0.03   0.01  -0.00    -0.01   0.00  -0.00
  50   1    -0.01  -0.02  -0.00     0.06   0.09   0.00     0.17   0.28   0.00
  51   1    -0.09  -0.02   0.09     0.20   0.04  -0.19     0.59   0.13  -0.55
  52   1    -0.00   0.00  -0.00     0.00  -0.00   0.00     0.00  -0.00   0.00
  53   1    -0.00   0.00   0.00     0.00  -0.00  -0.00     0.00  -0.00  -0.00
  54   1     0.00  -0.00   0.00    -0.00   0.00  -0.00    -0.00   0.00  -0.00
  55   1    -0.04  -0.06  -0.00     0.02   0.03   0.00     0.09   0.14   0.00
  56   1     0.01   0.00  -0.01     0.01   0.00  -0.01     0.04   0.01  -0.03
  57   1    -0.07   0.00  -0.05    -0.01   0.00  -0.01    -0.00  -0.00  -0.00
  58   1     0.02  -0.00  -0.16     0.00  -0.00  -0.02     0.00  -0.00  -0.01
  59   1     0.60  -0.01  -0.27     0.07  -0.00  -0.03     0.03  -0.00  -0.01
  60   1     0.03  -0.00  -0.03    -0.00  -0.00   0.00    -0.02   0.00   0.02
  61   1     0.08  -0.13  -0.01     0.01  -0.01  -0.00    -0.04   0.06   0.00
  62   1    -0.00  -0.00  -0.00    -0.00   0.00   0.00     0.00   0.00   0.00
  63   1     0.00  -0.00   0.00    -0.00   0.00  -0.00     0.00   0.00  -0.00
  64   1     0.00  -0.00   0.00    -0.00   0.00  -0.00    -0.00   0.00  -0.00
  65   1     0.05  -0.01  -0.04    -0.01   0.00   0.01     0.00  -0.00  -0.00
  66   1    -0.01   0.01   0.00     0.01  -0.01  -0.00    -0.00   0.00   0.00
  67   1    -0.01  -0.03   0.01     0.09   0.39  -0.06    -0.03  -0.13   0.02
  68   1    -0.07  -0.02  -0.01     0.73   0.26   0.16    -0.25  -0.09  -0.05
  69   1    -0.00  -0.00   0.00     0.00   0.00  -0.00    -0.00  -0.00   0.00
  70   1    -0.00  -0.00  -0.00     0.00   0.00   0.00    -0.00  -0.00  -0.00
  71   1     0.00  -0.00   0.00     0.00  -0.00   0.00    -0.00   0.00  -0.00
  72   1     0.01   0.02  -0.00     0.04   0.15  -0.03    -0.01  -0.06   0.01
  73   1    -0.01  -0.00  -0.00     0.02   0.01   0.00    -0.01  -0.00  -0.00
  74   1     0.06  -0.00   0.05     0.00  -0.00   0.00     0.01  -0.00   0.01
  75   1    -0.02  -0.02   0.15    -0.00  -0.00   0.02    -0.00  -0.00   0.02
  76   1    -0.55  -0.05   0.25    -0.07  -0.01   0.03    -0.13  -0.01   0.06
  77   1    -0.00   0.00   0.00     0.00  -0.01  -0.00     0.00  -0.01  -0.00
  78   1     0.01  -0.00   0.00    -0.00   0.00  -0.00    -0.02   0.01  -0.00
                    223                    224                    225
                        a                      a                      a 
 Frequencies --  3102.6929              3103.1980              3105.9990
 Red. masses --     1.8697                 1.8709                 1.8560
 Frc consts  --     0.0000                 0.0000                 0.0000
 IR Inten    --    58.3015                33.1869                52.7304
 Raman Activ --     0.0000                 0.0000                 0.0000
 Depolar     --     0.0000                 0.0000                 0.0000
 Atom AN      X      Y      Z        X      Y      Z        X      Y      Z
   1   6     0.00  -0.00  -0.00    -0.00  -0.00  -0.00    -0.00  -0.00   0.00
   2   8     0.00  -0.00   0.00     0.00   0.00   0.00     0.00   0.00   0.00
   3   6    -0.00  -0.00  -0.00    -0.00  -0.00  -0.00     0.00   0.00   0.00
   4   6     0.01  -0.04  -0.01     0.05  -0.22  -0.07     0.00  -0.00  -0.00
   5   6     0.02  -0.01   0.00     0.11  -0.04   0.02     0.00  -0.00   0.00
   6   6     0.00   0.00   0.00     0.00   0.00   0.00    -0.00   0.00  -0.00
   7   7     0.00  -0.00  -0.00     0.00  -0.00  -0.00     0.00  -0.00  -0.00
   8   6    -0.00   0.00   0.00    -0.00   0.00   0.00     0.00   0.00   0.00
   9   6     0.00   0.01   0.00     0.00   0.00   0.00     0.00   0.00   0.00
  10   6     0.02   0.00  -0.02     0.00   0.00  -0.00     0.00   0.00  -0.00
  11   6     0.00  -0.00  -0.00     0.00  -0.00  -0.00     0.00  -0.00  -0.00
  12   8    -0.00   0.00   0.00     0.00  -0.00  -0.00    -0.00  -0.00  -0.00
  13   6     0.00  -0.00  -0.00    -0.00   0.00   0.00    -0.00   0.00   0.00
  14   6     0.00   0.01   0.00    -0.00  -0.01  -0.00    -0.02  -0.03  -0.00
  15   6     0.00   0.00  -0.00    -0.00  -0.00   0.00    -0.01  -0.00   0.01
  16   6     0.00  -0.00  -0.00    -0.00  -0.00   0.00    -0.00  -0.00   0.00
  17   6     0.01  -0.00   0.00    -0.01   0.00  -0.00    -0.00   0.00  -0.00
  18   6    -0.00   0.00   0.01     0.00  -0.00  -0.01    -0.00   0.00  -0.00
  19   6    -0.04   0.00   0.02     0.02  -0.00  -0.01    -0.00   0.00   0.00
  20   6    -0.00   0.00  -0.00     0.00  -0.00   0.00    -0.00  -0.00   0.00
  21   6    -0.00  -0.00   0.00     0.00   0.00  -0.00    -0.00   0.00  -0.00
  22   7     0.00  -0.00   0.00    -0.00   0.00   0.00     0.00   0.00  -0.00
  23   6    -0.00   0.00  -0.00     0.00  -0.00   0.00    -0.00  -0.00   0.00
  24   6     0.09  -0.01  -0.09    -0.02   0.00   0.01    -0.03   0.00   0.03
  25   6     0.11  -0.19  -0.01    -0.02   0.03   0.00    -0.04   0.06   0.01
  26   6    -0.00  -0.00   0.00     0.00   0.00  -0.00     0.00   0.01  -0.01
  27   8     0.00   0.00  -0.00    -0.00  -0.00   0.00     0.00  -0.00  -0.00
  28   6     0.00  -0.00   0.00    -0.00   0.00  -0.00     0.00  -0.00  -0.00
  29   6     0.06  -0.01  -0.05    -0.02   0.00   0.02     0.18  -0.03  -0.17
  30   6     0.01  -0.02  -0.00    -0.00   0.01   0.00     0.04  -0.07  -0.01
  31   6    -0.00   0.00  -0.00    -0.00  -0.00  -0.00     0.00  -0.00   0.00
  32   6     0.00   0.00  -0.00     0.00   0.01  -0.00     0.00   0.00  -0.00
  33   6     0.00   0.00   0.00     0.01   0.00   0.00     0.00   0.00   0.00
  34   6    -0.00  -0.00   0.00     0.00  -0.00   0.00    -0.00  -0.00  -0.00
  35   8     0.00  -0.00   0.00    -0.00   0.00  -0.00    -0.00   0.00  -0.00
  36   6    -0.00   0.00  -0.00    -0.00  -0.00   0.00     0.00  -0.00   0.00
  37   6    -0.00  -0.01   0.00     0.00   0.01  -0.00     0.00   0.01  -0.00
  38   6     0.00   0.00   0.00     0.00   0.00   0.00     0.00   0.00   0.00
  39   6    -0.00   0.00  -0.00     0.00  -0.00   0.00     0.00   0.00   0.00
  40   6     0.00   0.00  -0.00    -0.00  -0.00   0.01    -0.00  -0.00   0.00
  41   6     0.01   0.00  -0.00    -0.02  -0.00   0.01     0.00   0.00  -0.00
  42   6     0.00   0.00   0.00    -0.00  -0.00  -0.00     0.00  -0.00   0.00
  43   6     0.00  -0.00  -0.00     0.00  -0.01  -0.00     0.00  -0.01  -0.00
  44   6     0.00  -0.00   0.00     0.05  -0.02   0.01     0.02  -0.01   0.00
  45   1    -0.00   0.00  -0.00    -0.00   0.00  -0.00    -0.00   0.00   0.00
  46   1     0.00   0.00   0.00     0.00   0.00   0.00     0.00   0.00   0.00
  47   1    -0.00   0.00   0.00    -0.00   0.00   0.00     0.00   0.00  -0.00
  48   1    -0.04   0.15   0.04    -0.18   0.77   0.23    -0.00   0.01   0.00
  49   1    -0.07   0.03  -0.01    -0.37   0.14  -0.06    -0.01   0.00  -0.00
  50   1    -0.02  -0.03  -0.00    -0.01  -0.01   0.00    -0.00  -0.00   0.00
  51   1    -0.06  -0.01   0.05    -0.01  -0.00   0.01    -0.00  -0.00   0.00
  52   1    -0.00  -0.00  -0.00     0.00  -0.00   0.00     0.00  -0.00   0.00
  53   1    -0.00   0.00   0.00     0.00  -0.00  -0.00     0.00  -0.00  -0.00
  54   1    -0.00  -0.00  -0.00    -0.00   0.00  -0.00     0.00   0.00  -0.00
  55   1    -0.01  -0.02  -0.00     0.01   0.02   0.00     0.06   0.10   0.00
  56   1    -0.01  -0.00   0.01     0.00   0.00  -0.00     0.03   0.01  -0.02
  57   1    -0.02   0.00  -0.01     0.02  -0.00   0.01     0.00  -0.00   0.00
  58   1     0.01  -0.00  -0.04    -0.00   0.00   0.02    -0.00   0.00   0.00
  59   1     0.15  -0.00  -0.07    -0.06   0.00   0.03     0.02  -0.00  -0.01
  60   1    -0.30   0.04   0.28     0.05  -0.01  -0.05     0.10  -0.01  -0.09
  61   1    -0.40   0.66   0.04     0.07  -0.11  -0.01     0.14  -0.22  -0.02
  62   1     0.00   0.00   0.00    -0.00  -0.00  -0.00     0.00   0.01   0.01
  63   1    -0.00   0.00  -0.00     0.00  -0.00   0.00    -0.00   0.01  -0.00
  64   1    -0.00   0.00  -0.00     0.00  -0.00   0.00    -0.01   0.00  -0.00
  65   1    -0.20   0.03   0.19     0.06  -0.01  -0.05    -0.64   0.09   0.58
  66   1    -0.03   0.06   0.01     0.01  -0.02  -0.00    -0.13   0.21   0.02
  67   1    -0.00  -0.00   0.00    -0.01  -0.02   0.00    -0.00  -0.01   0.00
  68   1    -0.00  -0.00  -0.00    -0.04  -0.02  -0.01    -0.01  -0.00  -0.00
  69   1     0.00   0.00  -0.00     0.00  -0.00  -0.00    -0.00  -0.00   0.00
  70   1     0.00   0.00   0.00    -0.00   0.00   0.00    -0.00  -0.00  -0.00
  71   1     0.00  -0.00   0.00    -0.00   0.00  -0.00    -0.00   0.00  -0.00
  72   1     0.01   0.02  -0.00    -0.01  -0.03   0.00    -0.01  -0.02   0.00
  73   1    -0.00  -0.00  -0.00    -0.00  -0.00  -0.00    -0.00  -0.00  -0.00
  74   1     0.01  -0.00   0.01    -0.01   0.00  -0.01    -0.00   0.00  -0.00
  75   1    -0.00  -0.00   0.01     0.00   0.00  -0.02     0.00   0.00  -0.00
  76   1    -0.02  -0.00   0.01     0.07   0.01  -0.03    -0.00  -0.00   0.00
  77   1    -0.00   0.00   0.00    -0.01   0.03   0.01    -0.00   0.02   0.00
  78   1    -0.02   0.01  -0.00    -0.18   0.07  -0.03    -0.06   0.02  -0.01
                    226                    227                    228
                        a                      a                      a 
 Frequencies --  3107.1242              3107.8679              3108.3336
 Red. masses --     1.8570                 1.8533                 1.8540
 Frc consts  --     0.0000                 0.0000                 0.0000
 IR Inten    --    51.6558                63.5532                27.4655
 Raman Activ --     0.0000                 0.0000                 0.0000
 Depolar     --     0.0000                 0.0000                 0.0000
 Atom AN      X      Y      Z        X      Y      Z        X      Y      Z
   1   6     0.00   0.00   0.00     0.00  -0.00  -0.00    -0.00   0.00   0.00
   2   8    -0.00  -0.00  -0.00     0.00  -0.00   0.00    -0.00   0.00   0.00
   3   6    -0.00  -0.00  -0.00     0.00   0.00   0.00    -0.01  -0.01  -0.00
   4   6    -0.00   0.00   0.00    -0.00   0.01   0.00     0.01  -0.05  -0.01
   5   6    -0.00   0.00  -0.00    -0.01   0.00  -0.00     0.02  -0.01   0.00
   6   6     0.00   0.00   0.00    -0.00  -0.00  -0.00     0.00   0.00   0.00
   7   7    -0.00  -0.00  -0.00     0.00   0.00  -0.00    -0.00  -0.00  -0.00
   8   6     0.00   0.00   0.00    -0.00  -0.00  -0.00     0.00  -0.00  -0.00
   9   6     0.01   0.02  -0.00    -0.00  -0.00   0.00    -0.00  -0.01   0.00
  10   6     0.04   0.01  -0.03    -0.01  -0.00   0.01    -0.01  -0.00   0.01
  11   6     0.00  -0.01  -0.01    -0.00   0.00   0.00    -0.00   0.00   0.00
  12   8    -0.00  -0.00   0.00     0.00  -0.00  -0.00     0.00  -0.00  -0.00
  13   6    -0.00  -0.00   0.00     0.00   0.00  -0.00     0.00   0.00  -0.00
  14   6    -0.13  -0.21  -0.00     0.02   0.03   0.00     0.01   0.02   0.00
  15   6    -0.07  -0.02   0.06     0.01   0.00  -0.01     0.01   0.00  -0.01
  16   6     0.00  -0.00  -0.00    -0.00   0.00   0.00    -0.00  -0.00  -0.00
  17   6     0.00  -0.00   0.00    -0.00   0.00  -0.00    -0.00   0.00  -0.00
  18   6    -0.00   0.00   0.00     0.00  -0.00  -0.00     0.00  -0.00  -0.00
  19   6    -0.00   0.00   0.00     0.01  -0.00  -0.00     0.01  -0.00  -0.00
  20   6    -0.00   0.00   0.00     0.00  -0.00   0.00     0.00   0.00  -0.00
  21   6    -0.00  -0.00   0.00     0.00  -0.00   0.00     0.00   0.00  -0.00
  22   7     0.00  -0.00   0.00     0.00  -0.00   0.00    -0.00  -0.00   0.00
  23   6     0.00   0.00  -0.00     0.00   0.00  -0.00    -0.00  -0.00   0.00
  24   6     0.00  -0.00  -0.00    -0.00   0.00   0.00    -0.00   0.00   0.00
  25   6     0.01  -0.01  -0.00    -0.00   0.00   0.00    -0.01   0.01   0.00
  26   6    -0.00  -0.00   0.00     0.00   0.00  -0.00     0.00   0.00  -0.00
  27   8    -0.00   0.00  -0.00     0.00  -0.00   0.00     0.00  -0.00   0.00
  28   6    -0.00   0.00   0.00    -0.00   0.00  -0.00     0.00  -0.00  -0.00
  29   6    -0.02   0.00   0.02     0.00  -0.00  -0.00     0.01  -0.00  -0.01
  30   6    -0.00   0.01   0.00     0.00  -0.00  -0.00     0.00  -0.01  -0.00
  31   6    -0.00   0.00  -0.00    -0.00   0.00  -0.00    -0.00   0.00  -0.00
  32   6     0.00   0.00  -0.00     0.01   0.02  -0.00     0.00   0.01  -0.00
  33   6     0.00   0.00   0.00     0.04   0.01   0.01     0.02   0.01   0.00
  34   6     0.00  -0.00   0.00     0.01  -0.01   0.00     0.00  -0.00   0.00
  35   8     0.00  -0.00   0.00    -0.00  -0.00  -0.00    -0.00  -0.00  -0.00
  36   6    -0.00  -0.00  -0.00    -0.00  -0.00  -0.00    -0.00  -0.00  -0.00
  37   6    -0.01  -0.05   0.01    -0.06  -0.23   0.04    -0.02  -0.08   0.01
  38   6    -0.01  -0.01  -0.00    -0.07  -0.03  -0.01    -0.02  -0.01  -0.00
  39   6    -0.00   0.00  -0.00     0.00   0.00   0.00     0.00  -0.00   0.00
  40   6     0.00   0.00  -0.00    -0.00  -0.00   0.00    -0.00  -0.00   0.00
  41   6     0.01   0.00  -0.00    -0.00  -0.00   0.00    -0.01  -0.00   0.00
  42   6     0.00   0.00   0.00    -0.00   0.00   0.00    -0.00  -0.00  -0.00
  43   6    -0.00   0.00   0.00     0.01  -0.03  -0.01    -0.02   0.07   0.02
  44   6    -0.02   0.01  -0.00     0.08  -0.03   0.01    -0.22   0.09  -0.03
  45   1     0.00  -0.00   0.00    -0.00   0.00  -0.00     0.00  -0.01   0.00
  46   1    -0.00  -0.00  -0.00     0.00   0.00   0.00    -0.00  -0.00  -0.00
  47   1     0.00  -0.00  -0.00    -0.00   0.00   0.00     0.00  -0.00  -0.01
  48   1     0.00  -0.00  -0.00     0.01  -0.04  -0.01    -0.04   0.16   0.05
  49   1     0.01  -0.00   0.00     0.02  -0.01   0.00    -0.08   0.03  -0.01
  50   1    -0.04  -0.06  -0.00     0.01   0.01   0.00     0.01   0.02   0.00
  51   1    -0.12  -0.03   0.11     0.02   0.01  -0.02     0.03   0.01  -0.02
  52   1     0.01  -0.00   0.00    -0.00   0.00  -0.00    -0.00   0.00  -0.00
  53   1     0.00  -0.00  -0.00    -0.00   0.00   0.00    -0.00  -0.00   0.00
  54   1     0.00   0.00  -0.01     0.00  -0.00   0.00    -0.00  -0.00   0.00
  55   1     0.46   0.74   0.01    -0.07  -0.11  -0.00    -0.05  -0.08  -0.00
  56   1     0.21   0.05  -0.19    -0.03  -0.01   0.03    -0.03  -0.01   0.02
  57   1    -0.01   0.00  -0.01     0.01  -0.00   0.01     0.00  -0.00   0.00
  58   1     0.00  -0.00  -0.01    -0.00   0.00   0.01    -0.00   0.00   0.01
  59   1     0.01  -0.00  -0.00    -0.03   0.00   0.01    -0.02   0.00   0.01
  60   1    -0.01   0.00   0.01     0.01  -0.00  -0.01     0.02  -0.00  -0.01
  61   1    -0.02   0.03   0.00     0.01  -0.01  -0.00     0.02  -0.03  -0.00
  62   1    -0.00  -0.00  -0.00    -0.00  -0.00  -0.00     0.00   0.00   0.00
  63   1     0.00  -0.00   0.00     0.00  -0.00   0.00    -0.00   0.00   0.00
  64   1     0.00  -0.00   0.00     0.00  -0.00   0.00    -0.00   0.00  -0.00
  65   1     0.07  -0.01  -0.06    -0.01   0.00   0.01    -0.05   0.01   0.04
  66   1     0.02  -0.02  -0.00    -0.00   0.00   0.00    -0.01   0.02   0.00
  67   1    -0.00  -0.00   0.00    -0.02  -0.07   0.01    -0.01  -0.03   0.01
  68   1    -0.01  -0.00  -0.00    -0.12  -0.05  -0.03    -0.06  -0.02  -0.01
  69   1     0.00   0.00  -0.00     0.01   0.00  -0.00     0.00   0.00  -0.00
  70   1     0.00   0.00   0.00     0.00   0.00   0.01     0.00   0.00   0.00
  71   1     0.00  -0.00   0.00     0.01  -0.00   0.00     0.00  -0.00   0.00
  72   1     0.04   0.16  -0.03     0.21   0.81  -0.14     0.07   0.27  -0.05
  73   1     0.04   0.02   0.01     0.22   0.08   0.04     0.07   0.03   0.02
  74   1     0.01  -0.00   0.01    -0.01  -0.00  -0.00    -0.01   0.00  -0.01
  75   1    -0.00  -0.00   0.01     0.00   0.00  -0.01     0.00   0.00  -0.01
  76   1    -0.04  -0.00   0.02     0.01   0.00  -0.00     0.03   0.00  -0.01
  77   1     0.00  -0.02  -0.00    -0.02   0.08   0.02     0.06  -0.23  -0.06
  78   1     0.06  -0.02   0.01    -0.28   0.11  -0.04     0.78  -0.31   0.12
