$hessian                                                                        
        0.4671296291  -0.0064803799   0.0194313622  -0.1802488508  -0.0193315115
        0.0456680702  -0.0217987652   0.0041003364   0.0065978902   0.0004819482
       -0.0001862447   0.0000292224   0.0001049056  -0.0000519536   0.0002041514
       -0.0000065717  -0.0000763456   0.0000091939  -0.0000128002   0.0000089578
       -0.0000468962   0.0000253277   0.0000090760   0.0000270303   0.0000025951
       -0.0000089700  -0.0000107255  -0.0000077355   0.0000073433  -0.0000015696
       -0.0000018718  -0.0000035779  -0.0000004582  -0.0000009060   0.0000035796
       -0.0000008307  -0.0000014629   0.0000005078  -0.0000004945  -0.0000044801
       -0.0000022382   0.0000010287  -0.0000005224   0.0000002640   0.0000010439
        0.0000019922   0.0000000315  -0.0000014941   0.0000003841   0.0000010880
        0.0000015419  -0.0000002242   0.0000006599   0.0000003884   0.0000003428
        0.0000003205   0.0000000072  -0.0000001054   0.0000008105   0.0000011453
       -0.0000006067   0.0000002350   0.0000008181  -0.0000004323   0.0000004232
        0.0000011106   0.0000000800   0.0000033501  -0.0000018446  -0.0000002170
       -0.0000070392   0.0000025897  -0.0000030434  -0.0000089492  -0.0000027947
        0.0000005167   0.0000102540   0.0000027349   0.0000119651   0.0000078348
        0.0000053091  -0.0000054048   0.0000008899  -0.0000029938   0.0000031415
       -0.0000064210  -0.0000004138  -0.0000072961   0.0000008504  -0.0000031348
        0.0000010398   0.0000018140  -0.0000002383  -0.0000008626  -0.0000018186
       -0.0000008337  -0.0000000483   0.0000002664  -0.0000004458   0.0000001102
        0.0000012260   0.0000016289  -0.0000020956  -0.0000027937  -0.0000018016
        0.0000002622   0.0000005405   0.0000002614  -0.0000004915  -0.0000005153
        0.0000005303  -0.0000001944  -0.0000005237  -0.0000009156  -0.0000000844
       -0.0000013148   0.0000031639  -0.0000007296   0.0000002112  -0.0000041013
       -0.0000064435  -0.0000009549  -0.0000035474   0.0000198524   0.0000062890
       -0.0000053041  -0.0000112312  -0.0000032211  -0.0000084990  -0.0900328732
       -0.0807413333  -0.0502936866  -0.0427465443   0.0013924274  -0.0093000342
       -0.1087366419   0.1056491758  -0.0214459733  -0.0194683693  -0.0057166453
        0.0053057488  -0.0032491210  -0.0007301342   0.0041300627  -0.0019226645
        0.0029776851   0.0000611666   0.0011392900  -0.0009663723  -0.0003791248
       -0.0005020281   0.0001926055   0.0000273689  -0.0000080940  -0.0001247611
        0.0001697449  -0.0001085093   0.0000587683  -0.0001673198  -0.0000252597
        0.0000011859   0.0000070013   0.0000512289  -0.0000025326   0.0000184060
       -0.0000514243   0.0000131348  -0.0000395912  -0.0000035148  -0.0000056050
        0.0000048995  -0.0000038518  -0.0000012133   0.0000009813   0.0000003707
       -0.0000013841   0.0000002540  -0.0000005366  -0.0000001369   0.0000005068
        0.0000002786  -0.0000000839  -0.0000004277  -0.0000006635  -0.0000000972
        0.0000004261  -0.0000001155  -0.0000002936   0.0000001708   0.0000008310
       -0.0000000510   0.0000007476   0.0000004711  -0.0000000246   0.0000004169
       -0.0000003319   0.0000000039   0.0000008264  -0.0000002559  -0.0000004750
        0.0000001984  -0.0000001353   0.0000001669   0.0000004019   0.0000010994
       -0.0000003853   0.0000004057   0.0000001136   0.0000000315   0.0000005584
       -0.0000002030   0.0000000676   0.0000004132  -0.0000000480   0.0000004748
        0.0000001833  -0.0000005725  -0.0000003217   0.0000002845  -0.0000001741
        0.0000002081   0.0000002106   0.0000071136   0.0000034891  -0.0000028353
        0.0000005124   0.0000039615   0.0000003769  -0.0000000067   0.0000007383
        0.0000007836  -0.0000016022  -0.0000007238  -0.0000003328  -0.0000028944
       -0.0000029311  -0.0000004698   0.0000045115   0.0000089942   0.0000063647
       -0.0064803799   0.5240263812   0.0025223400  -0.0179680632  -0.0686037921
        0.0062735583   0.0223359725   0.0013150939  -0.0087662224  -0.0002478251
        0.0001151717  -0.0000517576  -0.0000219586  -0.0003605609  -0.0001362199
        0.0000223962   0.0000480161   0.0000607446   0.0000285766   0.0001034103
        0.0000026967  -0.0001439303   0.0000213095  -0.0000029527   0.0000133279
       -0.0000163709   0.0000099333  -0.0000028965   0.0000001269   0.0000049894
       -0.0000021104   0.0000115289  -0.0000006684  -0.0000036007  -0.0000029279
        0.0000016831  -0.0000109507  -0.0000021131   0.0000044902   0.0000123495
        0.0000120913  -0.0000047022  -0.0000243004  -0.0000116936   0.0000093247
        0.0000258053   0.0000097186  -0.0000097261  -0.0000069173   0.0000045473
        0.0000011467   0.0000019991   0.0000002556   0.0000009126  -0.0000002459
        0.0000018073   0.0000010794   0.0000005587   0.0000006416   0.0000000301
        0.0000009415   0.0000013645   0.0000003356   0.0000007545   0.0000014939
       -0.0000002307   0.0000002963  -0.0000086446   0.0000017215  -0.0000070145
        0.0000174886   0.0000003896   0.0000181716   0.0000046288  -0.0000032979
       -0.0000005731  -0.0000301727  -0.0000055779  -0.0000053149   0.0000086788
        0.0000006739   0.0000026139  -0.0000197897   0.0000025455   0.0000003395
        0.0000121953   0.0000031616  -0.0000019242   0.0000014347  -0.0000012829
        0.0000005942   0.0000035701   0.0000010620  -0.0000064724  -0.0000034651
       -0.0000058254   0.0000016145   0.0000021754   0.0000014783  -0.0000048818
       -0.0000030575  -0.0000040580   0.0000038840   0.0000052867   0.0000035650
       -0.0000033038   0.0000028516  -0.0000059154  -0.0000033114  -0.0000129666
        0.0000082889   0.0000004159   0.0000058973  -0.0000043448  -0.0000016276
       -0.0000010489  -0.0000017603   0.0000019083  -0.0000004931   0.0000043353
        0.0000004219   0.0000033806   0.0000007549  -0.0000298276   0.0000000924
        0.0000078179   0.0000448821  -0.0000174775  -0.0000017133  -0.0810120136
       -0.1840437093  -0.0848856773   0.0012729535  -0.0529844007   0.0427705682
        0.1057956205  -0.2116540897   0.0313555157  -0.0222584540  -0.0045801479
        0.0071528678  -0.0075574925  -0.0006272151   0.0041311474   0.0041141397
       -0.0037960106  -0.0003958137   0.0011009717   0.0009076549   0.0000566062
        0.0006723484  -0.0001407707  -0.0000432500   0.0002107415   0.0001714432
       -0.0001199899  -0.0000401006   0.0001156473   0.0000318777   0.0000081663
        0.0000776754   0.0000171513   0.0000662665  -0.0001192160  -0.0000082853
        0.0000687193   0.0000339308   0.0000280881  -0.0000045879   0.0000089763
       -0.0000061520   0.0000012658  -0.0000015585  -0.0000007454  -0.0000007061
       -0.0000003390   0.0000002815   0.0000010751  -0.0000010646  -0.0000001887
       -0.0000003227  -0.0000009489   0.0000000782   0.0000007801   0.0000001917
       -0.0000001813  -0.0000003041  -0.0000002982  -0.0000005837  -0.0000005992
        0.0000004547  -0.0000008757  -0.0000001876  -0.0000001963  -0.0000002916
        0.0000003231   0.0000006590  -0.0000001190  -0.0000000060   0.0000003000
       -0.0000004289   0.0000008549   0.0000007868   0.0000001167   0.0000007670
        0.0000004099  -0.0000004471   0.0000002323   0.0000003393  -0.0000003056
        0.0000005907   0.0000011117   0.0000001446   0.0000006929   0.0000007248
        0.0000001797   0.0000004217   0.0000002164  -0.0000004123   0.0000016027
        0.0000004396  -0.0000009740   0.0000056523  -0.0000133966   0.0000010498
        0.0000022271   0.0000084810  -0.0000013521   0.0000001669  -0.0000008078
        0.0000003392  -0.0000008045  -0.0000001177   0.0000000238  -0.0000005688
       -0.0000008464  -0.0000001890   0.0000091743  -0.0000103735  -0.0000025764
        0.0194313622   0.0025223400   0.5196930698   0.0447512695   0.0067905306
       -0.0864532159   0.0007787338  -0.0018430419   0.0010902114   0.0000726529
       -0.0002932435   0.0002935839   0.0001407163   0.0000523017  -0.0001356963
        0.0000376657   0.0000523392  -0.0000225631   0.0000429258  -0.0000159435
       -0.0000524580  -0.0000363848  -0.0000109400   0.0000252867   0.0000136126
       -0.0000053931  -0.0000097039  -0.0000126163  -0.0000058825   0.0000028959
        0.0000002029   0.0000072194  -0.0000015450   0.0000004200  -0.0000005190
       -0.0000008768   0.0000011752  -0.0000001020  -0.0000010422   0.0000009524
        0.0000035105  -0.0000017171  -0.0000010815  -0.0000034010   0.0000023871
        0.0000009258   0.0000012840  -0.0000021970  -0.0000006541   0.0000005868
        0.0000020391   0.0000003258  -0.0000002622   0.0000005943   0.0000000300
        0.0000002979   0.0000008821   0.0000004004  -0.0000002530   0.0000006718
       -0.0000002790   0.0000001952   0.0000007076  -0.0000002444   0.0000003471
        0.0000002668   0.0000021914  -0.0000012779  -0.0000015723   0.0000034003
        0.0000025588   0.0000003801   0.0000014236   0.0000076750  -0.0000067243
        0.0000091484  -0.0000022790   0.0000056325  -0.0000071917  -0.0000045851
       -0.0000028361   0.0000036177   0.0000028853   0.0000039077   0.0000003068
        0.0000012630  -0.0000010679   0.0000016371   0.0000005379   0.0000007275
       -0.0000017406  -0.0000008279  -0.0000020877   0.0000005962  -0.0000002359
        0.0000005710  -0.0000013616  -0.0000017661  -0.0000007295   0.0000009134
        0.0000005983   0.0000034386  -0.0000008674   0.0000000009  -0.0000011186
       -0.0000001984   0.0000033295  -0.0000032100  -0.0000012602  -0.0000063901
        0.0000043311  -0.0000000871   0.0000032480  -0.0000027158   0.0000026165
       -0.0000029621   0.0000093335  -0.0000043137   0.0000009548  -0.0000096295
        0.0000010269   0.0000022883  -0.0000012264   0.0000000432  -0.0000064145
        0.0000031901   0.0000006968   0.0000104680  -0.0000123478  -0.0505119144
       -0.0850396556  -0.0975722263  -0.0094449384   0.0425967060  -0.2770430073
       -0.0213737622   0.0312021052  -0.0505373046  -0.0124943061  -0.0026441816
        0.0054119281   0.0293604214   0.0058638133  -0.0155234874  -0.0002718311
        0.0001646074   0.0008199811   0.0003314101   0.0001310476  -0.0000134315
       -0.0004225827   0.0006512453   0.0001426016  -0.0000384483  -0.0000389392
       -0.0000216107  -0.0003615774  -0.0001588543   0.0000076638  -0.0000957193
        0.0000565327  -0.0000529294   0.0000871869  -0.0000210637  -0.0000547818
       -0.0000076784  -0.0000189768   0.0000130995   0.0000002204   0.0000016885
        0.0000040285   0.0000037171  -0.0000016065   0.0000008545   0.0000001391
       -0.0000004298   0.0000008626   0.0000014990  -0.0000007167   0.0000005330
        0.0000002611  -0.0000008730  -0.0000004202   0.0000012407   0.0000007625
       -0.0000003519   0.0000001885   0.0000003443   0.0000003192   0.0000002441
        0.0000001233  -0.0000000230   0.0000004328   0.0000002523   0.0000003287
        0.0000006711   0.0000003927   0.0000000307   0.0000000128   0.0000007218
        0.0000006949   0.0000006362   0.0000002791   0.0000005360   0.0000000051
        0.0000000962   0.0000004101   0.0000000138  -0.0000000478   0.0000002244
        0.0000010300  -0.0000000562   0.0000003845  -0.0000004198  -0.0000000526
        0.0000008296  -0.0000000110   0.0000010360   0.0000010521   0.0000000695
        0.0000010143   0.0000004135  -0.0000035253  -0.0000032021  -0.0000049269
       -0.0000028268  -0.0000020739  -0.0000044562  -0.0000006259  -0.0000002223
        0.0000004335  -0.0000005546   0.0000002506   0.0000006719  -0.0000003857
       -0.0000000410   0.0000007855   0.0000089989  -0.0000030660   0.0000024624
       -0.1802488508  -0.0179680632   0.0447512695   0.4716795121   0.0235137875
        0.0149301526  -0.1010428087   0.0548757307  -0.0007222253  -0.0030975621
        0.0060837313  -0.0046084129   0.0003285193   0.0000057310   0.0002882334
        0.0000398904  -0.0000444451   0.0000461174   0.0000335278  -0.0000641770
        0.0000925691  -0.0000608414   0.0000333886   0.0000296654   0.0000351176
       -0.0000219859  -0.0000088362  -0.0000001386   0.0000124998  -0.0000031554
        0.0000078966  -0.0000075838  -0.0000030081   0.0000023549  -0.0000186829
        0.0000012642  -0.0000147539   0.0000090598   0.0000035107   0.0000046162
        0.0000150045  -0.0000030879  -0.0000417410  -0.0000340628   0.0000184186
        0.0000567979   0.0000214017  -0.0000212467  -0.0000198143   0.0000096975
        0.0000056818   0.0000031454  -0.0000023975   0.0000006852  -0.0000019880
        0.0000010015   0.0000031261  -0.0000009789   0.0000000687   0.0000001021
       -0.0000014397   0.0000018143   0.0000007596  -0.0000004993   0.0000006784
        0.0000004178   0.0000166447   0.0000006494  -0.0000053791  -0.0000287862
        0.0000083576   0.0000071004   0.0000384626   0.0000036822  -0.0000063609
       -0.0000093832   0.0000148012   0.0000011129   0.0000121910  -0.0000162184
       -0.0000162919  -0.0000184295   0.0000183255  -0.0000092397   0.0000174730
        0.0000076497  -0.0000040287  -0.0000093373  -0.0000222738   0.0000006640
       -0.0000016535  -0.0000066867   0.0000011271  -0.0000041651  -0.0000011116
       -0.0000055564   0.0000035860   0.0000092647  -0.0000038803  -0.0000141072
       -0.0000217824  -0.0000040819   0.0000148711   0.0000192918   0.0000093740
        0.0000019431   0.0000094497  -0.0000034376  -0.0000046983  -0.0000179360
        0.0000110932   0.0000033719   0.0000121686  -0.0000067711  -0.0000050895
       -0.0000113953   0.0000047067   0.0000034141   0.0000064856  -0.0000050742
        0.0000021210   0.0000139291   0.0000036547  -0.0000146400  -0.0000405902
        0.0000032002   0.0000253465   0.0000642811   0.0000081279  -0.0187650668
       -0.0061450177   0.0040787062  -0.0016513068  -0.0013201051   0.0042725634
       -0.0204847773   0.0004628792   0.0070605503  -0.0897951140  -0.0771008786
       -0.0538078985  -0.0433008677   0.0021688031  -0.0171518575  -0.0200210539
        0.0245716810   0.0020613720   0.0063353774  -0.0091041921  -0.0003782365
       -0.0000030295  -0.0006276414   0.0004166434   0.0004242932   0.0003128679
       -0.0007586860  -0.0000897833   0.0003663210  -0.0006756346   0.0000759112
       -0.0000225796   0.0001413964  -0.0003537563   0.0000447696   0.0000072727
       -0.0000399714  -0.0000146774  -0.0000629402  -0.0000049011  -0.0000198109
        0.0000018958   0.0000020803  -0.0000126823  -0.0000007340   0.0000009063
       -0.0000063368   0.0000004919   0.0000054031  -0.0000035659  -0.0000013945
        0.0000002763  -0.0000028300  -0.0000006483   0.0000019916   0.0000012411
       -0.0000014313  -0.0000007389   0.0000014718   0.0000001797  -0.0000010411
        0.0000007235  -0.0000013192   0.0000000778  -0.0000004435  -0.0000005077
        0.0000010965   0.0000011520  -0.0000011564  -0.0000003558   0.0000008986
        0.0000002117   0.0000037662  -0.0000007074  -0.0000004985   0.0000024224
       -0.0000002207  -0.0000012315  -0.0000000208   0.0000000286  -0.0000002725
        0.0000027171  -0.0000003349  -0.0000006692   0.0000000047  -0.0000000659
        0.0000007849   0.0000000699   0.0000009803   0.0000001529  -0.0000024910
        0.0000013799  -0.0000004387  -0.0000061761   0.0000159744   0.0000137785
        0.0000005968  -0.0000123898   0.0000089066  -0.0000019125  -0.0000008238
       -0.0000011737   0.0000002207  -0.0000000632   0.0000015441   0.0000035577
       -0.0000046040   0.0000025999  -0.0000275013  -0.0000237401  -0.0000043816
       -0.0193315115  -0.0686037921   0.0067905306   0.0235137875   0.4901386063
        0.0127389633   0.0555808720  -0.1555550835   0.0000701133   0.0076152016
       -0.0113767239   0.0069846179  -0.0001756018   0.0004391796   0.0002029488
       -0.0001348889  -0.0000685246  -0.0001298764   0.0000084622  -0.0002447148
       -0.0000058432   0.0001734892   0.0000338727  -0.0000122083  -0.0000269408
       -0.0000065025  -0.0000099090   0.0000185043  -0.0000003731  -0.0000090870
        0.0000233537  -0.0000273648  -0.0000039511  -0.0000011334  -0.0000098086
        0.0000020864   0.0000077784  -0.0000006418  -0.0000029217  -0.0000033422
       -0.0000119606   0.0000014317   0.0000011652   0.0000168983   0.0000002594
       -0.0000034364  -0.0000082096   0.0000008020   0.0000015876   0.0000028006
        0.0000003824   0.0000000558   0.0000013980   0.0000002341  -0.0000000840
        0.0000015028   0.0000001006   0.0000002397   0.0000004984   0.0000002914
        0.0000006858   0.0000010316   0.0000002327   0.0000001619   0.0000008308
       -0.0000006088   0.0000066136   0.0000005587  -0.0000045699  -0.0000339609
        0.0000157811  -0.0000009416   0.0000143243  -0.0001019125   0.0000068100
       -0.0000373856   0.0000923543  -0.0000004534   0.0000459627  -0.0000225516
        0.0000053955  -0.0000274825   0.0000398932  -0.0000156811   0.0000199236
       -0.0000218715  -0.0000121615  -0.0000107045   0.0000028598   0.0000056179
        0.0000046818   0.0000002548   0.0000003322   0.0000021874  -0.0000016845
        0.0000000443   0.0000011062   0.0000018275  -0.0000037441  -0.0000043801
       -0.0000017482   0.0000014766   0.0000044009   0.0000024161   0.0000009050
        0.0000000949   0.0000010901  -0.0000002977  -0.0000050651  -0.0000032902
        0.0000031480   0.0000051630   0.0000034529  -0.0000028253  -0.0000081494
        0.0000010138   0.0000003533   0.0000069484  -0.0000003456  -0.0000008698
       -0.0000109727  -0.0000254058  -0.0000034354   0.0000351988   0.0000647231
       -0.0000046677  -0.0000291891  -0.0000019733   0.0000032888  -0.0233728173
       -0.0050134390   0.0072926918  -0.0060304349  -0.0006994345   0.0033550248
        0.0243053029   0.0015455931  -0.0085795617  -0.0770488023  -0.1650731400
       -0.0841686597   0.0024552428  -0.0602056297   0.0573928795   0.0005927365
        0.0011068136  -0.0001201952   0.0118899670  -0.0264718259  -0.0026383120
       -0.0000472228   0.0001916408  -0.0003145041   0.0002797174  -0.0002374777
        0.0018898456   0.0001184137   0.0001738697  -0.0006197452  -0.0001049980
       -0.0002054277  -0.0001655539  -0.0001411826   0.0001996930   0.0001467510
       -0.0001342925  -0.0000651684  -0.0001070552  -0.0000037181  -0.0000000932
        0.0000088848   0.0000050420   0.0000006186   0.0000021424   0.0000007011
       -0.0000023081   0.0000014491   0.0000010850  -0.0000002130   0.0000000406
       -0.0000004331  -0.0000005685  -0.0000008498  -0.0000001646  -0.0000002441
        0.0000004155  -0.0000002896  -0.0000007866  -0.0000007465  -0.0000004378
       -0.0000000818   0.0000006436  -0.0000002120  -0.0000013911  -0.0000009242
        0.0000002410   0.0000001102   0.0000000703  -0.0000000365  -0.0000006660
       -0.0000005465   0.0000002162   0.0000003072  -0.0000000877  -0.0000003845
        0.0000005600   0.0000003795  -0.0000001698  -0.0000014202  -0.0000010152
        0.0000003120   0.0000001728   0.0000000043   0.0000000249  -0.0000001472
        0.0000003687  -0.0000000153  -0.0000007092  -0.0000005089  -0.0000007871
       -0.0000025642   0.0000015733  -0.0000084771   0.0000135330   0.0000045684
        0.0000044898  -0.0000095439   0.0000137579  -0.0000028194   0.0000004481
       -0.0000000324  -0.0000008545   0.0000003090   0.0000017964   0.0000038492
        0.0000001715   0.0000045685  -0.0000065133  -0.0000099219   0.0000041293
        0.0456680702   0.0062735583  -0.0864532159   0.0149301526   0.0127389633
        0.5272591977  -0.0036832667   0.0032255077  -0.0665689669  -0.0147855185
        0.0226730657  -0.0023659874   0.0001928691  -0.0001209607   0.0004441450
        0.0000679464   0.0002560224  -0.0003105732   0.0000994537  -0.0001977165
        0.0000196810  -0.0001134909   0.0000297327   0.0000180312   0.0000071196
        0.0000018185  -0.0000079595   0.0000073868  -0.0000105626  -0.0000019892
        0.0000061624  -0.0000052307  -0.0000029706   0.0000027251  -0.0000162729
        0.0000005369  -0.0000046899   0.0000016599   0.0000003861   0.0000099095
        0.0000109064  -0.0000067030  -0.0000187665  -0.0000127246   0.0000125394
        0.0000179172   0.0000074039  -0.0000125704  -0.0000047047   0.0000042644
        0.0000057476   0.0000020074  -0.0000008734   0.0000014978   0.0000002081
        0.0000007666   0.0000020661   0.0000006136   0.0000000983   0.0000012664
       -0.0000009405   0.0000008794   0.0000015210   0.0000000628   0.0000006996
        0.0000008973   0.0000096737  -0.0000092168  -0.0000059934  -0.0000231398
        0.0000215548   0.0000061277   0.0000284061  -0.0000176254  -0.0000159846
       -0.0000136422   0.0000132261   0.0000050861   0.0000105795  -0.0000056097
       -0.0000150976  -0.0000021051   0.0000046658  -0.0000023557   0.0000125598
       -0.0000021913  -0.0000164041  -0.0000108073  -0.0000003970   0.0000050294
        0.0000009526  -0.0000000634  -0.0000026546  -0.0000006453  -0.0000036112
       -0.0000017126   0.0000009900   0.0000009969  -0.0000021617  -0.0000067024
       -0.0000076403   0.0000019404   0.0000069482   0.0000085835   0.0000023582
       -0.0000004083   0.0000072979  -0.0000075030  -0.0000042531  -0.0000148998
        0.0000125111   0.0000024129   0.0000079464  -0.0000083900   0.0000015952
       -0.0000061817   0.0000195320  -0.0000025680   0.0000022380  -0.0000169264
        0.0000027106  -0.0000018833  -0.0000004486  -0.0000481749  -0.0000123872
        0.0000258107   0.0000217927   0.0000376096  -0.0000076944  -0.0121408793
       -0.0018831540   0.0052406045   0.0293672760   0.0049391939  -0.0149692768
       -0.0021565264  -0.0007135837   0.0012448119  -0.0533942883  -0.0841687158
       -0.1041451533  -0.0173548172   0.0576158850  -0.2542512918   0.0075416177
       -0.0096609796  -0.0000828261   0.0078085411  -0.0146220544  -0.0002040397
       -0.0000237033  -0.0000697266   0.0006306206  -0.0011093563   0.0031937090
       -0.0048869299  -0.0006482038   0.0004164170  -0.0009575190  -0.0000942831
        0.0002178563   0.0001571656  -0.0001402095  -0.0000636779   0.0001678673
       -0.0000491476  -0.0000212296   0.0000047305   0.0000202987  -0.0000205720
        0.0000002796   0.0000069070  -0.0000065353   0.0000006528   0.0000012969
       -0.0000027543   0.0000012954   0.0000036565  -0.0000022789   0.0000007354
        0.0000003662  -0.0000028066  -0.0000007801   0.0000029943   0.0000012426
       -0.0000005772  -0.0000005338  -0.0000002625  -0.0000001287   0.0000000356
        0.0000010653  -0.0000009255   0.0000004937  -0.0000002948   0.0000003470
        0.0000013041   0.0000006541   0.0000001461  -0.0000004683   0.0000002782
        0.0000006461   0.0000015708   0.0000000322   0.0000007971   0.0000009184
       -0.0000000774  -0.0000000696  -0.0000000451  -0.0000001308   0.0000002672
        0.0000014372  -0.0000000523   0.0000006456  -0.0000004672   0.0000002597
        0.0000009793  -0.0000004373   0.0000006618   0.0000009327  -0.0000001949
        0.0000019253   0.0000017864  -0.0000067426  -0.0000018703   0.0000165688
       -0.0000012319  -0.0000034002   0.0000118426  -0.0000028485   0.0000013246
       -0.0000014044  -0.0000016072   0.0000010703   0.0000006929   0.0000012668
        0.0000004228   0.0000026258  -0.0000213910  -0.0000312585   0.0000022348
       -0.0217987652   0.0223359725   0.0007787338  -0.1010428087   0.0555808720
       -0.0036832667   0.5155969780   0.0326879162  -0.0090938857  -0.0697647502
        0.0056042008  -0.0124113743  -0.0024975458   0.0032002242  -0.0133213770
        0.0004903666  -0.0000122290  -0.0001617920  -0.0003396908   0.0002078541
        0.0003819757  -0.0000012265   0.0000211961  -0.0002457505   0.0000139080
        0.0000172487   0.0000437315   0.0000292490   0.0000379216   0.0000056673
       -0.0000131619  -0.0000107834   0.0000111877  -0.0000044515  -0.0000251036
        0.0000050869  -0.0000170731   0.0000150619   0.0000072423   0.0000090759
        0.0000229699  -0.0000023637  -0.0000424412  -0.0000449428   0.0000163701
        0.0000669832   0.0000259511  -0.0000217650  -0.0000268612   0.0000095450
        0.0000040449   0.0000038876  -0.0000045115   0.0000007148  -0.0000027419
        0.0000000889   0.0000037109  -0.0000012839  -0.0000010703  -0.0000007446
       -0.0000020249   0.0000013957   0.0000001636  -0.0000002330  -0.0000000819
        0.0000000320   0.0000193062   0.0000005228   0.0000005131  -0.0000269785
        0.0000086556  -0.0000023519   0.0000422466   0.0000410339   0.0000158166
        0.0000050709  -0.0000240070  -0.0000126735  -0.0000486931  -0.0000384374
       -0.0000453985   0.0000047092  -0.0000107272   0.0000051259   0.0000122322
        0.0000507170   0.0000194001   0.0000039400  -0.0000247903  -0.0000029840
       -0.0000076810  -0.0000102635   0.0000017138  -0.0000082751   0.0000034605
       -0.0000087773   0.0000046336   0.0000112177  -0.0000007410  -0.0000114046
       -0.0000223489  -0.0000065852   0.0000161513   0.0000224225   0.0000126119
        0.0000012951   0.0000106199  -0.0000050086  -0.0000011531  -0.0000199974
        0.0000113365   0.0000010786   0.0000142781  -0.0000054352   0.0000003349
       -0.0000150655   0.0000013642   0.0000011077   0.0000093491   0.0000013184
        0.0000148367   0.0000292993   0.0000136177  -0.0000473515  -0.0000759583
       -0.0000050088   0.0000403421   0.0000219849   0.0001117294   0.0008015609
        0.0010042433  -0.0001055926   0.0007571919   0.0001673861  -0.0003193345
       -0.0056461467   0.0000879379   0.0023881328   0.0064905810  -0.0092089746
        0.0010567388  -0.0028849649   0.0060676571  -0.0019244516  -0.2229000716
       -0.0378416689   0.0864612841  -0.0950228704  -0.0764404162  -0.0553607167
        0.0018632820  -0.0113257787   0.0245130212  -0.0029849017   0.0096179831
       -0.0164336291   0.0002082563   0.0004235277   0.0005568374  -0.0006068753
       -0.0015401738  -0.0021716548  -0.0008207985  -0.0006472601  -0.0010047054
        0.0000706968   0.0000684721   0.0000073282   0.0000068181  -0.0000020618
       -0.0000220965   0.0000016127  -0.0000127049  -0.0000058403  -0.0000014304
       -0.0000048869  -0.0000008694   0.0000075398  -0.0000035118  -0.0000040174
       -0.0000000267  -0.0000024238   0.0000000504   0.0000032175   0.0000015407
       -0.0000020763  -0.0000002639   0.0000026468   0.0000005157  -0.0000025543
        0.0000006283  -0.0000026694  -0.0000007378   0.0000004966  -0.0000005455
        0.0000012719   0.0000010104  -0.0000018776  -0.0000003203   0.0000014577
        0.0000004516   0.0000046433  -0.0000015354  -0.0000008267   0.0000021437
       -0.0000006620  -0.0000024888  -0.0000006248   0.0000006728  -0.0000003076
        0.0000032334  -0.0000008043  -0.0000011877  -0.0000003333  -0.0000009256
        0.0000007348   0.0000005001   0.0000014867   0.0000001203  -0.0000015210
        0.0000022816  -0.0000040514  -0.0000163297  -0.0000071354   0.0000201578
        0.0000013073  -0.0000135060  -0.0000030496   0.0000008155  -0.0000031044
       -0.0000019831   0.0000031758   0.0000006061   0.0000016511   0.0000077857
       -0.0000014907   0.0000014941  -0.0000159992  -0.0000426719  -0.0000504720
        0.0041003364   0.0013150939  -0.0018430419   0.0548757307  -0.1555550835
        0.0032255077   0.0326879162   0.4889064672   0.0123473631   0.0044898523
       -0.0827829857   0.0398508446  -0.0018354635   0.0080367369  -0.0150940319
        0.0000954476   0.0001077756  -0.0001077914   0.0001434733  -0.0000523433
        0.0001380844  -0.0000055425  -0.0000053806  -0.0000461868   0.0000009615
        0.0000034509   0.0000048379  -0.0000277714   0.0000200516   0.0000101272
        0.0000126899  -0.0000115137  -0.0000006353  -0.0000089082  -0.0000075695
        0.0000041371   0.0000059260   0.0000102120  -0.0000014217  -0.0000062268
       -0.0000019801   0.0000034470  -0.0000128150  -0.0000034075   0.0000043136
        0.0000136027   0.0000016206  -0.0000031472  -0.0000055557   0.0000038508
        0.0000000188   0.0000010445   0.0000000494   0.0000010210  -0.0000006969
        0.0000012528   0.0000012592   0.0000004637   0.0000001129   0.0000002543
        0.0000002068   0.0000010779   0.0000005068   0.0000005250   0.0000008647
        0.0000001125   0.0000126949   0.0000047385  -0.0000029127  -0.0000183643
        0.0000063693  -0.0000064310   0.0000196342  -0.0000554996   0.0000131576
       -0.0000109794   0.0000661467  -0.0000047823   0.0000033784  -0.0000392306
       -0.0000114431  -0.0000165031   0.0000375493  -0.0000102531   0.0000195346
       -0.0000062868   0.0000072521  -0.0000098986  -0.0000013403  -0.0000046186
       -0.0000023737  -0.0000075541   0.0000004533  -0.0000024427   0.0000027673
       -0.0000054141   0.0000008796   0.0000042226  -0.0000029769  -0.0000056682
       -0.0000074902  -0.0000010766   0.0000063556   0.0000068046   0.0000040034
        0.0000010472   0.0000043353  -0.0000008610  -0.0000026199  -0.0000052006
        0.0000028597   0.0000029799   0.0000041234  -0.0000021432  -0.0000057703
       -0.0000044105  -0.0000029600   0.0000053808   0.0000013522   0.0000028526
       -0.0000062454  -0.0000067208   0.0000022669   0.0000389456   0.0000192074
       -0.0000181689  -0.0000230071  -0.0000043865   0.0000481970  -0.0011634389
        0.0009819847   0.0002114160  -0.0001872418   0.0002224886   0.0001579171
       -0.0011390855   0.0008128157   0.0002140188   0.0117279596  -0.0253287803
       -0.0016430903   0.0075810400  -0.0120605602   0.0033460041  -0.0381893522
       -0.0505501338   0.0162476684  -0.0759936763  -0.1560866479  -0.0862884262
       -0.0004461813  -0.0034563170   0.0096332256   0.0052865998  -0.0130631867
        0.0238432370   0.0002677784   0.0003841601  -0.0001389480  -0.0017953898
       -0.0019217675  -0.0035623845  -0.0004582833  -0.0000135612  -0.0003462211