$hessian                                                                        
        0.6439687763   0.0001665159  -0.0098805879  -0.2720678518   0.0578894241
        0.0066775239   0.0256886520   0.0854357219   0.0032577998  -0.0615746026
       -0.0006268201   0.0008901807  -0.0010497426   0.0000104901   0.0000459901
       -0.0003013810   0.0008813295   0.0000168422  -0.0003119449  -0.0005347863
        0.0000113747  -0.0000338684   0.0000289422   0.0000071889  -0.0000061428
       -0.0000256061   0.0000018521   0.0000010398  -0.0000037815   0.0000021794
        0.0000009467   0.0000049568  -0.0000180106   0.0000129410   0.0000048876
        0.0000091585  -0.0000013036  -0.0000024113  -0.0000000547   0.0000028524
        0.0000003762   0.0000009913  -0.0000007243  -0.0000038065   0.0000031293
        0.0000050856  -0.0000018881   0.0000028882  -0.0000065980  -0.0000029089
       -0.0000006611   0.0000071473   0.0000033126  -0.0000019027  -0.0000068099
       -0.0000064359   0.0000049166   0.0000007167  -0.0000080283   0.0000052061
        0.0000041249  -0.0000015751  -0.0000070964   0.0000192487  -0.0000048687
       -0.0000014293  -0.0000014424   0.0000020172   0.0000083052  -0.0000042685
        0.0000257736   0.0000003161  -0.0000251338  -0.0000191036   0.0000040558
        0.0000073368   0.0000366573   0.0000056252   0.0000116815  -0.0000074245
        0.0000075446  -0.0000075572  -0.0000043050  -0.0000046533   0.0000022913
       -0.0000053904   0.0000030479   0.0000001578  -0.0000001669   0.0000013011
       -0.0000026253  -0.0000001083  -0.0000000338   0.0000019448   0.0000027131
        0.0000026710  -0.0000013170   0.0000062578  -0.0000025540  -0.0000012857
       -0.0000028437  -0.0000003861  -0.0000002792   0.0000027693  -0.0000002575
       -0.0000045755  -0.0000045558  -0.0000033203   0.0000038907  -0.0000020369
        0.0000058188  -0.0000217904  -0.0000149326  -0.0000092498   0.0000055583
       -0.0000240040   0.0000012259   0.0007479548   0.0000063090  -0.0000183811
       -0.0003250763   0.0005358190   0.0000196941  -0.0000358966  -0.0000298511
        0.0000037956   0.0000056334   0.0000246476   0.0000000309  -0.0000261947
        0.0000200747   0.0000026111   0.0000076928  -0.0000434684   0.0000058436
        0.0000125049   0.0000080817   0.0000068427  -0.0000073443   0.0000036406
       -0.0000056854   0.0000020161   0.0000050821   0.0000022463   0.0000003660
       -0.0000000986   0.0000005021  -0.0000024425   0.0000002342  -0.0000008886
        0.0000021045  -0.0000031545   0.0000022321  -0.0000013016  -0.0000068931
       -0.0000026796  -0.0000009347   0.0000029354  -0.0000005686  -0.0000008083
       -0.0000029494  -0.0000005497  -0.0000048921   0.0000038534  -0.0000036180
        0.0000035058   0.0000026039   0.0000059567  -0.0000218689   0.0000140488
       -0.0000105051  -0.0000033884  -0.0000260208   0.0000001602   0.0000002421
        0.0000038358   0.0000010467   0.0000012441  -0.0000076774  -0.0000203972
        0.0000148290  -0.0000050223   0.0000084398  -0.0000021428   0.0000021773
       -0.0000010795   0.0000030558  -0.0000010489  -0.0000004742  -0.0000002466
        0.0000038638   0.0000015598   0.0000065658   0.0000018229   0.0000013688
       -0.0000073256   0.0000032138  -0.0000021575   0.0000082689  -0.0000046800
       -0.0000031538  -0.0000074896   0.0000069154   0.0000046726   0.0000002786
        0.0000080312   0.0000054323   0.0000047044   0.0000032145  -0.0000087756
        0.0000204549   0.0000064575  -0.0000017318  -0.0000025967  -0.0000013827
        0.0000080709  -0.0000053223   0.0000240925   0.0000049240  -0.0002978257
       -0.0008968764  -0.0000531926   0.0275973295  -0.0842979938  -0.0041265980
       -0.2685035736  -0.0602672268   0.0015388434  -0.0435454441   0.0022029671
        0.0002930446  -0.0260798402   0.0111504041   0.0010141224   0.0010731815
       -0.0001041603   0.0001176091   0.0000535555   0.0000252377  -0.0000045035
        0.0000003922   0.0000017689  -0.0000002433  -0.0000024541   0.0000031640
       -0.0000030089  -0.0000039241   0.0000010691  -0.0000018437  -0.0000034176
       -0.0000004063  -0.0000003734  -0.0000016912  -0.0000004663   0.0000009429
       -0.0000053781  -0.0000009614   0.0000007575  -0.0000050355   0.0000020302
        0.0000039857  -0.0000009294   0.0000039938  -0.0000077351   0.0000041733
        0.0000087347   0.0000014023   0.0000028608   0.0000032589   0.0000016749
       -0.0000009967   0.0000012452   0.0000006552  -0.0000003275   0.0000026252
        0.0000006406   0.0000001432   0.0000031686   0.0000011040   0.0000009432
        0.0000021201   0.0000014603   0.0000019966   0.0000017476   0.0000018365
        0.0000037766   0.0000000706   0.0000030776  -0.0000009595   0.0000010123
       -0.0000007028  -0.0000051445   0.0000129989  -0.0000005795  -0.0000051446
       -0.0000134572  -0.0000010525   0.0000027766  -0.0000043835   0.0000007054
        0.0000000668  -0.0000013497  -0.0000005511   0.0000006481  -0.0000029955
       -0.0000005248   0.0000004522  -0.0000033729   0.0000004178   0.0000008553
       -0.0000021528   0.0000011232   0.0000013991  -0.0000020484   0.0000018428
        0.0000030677  -0.0000000934   0.0000031914  -0.0000011693  -0.0000016080
       -0.0000010711   0.0000045875  -0.0000090138   0.0000002027   0.0000018024
       -0.0000007011  -0.0000016839  -0.0000017824  -0.0000034785  -0.0000048460
       -0.0000034914  -0.0000016521  -0.0000043373  -0.0000039581  -0.0000001533
       -0.0000026067  -0.0000021692   0.0000004250  -0.0000011067  -0.0000063522
        0.0000001896  -0.0000006748  -0.0000084494  -0.0000027968   0.0000024959
       -0.0000014115  -0.0000065828  -0.0000102805   0.0000541453  -0.0000254505
       -0.0000051448   0.0010749931   0.0002098222   0.0001788756  -0.0260915744
       -0.0117417369   0.0000109286
        0.0001665159   0.6730147159   0.0241553004   0.1374150916  -0.1500989478
       -0.0068634953   0.0262948426  -0.0357033694  -0.0021266875  -0.0006354124
        0.0064404436   0.0005509573   0.0000156950  -0.0029300420  -0.0000997405
       -0.0009834533   0.0009870966   0.0000312611  -0.0001135979  -0.0007045665
       -0.0000188175  -0.0001197561   0.0000640819   0.0000031077   0.0000495121
        0.0000870115  -0.0000097876   0.0000635840   0.0000113180  -0.0000104111
       -0.0000662307  -0.0000237138  -0.0000005532   0.0000373362  -0.0000125499
        0.0000165359  -0.0000064692   0.0000004017  -0.0000044946   0.0000053577
        0.0000010240   0.0000006714  -0.0000012984  -0.0000017880   0.0000004973
        0.0000054939   0.0000031511  -0.0000010547  -0.0000061507  -0.0000121283
        0.0000119301  -0.0000057209   0.0000038958  -0.0000093728   0.0000026481
       -0.0000008832   0.0000009235  -0.0000035557   0.0000026899  -0.0000016294
        0.0000138003   0.0000077592   0.0000013111  -0.0000137192  -0.0000047935
        0.0000018605   0.0000010812   0.0000233829  -0.0000170997   0.0000134689
       -0.0000215505   0.0000088850   0.0000018417  -0.0000978047   0.0000094977
        0.0000065854   0.0000885425  -0.0000054492   0.0000291332  -0.0000266177
        0.0000162691  -0.0000074532   0.0000023980  -0.0000082950   0.0000026402
       -0.0000042621   0.0000032678   0.0000040183   0.0000000233   0.0000024747
       -0.0000045100  -0.0000075276  -0.0000020986   0.0000110453   0.0000098488
        0.0000074013  -0.0000070965   0.0000112818  -0.0000092134   0.0000026211
       -0.0000102078   0.0000024643  -0.0000059986   0.0000015254  -0.0000049094
       -0.0000028976  -0.0000045202  -0.0000022403   0.0000051778   0.0000019144
        0.0000091108  -0.0000359831  -0.0000203752  -0.0000131786  -0.0000467563
       -0.0000390885  -0.0000030326   0.0000053919   0.0002918227   0.0000070611
        0.0001183660  -0.0006924141  -0.0000175561   0.0001197247   0.0000662069
        0.0000014449   0.0000477154  -0.0000375485   0.0000025401   0.0000000282
       -0.0000983096  -0.0000069083  -0.0000078135   0.0000853112   0.0000032182
       -0.0000285776  -0.0000270690  -0.0000173297   0.0000072191   0.0000033902
        0.0000081089  -0.0000027130  -0.0000039098  -0.0000042583  -0.0000042288
        0.0000002420  -0.0000034733   0.0000044182  -0.0000073009   0.0000013632
       -0.0000115500   0.0000101462  -0.0000089315   0.0000069875   0.0000116165
        0.0000085523  -0.0000026546  -0.0000102829  -0.0000032668   0.0000058141
        0.0000015812   0.0000041055   0.0000026877  -0.0000047976   0.0000015739
       -0.0000054879   0.0000013480  -0.0000099704   0.0000354258  -0.0000186670
        0.0000132489  -0.0000137118  -0.0000217494  -0.0000091939  -0.0000646078
        0.0000107694   0.0000074633   0.0000668642  -0.0000224943   0.0000038587
       -0.0000367711  -0.0000129042  -0.0000173809   0.0000065149   0.0000008574
        0.0000044806  -0.0000052929   0.0000013758  -0.0000009269   0.0000014342
       -0.0000010624  -0.0000003897  -0.0000053310   0.0000034190   0.0000010448
        0.0000067034  -0.0000121829  -0.0000116787   0.0000049789   0.0000045878
        0.0000097444  -0.0000023116  -0.0000012720  -0.0000010397   0.0000033699
        0.0000036374   0.0000025290  -0.0000145925   0.0000079804  -0.0000032864
        0.0000155153  -0.0000054579  -0.0000006096  -0.0000015871   0.0000226697
        0.0000156640  -0.0000522732   0.0000874964   0.0000076219   0.0009606639
        0.0009935418   0.0000347659  -0.0251522406  -0.0378086714  -0.0012207656
       -0.1397813122  -0.1538633369  -0.0019113529   0.0022040386  -0.3017073646
       -0.0118474759  -0.0125111803   0.0066089364   0.0005109525   0.0002550221
       -0.0057547116  -0.0006115438  -0.0000425632   0.0000139412   0.0000063503
        0.0000008714  -0.0000023374  -0.0000012868   0.0000010640  -0.0000003781
       -0.0000020884  -0.0000009097  -0.0000006203  -0.0000025645  -0.0000006951
       -0.0000021197   0.0000001034  -0.0000021657  -0.0000015307  -0.0000023255
        0.0000027418  -0.0000005200  -0.0000010978   0.0000020066  -0.0000015251
       -0.0000054598  -0.0000039569  -0.0000037373   0.0000065829   0.0000018126
       -0.0000001985   0.0000028243   0.0000021920   0.0000004180  -0.0000005335
        0.0000006263  -0.0000019563  -0.0000007544   0.0000003869  -0.0000002097
       -0.0000014121   0.0000007739   0.0000006255  -0.0000004345   0.0000004809
        0.0000005593  -0.0000011870   0.0000008902  -0.0000010815  -0.0000000681
       -0.0000010174  -0.0000013572  -0.0000017119  -0.0000003970   0.0000059352
       -0.0000017015   0.0000048529  -0.0000080265   0.0000004477  -0.0000048581
       -0.0000087700  -0.0000005645  -0.0000020839   0.0000006720  -0.0000000923
       -0.0000006185  -0.0000014579   0.0000000541  -0.0000005625   0.0000003168
        0.0000004351  -0.0000009683   0.0000007478  -0.0000006850  -0.0000005769
        0.0000005341   0.0000001513  -0.0000009412  -0.0000013624  -0.0000008904
        0.0000010768  -0.0000018429   0.0000011380   0.0000002652   0.0000057595
        0.0000010106  -0.0000017054  -0.0000003548  -0.0000031981  -0.0000010051
       -0.0000017387   0.0000011206  -0.0000010764   0.0000003139   0.0000017470
        0.0000007996   0.0000000076   0.0000024765   0.0000006761  -0.0000018453
       -0.0000000084   0.0000023957  -0.0000013974   0.0000028903  -0.0000031030
       -0.0000007530   0.0000011899  -0.0000029194  -0.0000023603   0.0000070098
        0.0000052692  -0.0000040482  -0.0000077273   0.0000445182   0.0000156619
       -0.0000018020  -0.0001496329  -0.0057579702  -0.0006048753   0.0118919793
        0.0066208076   0.0000427674
       -0.0098805879   0.0241553004   0.1198777840   0.0100822541  -0.0053326787
       -0.0494428545   0.0006901320  -0.0032198629   0.0011958774   0.0010145696
        0.0005739219  -0.0069031376   0.0000251447  -0.0001152149  -0.0002806137
       -0.0000441752   0.0000162066  -0.0000318623   0.0000082300  -0.0000131518
        0.0000590216  -0.0000011496   0.0000077608  -0.0000114124   0.0000016647
        0.0000020990  -0.0000016066   0.0000017908   0.0000020710  -0.0000019105
       -0.0000018283  -0.0000020982   0.0000025323   0.0000006406  -0.0000022693
        0.0000007743  -0.0000010535   0.0000005933   0.0000017750  -0.0000001251
       -0.0000011364   0.0000012449  -0.0000006560   0.0000015485   0.0000025998
        0.0000003125  -0.0000005023  -0.0000006268  -0.0000002499  -0.0000011097
        0.0000011820  -0.0000009033  -0.0000007145   0.0000001156   0.0000016390
        0.0000013790   0.0000036297   0.0000016151   0.0000008324  -0.0000011432
       -0.0000004791   0.0000001617   0.0000001856   0.0000034460  -0.0000010188
        0.0000003397  -0.0000008155   0.0000004280   0.0000011499   0.0000029101
        0.0000031314   0.0000065316   0.0000005185  -0.0000062635   0.0000033016
       -0.0000004413   0.0000036559   0.0000005861   0.0000013931  -0.0000014765
        0.0000032319   0.0000003850  -0.0000003122   0.0000002470  -0.0000013964
       -0.0000014091   0.0000039076   0.0000006753   0.0000005666  -0.0000007602
       -0.0000008426   0.0000007480   0.0000009345   0.0000004683   0.0000004860
        0.0000009966   0.0000000815  -0.0000002649  -0.0000004560   0.0000002665
       -0.0000006701   0.0000001858  -0.0000000228   0.0000013832   0.0000006524
       -0.0000006496  -0.0000009984   0.0000007826   0.0000010849   0.0000002896
        0.0000006856  -0.0000019858  -0.0000003789  -0.0000006143  -0.0000037780
       -0.0000028856  -0.0000040985  -0.0000193791   0.0000067295  -0.0000206991
        0.0000022069  -0.0000398472   0.0000592026   0.0000029409   0.0000039954
       -0.0000140708   0.0000015157  -0.0000026921  -0.0000039071   0.0000032924
       -0.0000045244  -0.0000001882  -0.0000007788   0.0000054077  -0.0000005424
       -0.0000027814  -0.0000024005   0.0000003986   0.0000018918   0.0000007589
       -0.0000008258  -0.0000004176  -0.0000026450   0.0000009440   0.0000009326
        0.0000005718  -0.0000010530  -0.0000006735  -0.0000010455  -0.0000001930
       -0.0000004887   0.0000000221  -0.0000008821   0.0000008795   0.0000009362
       -0.0000002092  -0.0000013104  -0.0000007792  -0.0000006300  -0.0000001352
       -0.0000010554   0.0000015737  -0.0000001096  -0.0000004241  -0.0000000021
       -0.0000000254   0.0000004761  -0.0000010748   0.0000021326  -0.0000023116
        0.0000012917  -0.0000019856  -0.0000039048   0.0000061104  -0.0000044358
        0.0000051087  -0.0000021384   0.0000056421  -0.0000012638  -0.0000003577
       -0.0000012161   0.0000007096  -0.0000007929  -0.0000000695  -0.0000006297
        0.0000002909  -0.0000002668   0.0000006719  -0.0000027381  -0.0000010564
       -0.0000019836  -0.0000000335  -0.0000000797   0.0000015076  -0.0000026147
       -0.0000008552   0.0000005095  -0.0000027311   0.0000014515  -0.0000006965
       -0.0000001683  -0.0000007395   0.0000000270   0.0000007797   0.0000010126
        0.0000002568  -0.0000014591  -0.0000022318  -0.0000005933  -0.0000019952
        0.0000033177  -0.0000006965  -0.0000012661   0.0000002298   0.0000008315
        0.0000008546   0.0000011479   0.0000015476  -0.0000002894   0.0000495733
        0.0000698906  -0.0000281546  -0.0016232110  -0.0001206735   0.0013649792
       -0.0018971198  -0.0034568112  -0.0486946933   0.0002822193  -0.0118327456
       -0.0355957135  -0.0000098423   0.0000326012   0.0009163065   0.0001432321
       -0.0005891454   0.0083193404  -0.0000014301  -0.0000025898   0.0000068219
        0.0000010522  -0.0000005403   0.0000002451  -0.0000005173   0.0000006860
        0.0000014006   0.0000000330  -0.0000001546   0.0000010466  -0.0000000222
       -0.0000002759   0.0000007094  -0.0000001295  -0.0000001739   0.0000007980
       -0.0000001979  -0.0000019905   0.0000004129   0.0000004780   0.0000007655
       -0.0000007348  -0.0000019144  -0.0000037162  -0.0000011845  -0.0000004415
       -0.0000000765   0.0000005188  -0.0000010184   0.0000008585   0.0000008632
       -0.0000006694  -0.0000005096   0.0000013432   0.0000002192   0.0000001855
        0.0000003067  -0.0000005209  -0.0000001918   0.0000004557  -0.0000006082
       -0.0000000361   0.0000002184  -0.0000001176  -0.0000005556   0.0000009112
        0.0000004633  -0.0000016235  -0.0000003570  -0.0000002160  -0.0000013058
       -0.0000010115   0.0000009202  -0.0000016715  -0.0000005476   0.0000004515
        0.0000001744  -0.0000008194  -0.0000018167   0.0000006264  -0.0000010940
       -0.0000000814   0.0000007775  -0.0000005346   0.0000005820  -0.0000006048
       -0.0000011695   0.0000009888   0.0000014834  -0.0000001195  -0.0000006850
        0.0000005470   0.0000002073  -0.0000007519  -0.0000000487   0.0000003982
        0.0000000961   0.0000019770  -0.0000002863  -0.0000006037   0.0000015749
        0.0000006978   0.0000003061   0.0000000909  -0.0000010082  -0.0000000644
       -0.0000005807  -0.0000015187   0.0000004652  -0.0000006314  -0.0000002107
        0.0000008879   0.0000000658  -0.0000016709   0.0000000920   0.0000003577
       -0.0000024957  -0.0000005866   0.0000001717  -0.0000017030  -0.0000021122
        0.0000015591  -0.0000016368  -0.0000005537  -0.0000007569  -0.0000026355
       -0.0000005733   0.0000033117  -0.0000028401   0.0000009555   0.0000034682
        0.0000062199   0.0001267842  -0.0006282317   0.0083153102   0.0010483650
        0.0004937477   0.0009028861
       -0.2720678518   0.1374150916   0.0100822541   0.6659859421   0.0156470388
       -0.0098459157  -0.0951536292  -0.0379794851  -0.0007929313   0.0264718460
       -0.0211869049  -0.0012686252  -0.0043209194  -0.0066157718  -0.0000570737
       -0.0010654277   0.0021526013   0.0000283517   0.0001072244  -0.0012786740
       -0.0000455114  -0.0002138051   0.0001248786   0.0000002945  -0.0000057040
        0.0000633498   0.0000105412   0.0002129640   0.0001148763  -0.0000375563
       -0.0001922508  -0.0000638249   0.0000361636   0.0001302894  -0.0000457871
        0.0000593659  -0.0000242977   0.0000087279  -0.0000238911   0.0000160890
        0.0000034189   0.0000057680  -0.0000127769  -0.0000135118   0.0000073168
        0.0000063770   0.0000074905  -0.0000068132  -0.0000267540  -0.0000314326
        0.0000239190  -0.0000243006   0.0000088318  -0.0000267172  -0.0000003714
       -0.0000126792   0.0000085129  -0.0000190063  -0.0000106296  -0.0000134388
        0.0000126838   0.0000173048  -0.0000254922   0.0000287666   0.0000034928
        0.0000447464   0.0000320146   0.0000793659  -0.0000649791   0.0000089810
        0.0000129488   0.0000218358  -0.0000300703  -0.0002192297   0.0000225225
        0.0000017968   0.0002249319  -0.0000151361   0.0000880295  -0.0000756346
        0.0000505604  -0.0000234510   0.0000100041  -0.0000234399   0.0000081208
       -0.0000167525   0.0000108039   0.0000063423   0.0000091816   0.0000028146
       -0.0000096380  -0.0000083303  -0.0000038952   0.0000240078   0.0000300670
        0.0000154265  -0.0000175879   0.0000245561  -0.0000213165   0.0000081986
       -0.0000096456   0.0000060523  -0.0000100637   0.0000142492  -0.0000090640
       -0.0000138165  -0.0000159650  -0.0000095694   0.0000189471  -0.0000025755
        0.0000304097  -0.0000898795  -0.0000512557  -0.0000408269  -0.0001096452
       -0.0000686905  -0.0000099547  -0.0000559482   0.0009304125   0.0000506318
       -0.0003563708  -0.0016547920  -0.0000861769   0.0002374199   0.0000393449
        0.0000035925   0.0000773429  -0.0001271332   0.0000048795   0.0000350784
       -0.0001879897  -0.0000173188   0.0000054895   0.0001699194   0.0000121351
       -0.0000634202  -0.0000640508  -0.0000393434   0.0000152747   0.0000107131
        0.0000158471  -0.0000056593  -0.0000103323  -0.0000096933  -0.0000057953
        0.0000034378  -0.0000047431   0.0000074195  -0.0000107979   0.0000017833
       -0.0000197204   0.0000249509  -0.0000138349   0.0000146374   0.0000165205
        0.0000157568  -0.0000072924  -0.0000107241  -0.0000081397   0.0000115935
        0.0000061761   0.0000076814   0.0000116427  -0.0000103172   0.0000056299
       -0.0000113010  -0.0000050808  -0.0000264829   0.0000578540  -0.0000302262
        0.0000234138  -0.0000057881  -0.0000151674  -0.0000213535  -0.0001903921
        0.0000865365   0.0000192440   0.0001857859  -0.0000858728  -0.0000205299
       -0.0000847091  -0.0000371566  -0.0000527405   0.0000132112   0.0000077618
        0.0000228140  -0.0000221572   0.0000015644  -0.0000065741   0.0000099261
       -0.0000097309  -0.0000062860  -0.0000007704   0.0000040926   0.0000065288
        0.0000146946  -0.0000212990  -0.0000181980   0.0000308873   0.0000044203
        0.0000243673   0.0000011694  -0.0000063738   0.0000014271   0.0000185365
       -0.0000119169   0.0000008044  -0.0000168360   0.0000100075   0.0000167663
       -0.0000109535  -0.0000142410  -0.0000162598  -0.0000206342   0.0001048281
        0.0000710129  -0.0000380399   0.0001775037   0.0000159822   0.0015298595
        0.0004435277   0.0000256981  -0.0128005346   0.0290202151   0.0014269672
       -0.0662454310  -0.0293239574   0.0000404193  -0.0013973418   0.0020899231
        0.0000918812  -0.2355452415  -0.1127499648  -0.0008866237  -0.0016459377
        0.0254306048   0.0011747806   0.0001439520  -0.0000853996  -0.0000363999
        0.0000046296  -0.0000070791   0.0000066471  -0.0000019683   0.0000031426
       -0.0000066779  -0.0000081693   0.0000015455  -0.0000061443  -0.0000110640
       -0.0000010112  -0.0000000307  -0.0000152711  -0.0000006903  -0.0000002473
       -0.0000145724  -0.0000047834   0.0000103590   0.0000065930   0.0000096013
       -0.0000005565  -0.0000083475  -0.0000193238  -0.0000299687  -0.0000086461
        0.0000221059   0.0000049061   0.0000103364  -0.0000022543   0.0000044148
       -0.0000033645  -0.0000009693  -0.0000044377  -0.0000013749   0.0000044632
       -0.0000046028   0.0000011178   0.0000059463  -0.0000010859   0.0000011362
        0.0000070188  -0.0000023631   0.0000036916   0.0000044001   0.0000006921
        0.0000012379  -0.0000019745  -0.0000011416  -0.0000039222   0.0000041284
       -0.0000121503   0.0000136979  -0.0000142527   0.0000032782  -0.0000113585
       -0.0000337531  -0.0000056181  -0.0000062167   0.0000007369  -0.0000023918
        0.0000016897  -0.0000000561   0.0000029804   0.0000013251   0.0000029469
        0.0000023900  -0.0000019491   0.0000028785  -0.0000008930  -0.0000010575
        0.0000050642   0.0000013112  -0.0000035343   0.0000018777  -0.0000015260
        0.0000001936  -0.0000043244   0.0000025216  -0.0000031344   0.0000073991
        0.0000087446   0.0000020074   0.0000048898  -0.0000057345  -0.0000008705
       -0.0000045161  -0.0000059982  -0.0000007024   0.0000006270   0.0000016255
        0.0000023791  -0.0000003839   0.0000024251   0.0000053938  -0.0000023475
       -0.0000001952   0.0000040924  -0.0000027696   0.0000005086   0.0000036298
       -0.0000047679  -0.0000045635  -0.0000029409   0.0000000967  -0.0000094180
       -0.0000002934   0.0000045933   0.0000065985  -0.0000276724   0.0000111018
        0.0000063491   0.0005763530   0.0005740177   0.0000146155  -0.0041119476
       -0.0029488877   0.0000905190
        0.0578894241  -0.1500989478  -0.0053326787   0.0156470388   0.6573967639
        0.0220077203   0.0394670658  -0.3386646853  -0.0123925587  -0.0764301745
       -0.0403972257  -0.0004230948  -0.0032360756   0.0048632070  -0.0000944789
        0.0011740749  -0.0001257430   0.0000161293  -0.0001192425   0.0004985324
        0.0000464353   0.0000628399   0.0000264717  -0.0000004319   0.0000012679
        0.0000030237  -0.0000073668  -0.0000806082  -0.0000290725   0.0000150215
        0.0001072198   0.0000242471  -0.0000056027  -0.0000737371   0.0000234614
       -0.0000344762   0.0000121097  -0.0000010287   0.0000067910  -0.0000153078
       -0.0000026457  -0.0000057293   0.0000004173  -0.0000000690  -0.0000007233
       -0.0000098196  -0.0000069606   0.0000001693   0.0000126698   0.0000165985
       -0.0000142157  -0.0000011902  -0.0000062570   0.0000066573  -0.0000106873
        0.0000003588  -0.0000049506  -0.0000029642  -0.0000089542   0.0000029968
       -0.0000121371  -0.0000262587   0.0000302527  -0.0000057061   0.0000127264
       -0.0000098599  -0.0000089523  -0.0000259882   0.0000292745   0.0000171391
       -0.0000102246  -0.0000141346  -0.0000104950   0.0001281649  -0.0000094980
        0.0000006182  -0.0001326460   0.0000155802  -0.0000499897   0.0000451081
       -0.0000346586   0.0000115756  -0.0000041551   0.0000134517  -0.0000069728
        0.0000131997  -0.0000100173  -0.0000045838  -0.0000050970  -0.0000042765
        0.0000041417   0.0000059770  -0.0000007044  -0.0000134873  -0.0000184610
       -0.0000102668   0.0000101225  -0.0000131960   0.0000097013  -0.0000047169
        0.0000057647  -0.0000053751   0.0000058222  -0.0000030877   0.0000020384
        0.0000139831   0.0000145160   0.0000078335  -0.0000131088   0.0000075955
       -0.0000184749   0.0000506210   0.0000271276   0.0000186415   0.0000340019
       -0.0000072490   0.0000086940   0.0004789729  -0.0005691648  -0.0000360956
       -0.0004568338   0.0011674935   0.0000711172  -0.0001073442  -0.0001656851
       -0.0000095898  -0.0000681280   0.0000657726   0.0000023965  -0.0000444009
        0.0000908334   0.0000079602  -0.0000175083  -0.0001030968  -0.0000171979
        0.0000476290   0.0000489825   0.0000325700  -0.0000080456  -0.0000091487
       -0.0000110127   0.0000052739   0.0000119785   0.0000055606   0.0000017853
       -0.0000039052  -0.0000012444  -0.0000019047   0.0000063953  -0.0000017123
        0.0000109998  -0.0000192197   0.0000047188  -0.0000080645  -0.0000074086
       -0.0000100995   0.0000056585   0.0000018372   0.0000030691  -0.0000049421
       -0.0000059049  -0.0000047661  -0.0000112860   0.0000101097  -0.0000084630
        0.0000108729   0.0000076735   0.0000164048  -0.0000352020   0.0000169010
       -0.0000207246   0.0000041378  -0.0000157239   0.0000104207   0.0001662411
       -0.0000806809  -0.0000166290  -0.0001464675   0.0000726714   0.0000235358
        0.0000691450   0.0000306309   0.0000473336  -0.0000105083  -0.0000073294
       -0.0000227292   0.0000213430  -0.0000012275   0.0000067379  -0.0000092444
        0.0000112637   0.0000067851  -0.0000021859  -0.0000035746  -0.0000066712
       -0.0000125635   0.0000151170   0.0000129002  -0.0000329721  -0.0000002112
       -0.0000143607   0.0000035361   0.0000038193   0.0000002735  -0.0000110234
        0.0000081426  -0.0000006068   0.0000036693  -0.0000080318  -0.0000223748
        0.0000353115   0.0000148660   0.0000234796   0.0000176970  -0.0000938122
       -0.0000627003  -0.0000416601  -0.0000731384  -0.0000097859  -0.0021241559
       -0.0028978078  -0.0000961369   0.0286260665  -0.0463453559  -0.0022817698
        0.0270222704   0.0600804477   0.0020123889   0.0257264522  -0.0175965169
       -0.0013232473  -0.1128809128  -0.1097690514  -0.0009779821   0.0022606636
       -0.0165827737  -0.0008890187  -0.0000028508   0.0000531741   0.0000146400
        0.0000008375   0.0000001536  -0.0000000828   0.0000041356  -0.0000047595
        0.0000069271   0.0000069565  -0.0000007737   0.0000055157   0.0000039714
        0.0000031828   0.0000011207   0.0000058709   0.0000049660   0.0000019141
        0.0000061818   0.0000070890   0.0000010722   0.0000105810   0.0000074970
       -0.0000007002   0.0000228490   0.0000022393   0.0000098763   0.0000040151
       -0.0000088858  -0.0000026023  -0.0000015812  -0.0000015603  -0.0000026911
        0.0000040928  -0.0000009488   0.0000025775   0.0000027699  -0.0000063939
        0.0000018445  -0.0000011724  -0.0000071406  -0.0000021925  -0.0000003543
       -0.0000080161  -0.0000008322  -0.0000044846  -0.0000065937  -0.0000042607
       -0.0000048769   0.0000019782  -0.0000040910  -0.0000006097  -0.0000043847
        0.0000056504  -0.0000099125   0.0000083489   0.0000002014   0.0000006692
        0.0000193719   0.0000038034   0.0000035551   0.0000038534   0.0000009336
       -0.0000050538   0.0000000329  -0.0000073037  -0.0000025395  -0.0000037340
       -0.0000062754   0.0000009320  -0.0000046510  -0.0000031041   0.0000008176
       -0.0000077040  -0.0000039181   0.0000033224  -0.0000066157  -0.0000012773
        0.0000028210  -0.0000011664  -0.0000005985  -0.0000012612  -0.0000015223
       -0.0000088453  -0.0000074072  -0.0000092156   0.0000033341   0.0000007406
        0.0000037552   0.0000066219  -0.0000019616  -0.0000005358  -0.0000030915
       -0.0000050426   0.0000006716  -0.0000016701  -0.0000088025   0.0000016887
        0.0000014237  -0.0000078374   0.0000009703   0.0000034689  -0.0000109126
        0.0000046301   0.0000097420  -0.0000004625  -0.0000007268   0.0000159744
       -0.0000007565  -0.0000106005  -0.0000138856   0.0000730274  -0.0000399350
       -0.0000077951   0.0004388200  -0.0002570535   0.0000232733  -0.0034136555
       -0.0005617434  -0.0002912463
        0.0066775239  -0.0068634953  -0.0494428545  -0.0098459157   0.0220077203
        0.1184899008   0.0025768756  -0.0111137610  -0.0489195246  -0.0038103004
       -0.0013731519   0.0021597322   0.0000763457   0.0000281150   0.0080884326
        0.0001027601  -0.0001029087  -0.0006675874   0.0000069259   0.0000793435
       -0.0003899617   0.0000139826  -0.0000073233   0.0000895376  -0.0000046710
        0.0000012868   0.0000045873   0.0000002729  -0.0000038471  -0.0000141925
        0.0000050572  -0.0000120498   0.0000201026  -0.0000112207  -0.0000056142
       -0.0000044750   0.0000008669   0.0000033080   0.0000001977   0.0000018910
        0.0000002591  -0.0000000174  -0.0000006439   0.0000010181   0.0000018125
       -0.0000041576  -0.0000006967  -0.0000041452   0.0000052909   0.0000037151
       -0.0000047495  -0.0000082851  -0.0000038486  -0.0000013898  -0.0000007496
        0.0000053611  -0.0000060963  -0.0000013683  -0.0000042762  -0.0000024808