$hessian                                                                        
        0.1164316787  -0.0165697856   0.0056152504  -0.0481732052   0.0074582658
       -0.0004160176   0.0010035796   0.0000555640   0.0028809370  -0.0059491489
        0.0017304552  -0.0006766243   0.0012650661  -0.0015122571  -0.0024110101
       -0.0462990985   0.0065036793  -0.0042732336   0.0074654373   0.0001165438
        0.0001803546  -0.0000037938   0.0000695870  -0.0000212671  -0.0005667132
       -0.0000170722   0.0000404051   0.0000304485  -0.0000053926  -0.0000196920
       -0.0005478775  -0.0000290986   0.0000178188   0.0000145019  -0.0000789604
       -0.0001256668  -0.0001147398   0.0000764888   0.0000462065   0.0000102232
       -0.0000216494   0.0000467006  -0.0000153552  -0.0000271727  -0.0000078321
        0.0000036817  -0.0000029556  -0.0000065338  -0.0000032415   0.0000074600
        0.0000031713   0.0000022887   0.0000150091   0.0000005753  -0.0000109306
        0.0000096096   0.0000016792  -0.0000002918  -0.0000140110  -0.0000008479
        0.0000052142   0.0000003745   0.0000063915  -0.0000010273  -0.0000016507
       -0.0000001085   0.0000146215   0.0000027533   0.0000075575   0.0000151795
        0.0000038834   0.0000058266   0.0000041697   0.0000057943   0.0000037197
       -0.0000141020   0.0000128030   0.0000067310   0.0000249684  -0.0000061603
       -0.0000050317  -0.0000204984   0.0000027802   0.0000019100   0.0000118616
        0.0000075240   0.0000014155  -0.0000081884   0.0000074941  -0.0000008935
        0.0000143372  -0.0000025905  -0.0000005908  -0.0000044410  -0.0000003629
       -0.0000002928  -0.0000016464   0.0000007625   0.0000023716   0.0000015767
       -0.0000008221  -0.0000005409   0.0000000230  -0.0000006829  -0.0000001715
       -0.0000017440   0.0000022341  -0.0000020329  -0.0000003140  -0.0000032524
        0.0000020189   0.0000007400   0.0000033814  -0.0000030350  -0.0000013235
       -0.0000019324   0.0000012928   0.0000019827   0.0000019663  -0.0000022716
       -0.0000026684  -0.0000023700   0.0000018968   0.0000001748  -0.0000004873
       -0.0000002334   0.0000005256   0.0000000406  -0.0000008814  -0.0000021202
        0.0000001942  -0.0000008682  -0.0000066797  -0.0000048235   0.0000004699
        0.0000075797  -0.0000083787  -0.0000040183   0.0000064068   0.0000016953
        0.0000064350  -0.0000281456  -0.0000155981  -0.0000181631  -0.0000214455
        0.0000169230   0.0000086380  -0.0000117519   0.0000127317  -0.0000430054
       -0.0340282414   0.0002754727  -0.0002334162   0.0006365931   0.0009727103
        0.0000730171   0.0078969205   0.0002065293  -0.0000697059   0.0006326166
        0.0007298783  -0.0006289189   0.0001944502   0.0000078924   0.0000032494
       -0.0000162769  -0.0000005820   0.0000011833   0.0001024565   0.0000034887
       -0.0000006393   0.0000309331   0.0000024775  -0.0000003243   0.0000107894
        0.0000135797  -0.0000069036   0.0000022416   0.0000011619  -0.0000012164
        0.0000015515   0.0000019504   0.0000022213  -0.0000002407   0.0000027481
        0.0000029605   0.0000021726  -0.0000019718  -0.0000015629   0.0000005031
       -0.0000012128  -0.0000018198  -0.0000007280  -0.0000004862  -0.0000007434
        0.0000001412  -0.0000000430   0.0000008091  -0.0000005069  -0.0000001710
        0.0000002668  -0.0000011882   0.0000009571  -0.0000000178   0.0000001188
        0.0000005183  -0.0000001637  -0.0000003142  -0.0000000467   0.0000002167
       -0.0000006157   0.0000000694  -0.0000000232  -0.0000009977   0.0000001860
        0.0000000444  -0.0000001813   0.0000002895  -0.0000002527   0.0000000785
        0.0000001870  -0.0000001229  -0.0000006056  -0.0000001102   0.0000006164
        0.0000003279  -0.0000008085   0.0000001624  -0.0000001672  -0.0000016033
        0.0000008633   0.0000015405  -0.0000022390   0.0000013488   0.0000108538
       -0.0000093536   0.0000099624
       -0.0165697856   0.6453098932   0.0057707791   0.0082282002  -0.3137517226
       -0.0048973688  -0.0005158991  -0.0110414042  -0.0912417654   0.0017542526
       -0.0550690199   0.0223202104  -0.0009737118   0.0491012297   0.0558725023
        0.0057416579  -0.2010205565   0.0769751826   0.0000813482   0.0023340724
       -0.0078838291   0.0000623847  -0.0019447878   0.0006304772  -0.0000271893
        0.0001398340  -0.0008798502   0.0000049570   0.0000207180   0.0005091901
       -0.0000295396   0.0002597762  -0.0005646997  -0.0000689111   0.0019477860
        0.0031680941   0.0000846611  -0.0022474237  -0.0014557119  -0.0002365779
       -0.0000193588  -0.0002332345  -0.0002370050  -0.0000461605  -0.0001300595
        0.0000559991  -0.0001012647  -0.0000372743   0.0001283434   0.0000781426
        0.0000358697  -0.0001744307  -0.0000535301   0.0000163229   0.0003426636
        0.0001542979   0.0000423699  -0.0003267483   0.0001965001   0.0000645829
        0.0001180443  -0.0000559054   0.0000341840  -0.0001092879   0.0000646498
        0.0000777511  -0.0000920469  -0.0001628385  -0.0000838468   0.0002802891
       -0.0000181036  -0.0000025221  -0.0002873955   0.0000313026  -0.0000214761
        0.0002166308  -0.0002601080  -0.0000305205  -0.0005114997   0.0000545316
        0.0000276617   0.0004454574  -0.0000577721  -0.0000268258  -0.0002286764
       -0.0001342205  -0.0000172950   0.0001438826  -0.0001604861   0.0000115869
       -0.0002377534   0.0000314048   0.0000146009   0.0001314201  -0.0000215447
       -0.0000098966  -0.0000229870  -0.0000283477  -0.0000046353   0.0000315243
       -0.0000037728  -0.0000052971  -0.0000149319  -0.0000230290   0.0000207465
        0.0000180805  -0.0000403657   0.0000287102  -0.0000004000   0.0000546430
       -0.0000454583  -0.0000259317  -0.0000462417   0.0000396427  -0.0000146761
        0.0000515748  -0.0000361649  -0.0000122799  -0.0000520812   0.0000439680
        0.0000238243   0.0000343025  -0.0000318149  -0.0000100603   0.0000227667
       -0.0000168899   0.0000259335  -0.0000059511   0.0000000568  -0.0000095851
        0.0000336639   0.0000085579   0.0001867669   0.0001091513  -0.0000364671
       -0.0001749539   0.0001940100   0.0000457833   0.0003817111   0.0002219669
        0.0000028702  -0.0003325076  -0.0000175765   0.0000470285   0.0002521219
        0.0000264208  -0.0001509177   0.0002680729  -0.0000167365  -0.0002395716
        0.0002695382  -0.0684513746  -0.0750567386   0.0007378642  -0.0228705079
       -0.0016656646   0.0002246884   0.0006632158  -0.0018473170   0.0009748310
       -0.0234364903   0.0211094206   0.0000068794   0.0000014461  -0.0001703145
        0.0000005938   0.0000002364  -0.0000320736   0.0000042259   0.0000024829
        0.0000119242   0.0000029545  -0.0000150952  -0.0000146349   0.0000515241
        0.0000236391  -0.0000022091   0.0000252817  -0.0000280382   0.0000011998
        0.0000023868   0.0000132435  -0.0000066080   0.0000330008  -0.0000103395
       -0.0000198171  -0.0000310813   0.0000004043  -0.0000279054  -0.0000176717
        0.0000155532  -0.0000187672   0.0000001567   0.0000245387  -0.0000270555
       -0.0000042606   0.0000063308  -0.0000154552   0.0000037748   0.0000012305
       -0.0000060956  -0.0000049877   0.0000005818   0.0000007933  -0.0000004702
        0.0000091606  -0.0000084845   0.0000084194   0.0000044897  -0.0000060865
        0.0000081441  -0.0000017194   0.0000007146   0.0000086634  -0.0000004422
       -0.0000018356   0.0000067847  -0.0000059755   0.0000047817  -0.0000019712
       -0.0000066457   0.0000072262  -0.0000031731   0.0000011392  -0.0000001810
        0.0000033615  -0.0000029998   0.0000057478  -0.0000055542  -0.0000053019
        0.0000183465  -0.0000093058  -0.0000207467   0.0000274807  -0.0000580536
        0.0000156550   0.0000142717
        0.0056152504   0.0057707791   0.6676297932   0.0021135626  -0.0852067581
       -0.1046666364   0.0010451105  -0.0326562911   0.0029820295  -0.0005640526
        0.0188117075  -0.0029185740  -0.0005811301  -0.0020777067  -0.0645824942
       -0.0067442381   0.1559077507  -0.2216732168   0.0000369585  -0.0038114367
       -0.0009255786  -0.0000211966   0.0006964264  -0.0001703067   0.0000007023
        0.0003066572   0.0004719970   0.0000027490  -0.0001450760  -0.0002314245
        0.0000211343  -0.0004144874  -0.0001085433   0.0000146041  -0.0009367391
       -0.0025118632  -0.0000366145   0.0006564288  -0.0000781817  -0.0000179777
        0.0001786171   0.0000001773  -0.0001367102  -0.0000766442   0.0000090414
        0.0000256494   0.0000341826   0.0000375486   0.0000485652  -0.0000200691
       -0.0000155321  -0.0000279439  -0.0000274809  -0.0000038829  -0.0000149041
        0.0001321970   0.0000612829   0.0000105849   0.0001010242   0.0000393758
        0.0000115765  -0.0000170207  -0.0000009403  -0.0000286487  -0.0000398472
       -0.0000335757  -0.0000363812   0.0000372769   0.0000421926  -0.0000526615
        0.0000064849  -0.0000131837   0.0000313728  -0.0000615338  -0.0000214004
       -0.0000503987   0.0000535774   0.0000114380   0.0000634251  -0.0000315238
       -0.0000022191  -0.0000411808   0.0000075396   0.0000037849   0.0000147128
       -0.0000015900   0.0000077374  -0.0000131322  -0.0000015777   0.0000109409
       -0.0000217651   0.0000036727  -0.0000005270   0.0000350166  -0.0000031508
       -0.0000046519  -0.0000121282  -0.0000135214   0.0000059388   0.0000112070
        0.0000158545  -0.0000152672   0.0000099007  -0.0000171213   0.0000125376
       -0.0000050843  -0.0000226553   0.0000201968  -0.0000101050   0.0000276370
       -0.0000207606   0.0000095443  -0.0000148950   0.0000106466   0.0000088599
        0.0000117359  -0.0000125922  -0.0000183388  -0.0000246776   0.0000221460
       -0.0000037121   0.0000238576  -0.0000203851   0.0000113313   0.0000125936
       -0.0000141027   0.0000065923  -0.0000193236   0.0000139033  -0.0000035178
        0.0000149498  -0.0000022110  -0.0000186365  -0.0000030224  -0.0000060852
        0.0000251395  -0.0000046712  -0.0000136600  -0.0000507515  -0.0000248636
       -0.0000151934   0.0001109489   0.0000770088   0.0000577231   0.0001194852
       -0.0000418815   0.0000304292  -0.0000286235   0.0001792456   0.0000158986
       -0.0002513290  -0.0750222925  -0.2748787840  -0.0006934018   0.0225813113
        0.0027288857  -0.0000523304  -0.0023728297  -0.0051091333   0.0001177273
       -0.0027660178   0.0039402339  -0.0000069127   0.0001282366  -0.0000765368
        0.0000024082  -0.0000553928   0.0000145868  -0.0000005582   0.0000020904
        0.0000669370  -0.0000031515   0.0000769910  -0.0000497690   0.0000050360
        0.0000161193  -0.0000422684  -0.0000063767  -0.0000109526  -0.0000026394
       -0.0000105073   0.0000165579   0.0000090659   0.0000068138   0.0000203569
        0.0000158690  -0.0000073841   0.0000185776   0.0000159801   0.0000120867
        0.0000159939   0.0000083770  -0.0000002511  -0.0000004503  -0.0000016433
       -0.0000005239   0.0000022902   0.0000005825   0.0000041410   0.0000000233
       -0.0000009199  -0.0000026390  -0.0000012182   0.0000028414  -0.0000025094
        0.0000089843  -0.0000059618   0.0000086502   0.0000052684  -0.0000052890
        0.0000085030  -0.0000033369   0.0000011691   0.0000092263   0.0000005140
       -0.0000030721   0.0000069816  -0.0000072589   0.0000032996  -0.0000034662
       -0.0000063346   0.0000050660  -0.0000005192   0.0000020314  -0.0000025658
        0.0000036937  -0.0000021800   0.0000016279  -0.0000039779  -0.0000020474
       -0.0000000302  -0.0000067394  -0.0000017212   0.0000024373   0.0000031597
        0.0000050476  -0.0000521156
       -0.0481732052   0.0082282002   0.0021135626   0.1163601640  -0.0170137071
        0.0058790598  -0.0462074536   0.0012332562  -0.0015056258   0.0006312166
       -0.0011353811  -0.0004812092  -0.0061179525   0.0005394519   0.0009429156
        0.0010480295   0.0018596785  -0.0017183794  -0.0002396964   0.0000395808
       -0.0000893607  -0.0000123493  -0.0000301612   0.0000181844   0.0000303305
        0.0000003646  -0.0000194425  -0.0000027693   0.0000043631   0.0000013157
       -0.0000158482   0.0000074880  -0.0000050870   0.0000421738   0.0000406235
        0.0000277091   0.0070548881   0.0002750385  -0.0001907672  -0.0000710532
       -0.0000862353  -0.0011055311   0.0000869486  -0.0001001343  -0.0000279272
       -0.0000143196   0.0000040963   0.0000878154   0.0000020280  -0.0000259005
       -0.0000211586  -0.0000268373  -0.0000651402   0.0000495625   0.0001660498
       -0.0001617599  -0.0000409627   0.0001133727   0.0001759876   0.0000351342
       -0.0000093548   0.0000649046  -0.0000263988  -0.0000158092   0.0000250202
        0.0000231687  -0.0000047012  -0.0000104828  -0.0000930225   0.0000239115
        0.0000040273   0.0000088609  -0.0000150517   0.0000261360   0.0000145748
        0.0000048113  -0.0000096207   0.0000101249  -0.0000034946  -0.0000032957
       -0.0000033209   0.0000074765  -0.0000015569  -0.0000003836  -0.0000023145
       -0.0000015830   0.0000014801   0.0000018839  -0.0000039641  -0.0000003402
       -0.0000006780   0.0000000071   0.0000003424   0.0000063900  -0.0000013393
       -0.0000010164  -0.0000060723  -0.0000031577   0.0000040764   0.0000047583
       -0.0000009669  -0.0000010075  -0.0000009954  -0.0000026617   0.0000018355
       -0.0000011440  -0.0000003161   0.0000000717  -0.0000011562   0.0000004077
       -0.0000005025   0.0000004744   0.0000004206  -0.0000006790  -0.0000019721
        0.0000012273  -0.0000009114   0.0000008553  -0.0000006178  -0.0000000282
       -0.0000013979  -0.0000001321  -0.0000000098  -0.0000006513   0.0000012373
       -0.0000013913   0.0000023419  -0.0000002143  -0.0000007522  -0.0000040746
        0.0000043068  -0.0000018326   0.0000047031   0.0000025574  -0.0000017066
       -0.0000030768   0.0000026443  -0.0000030774   0.0000360778   0.0000112359
        0.0000008854  -0.0000499675  -0.0000239264  -0.0000217288   0.0000809835
        0.0001035062   0.0000250294  -0.0000146875   0.0000900246   0.0010959965
        0.0005235989   0.0000808018   0.0000449245  -0.0339349028   0.0051298645
       -0.0056148148   0.0006317889   0.0003685328   0.0008091313   0.0080273814
        0.0003470424  -0.0002152333  -0.0000026904  -0.0000071134   0.0000005245
        0.0000000681  -0.0000015813   0.0000002152  -0.0000049495  -0.0000002223
        0.0000005381  -0.0000021488   0.0000003223   0.0000022423   0.0000193509
        0.0000493775  -0.0000228366   0.0000089597   0.0000053469  -0.0000085258
        0.0000017037   0.0000105366  -0.0000119212   0.0000119874  -0.0000110335
       -0.0000011891   0.0000095554   0.0000129310  -0.0000005539   0.0000034594
       -0.0000064922   0.0000079835  -0.0000012819   0.0000032037  -0.0000046135
       -0.0000000984   0.0000015813  -0.0000000082  -0.0000002119   0.0000004853
       -0.0000000664  -0.0000015659   0.0000009718   0.0000000768   0.0000001696
        0.0000015998  -0.0000011213   0.0000004341   0.0000004491  -0.0000003745
        0.0000001012  -0.0000000595   0.0000000047  -0.0000002633   0.0000001261
       -0.0000001223   0.0000003803  -0.0000002153   0.0000000564  -0.0000000775
       -0.0000002955   0.0000002770  -0.0000008145  -0.0000001266   0.0000004682
       -0.0000001006  -0.0000008069   0.0000006272  -0.0000003334  -0.0000018268
        0.0000021053  -0.0000000203  -0.0000056689   0.0000044193   0.0000187354
       -0.0000412679   0.0000296417
        0.0074582658  -0.3137517226  -0.0852067581  -0.0170137071   0.6533302432
       -0.0128532772   0.0020034685  -0.1209103344  -0.0327101162  -0.0016770830
        0.0522153605  -0.0055287685   0.0004957110  -0.0327808020  -0.0353867926
        0.0024441244  -0.0553119663   0.0678468451   0.0000619430  -0.0012815259
        0.0024169536  -0.0000257247   0.0007139403  -0.0004603597   0.0000041223
       -0.0000164237   0.0005214592   0.0000018879  -0.0000761436  -0.0000810151
        0.0000089460  -0.0002481906   0.0001999496   0.0000471493  -0.0011236833
       -0.0014080715   0.0002297746  -0.0001021572   0.0046242906   0.0005145437
       -0.0003467027   0.0000179319   0.0000964509   0.0000267781   0.0001254152
       -0.0000432449   0.0000352317   0.0000061061  -0.0001417164  -0.0000340039
       -0.0000134048   0.0001366362   0.0001069975  -0.0000333784  -0.0003274325
       -0.0001169150   0.0000160437   0.0003252400  -0.0001506500  -0.0000326926
       -0.0000728371   0.0001127267  -0.0000587236   0.0001304698  -0.0000542769
       -0.0000782566   0.0000363362   0.0001135132   0.0000647200  -0.0002451175
        0.0000226535  -0.0000068295   0.0002862091  -0.0001018062  -0.0000337819
       -0.0002228604   0.0002371035   0.0000116431   0.0004382424  -0.0000506467
       -0.0000299436  -0.0004028626   0.0000547784   0.0000229352   0.0002009800
        0.0001180645   0.0000010737  -0.0001296138   0.0001484648  -0.0000121200
        0.0002126273  -0.0000291075  -0.0000104372  -0.0001182606   0.0000157200
        0.0000096838   0.0000244005   0.0000307268  -0.0000027965  -0.0000306063
       -0.0000098076   0.0000141612  -0.0000006890   0.0000287878  -0.0000244165
       -0.0000065899   0.0000431740  -0.0000355637   0.0000083132  -0.0000578771
        0.0000449374   0.0000109723   0.0000393319  -0.0000318101   0.0000047459
       -0.0000423046   0.0000314716   0.0000225071   0.0000536888  -0.0000459689
       -0.0000116773  -0.0000407963   0.0000371274  -0.0000044431  -0.0000246738
        0.0000228814  -0.0000233687   0.0000179605  -0.0000101954   0.0000091959
       -0.0000345593  -0.0000015779  -0.0001610071  -0.0000879030   0.0000323250
        0.0001486714  -0.0001699476  -0.0000250858  -0.0003339960  -0.0001850612
        0.0000355887   0.0003046704   0.0000561938  -0.0000277016  -0.0000541716
       -0.0000231293   0.0001413464  -0.0005419502  -0.0003235769   0.0001248267
        0.0003323209  -0.0115852787  -0.0044604107   0.0051270323  -0.1545774034
        0.1268703880   0.0001417166  -0.0123072477  -0.0279218535   0.0003399795
       -0.0018232728   0.0032466532  -0.0000096393   0.0002419626   0.0000006243
       -0.0000025709   0.0000496790   0.0000011741  -0.0000019303   0.0000084244
       -0.0000048790  -0.0000025040   0.0000031400  -0.0000440097  -0.0000297165
       -0.0000133521   0.0000239180   0.0000036045   0.0000342480  -0.0000169756
        0.0000156113  -0.0000202803   0.0000035471  -0.0000182272   0.0000012222
        0.0000175181   0.0000157629  -0.0000081594   0.0000257510  -0.0000022516
       -0.0000268431   0.0000220711  -0.0000007941  -0.0000320240   0.0000333145
        0.0000044912  -0.0000068787   0.0000151505  -0.0000051325  -0.0000005024
        0.0000069297   0.0000039459   0.0000000659  -0.0000027525   0.0000018730
       -0.0000134594   0.0000100426  -0.0000117240  -0.0000068674   0.0000074336
       -0.0000114395   0.0000033667  -0.0000010634  -0.0000118654   0.0000004246
        0.0000035361  -0.0000090240   0.0000094083  -0.0000046768   0.0000040435
        0.0000097812  -0.0000079106   0.0000033033  -0.0000018606   0.0000024785
       -0.0000046183   0.0000010597  -0.0000065935   0.0000039725   0.0000031941
       -0.0000171926   0.0000142749   0.0000273419  -0.0000330656   0.0000318601
       -0.0000046324   0.0000109800
       -0.0004160176  -0.0048973688  -0.1046666364   0.0058790598  -0.0128532772
        0.6566048192   0.0010464481  -0.1132025137  -0.2965621936  -0.0023248415
        0.0535597025  -0.0671164221   0.0008740128  -0.0328178419  -0.0236506915
        0.0001707774   0.0079254293   0.0447760381  -0.0000240533   0.0007333023
       -0.0015277030   0.0000256837  -0.0007621267   0.0003904170  -0.0000000359
       -0.0001382584  -0.0002139613  -0.0000081427   0.0001952464  -0.0001392214
       -0.0000044485   0.0001839800   0.0000003684  -0.0000056709   0.0003791797
       -0.0021073687  -0.0002461505   0.0045573884   0.0010062362   0.0002502315
       -0.0003224651   0.0002029296   0.0001097990  -0.0000329432   0.0002014154
        0.0000118112   0.0000411533  -0.0000031721  -0.0000186972  -0.0000186606
       -0.0000020833   0.0000489458   0.0000556926  -0.0000461614  -0.0001986134
       -0.0000465551   0.0000294859   0.0001871991  -0.0000767727   0.0000257169
       -0.0000215526   0.0000597752  -0.0000658158   0.0000214253  -0.0000232507
       -0.0000346434   0.0000071561   0.0000623829   0.0000031683  -0.0000477845
        0.0000166692  -0.0000245494   0.0000751939   0.0001333428   0.0001341732
       -0.0000751021   0.0001460767  -0.0000079809   0.0003371927  -0.0000626682
       -0.0000261933  -0.0002979452   0.0000469493   0.0000197529   0.0001413373
        0.0000672593   0.0000287331  -0.0000850183   0.0000637413   0.0000070025
        0.0000753427  -0.0000125102  -0.0000023049   0.0000062758  -0.0000033393
       -0.0000006143  -0.0000240768  -0.0000114803   0.0000157980   0.0000152623
       -0.0000100139   0.0000031832  -0.0000193416  -0.0000089438   0.0000091398
        0.0000107238  -0.0000160724   0.0000101145  -0.0000065951   0.0000145224
       -0.0000137203  -0.0000053987  -0.0000232356   0.0000216365   0.0000008834
        0.0000219226  -0.0000195561  -0.0000063401  -0.0000117527   0.0000131837
        0.0000159469   0.0000112901  -0.0000111268  -0.0000173681   0.0000101821
       -0.0000032653   0.0000128994   0.0000050529  -0.0000061434  -0.0000207203
        0.0000178534  -0.0000124361  -0.0000946958  -0.0000207612   0.0000050221
        0.0001089352  -0.0001086144  -0.0000479011  -0.0000776593  -0.0001146413
        0.0000145711  -0.0000063690  -0.0001221907  -0.0000993765  -0.0001231376
       -0.0000626640   0.0002483915  -0.0002225625  -0.0003369121   0.0001837929
        0.0008043581  -0.0287084489  -0.0087668978  -0.0056293262   0.1267829119
       -0.1892989889   0.0000525804  -0.0043431118  -0.0068354662  -0.0002358889
        0.0038629403  -0.0027246669  -0.0000000256   0.0000360129   0.0000207786
        0.0000016585  -0.0000403713   0.0000265347  -0.0000005186   0.0000083234
        0.0000429606  -0.0000025217   0.0000589973   0.0000392372  -0.0000264059
        0.0000244637  -0.0000565870  -0.0000303695   0.0000220435  -0.0000151068
       -0.0000186914   0.0000105200   0.0000210067  -0.0000144037   0.0000344966
        0.0000239249   0.0000057319   0.0000288061   0.0000325780   0.0000187155
       -0.0000009555   0.0000232514  -0.0000001732   0.0000063786   0.0000111290
       -0.0000016380   0.0000012918   0.0000031152   0.0000042471   0.0000087453
       -0.0000021659  -0.0000029643  -0.0000001003   0.0000007616  -0.0000006445
        0.0000041797  -0.0000050842   0.0000055280   0.0000030723  -0.0000041376
        0.0000046145  -0.0000011985   0.0000001801   0.0000050171  -0.0000002287
        0.0000001587   0.0000041295  -0.0000040598   0.0000039203  -0.0000002704
       -0.0000026562   0.0000043991  -0.0000033344   0.0000009104  -0.0000002928
        0.0000014444  -0.0000098436   0.0000023090  -0.0000013261  -0.0000007577
       -0.0000042096  -0.0000003040  -0.0000071536  -0.0000133644   0.0000265769
        0.0000345318  -0.0000731247
        0.0010035796  -0.0005158991   0.0010451105  -0.0462074536   0.0020034685
        0.0010464481   0.1147562885  -0.0178604495   0.0051756760  -0.0463424214
        0.0062043002  -0.0067596140   0.0007308128   0.0021708624   0.0000552114
       -0.0036789505   0.0000125391  -0.0009107232   0.0060094377   0.0003248830
        0.0000150814   0.0002782180   0.0000494499  -0.0000401767  -0.0005500234
       -0.0000021437   0.0000058530  -0.0000144642   0.0000048794  -0.0000014938
        0.0008792995   0.0000148425  -0.0000009164   0.0006074143   0.0000340330
        0.0000274494  -0.0014996309  -0.0001654836  -0.0002085048   0.0003136673
       -0.0000604558  -0.0000617701  -0.0001503684   0.0000767631   0.0000837986
        0.0001425978  -0.0001880607  -0.0000733060   0.0001048804   0.0000863965
        0.0000465831  -0.0000408469  -0.0000136408   0.0000189765  -0.0001008282
       -0.0000201615   0.0000094894  -0.0001267024   0.0000155458  -0.0000203655
        0.0000079641   0.0000240354   0.0000026091   0.0000823708  -0.0000326151
       -0.0000253756   0.0001590019   0.0001777208   0.0000705144   0.0000549884
       -0.0000057183   0.0000041301  -0.0000191298   0.0000367692   0.0000156274
       -0.0000028763  -0.0000106091   0.0000082023  -0.0000143779  -0.0000019866
       -0.0000040010   0.0000121518  -0.0000019647  -0.0000001627  -0.0000068580
       -0.0000011382   0.0000014122   0.0000046868  -0.0000025102  -0.0000016797
        0.0000018888  -0.0000000322   0.0000004554  -0.0000014830   0.0000002662
       -0.0000001950  -0.0000009116   0.0000014541   0.0000007567   0.0000022730
       -0.0000017497   0.0000004868   0.0000003167  -0.0000005258  -0.0000001336
       -0.0000012108   0.0000020540  -0.0000016846   0.0000001233  -0.0000022618
        0.0000010980  -0.0000013498   0.0000031769  -0.0000025569  -0.0000039073
       -0.0000010078   0.0000014730   0.0000028232   0.0000017214  -0.0000016562
       -0.0000020860  -0.0000022889   0.0000021674   0.0000001308  -0.0000007795
        0.0000005698   0.0000004760   0.0000012991  -0.0000014634  -0.0000005841
       -0.0000016988   0.0000004499   0.0000057983   0.0000009215  -0.0000004916
       -0.0000079848   0.0000020314  -0.0000021947   0.0000318159   0.0000098798
        0.0000064792  -0.0000573943  -0.0000343942  -0.0000355527  -0.0000982828
       -0.0001118663  -0.0001069440   0.0002960792   0.0000805930   0.0000983093
        0.0074170019   0.0003926397  -0.0000210230   0.0008395470  -0.0001927165
       -0.0008491735  -0.0346251108   0.0075214978   0.0013779277  -0.0001876994
       -0.0000265675  -0.0000079902   0.0000938120  -0.0000052961  -0.0000028980
       -0.0000241328  -0.0000017465  -0.0000018842  -0.0001811807  -0.0000067094
        0.0000027343   0.0000309854   0.0000012893   0.0000038271   0.0000494005
        0.0000295538  -0.0000118514   0.0000060191   0.0000015114   0.0000072227
        0.0000070426   0.0000136737  -0.0000032037  -0.0000037838   0.0000168194
        0.0000007244  -0.0000046591  -0.0000167127  -0.0000006109   0.0000028516
       -0.0000106797  -0.0000021081  -0.0000048906   0.0000034274  -0.0000024117
        0.0000008325   0.0000018988   0.0000003748  -0.0000009052   0.0000007510
       -0.0000000506  -0.0000011926   0.0000009940  -0.0000004401   0.0000001951
        0.0000004471  -0.0000003525  -0.0000004865  -0.0000000470   0.0000001379
       -0.0000008989   0.0000000746   0.0000000069  -0.0000012281   0.0000002899
        0.0000000466  -0.0000003643   0.0000004911  -0.0000003101   0.0000002345
        0.0000005280  -0.0000004422  -0.0000002896  -0.0000005207   0.0000006746
       -0.0000010984  -0.0000002517   0.0000006560   0.0000009715  -0.0000012426
        0.0000016098  -0.0000054332  -0.0000038496   0.0000045266   0.0000355018
       -0.0000199913   0.0000208242
        0.0000555640  -0.0110414042  -0.0326562911   0.0012332562  -0.1209103344
       -0.1132025137  -0.0178604495   0.6823568536  -0.0018681808   0.0068584566
       -0.2129761557   0.1612069242   0.0016885550  -0.0495121067   0.0105302240
       -0.0000444163   0.0011992996   0.0118685586   0.0003582924  -0.0052939945
       -0.0012199966   0.0000548737  -0.0010458646   0.0012941745  -0.0000044684
       -0.0004430366  -0.0001473273  -0.0000039698   0.0000954152  -0.0000114296
        0.0000205480   0.0003010550   0.0000905909   0.0000334737  -0.0002972503
       -0.0021226025  -0.0002358907   0.0060305231  -0.0001948678  -0.0001481957
        0.0005165851  -0.0004574124   0.0003894034   0.0000486430  -0.0000068048
       -0.0000797690   0.0001490775   0.0001518811  -0.0000347170  -0.0002190837
       -0.0000885571   0.0001501975  -0.0001316320   0.0000008225  -0.0001879002
       -0.0002115741  -0.0001443429   0.0002056961  -0.0002423295  -0.0000873040
       -0.0001472462  -0.0001065459  -0.0000313770   0.0000535904  -0.0001952578
       -0.0001011202   0.0000946066   0.0001965348   0.0001621574  -0.0001693911
        0.0000664727  -0.0000130285   0.0001865789  -0.0001945717  -0.0000572326
       -0.0001691476   0.0001610675  -0.0000074505   0.0001491525  -0.0000422206
       -0.0000209722  -0.0001418460   0.0000263204   0.0000109624   0.0000771265
        0.0000511661  -0.0000028347  -0.0000571053   0.0000748744  -0.0000036059
        0.0000912429  -0.0000192787  -0.0000093335  -0.0000745791   0.0000076249
        0.0000076347   0.0000358869   0.0000288812  -0.0000156063  -0.0000208135
        0.0000115067  -0.0000041164   0.0000223483   0.0000091720  -0.0000112558
       -0.0000135701   0.0000202009  -0.0000126117   0.0000019165  -0.0000241496
        0.0000189858   0.0000124187   0.0000316402  -0.0000269541   0.0000083061
       -0.0000350733   0.0000253024   0.0000025702   0.0000230407  -0.0000197596
       -0.0000223465  -0.0000142556   0.0000145563   0.0000217219  -0.0000122758
        0.0000041835  -0.0000160971  -0.0000050349   0.0000053841   0.0000210904
       -0.0000329550   0.0000094358  -0.0000726283  -0.0000572332   0.0000155678
        0.0000692219  -0.0000649987  -0.0000004798  -0.0000747666  -0.0000644911
        0.0000331614   0.0001355158   0.0000505693   0.0000253210  -0.0004134107
       -0.0000435517  -0.0000005935   0.0000560114   0.0005170375  -0.0004537086
        0.0003884965  -0.0055604390  -0.0017154118   0.0000520089   0.0052331242
        0.0185407980   0.0074814190  -0.2891133501  -0.0492468333  -0.0000305881
        0.0006774412   0.0001718736  -0.0000032728   0.0002068076   0.0000663562
       -0.0000022785   0.0000274047   0.0000738215  -0.0000087019   0.0000628474
       -0.0000622966   0.0000001467  -0.0000047987  -0.0000873690  -0.0001792035
       -0.0001012949  -0.0000207224  -0.0000027357   0.0000124880  -0.0000352022
       -0.0000026115  -0.0000140356  -0.0000261462  -0.0000118380  -0.0000252848