$hessian                                                                        
        0.6471274163   0.0001200107  -0.0091175639  -0.2691464219   0.0606579250
        0.0031603994   0.0279812622   0.0847582377  -0.0013594463  -0.0628241157
        0.0005505693   0.0008130060   0.0021254451  -0.0000000255   0.0000721286
       -0.0012366482   0.0023255032  -0.0000303658   0.0013313580   0.0007121515
        0.0000486945  -0.0005563290   0.0006274110  -0.0000384327   0.0003393351
        0.0000270305  -0.0000238452  -0.0001545169   0.0001479944   0.0000033572
        0.0000472785   0.0000052861  -0.0000029152  -0.0000318933   0.0000196480
       -0.0000132864  -0.0000111392  -0.0000138216   0.0000130856   0.0000035906
       -0.0000082373   0.0000081867   0.0000075548  -0.0000161764   0.0000187692
       -0.0000045640   0.0000177884  -0.0000277123   0.0000300640  -0.0000039411
        0.0000131955   0.0000055418   0.0000201991  -0.0000191269   0.0000188175
       -0.0000147361   0.0000238233  -0.0000114106   0.0000097845  -0.0000213939
       -0.0000105613   0.0000025030  -0.0000172783  -0.0000147028  -0.0000057995
       -0.0000147724   0.0000086641  -0.0000142785   0.0000154597   0.0001234206
       -0.0001355323   0.0000176088  -0.0001168946   0.0001469907  -0.0000012878
       -0.0000222933  -0.0000720360   0.0000010470  -0.0000276453   0.0000373953
       -0.0000282472   0.0000127567   0.0000056347   0.0000137156   0.0000047523
        0.0000002374   0.0000034836   0.0000139319   0.0000016108   0.0000119525
       -0.0000235132   0.0000047744  -0.0000217415   0.0000080676  -0.0000291074
        0.0000096323  -0.0000194184  -0.0000270642  -0.0000117766   0.0000279147
       -0.0000006847   0.0000242216  -0.0000175447   0.0000069649  -0.0000144801
       -0.0000088651   0.0000033170  -0.0000036854  -0.0000131715   0.0000076618
       -0.0000125730   0.0000508890   0.0000273274   0.0000282215  -0.0000147727
       -0.0003527254   0.0000079601  -0.0033050649   0.0000705827  -0.0001014356
        0.0013086911  -0.0006927731   0.0000472149  -0.0005873541  -0.0006296176
       -0.0000279928  -0.0000038655   0.0003673573   0.0000074507  -0.0001259839
       -0.0001549002  -0.0000012477  -0.0000216496   0.0000774282  -0.0000011997
       -0.0000331478  -0.0000400772  -0.0000291481   0.0000118551  -0.0000079594
        0.0000116672   0.0000053674  -0.0000038379   0.0000034813   0.0000121006
       -0.0000011690   0.0000122565  -0.0000236150  -0.0000031962  -0.0000208439
        0.0000076897   0.0000293037   0.0000087018  -0.0000196072   0.0000279765
       -0.0000105430   0.0000282763   0.0000054515   0.0000236816  -0.0000156787
       -0.0000060926  -0.0000118175  -0.0000075164  -0.0000079151  -0.0000048024
       -0.0000117927  -0.0000096913  -0.0000121937   0.0000538101  -0.0000296477
        0.0000278486   0.0001292322   0.0001390357   0.0000177076  -0.0001485007
       -0.0001556075   0.0000083439   0.0000465437  -0.0000052034  -0.0000070748
       -0.0000440527  -0.0000197808  -0.0000197413  -0.0000074081   0.0000157483
        0.0000173263   0.0000077290   0.0000058565   0.0000059997   0.0000011919
        0.0000211440   0.0000256969  -0.0000132983  -0.0000219368  -0.0000344873
        0.0000425582   0.0000054108   0.0000170906   0.0000117166  -0.0000280856
       -0.0000276615   0.0000191087   0.0000233797   0.0000331105  -0.0000194644
       -0.0000096146  -0.0000243005  -0.0000083008  -0.0000042540  -0.0000166041
       -0.0000159443   0.0000032303  -0.0000177490  -0.0000005992   0.0000232074
        0.0000262071   0.0003493777  -0.0000330695  -0.0000329140  -0.0012390293
       -0.0023879390   0.0000151923   0.0261596530  -0.0858191961   0.0005343514
       -0.2724228385  -0.0586496245   0.0045431823  -0.0441142496  -0.0020929221
        0.0001956836  -0.0266347960   0.0118073281   0.0003426129   0.0010590531
       -0.0003244912   0.0001434043   0.0000388656  -0.0000169696   0.0000172745
        0.0000042595   0.0000059152  -0.0000048291   0.0000001311   0.0000017423
       -0.0000010823  -0.0000055952   0.0000016770  -0.0000026286  -0.0000022443
       -0.0000011615   0.0000014731  -0.0000006145   0.0000007109   0.0000021878
       -0.0000029366  -0.0000032857   0.0000055447  -0.0000001976   0.0000011022
        0.0000093253   0.0000113803   0.0000064148   0.0000046191  -0.0000024007
        0.0000029689  -0.0000113241  -0.0000031330  -0.0000020779  -0.0000045212
       -0.0000009946  -0.0000008567  -0.0000006020  -0.0000014989   0.0000022052
       -0.0000015993   0.0000003936   0.0000019247   0.0000004066  -0.0000006288
        0.0000019378  -0.0000001399   0.0000039630   0.0000039510   0.0000025635
        0.0000021225  -0.0000029570   0.0000012721   0.0000073441  -0.0000029057
        0.0000014223   0.0000140033  -0.0000146772   0.0000224897   0.0000147493
        0.0000130396   0.0000207029  -0.0000032021   0.0000012818  -0.0000039849
       -0.0000005102   0.0000007866  -0.0000003017  -0.0000011671  -0.0000018580
       -0.0000014442   0.0000004478  -0.0000006670   0.0000006111  -0.0000009179
       -0.0000012391  -0.0000001141   0.0000036908  -0.0000034196   0.0000015104
        0.0000021412   0.0000016991   0.0000012246   0.0000046800   0.0000024557
        0.0000042551  -0.0000010381  -0.0000027533  -0.0000123422   0.0000032509
       -0.0000066107  -0.0000053499   0.0000000502  -0.0000016009  -0.0000008666
       -0.0000047154  -0.0000015538  -0.0000023510  -0.0000022506   0.0000009161
        0.0000010636  -0.0000004078  -0.0000007444   0.0000020908  -0.0000027795
        0.0000030190   0.0000050551  -0.0000002048  -0.0000012854   0.0000090553
        0.0000091637  -0.0000050451   0.0000050436   0.0000417073   0.0000194050
        0.0000163438   0.0010622962   0.0002189663   0.0001298421  -0.0266190387
       -0.0112540799   0.0005936312
        0.0001200107   0.6730652458  -0.0061516663   0.1406018672  -0.1540773480
       -0.0012591866   0.0247817526  -0.0380943897  -0.0000024037   0.0005645964
        0.0066395639  -0.0001492111  -0.0001372340  -0.0033573483   0.0000299663
       -0.0015387445   0.0015735600  -0.0000353266  -0.0004147665  -0.0012593286
       -0.0000003796  -0.0002456968   0.0000853033  -0.0000042643   0.0000978389
        0.0000337750  -0.0000025889  -0.0000713346   0.0000020213   0.0000016975
        0.0000094191   0.0000065253  -0.0000130482   0.0000108061   0.0000050413
        0.0000063839  -0.0000045845  -0.0000051313   0.0000072480   0.0000025495
       -0.0000030511   0.0000046217   0.0000124267   0.0000017823   0.0000028122
        0.0000191269   0.0000061493   0.0000075440  -0.0000055592   0.0000021374
       -0.0000034681   0.0000011600  -0.0000055057   0.0000091650   0.0000099033
        0.0000133714  -0.0000092608   0.0000179475   0.0000135840  -0.0000046538
        0.0000044560   0.0000050073   0.0000062520  -0.0000212101  -0.0000020414
       -0.0000058565  -0.0000070120  -0.0000030649  -0.0000034091   0.0000704945
       -0.0000257392  -0.0000077045  -0.0000678816   0.0000759513  -0.0000012353
        0.0000046165  -0.0000186480  -0.0000047768   0.0000001678  -0.0000200774
        0.0000150173   0.0000053836   0.0000092860   0.0000033932   0.0000070183
       -0.0000016295   0.0000054359   0.0000008365  -0.0000111179   0.0000020780
        0.0000079206  -0.0000141997   0.0000085052  -0.0000022848   0.0000046857
       -0.0000033707   0.0000085073   0.0000061506   0.0000070958  -0.0000139770
       -0.0000114670  -0.0000104811  -0.0000018519  -0.0000153793   0.0000031070
       -0.0000031713   0.0000003601  -0.0000032124  -0.0000013506   0.0000207548
       -0.0000087223  -0.0000143458  -0.0000144435  -0.0000141866   0.0000409236
       -0.0001117092   0.0000171460   0.0001513598   0.0004473841   0.0000030465
        0.0002650580  -0.0011771881   0.0000137915   0.0002912920   0.0001222382
        0.0000004985  -0.0000431711  -0.0001370891  -0.0000157113   0.0000800323
        0.0000794635   0.0000012378  -0.0000021913  -0.0000256008   0.0000051685
        0.0000040300  -0.0000088779  -0.0000070310  -0.0000062948   0.0000099527
       -0.0000044997  -0.0000078023  -0.0000007862  -0.0000058888  -0.0000027207
       -0.0000102391  -0.0000043017  -0.0000024971  -0.0000112940  -0.0000035290
        0.0000011781  -0.0000009498   0.0000011129  -0.0000036624   0.0000020723
       -0.0000047585   0.0000067787  -0.0000117171   0.0000043007   0.0000040751
       -0.0000140323   0.0000006251   0.0000046197   0.0000020303   0.0000036569
        0.0000022625   0.0000220987   0.0000094550   0.0000018394  -0.0000081509
        0.0000065063  -0.0000790787  -0.0000352488   0.0000062931   0.0000931819
        0.0000037687  -0.0000025692  -0.0000169869   0.0000091202   0.0000138508
       -0.0000109110   0.0000070729  -0.0000076456   0.0000054872  -0.0000057031
       -0.0000079714  -0.0000008658  -0.0000041212  -0.0000055780  -0.0000156037
        0.0000081232   0.0000027725  -0.0000218605   0.0000001240  -0.0000085262
        0.0000071110   0.0000015943   0.0000043974  -0.0000022302  -0.0000065044
       -0.0000110740  -0.0000107811   0.0000161459   0.0000123437  -0.0000195843
        0.0000148784   0.0000028113  -0.0000026016   0.0000051025  -0.0000052004
        0.0000233597  -0.0000028775   0.0000056261  -0.0000013444  -0.0000028697
        0.0000054419  -0.0001269973   0.0000365673   0.0000064028   0.0016690221
        0.0016517909   0.0000083429  -0.0258405659  -0.0362415106   0.0008565454
       -0.1385917358  -0.1507503337   0.0035241075  -0.0020920769  -0.3004447209
        0.0029968835  -0.0122227418   0.0066651703   0.0001481533   0.0001628581
       -0.0056956122   0.0001512027  -0.0000381539   0.0000177403   0.0000040657
        0.0000008288   0.0000020711  -0.0000047307   0.0000003778   0.0000023502
       -0.0000035103  -0.0000039890   0.0000007747  -0.0000029066  -0.0000021849
       -0.0000027868   0.0000012224  -0.0000046715  -0.0000008224  -0.0000027485
        0.0000011328  -0.0000029324   0.0000014670   0.0000049446  -0.0000044117
       -0.0000061893   0.0000023806  -0.0000032872   0.0000102255   0.0000004919
       -0.0000024830  -0.0000008327  -0.0000033984  -0.0000052782  -0.0000038250
       -0.0000032056  -0.0000014306  -0.0000030073  -0.0000026032   0.0000049814
       -0.0000031995   0.0000016423   0.0000033112   0.0000002739   0.0000004011
        0.0000021640  -0.0000009796   0.0000027917   0.0000013866   0.0000019940
        0.0000030303  -0.0000013090   0.0000024126   0.0000031062  -0.0000094531
        0.0000050217   0.0000103505   0.0000082436  -0.0000023006  -0.0000106962
        0.0000072147   0.0000003150   0.0000037295  -0.0000047935   0.0000038928
        0.0000034013  -0.0000014622   0.0000028378   0.0000025359   0.0000046331
        0.0000028117  -0.0000015736   0.0000035367  -0.0000005208  -0.0000001820
        0.0000028932   0.0000007202  -0.0000025904   0.0000012154  -0.0000019142
       -0.0000031749  -0.0000015255  -0.0000027818  -0.0000040325  -0.0000089803
       -0.0000051170  -0.0000002884  -0.0000022890   0.0000017483  -0.0000006364
        0.0000026863   0.0000049292  -0.0000003350   0.0000027157   0.0000034065
        0.0000045171   0.0000011031   0.0000028999   0.0000019524  -0.0000025860
       -0.0000016459   0.0000046638  -0.0000004061   0.0000025917  -0.0000009024
       -0.0000030269  -0.0000018033  -0.0000045958  -0.0000041291   0.0000057875
       -0.0000028388  -0.0000031308  -0.0000107710   0.0000383240   0.0000167532
       -0.0000080200  -0.0002769158  -0.0056963481   0.0001534220   0.0127784015
        0.0066491899  -0.0002845867
       -0.0091175639  -0.0061516663   0.1180459304   0.0022524496   0.0001312922
       -0.0483953269  -0.0007327395  -0.0010083557   0.0012423088   0.0009363867
       -0.0001560867  -0.0066551887  -0.0000458401   0.0000345721  -0.0002307909
        0.0000575652  -0.0000694904  -0.0000097204  -0.0000251843   0.0000119559
        0.0000290879   0.0000154523  -0.0000132319   0.0000009735  -0.0000124150
       -0.0000007078  -0.0000026809   0.0000179926  -0.0000006058  -0.0000039640
       -0.0000021568  -0.0000014950   0.0000031060  -0.0000081442  -0.0000002611
       -0.0000067656  -0.0000008204   0.0000003444  -0.0000001369   0.0000021658
        0.0000008534   0.0000007244  -0.0000026112  -0.0000022225   0.0000022721
       -0.0000075135   0.0000028125  -0.0000060498   0.0000071254  -0.0000013044
        0.0000046204   0.0000008423   0.0000037382  -0.0000047289   0.0000011161
       -0.0000062337   0.0000080604  -0.0000045513   0.0000012047  -0.0000037209
       -0.0000014140   0.0000009217  -0.0000015481   0.0000033213   0.0000019174
        0.0000007180  -0.0000022289  -0.0000046769   0.0000064740  -0.0000030566
        0.0000028973   0.0000023776   0.0000071973  -0.0000027133  -0.0000012533
        0.0000007902   0.0000032766   0.0000014284   0.0000023066  -0.0000022349
        0.0000013707  -0.0000004199  -0.0000006020  -0.0000000073  -0.0000007876
       -0.0000000005  -0.0000000941   0.0000000901   0.0000002656   0.0000002678
        0.0000008100  -0.0000008695   0.0000011806  -0.0000001357   0.0000014170
       -0.0000004058   0.0000007203   0.0000011232   0.0000003869  -0.0000018509
       -0.0000004110  -0.0000011820   0.0000009066   0.0000000102   0.0000008467
       -0.0000004433  -0.0000008046   0.0000003018  -0.0000000112   0.0000005268
        0.0000001017  -0.0000029819  -0.0000024179  -0.0000025645  -0.0000016148
        0.0000100202   0.0000008477   0.0000735767  -0.0000502891  -0.0000159767
       -0.0000246916   0.0000438066   0.0000292148   0.0000077916   0.0000106198
       -0.0000000014  -0.0000005884  -0.0000081604   0.0000008681   0.0000010927
        0.0000012553  -0.0000002739   0.0000014730  -0.0000014275   0.0000014152
        0.0000016117   0.0000011546   0.0000008825  -0.0000009158   0.0000005108
       -0.0000001923  -0.0000003147  -0.0000004538   0.0000001511  -0.0000001298
        0.0000006016   0.0000000799   0.0000009150   0.0000009777   0.0000012632
       -0.0000010231  -0.0000014334  -0.0000009763   0.0000017801  -0.0000020656
        0.0000012413  -0.0000024708   0.0000006850  -0.0000015757   0.0000007075
        0.0000004849   0.0000008308   0.0000001755   0.0000000592   0.0000005796
       -0.0000002051  -0.0000005272   0.0000003994  -0.0000026292   0.0000026717
       -0.0000022881  -0.0000012152  -0.0000035832   0.0000002185   0.0000044172
        0.0000043260  -0.0000023251  -0.0000002383   0.0000015775   0.0000034382
       -0.0000008117   0.0000007256  -0.0000006541  -0.0000007494  -0.0000009043
       -0.0000006634   0.0000002208  -0.0000004060   0.0000004161   0.0000003968
       -0.0000006837  -0.0000002980  -0.0000008617   0.0000000970   0.0000001238
       -0.0000004963  -0.0000002857  -0.0000004412  -0.0000010588   0.0000012344
        0.0000009706   0.0000001893  -0.0000006788  -0.0000005826   0.0000014013
       -0.0000003596  -0.0000001975  -0.0000019162  -0.0000010255  -0.0000020373
        0.0000020564  -0.0000010379   0.0000016287   0.0000014656  -0.0000005093
       -0.0000008067  -0.0000081271   0.0000004476  -0.0000005095  -0.0000123079
        0.0000516320  -0.0000110488  -0.0001462519   0.0018636630   0.0012013646
        0.0053923721   0.0021461048  -0.0484723042   0.0001944289   0.0029931268
       -0.0348535230   0.0006153564  -0.0002722571   0.0008256745   0.0001170585
        0.0001693572   0.0082188866  -0.0000005849   0.0000003477   0.0000049449
       -0.0000007206  -0.0000007218   0.0000002081   0.0000000023  -0.0000003685
        0.0000002016   0.0000008410  -0.0000003375   0.0000003550   0.0000007853
        0.0000003699  -0.0000004050   0.0000002814   0.0000000247  -0.0000003583
       -0.0000012841  -0.0000004081  -0.0000002128  -0.0000000757   0.0000012319
       -0.0000001414  -0.0000012727  -0.0000017075  -0.0000019868  -0.0000001677
       -0.0000000526   0.0000005593   0.0000001575   0.0000001526  -0.0000001094
        0.0000002794  -0.0000000779   0.0000001901   0.0000000405   0.0000001206
       -0.0000000864   0.0000000422   0.0000003666   0.0000000611   0.0000001187
       -0.0000001529   0.0000001807   0.0000001164  -0.0000001120  -0.0000001094
        0.0000004187   0.0000002041   0.0000002029  -0.0000002786  -0.0000003043
        0.0000000072  -0.0000002778   0.0000012044  -0.0000005015  -0.0000006920
        0.0000003148  -0.0000001832   0.0000003332  -0.0000002346  -0.0000001734
        0.0000002264   0.0000001313   0.0000001059   0.0000000578  -0.0000001119
        0.0000000673   0.0000001160  -0.0000004320   0.0000000624   0.0000001257
        0.0000000812   0.0000001301   0.0000000594   0.0000001323   0.0000000018
        0.0000002339   0.0000000060   0.0000000362   0.0000002290   0.0000012065
       -0.0000006100  -0.0000001378  -0.0000001853   0.0000006227  -0.0000001120
        0.0000005235  -0.0000001032   0.0000000787   0.0000002640   0.0000000662
        0.0000002163   0.0000002278   0.0000000399   0.0000001442   0.0000000405
       -0.0000002344  -0.0000000090   0.0000001719  -0.0000002427  -0.0000013884
        0.0000005778   0.0000001556   0.0000003382  -0.0000009035   0.0000000605
        0.0000001280   0.0000014883  -0.0000017277  -0.0000001195  -0.0000002814
        0.0000044001   0.0001203667   0.0001331743   0.0082180427   0.0003371464
        0.0001322407   0.0008262551
       -0.2691464219   0.1406018672   0.0022524496   0.6658058787   0.0130809398
       -0.0097112255  -0.0951831255  -0.0417243564   0.0012339542   0.0251973675
       -0.0227492215  -0.0000321338  -0.0055252348  -0.0071301581   0.0002725760
        0.0002511646   0.0017151266  -0.0000662811  -0.0010343193  -0.0020209062
       -0.0000268444   0.0001053913  -0.0000151092   0.0000153187  -0.0001276035
       -0.0000419300   0.0000108271   0.0000677248   0.0000128893  -0.0000075824
       -0.0000771105  -0.0000445506   0.0000361419   0.0001142706  -0.0000235052
        0.0000736437  -0.0000245440   0.0000002765  -0.0000103365   0.0000260585
       -0.0000057857   0.0000188437   0.0000135234  -0.0000095825   0.0000219656
        0.0000277859   0.0000142141  -0.0000054725  -0.0000247275  -0.0000162097
        0.0000062591  -0.0000247211  -0.0000051357  -0.0000099800   0.0000251748
        0.0000109476  -0.0000074871   0.0000059853   0.0000082687  -0.0000347864
        0.0000019358   0.0000251791  -0.0000416928   0.0000070394   0.0000051124
        0.0000209621   0.0000503972   0.0000905580  -0.0000871484  -0.0000142218
        0.0000479946  -0.0000153415  -0.0000383155  -0.0000233204   0.0000055008
        0.0000071873   0.0000472711  -0.0000073578   0.0000495109  -0.0000530657
        0.0000465797  -0.0000114088   0.0000088534  -0.0000129391   0.0000084051
        0.0000004882   0.0000094263  -0.0000121580  -0.0000165544  -0.0000106543
        0.0000204350  -0.0000235741   0.0000228621  -0.0000089280   0.0000355710
       -0.0000130269   0.0000207723   0.0000274209   0.0000131037  -0.0000240506
       -0.0000151531  -0.0000172046   0.0000062737  -0.0000140666   0.0000143898
       -0.0000106474   0.0000053659  -0.0000051244   0.0000161187  -0.0000002691
        0.0000192321  -0.0000490813  -0.0000395441  -0.0000439129   0.0000079088
        0.0000720610  -0.0000050759   0.0015261640   0.0018795711   0.0000469321
       -0.0006588394  -0.0013641500  -0.0000664380   0.0003391382   0.0003734790
        0.0000209867  -0.0000098922  -0.0001996375   0.0000075921   0.0000932712
        0.0000544846  -0.0000047634   0.0000170821  -0.0000307253   0.0000083929
        0.0000030017  -0.0000013967   0.0000075633  -0.0000098058   0.0000175124
       -0.0000063852  -0.0000107552  -0.0000020290  -0.0000106430  -0.0000161857
        0.0000006527  -0.0000025981   0.0000277258  -0.0000032513   0.0000212805
       -0.0000179143  -0.0000169957  -0.0000162638   0.0000124170  -0.0000195206
        0.0000183507  -0.0000314045  -0.0000100959  -0.0000307277   0.0000215226
        0.0000130017   0.0000135707   0.0000174858   0.0000058694   0.0000043364
        0.0000042778   0.0000145772   0.0000014008  -0.0000257249   0.0000084377
       -0.0000124618  -0.0001021112  -0.0000995402  -0.0000167096   0.0001067291
        0.0000969007  -0.0000065316  -0.0000102706  -0.0000207945   0.0000046358
       -0.0000173395   0.0000165677  -0.0000200248   0.0000177079  -0.0000166810
       -0.0000110970  -0.0000229399  -0.0000100158  -0.0000192192  -0.0000067577
       -0.0000155453  -0.0000227974  -0.0000062715   0.0000201505   0.0000311215
       -0.0000245529  -0.0000098987  -0.0000172692   0.0000025282   0.0000179287
        0.0000256123  -0.0000305235  -0.0000119841  -0.0000242704   0.0000101850
        0.0000169380   0.0000312746   0.0000012122   0.0000181117   0.0000225819
        0.0000401728  -0.0000097114   0.0000164417  -0.0000088316   0.0000312767
        0.0000237636  -0.0002008964   0.0000571847   0.0000226560   0.0012020551
        0.0012260568  -0.0000029916  -0.0121308076   0.0291927630  -0.0001730800
       -0.0668605441  -0.0278315995   0.0014482448  -0.0009115848   0.0018684244
        0.0000213031  -0.2378773341  -0.1098980977   0.0048039946  -0.0012324825
        0.0252334718  -0.0002318196   0.0000787555  -0.0000770635  -0.0000051228
        0.0000063299  -0.0000025542   0.0000050771  -0.0000033560   0.0000066839
       -0.0000078818  -0.0000139322   0.0000020605  -0.0000058789  -0.0000184830
       -0.0000040678   0.0000036873  -0.0000221002  -0.0000028368   0.0000047450
       -0.0000219913  -0.0000134476   0.0000218631   0.0000157351   0.0000030122
        0.0000180508   0.0000023495  -0.0000162115  -0.0000198789   0.0000078781
        0.0000093917   0.0000073147   0.0000074684   0.0000011878   0.0000046666
       -0.0000028783   0.0000003924  -0.0000031406  -0.0000019412   0.0000056393
       -0.0000030964   0.0000012754   0.0000009720   0.0000003415   0.0000008217
        0.0000111229  -0.0000010455   0.0000005539   0.0000012781  -0.0000024633
       -0.0000011380   0.0000013485  -0.0000037109   0.0000001914  -0.0000156703
       -0.0000115948  -0.0000149041  -0.0000214639  -0.0000013183   0.0000054628
       -0.0000553604  -0.0000206566  -0.0000000159  -0.0000002753   0.0000017312
        0.0000041190   0.0000003689   0.0000032267   0.0000030034   0.0000058293
        0.0000028979  -0.0000021382   0.0000020442  -0.0000018516   0.0000002847
        0.0000009153   0.0000005138  -0.0000031356   0.0000021867   0.0000002450
       -0.0000008689  -0.0000027097   0.0000027328  -0.0000128991  -0.0000138406
        0.0000053163  -0.0000068448  -0.0000064124   0.0000056375  -0.0000101945
        0.0000079354   0.0000044288   0.0000003589   0.0000075979   0.0000078557
        0.0000128790   0.0000017844   0.0000054350   0.0000116335  -0.0000050940
       -0.0000041564   0.0000106047  -0.0000028769  -0.0000021177   0.0000066842
       -0.0000119039  -0.0000133625  -0.0000127206  -0.0000071831  -0.0000190735
       -0.0000219955   0.0000101426  -0.0000086135   0.0000235229  -0.0000104258
       -0.0000185941   0.0005519762   0.0005598421  -0.0000152600  -0.0042989478
       -0.0028024357   0.0002346792
        0.0606579250  -0.1540773480   0.0001312922   0.0130809398   0.6587172395
       -0.0064040386   0.0366175345  -0.3382521240   0.0028366041  -0.0795512908
       -0.0389660217   0.0016933704  -0.0006027797   0.0058051072   0.0001328079
        0.0006056186  -0.0003782290   0.0000075800   0.0015014226   0.0022558214
        0.0000323814  -0.0001806900   0.0003721707  -0.0000266211   0.0001867530
        0.0000336465  -0.0000131726  -0.0000758296   0.0000981120   0.0000128846
       -0.0000011434  -0.0000130053  -0.0000034498  -0.0000079535   0.0000047553
        0.0000072151  -0.0000075192  -0.0000036989   0.0000010929   0.0000108517
       -0.0000061804   0.0000079084   0.0000071319  -0.0000133214   0.0000131119
       -0.0000014506   0.0000130592  -0.0000219316   0.0000171009  -0.0000017267
        0.0000100123  -0.0000075909   0.0000109312  -0.0000211208   0.0000106641
       -0.0000109052   0.0000123850  -0.0000104343   0.0000038681  -0.0000244652
       -0.0000016328  -0.0000000567  -0.0000094577  -0.0000086426   0.0000026573
       -0.0000050070   0.0000083615   0.0000199356  -0.0000082006   0.0000390718
       -0.0001074604   0.0000069789  -0.0000195938   0.0000959566   0.0000000213
       -0.0000034042  -0.0000125063  -0.0000045198   0.0000089334  -0.0000157669
        0.0000150459  -0.0000032029   0.0000082477  -0.0000030197   0.0000044516
        0.0000000715   0.0000036648  -0.0000059354  -0.0000121479   0.0000040255
        0.0000124057  -0.0000131677   0.0000124359  -0.0000073572   0.0000120012
       -0.0000091923   0.0000116966   0.0000105556   0.0000093451  -0.0000184610
       -0.0000084050  -0.0000202971   0.0000034034  -0.0000209994   0.0000000615
        0.0000009900   0.0000069808  -0.0000014448   0.0000010459   0.0000081886
       -0.0000007239  -0.0000098555  -0.0000164005  -0.0000147028  -0.0000630002
       -0.0001386017   0.0000101417  -0.0025423255  -0.0005456164  -0.0000709935
        0.0006579120   0.0012838115   0.0000129117  -0.0007630164  -0.0006618408
       -0.0000144537   0.0000391639   0.0004291866   0.0000064145  -0.0002040229
       -0.0001051870  -0.0000019628  -0.0000252035   0.0000769683   0.0000067441
       -0.0000462356  -0.0000595606  -0.0000443666   0.0000195324  -0.0000033359
        0.0000200527   0.0000021211  -0.0000009672   0.0000020715   0.0000198989
       -0.0000151109   0.0000101679  -0.0000366270  -0.0000148049  -0.0000327587
        0.0000186259   0.0000427952   0.0000185531  -0.0000285112   0.0000432886
       -0.0000214787   0.0000500853  -0.0000056641   0.0000425287  -0.0000255711
       -0.0000228253  -0.0000208953  -0.0000111954   0.0000012362  -0.0000006819
       -0.0000177291  -0.0000024588  -0.0000168567   0.0000744275  -0.0000476840
        0.0000428514   0.0001785310   0.0001075526   0.0000185370  -0.0001559137
       -0.0001290869  -0.0000040357   0.0000494863  -0.0000183541  -0.0000002647
       -0.0000404682  -0.0000203782  -0.0000276304  -0.0000093222   0.0000161795
        0.0000178727   0.0000064143   0.0000057005   0.0000078933  -0.0000011873
        0.0000241639   0.0000273921  -0.0000274728  -0.0000252764  -0.0000434567
        0.0000481349   0.0000111796   0.0000220516   0.0000286065  -0.0000374374
       -0.0000381487   0.0000141597   0.0000325357   0.0000438544  -0.0000335254
       -0.0000049537  -0.0000200612  -0.0000090701  -0.0000068496  -0.0000154308
       -0.0000099093  -0.0000046976  -0.0000169848  -0.0000034568   0.0000344084
        0.0000346738   0.0003768505  -0.0000708373  -0.0000430760  -0.0029801677
       -0.0050919198  -0.0000034652   0.0281707237  -0.0477765339  -0.0000270674
        0.0299346317   0.0599973350  -0.0011517677   0.0258316095  -0.0186342693
       -0.0002188438  -0.1098484936  -0.1060656456   0.0027101292   0.0020120885
       -0.0173904102   0.0001797603   0.0000035362   0.0000195356   0.0000045279
        0.0000044174   0.0000021756  -0.0000007795   0.0000015872   0.0000015752
       -0.0000018313  -0.0000040689   0.0000009287  -0.0000015895  -0.0000048465
       -0.0000028989   0.0000027385  -0.0000062047   0.0000007521  -0.0000008208
       -0.0000078725  -0.0000075472   0.0000123253   0.0000151333  -0.0000006791
        0.0000154038   0.0000210212   0.0000041821   0.0000117985  -0.0000039738
       -0.0000092743  -0.0000061327  -0.0000015426  -0.0000048428  -0.0000027740
       -0.0000020342  -0.0000008328  -0.0000021530  -0.0000029199   0.0000038593
       -0.0000034450   0.0000017832   0.0000006562   0.0000013115  -0.0000014725
       -0.0000049231  -0.0000010411   0.0000031021   0.0000022825   0.0000042818
        0.0000009051  -0.0000032087   0.0000003946   0.0000082983  -0.0000076523
       -0.0000010420   0.0000054224  -0.0000103538   0.0000103572   0.0000152598
        0.0000077166   0.0000216600  -0.0000039205  -0.0000018260  -0.0000044076
       -0.0000004175  -0.0000003857   0.0000004815   0.0000014591   0.0000028506
        0.0000018778  -0.0000019532  -0.0000005786  -0.0000005421   0.0000000971
       -0.0000009868   0.0000015148  -0.0000002991   0.0000003119  -0.0000030330
        0.0000009592  -0.0000003628   0.0000000537   0.0000013941  -0.0000056705
        0.0000053682  -0.0000010039  -0.0000065555  -0.0000090585  -0.0000015920
       -0.0000027639  -0.0000034124  -0.0000008140  -0.0000005713   0.0000004464
        0.0000016594   0.0000004080   0.0000020621  -0.0000016299  -0.0000020043
       -0.0000003693   0.0000008184   0.0000002891   0.0000032549  -0.0000017553
       -0.0000003221   0.0000005900   0.0000003704  -0.0000016769   0.0000080249
        0.0000037644   0.0000018304  -0.0000009330   0.0000649830  -0.0000169763
        0.0000193146   0.0004351133  -0.0002879585   0.0000039897  -0.0034548763
       -0.0004243703   0.0001528063
        0.0031603994  -0.0012591866  -0.0483953269  -0.0097112255  -0.0064040386
        0.1163806154   0.0004508638   0.0040439594  -0.0473104770   0.0003377448
        0.0008620723   0.0017484590   0.0000077006   0.0001053092   0.0078892075
        0.0001277203  -0.0001934580  -0.0004821213  -0.0000726310  -0.0000122325
       -0.0003482824   0.0000385985  -0.0000318476   0.0000676248  -0.0000200499
       -0.0000041545   0.0000046974   0.0000229263   0.0000028246  -0.0000061934
       -0.0000006896  -0.0000083580   0.0000151731  -0.0000154484  -0.0000053955
       -0.0000095069  -0.0000005700   0.0000017533   0.0000005841   0.0000042843
        0.0000008657   0.0000022693  -0.0000041920  -0.0000043191   0.0000055024
       -0.0000124116   0.0000042658  -0.0000086748   0.0000143895   0.0000002775
        0.0000058760  -0.0000024351   0.0000037501  -0.0000055730   0.0000032492
       -0.0000055816   0.0000091590  -0.0000104593  -0.0000005225  -0.0000047501