$hessian                                                                        
        0.6455819214   0.0010669253   0.0238836699  -0.2728101585   0.0568741171
       -0.0135070725   0.0254572072   0.0857559613  -0.0039544957  -0.0620191722
       -0.0010247734  -0.0023086712  -0.0009534487   0.0000283898  -0.0000895278
       -0.0003802130   0.0009077570  -0.0000604764  -0.0002024308  -0.0005298346
        0.0000165023  -0.0000633639   0.0000444664   0.0000085878  -0.0000092192
        0.0000342171  -0.0000034955   0.0000583597   0.0000167949  -0.0000149549
       -0.0000273614  -0.0000546657  -0.0000037985   0.0000223379   0.0000633758
        0.0000041633  -0.0000014770  -0.0000188611   0.0000046138   0.0000105561
        0.0000185957   0.0000279618  -0.0000021232  -0.0000253744  -0.0000095756
       -0.0000177330  -0.0000076735   0.0000009117  -0.0000049238   0.0000133101
        0.0000116105   0.0000014167   0.0000001389  -0.0000004493  -0.0000097564
        0.0000009827   0.0000053351  -0.0000106189  -0.0000082312   0.0000000672
        0.0000125829   0.0000085614  -0.0000058904  -0.0000068169   0.0000033973
        0.0000051593   0.0000064254  -0.0000162664  -0.0000037937  -0.0000251557
       -0.0000010976  -0.0000027715  -0.0000203156   0.0000210301  -0.0000043892
       -0.0000061073  -0.0000142759   0.0000004020   0.0000110915   0.0000038593
       -0.0000082042   0.0000000612  -0.0000022412  -0.0000021903  -0.0000015310
        0.0000035774  -0.0000010271   0.0000000520  -0.0000005365  -0.0000010760
        0.0000007988   0.0000026926  -0.0000030314   0.0000019989  -0.0000053674
       -0.0000011528  -0.0000020509  -0.0000002649   0.0000026037  -0.0000006154
        0.0000021196  -0.0000003717  -0.0000003892  -0.0000011165   0.0000003777
       -0.0000000902   0.0000047709  -0.0000024910  -0.0000021366  -0.0000005169
        0.0000003127  -0.0000079377   0.0000059491   0.0000095088   0.0000148316
       -0.0000492789   0.0000136806   0.0006063723   0.0000127778   0.0000055721
       -0.0002253629   0.0005305962  -0.0000403078  -0.0000617154  -0.0000440438
        0.0000163637   0.0000107295   0.0000501564   0.0000012279  -0.0000232360
       -0.0000218481   0.0000023692  -0.0000076114   0.0000127903  -0.0000029683
       -0.0000019490  -0.0000011164  -0.0000015341  -0.0000020255  -0.0000015103
       -0.0000014184   0.0000022178  -0.0000034670   0.0000013567  -0.0000014071
        0.0000017351  -0.0000007969  -0.0000003402  -0.0000036725  -0.0000005038
       -0.0000013928   0.0000018143  -0.0000009064   0.0000021936   0.0000044642
        0.0000017933   0.0000028017  -0.0000026007   0.0000016820  -0.0000002231
        0.0000002876  -0.0000003604  -0.0000005832  -0.0000032396  -0.0000007121
        0.0000028297   0.0000020148   0.0000030794   0.0000058927  -0.0000056469
        0.0000014214  -0.0000204905  -0.0000018239   0.0000052624   0.0000493756
       -0.0000146295  -0.0000055921  -0.0000212019   0.0000310857   0.0000148465
        0.0000121940   0.0000053212   0.0000091940  -0.0000049558   0.0000029164
       -0.0000027993   0.0000118545  -0.0000066648  -0.0000041305  -0.0000125620
        0.0000052951   0.0000008112  -0.0000056046   0.0000037645  -0.0000007826
       -0.0000008043   0.0000036617   0.0000021054  -0.0000024899  -0.0000055184
       -0.0000112887  -0.0000168128   0.0000049247  -0.0000020385  -0.0000064165
        0.0000160530   0.0000109212   0.0000120986  -0.0000063830  -0.0000178767
       -0.0000012171   0.0000078171  -0.0000004564   0.0000152506  -0.0000327536
       -0.0000179805  -0.0000056936  -0.0000363558  -0.0000056579  -0.0003751544
       -0.0009280335   0.0000727209   0.0282902103  -0.0839783493   0.0061261299
       -0.2678185849  -0.0611158272  -0.0064263395  -0.0440300582   0.0032729820
       -0.0005817160  -0.0265329850   0.0109464248  -0.0018875591   0.0010061816
       -0.0000877063  -0.0003625891   0.0000616551   0.0000141398  -0.0000022414
        0.0000135630   0.0000227701   0.0000068453  -0.0000167077  -0.0000225846
       -0.0000068808   0.0000035613   0.0000034984  -0.0000025198   0.0000089780
       -0.0000008038  -0.0000051521  -0.0000002578   0.0000032859  -0.0000014516
        0.0000044493  -0.0000003228  -0.0000005383  -0.0000002803  -0.0000054135
        0.0000000701  -0.0000020138  -0.0000023830  -0.0000027714   0.0000060287
        0.0000084990  -0.0000005286  -0.0000011014   0.0000019706   0.0000038100
        0.0000002045   0.0000012687   0.0000003116   0.0000008651   0.0000007203
        0.0000013153   0.0000006552  -0.0000011387  -0.0000001975   0.0000005852
       -0.0000012141  -0.0000003226   0.0000000720  -0.0000002775  -0.0000002309
        0.0000005439  -0.0000000450  -0.0000005945   0.0000021057   0.0000010298
       -0.0000022981  -0.0000112248   0.0000092406   0.0000010119  -0.0000101448
       -0.0000083773   0.0000029742   0.0000017592  -0.0000011521   0.0000014099
       -0.0000007023   0.0000000634   0.0000002308  -0.0000004078  -0.0000004205
       -0.0000002408   0.0000001831   0.0000019886  -0.0000003338   0.0000001999
        0.0000008435  -0.0000004362   0.0000010011   0.0000007085  -0.0000002304
        0.0000005014   0.0000000034  -0.0000001389  -0.0000030388  -0.0000026274
       -0.0000022104   0.0000065084  -0.0000082910   0.0000014353  -0.0000007308
        0.0000008620   0.0000039136  -0.0000005358  -0.0000021021   0.0000036965
        0.0000040455  -0.0000005349   0.0000010212  -0.0000010932  -0.0000008686
        0.0000013839   0.0000049780  -0.0000016353   0.0000027223  -0.0000017691
       -0.0000033073  -0.0000016321  -0.0000046964  -0.0000051406   0.0000109943
        0.0000035828  -0.0000039269  -0.0000085587   0.0000541353  -0.0000094259
       -0.0000062879   0.0010058937   0.0002193623  -0.0003685602  -0.0265751698
       -0.0119445684  -0.0005358926
        0.0010669253   0.6712408621  -0.0323327796   0.1365209344  -0.1488515362
        0.0120886430   0.0265064563  -0.0349968376   0.0033634551  -0.0010193920
        0.0060849403  -0.0008146748   0.0000255124  -0.0027756119   0.0001724668
       -0.0008943006   0.0008922979  -0.0001051694  -0.0002063004  -0.0006129345
        0.0000264297  -0.0001115309   0.0000411804   0.0000025746   0.0000303807
        0.0000707704  -0.0000346977   0.0000612601  -0.0000090355  -0.0000015067
       -0.0000710240  -0.0000181787   0.0000365827   0.0000076492   0.0000299121
        0.0000024742  -0.0000348316  -0.0000180923   0.0000185336   0.0000383225
        0.0000197969  -0.0000290314  -0.0000019332   0.0000097122  -0.0000024289
       -0.0000074646  -0.0000087346  -0.0000009552   0.0000051399   0.0000224443
        0.0000092305  -0.0000088272  -0.0000226335  -0.0000074377   0.0000074689
        0.0000042086  -0.0000032471  -0.0000027358  -0.0000013962   0.0000001324
        0.0000122507   0.0000042266  -0.0000060453  -0.0000071539   0.0000015930
        0.0000052242   0.0000518405  -0.0000203101  -0.0000285401  -0.0000028817
       -0.0000254226   0.0000002802   0.0000265004  -0.0000708461   0.0000260169
       -0.0000043030   0.0000804039  -0.0000278280  -0.0000213585  -0.0000133115
        0.0000228639   0.0000052286   0.0000009831  -0.0000109306  -0.0000048761
       -0.0000083919   0.0000118994  -0.0000023841  -0.0000009225   0.0000033983
        0.0000045814  -0.0000026361  -0.0000038075  -0.0000084025   0.0000091047
        0.0000104833   0.0000059949   0.0000079230  -0.0000133483  -0.0000031701
       -0.0000066081   0.0000054967   0.0000036041  -0.0000036771  -0.0000045398
        0.0000044542  -0.0000089454  -0.0000054971  -0.0000057713   0.0000059915
        0.0000083189   0.0000255385  -0.0000309010  -0.0000100015  -0.0000300514
       -0.0000121008   0.0000031176   0.0000100942   0.0002700682  -0.0000041149
        0.0002118124  -0.0005874980   0.0000337037   0.0001138274   0.0000464243
       -0.0000078606   0.0000323863  -0.0000126213   0.0000047407  -0.0000178842
       -0.0000808003  -0.0000116885  -0.0000030087   0.0000852537   0.0000134214
       -0.0000299834  -0.0000268981  -0.0000175896   0.0000081806   0.0000032111
        0.0000088268  -0.0000071191  -0.0000054719  -0.0000079260  -0.0000059055
       -0.0000028834  -0.0000049649   0.0000052666  -0.0000086475   0.0000016232
       -0.0000109873   0.0000115707  -0.0000072210   0.0000115297   0.0000064040
        0.0000114234  -0.0000048636  -0.0000033957  -0.0000035504   0.0000033035
       -0.0000001524   0.0000022582   0.0000062309  -0.0000113922   0.0000032540
       -0.0000069188   0.0000032151  -0.0000078005   0.0000296370  -0.0000185533
        0.0000080719   0.0000003969  -0.0000220628  -0.0000115387  -0.0000629095
       -0.0000119369   0.0000082324   0.0000740365  -0.0000288638   0.0000033739
       -0.0000505424  -0.0000104794  -0.0000231324   0.0000076331   0.0000009653
        0.0000051867  -0.0000138860   0.0000041203  -0.0000021123   0.0000015358
       -0.0000010650  -0.0000013795  -0.0000075011   0.0000043814   0.0000004674
        0.0000080732  -0.0000146504  -0.0000158099   0.0000026460   0.0000106232
        0.0000171541   0.0000038448  -0.0000040291  -0.0000046366  -0.0000011180
        0.0000041556  -0.0000005010  -0.0000254862   0.0000219219   0.0000112567
        0.0000204089  -0.0000085887  -0.0000058935  -0.0000084219   0.0000259623
        0.0000170770  -0.0000369975   0.0000737559   0.0000117494   0.0008522902
        0.0009082006  -0.0000270243  -0.0247329506  -0.0384018592   0.0011811421
       -0.1407675077  -0.1549933008  -0.0001781647   0.0032769308  -0.3000625983
        0.0156747624  -0.0128551915   0.0065993769  -0.0009426123   0.0002498871
       -0.0057128087   0.0008350910  -0.0000448824   0.0000123777   0.0000253517
       -0.0000193462  -0.0000050769  -0.0000118530   0.0000079801  -0.0000128949
        0.0000198050   0.0000037629  -0.0000023553  -0.0000022037  -0.0000055920
       -0.0000012844   0.0000059418  -0.0000031683  -0.0000032307   0.0000000147
       -0.0000038399   0.0000019293   0.0000048395  -0.0000009792   0.0000021279
        0.0000027054  -0.0000010362   0.0000017343   0.0000020665   0.0000019817
        0.0000031332  -0.0000040940  -0.0000015343   0.0000057409  -0.0000033879
        0.0000008498  -0.0000002000  -0.0000018762   0.0000029821   0.0000026286
       -0.0000021184  -0.0000002775   0.0000020143  -0.0000005180   0.0000009694
        0.0000023609  -0.0000029380  -0.0000026474   0.0000036565   0.0000024635
       -0.0000020530  -0.0000001827   0.0000021185   0.0000004297   0.0000027077
       -0.0000010815   0.0000038527   0.0000032096   0.0000004535  -0.0000044037
        0.0000008646   0.0000009587  -0.0000007314   0.0000019355   0.0000011034
        0.0000024030  -0.0000018756   0.0000036019   0.0000034618   0.0000038158
        0.0000047927  -0.0000017954   0.0000035340   0.0000000755   0.0000001945
        0.0000013686   0.0000024928  -0.0000036812   0.0000020727  -0.0000015612
        0.0000006108   0.0000002584   0.0000009595   0.0000011680   0.0000063474
        0.0000022291  -0.0000025660   0.0000028818  -0.0000041339   0.0000019539
       -0.0000027267   0.0000007555   0.0000008391   0.0000021855   0.0000030195
        0.0000042274   0.0000000453   0.0000045750   0.0000032932  -0.0000046226
       -0.0000024801   0.0000045039  -0.0000031859   0.0000019078   0.0000014471
       -0.0000038528  -0.0000010438  -0.0000003351  -0.0000025579   0.0000017728
        0.0000039898  -0.0000079170  -0.0000074172   0.0000506243   0.0000112242
       -0.0000159687  -0.0001119658  -0.0057126648   0.0008132774   0.0118671903
        0.0066281334   0.0002129442
        0.0238836699  -0.0323327796   0.1215090000  -0.0181653978   0.0083757939
       -0.0499102488  -0.0004148477   0.0060972329   0.0008759713  -0.0024726241
       -0.0008130803  -0.0069153259  -0.0000404647   0.0001509170  -0.0002505348
        0.0000396621   0.0000058690  -0.0000295618  -0.0000154305  -0.0000023472
        0.0000519048  -0.0000014733  -0.0000007890  -0.0000127469  -0.0000010111
       -0.0000036311   0.0000004118  -0.0000034911   0.0000000408   0.0000004715
        0.0000021635  -0.0000012220  -0.0000013118   0.0000047889   0.0000054622
        0.0000001718  -0.0000033383  -0.0000033849   0.0000035101   0.0000016642
        0.0000025381   0.0000026462  -0.0000021312  -0.0000032723   0.0000004354
       -0.0000008950  -0.0000008889   0.0000001303   0.0000011054   0.0000009751
       -0.0000002445   0.0000023834   0.0000015179  -0.0000001982  -0.0000017467
       -0.0000002615   0.0000012469  -0.0000002835  -0.0000004064   0.0000002326
        0.0000016107  -0.0000004352  -0.0000007707  -0.0000010317  -0.0000020319
       -0.0000001325   0.0000003104   0.0000005668  -0.0000004624  -0.0000048090
        0.0000015647   0.0000007465  -0.0000008577   0.0000083345  -0.0000017787
       -0.0000002761  -0.0000084979   0.0000040497   0.0000049235   0.0000014703
       -0.0000068906   0.0000003632   0.0000011957  -0.0000007914  -0.0000002770
        0.0000001758   0.0000004820   0.0000003145  -0.0000008285   0.0000000954
        0.0000005416   0.0000019765  -0.0000016853   0.0000001891  -0.0000016839
        0.0000005096  -0.0000011862  -0.0000004892   0.0000021006  -0.0000002091
        0.0000006072   0.0000004443   0.0000005049  -0.0000011773  -0.0000001051
        0.0000002688   0.0000012051  -0.0000006170   0.0000001312   0.0000006529
       -0.0000003971  -0.0000045733   0.0000052094   0.0000031368   0.0000039262
        0.0000003594   0.0000004234   0.0000343307  -0.0000038814  -0.0000141254
       -0.0000073450   0.0000528085   0.0000480124  -0.0000024332  -0.0000137770
       -0.0000137061  -0.0000044142   0.0000046469   0.0000011784  -0.0000020355
        0.0000055416   0.0000024230   0.0000004994  -0.0000031194   0.0000004680
        0.0000036438   0.0000024978   0.0000026275  -0.0000005969  -0.0000002596
       -0.0000001901   0.0000001511   0.0000003502   0.0000004699   0.0000005125
       -0.0000005445   0.0000005909  -0.0000005498   0.0000005876  -0.0000000665
        0.0000008528  -0.0000012007   0.0000005763  -0.0000002634  -0.0000017857
       -0.0000004055  -0.0000009278   0.0000010706  -0.0000003292  -0.0000003440
       -0.0000005822  -0.0000001747   0.0000006086   0.0000002342   0.0000006764
        0.0000001624   0.0000013737   0.0000009328  -0.0000048953   0.0000031138
       -0.0000035003   0.0000039749  -0.0000009150   0.0000005409   0.0000088261
       -0.0000085642  -0.0000009340  -0.0000045896   0.0000083414   0.0000070539
       -0.0000020057   0.0000021175  -0.0000006810  -0.0000018286  -0.0000008328
       -0.0000016794   0.0000004246   0.0000007042   0.0000016742   0.0000016819
        0.0000005566   0.0000016658  -0.0000003680  -0.0000017363  -0.0000021459
       -0.0000002486   0.0000005741   0.0000005122  -0.0000039864   0.0000011998
       -0.0000003279   0.0000016439  -0.0000005893  -0.0000002925   0.0000001157
       -0.0000011543  -0.0000020431  -0.0000025274   0.0000000474  -0.0000017983
        0.0000054150  -0.0000011549   0.0000023494   0.0000014814  -0.0000054856
       -0.0000040393  -0.0000039831   0.0000000410  -0.0000025871  -0.0000781238
       -0.0001091208  -0.0000211672   0.0027006500  -0.0015390317   0.0014571662
       -0.0017055968   0.0035282817  -0.0488707446  -0.0006059842   0.0156668641
       -0.0360697242  -0.0005023039   0.0001624237   0.0008218799  -0.0003652084
        0.0008221316   0.0082596603   0.0000094162  -0.0000056684   0.0000032270
       -0.0000004852   0.0000053659  -0.0000006865  -0.0000002962  -0.0000053314
       -0.0000039015   0.0000014995   0.0000010468  -0.0000008702   0.0000008484
        0.0000000947  -0.0000009521  -0.0000001617   0.0000002652  -0.0000002800
       -0.0000000920  -0.0000001225  -0.0000002468  -0.0000002907   0.0000000541
        0.0000000909   0.0000002731   0.0000003611  -0.0000003493   0.0000011328
        0.0000002270  -0.0000000451   0.0000000061  -0.0000000661   0.0000001551
       -0.0000002642   0.0000001165   0.0000003107  -0.0000003934  -0.0000000097
        0.0000005030  -0.0000000765  -0.0000006937   0.0000003587   0.0000000739
       -0.0000004963   0.0000000943   0.0000000530  -0.0000000343  -0.0000001280
       -0.0000000884  -0.0000000992   0.0000001611   0.0000000421  -0.0000007113
        0.0000000303  -0.0000009156   0.0000004098  -0.0000007419   0.0000003696
        0.0000009919  -0.0000004560   0.0000001094  -0.0000001581  -0.0000003173
       -0.0000000790   0.0000000957  -0.0000002583  -0.0000002423  -0.0000001507
       -0.0000003466   0.0000001565  -0.0000004687  -0.0000001113   0.0000001484
       -0.0000003012  -0.0000001543   0.0000006060  -0.0000001745   0.0000002975
        0.0000001835   0.0000000396   0.0000000198  -0.0000001358  -0.0000005494
       -0.0000004005  -0.0000010363  -0.0000001199   0.0000004703   0.0000001653
        0.0000004599   0.0000003447   0.0000002444  -0.0000004153  -0.0000003705
       -0.0000004989   0.0000001110  -0.0000004678  -0.0000003882   0.0000006463
        0.0000004825  -0.0000000453   0.0000000891  -0.0000001779  -0.0000012533
        0.0000009684   0.0000013170   0.0000007737  -0.0000014962   0.0000009235
       -0.0000018385   0.0000016855  -0.0000017553   0.0000026612   0.0000034859
        0.0000051709  -0.0003348849   0.0008276625   0.0082512708  -0.0019518783
       -0.0008853408   0.0008236753
       -0.2728101585   0.1365209344  -0.0181653978   0.6645398749   0.0157660964
        0.0240702237  -0.0952069624  -0.0364539047  -0.0000249385   0.0271421015
       -0.0214247136   0.0022493426  -0.0042548773  -0.0062190511  -0.0001985440
       -0.0008981269   0.0019532050  -0.0001299824   0.0000717376  -0.0010544264
        0.0001261817  -0.0001733483   0.0001164582  -0.0000144724  -0.0000483527
        0.0000388995   0.0000618214   0.0002778027   0.0001448373  -0.0000767608
       -0.0002537864  -0.0001762168   0.0000133787   0.0000560515   0.0001598074
        0.0000237422   0.0000872918   0.0000060757  -0.0001001895   0.0000052127
        0.0000809130   0.0000811707  -0.0000041091  -0.0000051141   0.0000310169
       -0.0000005960   0.0000044411   0.0000071243  -0.0000585064   0.0000136090
        0.0000395071  -0.0000309959  -0.0000484992  -0.0000066910  -0.0000020734
        0.0000183324   0.0000079501  -0.0000139775  -0.0000211468  -0.0000024783
        0.0000303724   0.0000011400  -0.0000178003  -0.0000221783   0.0000378455
        0.0000314109   0.0001374966  -0.0000928621  -0.0000672143  -0.0000222771
       -0.0000155225  -0.0000220363   0.0000059026  -0.0001420328   0.0000488704
       -0.0000247557   0.0001595754  -0.0000483664  -0.0000548807  -0.0000264367
        0.0000657394   0.0000142951  -0.0000170447  -0.0000264538  -0.0000100115
       -0.0000096775   0.0000196532  -0.0000065396   0.0000093454   0.0000042339
        0.0000066515  -0.0000048670  -0.0000067105  -0.0000131783   0.0000238358
        0.0000121884   0.0000088919   0.0000241207  -0.0000243677  -0.0000057303
       -0.0000084759   0.0000075336   0.0000047601   0.0000018473  -0.0000097068
        0.0000070149  -0.0000161571  -0.0000094884  -0.0000173584   0.0000129299
        0.0000204662   0.0000691210  -0.0000764048  -0.0000386623  -0.0000804617
       -0.0000581560   0.0000126818  -0.0000874783   0.0008212121  -0.0000782100
       -0.0002484166  -0.0014596374   0.0001523994   0.0002055573  -0.0000224968
       -0.0000164817   0.0000438382  -0.0000907495   0.0000091925   0.0000162778
       -0.0001526379  -0.0000265487   0.0000121329   0.0001516694   0.0000249781
       -0.0000601789  -0.0000572523  -0.0000351872   0.0000163982   0.0000095007
        0.0000164322  -0.0000114988  -0.0000111258  -0.0000136431  -0.0000063151
       -0.0000012665  -0.0000051470   0.0000082834  -0.0000100637   0.0000022828
       -0.0000180589   0.0000236386  -0.0000107992   0.0000160795   0.0000113903
        0.0000162784  -0.0000099244  -0.0000058350  -0.0000075567   0.0000101219
        0.0000035022   0.0000076966   0.0000107590  -0.0000126767   0.0000050156
       -0.0000141823  -0.0000081998  -0.0000238422   0.0000479276  -0.0000270271
        0.0000165356   0.0000182452  -0.0000213477  -0.0000231898  -0.0001804247
        0.0000596055   0.0000269829   0.0001822798  -0.0000944628  -0.0000278655
       -0.0001047426  -0.0000317640  -0.0000601169   0.0000131235   0.0000054093
        0.0000222012  -0.0000329348   0.0000099274  -0.0000019208   0.0000164416
       -0.0000112128  -0.0000055583  -0.0000027780   0.0000009300   0.0000025434
        0.0000166142  -0.0000254952  -0.0000233253   0.0000295114   0.0000097613
        0.0000324735   0.0000120926  -0.0000088822  -0.0000001662   0.0000168531
       -0.0000157512  -0.0000061852  -0.0000336448   0.0000256083   0.0000282814
       -0.0000022843  -0.0000153275  -0.0000182805  -0.0000269779   0.0001095085
        0.0000775259  -0.0000167838   0.0001703598   0.0000138089   0.0012916912
        0.0002527788   0.0000639737  -0.0132546476   0.0295952945  -0.0020571284
       -0.0663533289  -0.0302714819  -0.0012955907  -0.0014799604   0.0022236626
       -0.0002838485  -0.2332857146  -0.1131769007  -0.0023982492  -0.0017127102
        0.0253445273  -0.0016259232   0.0001359283  -0.0000928330  -0.0000570287
        0.0000010526  -0.0000516679   0.0000746658   0.0000143528   0.0000245150
       -0.0000454544  -0.0000498100  -0.0000316421  -0.0000103307  -0.0000126070
       -0.0000064905  -0.0000006849  -0.0000130678  -0.0000048690   0.0000025506
       -0.0000078811   0.0000001789   0.0000038436  -0.0000028980   0.0000011921
        0.0000008686  -0.0000048396  -0.0000164939  -0.0000044477  -0.0000109210
        0.0000191735  -0.0000120042  -0.0000035596   0.0000069530   0.0000079432
        0.0000024536  -0.0000013589  -0.0000019010   0.0000036240   0.0000061701
       -0.0000054343   0.0000003096   0.0000065870  -0.0000015171   0.0000004940
        0.0000061529  -0.0000028740  -0.0000037024   0.0000078764   0.0000038146
       -0.0000044779   0.0000018142   0.0000066340   0.0000069777  -0.0000018991
       -0.0000052251   0.0000089441  -0.0000049939   0.0000079961  -0.0000078167
       -0.0000210117  -0.0000061512  -0.0000048034   0.0000036519  -0.0000013720
        0.0000060504  -0.0000009375   0.0000062636   0.0000057077   0.0000066081
        0.0000070526  -0.0000021453   0.0000049388   0.0000003291   0.0000007171
        0.0000059887   0.0000040349  -0.0000062771   0.0000046603  -0.0000021628
       -0.0000000975  -0.0000020632   0.0000022599  -0.0000012739   0.0000095455
        0.0000098372   0.0000014734   0.0000103168  -0.0000077031   0.0000020353
       -0.0000059611  -0.0000069121   0.0000019391   0.0000033864   0.0000016134
        0.0000049511  -0.0000005279   0.0000040323   0.0000098410  -0.0000054232
       -0.0000042176   0.0000067936  -0.0000049120  -0.0000017846   0.0000061362
       -0.0000065043  -0.0000063863  -0.0000029330  -0.0000013808  -0.0000139060
       -0.0000004627  -0.0000018139   0.0000047584  -0.0000223282   0.0000035015
        0.0000007521   0.0005757509   0.0005752412   0.0000061778  -0.0041262095
       -0.0029658995  -0.0003757437
        0.0568741171  -0.1488515362   0.0083757939   0.0157660964   0.6583460969
       -0.0311202465   0.0408928328  -0.3388036960   0.0189320888  -0.0766461935
       -0.0406862970  -0.0008597059  -0.0032936341   0.0043916856  -0.0000046498
        0.0010195172   0.0001213810   0.0000201042  -0.0001033685   0.0003135503
       -0.0000354129   0.0000263304   0.0000849521  -0.0000065378  -0.0000202968
       -0.0000037127  -0.0000064453   0.0000161419   0.0000307095  -0.0000135437
        0.0000015994  -0.0000527551  -0.0000257805  -0.0000007045   0.0000675730
        0.0000223387   0.0000371447   0.0000089743  -0.0000070235  -0.0000312124
       -0.0000177197   0.0000391930  -0.0000074346  -0.0000096580   0.0000182942
        0.0000139459   0.0000185521   0.0000046281  -0.0000326431  -0.0000248650
        0.0000038269   0.0000116622   0.0000087830  -0.0000018013  -0.0000077289
        0.0000025465   0.0000069797   0.0000037527  -0.0000086226  -0.0000054127
       -0.0000026948  -0.0000070097  -0.0000001142   0.0000080234   0.0000138914
        0.0000021012  -0.0000308867  -0.0000063443   0.0000132195   0.0000304236
       -0.0000036974   0.0000039424  -0.0000203326   0.0000453370  -0.0000208662
        0.0000015961  -0.0000569238   0.0000251504   0.0000119287   0.0000113594
       -0.0000179762  -0.0000043968  -0.0000005515   0.0000101975   0.0000065299
        0.0000023258  -0.0000119719   0.0000001705   0.0000003526  -0.0000006734
       -0.0000026276  -0.0000011242   0.0000026771   0.0000024141  -0.0000043077
       -0.0000026141  -0.0000016752  -0.0000017426   0.0000043488   0.0000024344
       -0.0000016403  -0.0000023618  -0.0000017187  -0.0000009102   0.0000027007
       -0.0000039163   0.0000067003   0.0000030351   0.0000029820  -0.0000031752
       -0.0000073306  -0.0000126047   0.0000169332   0.0000025083  -0.0000070702
       -0.0000174010   0.0000052561   0.0004831168  -0.0004381009   0.0000711252
       -0.0004672010   0.0009860900  -0.0001478774  -0.0000574907  -0.0001371202
        0.0000161819  -0.0000384048   0.0000652523   0.0000075507  -0.0000354204
        0.0000107418   0.0000046478  -0.0000194574  -0.0000224525  -0.0000076650
        0.0000187516   0.0000196587   0.0000162113  -0.0000028170  -0.0000040889
       -0.0000031367   0.0000016764   0.0000010318   0.0000016102   0.0000000481
       -0.0000020697  -0.0000003221   0.0000008396   0.0000031131   0.0000013157
        0.0000006727  -0.0000095075  -0.0000016232  -0.0000026177   0.0000021693
       -0.0000015182   0.0000024484  -0.0000034885   0.0000014927  -0.0000000639
       -0.0000038771  -0.0000003003  -0.0000038492   0.0000038554  -0.0000016426
        0.0000040854   0.0000046764   0.0000083331  -0.0000048678   0.0000032004
       -0.0000035799  -0.0000036571  -0.0000219112   0.0000015002   0.0001041760
       -0.0000566572  -0.0000186381  -0.0000837331   0.0000487781   0.0000299203
        0.0000359155   0.0000166666   0.0000251945  -0.0000058262  -0.0000067247
       -0.0000189005   0.0000107282   0.0000004152   0.0000044802  -0.0000047043
        0.0000072800   0.0000040660  -0.0000081778  -0.0000010630  -0.0000071886
       -0.0000051810   0.0000061183   0.0000051174  -0.0000222765   0.0000040182
       -0.0000062265   0.0000012827   0.0000036556  -0.0000013645  -0.0000087324
        0.0000088024  -0.0000014540  -0.0000044850  -0.0000005447  -0.0000153717
        0.0000238852   0.0000092652   0.0000159714   0.0000102564  -0.0000614198
       -0.0000437193  -0.0000421582  -0.0000526418  -0.0000010296  -0.0019232856
       -0.0027068820   0.0001197422   0.0288090759  -0.0462498986   0.0036679676
        0.0266873301   0.0600722519  -0.0021910339   0.0260303105  -0.0177729970
        0.0023133286  -0.1132450199  -0.1113226005  -0.0005849772   0.0022879269
       -0.0164577901   0.0011060901   0.0000119019   0.0000522465   0.0000185714
        0.0000113200   0.0000147156  -0.0000204024   0.0000049576   0.0000078530
       -0.0000526174  -0.0000133773  -0.0000125680  -0.0000057573   0.0000039285
       -0.0000011876  -0.0000058408  -0.0000009302  -0.0000011116   0.0000008116
        0.0000024196  -0.0000037608  -0.0000049578   0.0000031988  -0.0000035952
       -0.0000050049  -0.0000024932  -0.0000065951  -0.0000005932  -0.0000025993
       -0.0000067584   0.0000025120  -0.0000000803  -0.0000042457  -0.0000041297
       -0.0000029206  -0.0000001903   0.0000030798  -0.0000013083  -0.0000033590
        0.0000020012  -0.0000000320  -0.0000014567   0.0000010053  -0.0000002324
       -0.0000015227   0.0000020101   0.0000015463  -0.0000022454  -0.0000005134
        0.0000014985  -0.0000001122  -0.0000001119   0.0000000195  -0.0000016201
        0.0000040449  -0.0000033876   0.0000021519  -0.0000004596  -0.0000029474
        0.0000175770   0.0000077210   0.0000030820   0.0000031514   0.0000021969
       -0.0000028165  -0.0000001009  -0.0000035530  -0.0000016701  -0.0000009129
       -0.0000017381  -0.0000003880  -0.0000012865  -0.0000005296   0.0000001047
       -0.0000023241  -0.0000002275  -0.0000005933  -0.0000018690  -0.0000007611
        0.0000000453  -0.0000005936  -0.0000007516  -0.0000011019   0.0000032664
       -0.0000061241  -0.0000021622  -0.0000014385   0.0000038268   0.0000011633
        0.0000043918   0.0000086139  -0.0000007428   0.0000006932   0.0000005131
       -0.0000019427   0.0000007495   0.0000011629  -0.0000034007   0.0000003872
        0.0000014182  -0.0000016795   0.0000005722   0.0000031798  -0.0000058955
        0.0000015199   0.0000051638   0.0000015526  -0.0000002858   0.0000096443
        0.0000032377  -0.0000073644  -0.0000129841   0.0000768823  -0.0000389542
       -0.0000058179   0.0004337133  -0.0002894735  -0.0000002917  -0.0035294730
       -0.0005875622   0.0003434961
       -0.0135070725   0.0120886430  -0.0499102488   0.0240702237  -0.0311202465
        0.1191152284  -0.0046626486   0.0154526871  -0.0485675775   0.0057815457
        0.0014760143   0.0022109509  -0.0004376028   0.0000026914   0.0080695160
       -0.0000456311   0.0001495834  -0.0006440308  -0.0000094801  -0.0000747993
       -0.0003973979   0.0000009291   0.0000059232   0.0000865940  -0.0000096018
        0.0000116635   0.0000048104   0.0000081645   0.0000003822  -0.0000136081
       -0.0000110812   0.0000150090   0.0000189292  -0.0000041852  -0.0000106911
       -0.0000085751   0.0000026589   0.0000006610  -0.0000032150   0.0000257058
       -0.0000255690  -0.0000336255  -0.0000000229   0.0000076684   0.0000068347
       -0.0000064989  -0.0000080746   0.0000025553   0.0000003619   0.0000096881
        0.0000059788  -0.0000050651  -0.0000036810   0.0000012330   0.0000032959
        0.0000019169   0.0000010121   0.0000002436   0.0000003150   0.0000012190