56
 energy: -74.258303229758 gnorm: 0.000037534829 xtb: 6.7.1 (edcfbbe)
C           -9.39430407117223       -1.53223389465262       -0.14417130838292
C           -8.28946296646959       -0.76148844733628        0.57042491780839
C           -8.08956586717975        0.62703098613490       -0.03437190985832
C           -7.07869417637027        1.48874908051645        0.72537415021175
C           -5.64556724788759        0.95379800200833        0.73751273261581
C           -5.01461630204362        0.87659069310171       -0.65931221747862
C           -3.56996511746170        0.48349529469975       -0.56219709903108
C           -3.19050572169819       -0.85398546131117       -0.57328533998965
C           -1.86451019753553       -1.21487256047147       -0.45076471997422
C           -0.85904141830274       -0.25211640619868       -0.31303178922148
C            0.51781767080036       -0.69286235524688       -0.19901705518366
C            1.60684894181014        0.09015713981559       -0.14765509265711
C            2.98454176813464       -0.34795057731992       -0.04987050074458
C            3.34939542925094       -1.71983636247991        0.07130195211210
C            4.65027469920175       -2.09946696811879        0.14786281545090
C            5.70300239263832       -1.14691453409402        0.11040834513575
C            7.04237996105708       -1.51145249601424        0.17981633268544
C            8.06014902067224       -0.55965289493487        0.13844161497341
C            9.43077153391196       -0.91702979001112        0.20263663514736
C           10.40491304785385        0.03355379056191        0.15713785775546
C           10.06599302324718        1.39938992974135        0.04769094589598
C            8.76129295443076        1.78332621501078       -0.01516176980284
C            7.71599588373064        0.82468593017813        0.02620508407773
C            6.37363815622423        1.18881239633054       -0.04119261230817
C            5.35621615959715        0.23668005451894       -0.00376186978936
C            3.99039836333263        0.59132206224436       -0.07918316779529
C           -1.24813696357174        1.09047985542223       -0.29657867225453
C           -2.57582844999427        1.44568669967392       -0.41684689500028
H           -9.52006337444527       -2.51923358092077        0.29637273505344
H          -10.34126388998262       -1.00073566944107       -0.07074212817708
H           -9.15360915864927       -1.65549552837102       -1.19853927223655
H           -7.36121277171751       -1.33161999898079        0.50557710166758
H           -8.54430301117450       -0.65986610838527        1.62840388659771
H           -7.78301610849429        0.52738216848775       -1.07729230850316
H           -9.05019849340921        1.14960439250267       -0.02918588731753
H           -7.41514394485950        1.59064510271827        1.76075257692182
H           -7.07443926993713        2.48845208816016        0.28220347029447
H           -5.03633027793024        1.61780252687894        1.35680652507093
H           -5.61814804235804       -0.03406604099292        1.20021988873414
H           -5.55137161226983        0.14320881660492       -1.26246086525285
H           -5.10198201810615        1.85234106984811       -1.14266014512269
H           -3.94468363797310       -1.62092726313852       -0.68425569859980
H           -1.59411728002605       -2.26209127315331       -0.46600277451921
H            0.63435577413398       -1.76843471851195       -0.16889794552910
H            1.48833639322392        1.16489956713641       -0.19471857602811
H            2.57444190445388       -2.46977929366219        0.10563540805185
H            4.91093693880338       -3.14495890033544        0.23938592840389
H            7.30220251375685       -2.55804302659405        0.26565921159080
H            9.68491298361801       -1.96450541508523        0.28714737451671
H           11.44730410588971       -0.24737794523634        0.20498250304124
H           10.85608180402521        2.13591487808703        0.01436287826140
H            8.49632978618329        2.82815994441365       -0.09892755811152
H            6.11441463857402        2.23552248123911       -0.12666035776971
H            3.74344816189520        1.64102561285144       -0.16770534251273
H           -0.50622842156688        1.86656674164924       -0.18535072010624
H           -2.85008219788629        2.49171099044557       -0.40252327282168
