      -----------------------------------------------------------      
     |                   =====================                   |     
     |                           x T B                           |     
     |                   =====================                   |     
     |                         S. Grimme                         |     
     |          Mulliken Center for Theoretical Chemistry        |     
     |                    University of Bonn                     |     
      -----------------------------------------------------------      

   * xtb version 6.7.1 (edcfbbe) compiled by 'albert@albert-system' on 2024-07-22

   xtb is free software: you can redistribute it and/or modify it under
   the terms of the GNU Lesser General Public License as published by
   the Free Software Foundation, either version 3 of the License, or
   (at your option) any later version.
   
   xtb is distributed in the hope that it will be useful,
   but WITHOUT ANY WARRANTY; without even the implied warranty of
   MERCHANTABILITY or FITNESS FOR A PARTICULAR PURPOSE.  See the
   GNU Lesser General Public License for more details.
   
   Cite this work as:
   * C. Bannwarth, E. Caldeweyher, S. Ehlert, A. Hansen, P. Pracht,
     J. Seibert, S. Spicher, S. Grimme, WIREs Comput. Mol. Sci., 2020, 11,
     e01493. DOI: 10.1002/wcms.1493
   
   for GFN2-xTB:
   * C. Bannwarth, S. Ehlert and S. Grimme., J. Chem. Theory Comput., 2019,
     15, 1652-1671. DOI: 10.1021/acs.jctc.8b01176
   for GFN1-xTB:
   * S. Grimme, C. Bannwarth, P. Shushkov, J. Chem. Theory Comput., 2017,
     13, 1989-2009. DOI: 10.1021/acs.jctc.7b00118
   for GFN0-xTB:
   * P. Pracht, E. Caldeweyher, S. Ehlert, S. Grimme, ChemRxiv, 2019, preprint.
     DOI: 10.26434/chemrxiv.8326202.v1
   for GFN-FF:
   * S. Spicher and S. Grimme, Angew. Chem. Int. Ed., 2020, 59, 15665-15673.
     DOI: 10.1002/anie.202004239
   
   for ALPB and GBSA implicit solvation:
   * S. Ehlert, M. Stahn, S. Spicher, S. Grimme, J. Chem. Theory Comput.,
     2021, 17, 4250-4261. DOI: 10.1021/acs.jctc.1c00471
   
   for ddCOSMO and CPCM-X implicit solvation:
   * M. Stahn, S. Ehlert, S. Grimme, J. Phys. Chem. A,
     2023, XX, XXXX-XXXX. DOI: 10.1021/acs.jpca.3c04382
   
   for DFT-D4:
   * E. Caldeweyher, C. Bannwarth and S. Grimme, J. Chem. Phys., 2017,
     147, 034112. DOI: 10.1063/1.4993215
   * E. Caldeweyher, S. Ehlert, A. Hansen, H. Neugebauer, S. Spicher,
     C. Bannwarth and S. Grimme, J. Chem. Phys., 2019, 150, 154122.
     DOI: 10.1063/1.5090222
   * E. Caldeweyher, J.-M. Mewes, S. Ehlert and S. Grimme, Phys. Chem. Chem. Phys.
     2020, 22, 8499-8512. DOI: 10.1039/D0CP00502A
   
   for sTDA-xTB:
   * S. Grimme and C. Bannwarth, J. Chem. Phys., 2016, 145, 054103.
     DOI: 10.1063/1.4959605
   
   in the mass-spec context:
   * V. Asgeirsson, C. Bauer and S. Grimme, Chem. Sci., 2017, 8, 4879.
     DOI: 10.1039/c7sc00601b
   * J. Koopman and S. Grimme, ACS Omega 2019, 4, 12, 15120-15133.
     DOI: 10.1021/acsomega.9b02011
   
   for metadynamics refer to:
   * S. Grimme, J. Chem. Theory Comput., 2019, 155, 2847-2862
     DOI: 10.1021/acs.jctc.9b00143
   
   for SPH calculations refer to:
   * S. Spicher and S. Grimme, J. Chem. Theory Comput., 2021, 17, 1701-1714
     DOI: 10.1021/acs.jctc.0c01306
   
   for ONIOM refer to:
   * C. Plett, A. Katbashev, S. Ehlert, S. Grimme, M. Bursch,
     Phys. Chem. Chem. Phys., 2023, 25, 17860-17868. DOI: 10.1039/D3CP02178E
   
   for DIPRO refer to:
   * J. Kohn, N. Gildemeister, S. Grimme, D. Fazzi, A. Hansen,
     J. Chem. Phys., 2023, just accepted.
   
   for PTB refer to:
   * S. Grimme, M. Mueller, A. Hansen, J. Chem. Phys., 2023, 158, 124111.
     DOI: 10.1063/5.0137838
   
   with help from (in alphabetical order)
   P. Atkinson, C. Bannwarth, F. Bohle, G. Brandenburg, E. Caldeweyher
   M. Checinski, S. Dohm, S. Ehlert, S. Ehrlich, I. Gerasimov, C. Hölzer
   A. Katbashev, J. Kohn, J. Koopman, C. Lavigne, S. Lehtola, F. März, M. Müller,
   F. Musil, H. Neugebauer, J. Pisarek, C. Plett, P. Pracht, F. Pultar,
   J. Seibert, P. Shushkov, S. Spicher, M. Stahn, M. Steiner, T. Strunk,
   J. Stückrath, T. Rose, and J. Unsleber
   
 * started run on 2025/09/10 at 03:40:35.798     
   ID    Z sym.   atoms
    1    6 C      1-6, 8-13, 15-22, 24-29, 31-36, 38-47, 49, 50
    2    8 O      7, 37
    3    7 N      14, 23, 30, 48
    4    1 H      51-76

           -------------------------------------------------
          |                Calculation Setup                |
           -------------------------------------------------

          program call               : xtb data2507/gas/POZDBPHZ/POZDBPHZ_gas_S0_finalOpt.xtbopt.xyz --gfn 2 --spinpol --tblite --uhf 2 --ohess vtight --parallel 40 --molden --ceasefiles --namespace data2507/gas/POZDBPHZ/POZDBPHZ_gas_T1_preOpt
          calculation namespace      : data2507/gas/POZDBPHZ/POZDBPHZ_gas_T1_preOpt
          coordinate file            : data2507/gas/POZDBPHZ/POZDBPHZ_gas_S0_finalOpt.xtbopt.xyz
          omp threads                :                    40

repulsion energy          2.2271238426899E+00 Eh
dispersion energy        -8.1013381691617E-04 Eh
interaction energy        0.0000000000000E+00 Eh
number of electrons       2.3400000000000E+02 e
integral cutoff           1.7347787504999E+01 bohr

------------------------------------------------------------
  cycle        total energy    energy error   density error
------------------------------------------------------------
      1     -126.9990726987  -1.2922539E+02   1.0666577E-01
      2     -126.8182390139   1.8083368E-01   6.7715530E-02
      3     -126.1818860961   6.3635292E-01   5.7875432E-02
      4     -127.1748677478  -9.9298165E-01   3.1079653E-02
      5     -127.3218191341  -1.4695139E-01   1.7667244E-02
      6     -127.3264391331  -4.6199990E-03   1.4915932E-02
      7     -127.2788336516   4.7605482E-02   1.7990295E-02
      8     -127.3355119318  -5.6678280E-02   9.8993413E-03
      9     -127.2861462673   4.9365665E-02   1.6571414E-02
     10     -127.3461567110  -6.0010444E-02   3.7040060E-03
     11     -127.3273552268   1.8801484E-02   8.6772976E-03
     12     -127.3493239258  -2.1968699E-02   7.8180219E-04
     13     -127.3493508144  -2.6888665E-05   5.4063944E-04
     14     -127.3493641980  -1.3383552E-05   3.2379430E-04
     15     -127.3493908890  -2.6691034E-05   1.1020157E-04
     16     -127.3493829762   7.9127775E-06   2.2779082E-04
     17     -127.3493923464  -9.3701435E-06   5.9592133E-05
     18     -127.3493929410  -5.9460402E-07   3.1466223E-05
     19     -127.3493930182  -7.7244664E-08   2.5100699E-05
     20     -127.3493931467  -1.2842648E-07   5.6036521E-06
------------------------------------------------------------

electronic energy        -1.2957570685554E+02 Eh
total energy             -1.2734939314666E+02 Eh

 total:                                   0.345 sec
 - repulsion                              0.000 sec (  0%)
 - dispersion                             0.016 sec (  4%)
 - coulomb                                0.006 sec (  1%)
 - hamiltonian                            0.013 sec (  3%)
 - scc                                    0.309 sec ( 89%)

      ----------------------------------------------------------- 
     |                   =====================                   |
     |                        A N C O P T                        |
     |                   =====================                   |
     |               Approximate Normal Coordinate               |
     |                Rational Function Optimizer                |
      ----------------------------------------------------------- 

Optimization log is written to '/dev/null'
      ----------------------------------------------------------- 
     |                   =====================                   |
     |                        A N C O P T                        |
     |                   =====================                   |
     |               Approximate Normal Coordinate               |
     |                Rational Function Optimizer                |
      ----------------------------------------------------------- 

          ...................................................
          :                      SETUP                      :
          :.................................................:
          :   optimization level         verytight          :
          :   max. optcycles                  1520          :
          :   ANC micro-cycles                  20          :
          :   degrees of freedom               222          :
          :.................................................:
          :   RF solver                   davidson          :
          :   write xtbopt.log                true          :
          :   linear?                        false          :
          :   energy convergence         0.1000000E-06 Eh   :
          :   grad. convergence          0.2000000E-03 Eh/α :
          :   maxmium RF displ.          1.0000000          :
          :   Hlow (freq-cutoff)         0.1000000E-01      :
          :   Hmax (freq-cutoff)         5.0000000          :
          :   S6 in model hess.         20.0000000          :
          ...................................................

generating ANC from exact Hessian ...
Using Lindh-Hessian (1995)
 Shifting diagonal of input Hessian by   9.900261384854713E-003
 Lowest  eigenvalues of input Hessian
    0.000000    0.000000    0.000000    0.000000    0.000000    0.000000
    0.010000    0.010013    0.010147    0.010239    0.010470    0.010889
    0.011397    0.011468    0.011753    0.012171    0.012567    0.013353
 Highest eigenvalues
    2.140039    2.194575    2.206214    2.220203    2.220292    2.250362
 

........................................................................
.............................. CYCLE    1 ..............................
........................................................................
------------------------------------------------------------
  cycle        total energy    energy error   density error
------------------------------------------------------------
      1     -127.3493876603  -1.2957570E+02   1.5130308E-04
      2     -127.3485112150   8.7644532E-04   1.9214385E-03
      3     -127.3493921676  -8.8095255E-04   5.4734291E-05
      4     -127.3493924284  -2.6082409E-07   4.5830265E-05
      5     -127.3493931514  -7.2299525E-07   2.4876559E-06
------------------------------------------------------------

 total:                                   0.095 sec
 * total energy  :  -127.3493932 Eh     change       -0.4729714E-08 Eh
   gradient norm :     0.0614629 Eh/α   predicted     0.0000000E+00 (-100.00%)
   displ. norm   :     0.1434162 α      lambda       -0.3895065E-02
   maximum displ.:     0.0774804 α      in ANC's #48, #32, #132, ...

........................................................................
.............................. CYCLE    2 ..............................
........................................................................
------------------------------------------------------------
  cycle        total energy    energy error   density error
------------------------------------------------------------
      1     -127.3502969460  -1.2957734E+02   3.9673286E-03
      2     -127.2648775696   8.5419376E-02   1.8634439E-02
      3     -127.3479298717  -8.3052302E-02   4.5485363E-03
      4     -127.3519637365  -4.0338648E-03   8.5035593E-04
      5     -127.3497761696   2.1875669E-03   2.7354571E-03
      6     -127.3520416650  -2.2654954E-03   6.7741335E-04
      7     -127.3520962105  -5.4545445E-05   4.4811031E-04
      8     -127.3521385970  -4.2386485E-05   7.7469390E-05
      9     -127.3521373929   1.2040682E-06   9.9791946E-05
     10     -127.3521398129  -2.4199649E-06   1.0828834E-05
     11     -127.3521398108   2.0554580E-09   1.0561321E-05
------------------------------------------------------------

 total:                                   0.181 sec
 * total energy  :  -127.3521398 Eh     change       -0.2746659E-02 Eh
   gradient norm :     0.0324111 Eh/α   predicted    -0.1987716E-02 ( -27.63%)
   displ. norm   :     0.1117654 α      lambda       -0.1436440E-02
   maximum displ.:     0.0478265 α      in ANC's #48, #32, #15, ...

........................................................................
.............................. CYCLE    3 ..............................
........................................................................
------------------------------------------------------------
  cycle        total energy    energy error   density error
------------------------------------------------------------
      1     -127.3500742493  -1.2957864E+02   4.1596177E-03
      2     -127.2559267846   9.4147465E-02   1.9626916E-02
      3     -127.3510990974  -9.5172313E-02   2.9867784E-03
      4     -127.3524256536  -1.3265562E-03   1.5263194E-03
      5     -127.3518572234   5.6843020E-04   1.8820758E-03
      6     -127.3528642212  -1.0069978E-03   5.8874517E-04
      7     -127.3529449500  -8.0728756E-05   1.8345970E-04
      8     -127.3529518912  -6.9412241E-06   5.9090380E-05
      9     -127.3529500692   1.8219743E-06   1.1459076E-04
     10     -127.3529526568  -2.5875712E-06   2.3609255E-05
     11     -127.3529523296   3.2714948E-07   4.6488700E-05
     12     -127.3529527825  -4.5283187E-07   7.2431260E-06
------------------------------------------------------------

 total:                                   0.197 sec
 * total energy  :  -127.3529528 Eh     change       -0.8129717E-03 Eh
   gradient norm :     0.0118517 Eh/α   predicted    -0.7273470E-03 ( -10.53%)
   displ. norm   :     0.0494662 α      lambda       -0.1462377E-03
   maximum displ.:     0.0277469 α      in ANC's #7, #15, #14, ...

........................................................................
.............................. CYCLE    4 ..............................
........................................................................
------------------------------------------------------------
  cycle        total energy    energy error   density error
------------------------------------------------------------
      1     -127.3522871138  -1.2958061E+02   1.8966100E-03
      2     -127.2722923657   7.9994748E-02   1.8359482E-02
      3     -127.3529370631  -8.0644697E-02   7.4797222E-04
      4     -127.3530417955  -1.0473242E-04   2.6811566E-04
      5     -127.3529377624   1.0403313E-04   6.0222619E-04
      6     -127.3530565722  -1.1880980E-04   1.1147914E-04
      7     -127.3530585029  -1.9307252E-06   6.6643032E-05
      8     -127.3530584939   9.0007291E-09   6.2374525E-05
      9     -127.3530592689  -7.7503921E-07   2.0293050E-05
     10     -127.3530593526  -8.3708642E-08   3.2433448E-06
------------------------------------------------------------

 total:                                   0.177 sec
 * total energy  :  -127.3530594 Eh     change       -0.1065702E-03 Eh
   gradient norm :     0.0060756 Eh/α   predicted    -0.7332350E-04 ( -31.20%)
   displ. norm   :     0.0678876 α      lambda       -0.8933037E-04
   maximum displ.:     0.0454727 α      in ANC's #7, #15, #14, ...

........................................................................
.............................. CYCLE    5 ..............................
........................................................................
------------------------------------------------------------
  cycle        total energy    energy error   density error
------------------------------------------------------------
      1     -127.3522168990  -1.2958017E+02   1.9953599E-03
      2     -127.2691210879   8.3095811E-02   1.8713918E-02
      3     -127.3530763509  -8.3955263E-02   4.2084941E-04
      4     -127.3530685313   7.8196009E-06   4.4077011E-04
      5     -127.3530824232  -1.3891858E-05   3.0368186E-04
      6     -127.3530950360  -1.2612818E-05   2.2513918E-04
      7     -127.3531112064  -1.6170369E-05   3.6188518E-05
      8     -127.3531112579  -5.1575114E-08   2.9821804E-05
      9     -127.3531114024  -1.4449762E-07   1.5309368E-05
------------------------------------------------------------

 total:                                   0.150 sec
 * total energy  :  -127.3531114 Eh     change       -0.5204980E-04 Eh
   gradient norm :     0.0016110 Eh/α   predicted    -0.4487607E-04 ( -13.78%)
   displ. norm   :     0.0562539 α      lambda       -0.1151927E-04
   maximum displ.:     0.0431572 α      in ANC's #7, #4, #2, ...

........................................................................
.............................. CYCLE    6 ..............................
........................................................................
------------------------------------------------------------
  cycle        total energy    energy error   density error
------------------------------------------------------------
      1     -127.3529275620  -1.2958085E+02   9.3617302E-04
      2     -127.3142256097   3.8701952E-02   1.2856369E-02
      3     -127.3531196432  -3.8894034E-02   1.9054523E-04
      4     -127.3531237128  -4.0695225E-06   8.4055502E-05
      5     -127.3531224247   1.2880254E-06   9.3453509E-05
      6     -127.3531233961  -9.7132929E-07   6.2948284E-05
      7     -127.3531236190  -2.2296689E-07   5.4855840E-05
      8     -127.3531242258  -6.0677414E-07   2.8199273E-05
      9     -127.3531243648  -1.3897147E-07   1.2913417E-05
------------------------------------------------------------

 total:                                   0.150 sec
 * total energy  :  -127.3531244 Eh     change       -0.1296233E-04 Eh
   gradient norm :     0.0018734 Eh/α   predicted    -0.5982222E-05 ( -53.85%)
   displ. norm   :     0.0632815 α      lambda       -0.1114559E-04
   maximum displ.:     0.0451468 α      in ANC's #7, #4, #2, ...

........................................................................
.............................. CYCLE    7 ..............................
........................................................................
------------------------------------------------------------
  cycle        total energy    energy error   density error
------------------------------------------------------------
      1     -127.3531263795  -1.2958118E+02   3.1855502E-04
      2     -127.3513327962   1.7935833E-03   2.7692023E-03
      3     -127.3531383074  -1.8055112E-03   1.3515254E-04
      4     -127.3531382040   1.0346452E-07   4.4034537E-05
      5     -127.3531384983  -2.9437558E-07   2.4005161E-05
      6     -127.3531383970   1.0136435E-07   2.6560647E-05
      7     -127.3531385988  -2.0178152E-07   1.1049356E-05
------------------------------------------------------------

 total:                                   0.121 sec
 * total energy  :  -127.3531386 Eh     change       -0.1423399E-04 Eh
   gradient norm :     0.0015341 Eh/α   predicted    -0.5582948E-05 ( -60.78%)
   displ. norm   :     0.1065490 α      lambda       -0.1525155E-04
   maximum displ.:     0.0708428 α      in ANC's #7, #4, #2, ...

........................................................................
.............................. CYCLE    8 ..............................
........................................................................
------------------------------------------------------------
  cycle        total energy    energy error   density error
------------------------------------------------------------
      1     -127.3531361594  -1.2958129E+02   4.5298441E-04
      2     -127.3520975909   1.0385684E-03   2.0033044E-03
      3     -127.3530465362  -9.4894524E-04   6.8761593E-04
      4     -127.3530486415  -2.1053658E-06   5.9418777E-04
      5     -127.3531529687  -1.0432714E-04   1.4637418E-04
      6     -127.3531572540  -4.2852773E-06   5.5810475E-05
      7     -127.3531578880  -6.3403584E-07   1.9805422E-05
------------------------------------------------------------

 total:                                   0.120 sec
 * total energy  :  -127.3531579 Eh     change       -0.1928924E-04 Eh
   gradient norm :     0.0011591 Eh/α   predicted    -0.7668553E-05 ( -60.24%)
   displ. norm   :     0.1484572 α      lambda       -0.1644721E-04
   maximum displ.:     0.0960303 α      in ANC's #7, #2, #4, ...

........................................................................
.............................. CYCLE    9 ..............................
........................................................................
------------------------------------------------------------
  cycle        total energy    energy error   density error
------------------------------------------------------------
      1     -127.3530300065  -1.2958127E+02   9.3315776E-04
      2     -127.3466559104   6.3740960E-03   5.1688659E-03
      3     -127.3529959000  -6.3399896E-03   7.8945675E-04
      4     -127.3530113212  -1.5421261E-05   7.2910787E-04
      5     -127.3531610116  -1.4969031E-04   2.5963253E-04
      6     -127.3531764051  -1.5393551E-05   8.2221506E-05
      7     -127.3531775809  -1.1758264E-06   4.5684173E-05
      8     -127.3531780850  -5.0410367E-07   2.0878607E-05
      9     -127.3531781305  -4.5475474E-08   1.3883513E-05
------------------------------------------------------------

 total:                                   0.149 sec
 * total energy  :  -127.3531781 Eh     change       -0.2024251E-04 Eh
   gradient norm :     0.0010114 Eh/α   predicted    -0.8312285E-05 ( -58.94%)
   displ. norm   :     0.1627404 α      lambda       -0.1338967E-04
   maximum displ.:     0.1034113 α      in ANC's #7, #2, #4, ...

........................................................................
.............................. CYCLE   10 ..............................
........................................................................
------------------------------------------------------------
  cycle        total energy    energy error   density error
------------------------------------------------------------
      1     -127.3531041093  -1.2958149E+02   8.0743247E-04
      2     -127.3481100611   4.9940482E-03   4.5758962E-03
      3     -127.3531504334  -5.0403723E-03   4.9546013E-04
      4     -127.3523570891   7.9334433E-04   1.5691122E-03
      5     -127.3531830946  -8.2600552E-04   2.1424722E-04
      6     -127.3531933103  -1.0215644E-05   5.0562471E-05
      7     -127.3531938302  -5.1997702E-07   9.6169077E-06
------------------------------------------------------------

 total:                                   0.119 sec
 * total energy  :  -127.3531938 Eh     change       -0.1569973E-04 Eh
   gradient norm :     0.0007390 Eh/α   predicted    -0.6775802E-05 ( -56.84%)
   displ. norm   :     0.1492803 α      lambda       -0.8688306E-05
   maximum displ.:     0.0928255 α      in ANC's #7, #2, #4, ...

........................................................................
.............................. CYCLE   11 ..............................
........................................................................
------------------------------------------------------------
  cycle        total energy    energy error   density error
------------------------------------------------------------
      1     -127.3531964069  -1.2958177E+02   4.8208256E-04
      2     -127.3527547230   4.4168394E-04   1.3123887E-03
      3     -127.3530255099  -2.7078688E-04   9.1363682E-04
      4     -127.3526877707   3.3773913E-04   1.2428626E-03
      5     -127.3532026288  -5.1485805E-04   7.1118766E-05
      6     -127.3532016082   1.0205963E-06   9.4867748E-05
      7     -127.3532029927  -1.3844936E-06   5.3964430E-05
      8     -127.3532036098  -6.1711737E-07   1.4393291E-05
------------------------------------------------------------

 total:                                   0.134 sec
 * total energy  :  -127.3532036 Eh     change       -0.9779574E-05 Eh
   gradient norm :     0.0006022 Eh/α   predicted    -0.4388158E-05 ( -55.13%)
   displ. norm   :     0.0985010 α      lambda       -0.4700752E-05
   maximum displ.:     0.0590793 α      in ANC's #2, #7, #4, ...

........................................................................
.............................. CYCLE   12 ..............................
........................................................................
------------------------------------------------------------
  cycle        total energy    energy error   density error
------------------------------------------------------------
      1     -127.3531879175  -1.2958196E+02   4.3412182E-04
      2     -127.3514146255   1.7732919E-03   2.7338648E-03
      3     -127.3531973680  -1.7827425E-03   2.8235845E-04
      4     -127.3529177077   2.7966033E-04   9.2089689E-04
      5     -127.3532091543  -2.9144658E-04   2.0198497E-05
      6     -127.3532090822   7.2091069E-08   2.7345458E-05
      7     -127.3532092598  -1.7758398E-07   5.0385789E-06
------------------------------------------------------------

 total:                                   0.123 sec
 * total energy  :  -127.3532093 Eh     change       -0.5649972E-05 Eh
   gradient norm :     0.0003682 Eh/α   predicted    -0.2360978E-05 ( -58.21%)
   displ. norm   :     0.0716245 α      lambda       -0.4013662E-05
   maximum displ.:     0.0462440 α      in ANC's #2, #4, #7, ...

........................................................................
.............................. CYCLE   13 ..............................
........................................................................
------------------------------------------------------------
  cycle        total energy    energy error   density error
------------------------------------------------------------
      1     -127.3532131199  -1.2958203E+02   2.6345339E-04
      2     -127.3530757507   1.3736911E-04   7.7372944E-04
      3     -127.3531839020  -1.0815128E-04   3.8761084E-04
      4     -127.3531873713  -3.4692592E-06   2.7939942E-04
      5     -127.3532140313  -2.6660024E-05   3.5915069E-05
      6     -127.3532143886  -3.5729954E-07   8.1292419E-06
------------------------------------------------------------

 total:                                   0.105 sec
 * total energy  :  -127.3532144 Eh     change       -0.5128829E-05 Eh
   gradient norm :     0.0002761 Eh/α   predicted    -0.2012476E-05 ( -60.76%)
   displ. norm   :     0.0754945 α      lambda       -0.4603935E-05
   maximum displ.:     0.0491725 α      in ANC's #2, #4, #11, ...

........................................................................
.............................. CYCLE   14 ..............................
........................................................................
------------------------------------------------------------
  cycle        total energy    energy error   density error
------------------------------------------------------------
      1     -127.3532194469  -1.2958195E+02   3.0173247E-04
      2     -127.3531826577   3.6789151E-05   4.2982537E-04
      3     -127.3530398654   1.4279237E-04   8.8199652E-04
      4     -127.3531669159  -1.2705058E-04   4.0533599E-04
      5     -127.3531968740  -2.9958095E-05   2.6508762E-04
      6     -127.3532199635  -2.3089509E-05   1.7868495E-05
      7     -127.3532200085  -4.4945438E-08   1.0095701E-05
------------------------------------------------------------

 total:                                   0.120 sec
 * total energy  :  -127.3532200 Eh     change       -0.5619875E-05 Eh
   gradient norm :     0.0002999 Eh/α   predicted    -0.2308295E-05 ( -58.93%)
   displ. norm   :     0.0767659 α      lambda       -0.4073271E-05
   maximum displ.:     0.0497307 α      in ANC's #2, #4, #11, ...

........................................................................
.............................. CYCLE   15 ..............................
........................................................................
------------------------------------------------------------
  cycle        total energy    energy error   density error
------------------------------------------------------------
      1     -127.3532152712  -1.2958176E+02   3.7291342E-04
      2     -127.3523347578   8.8051343E-04   1.9390586E-03
      3     -127.3532174073  -8.8264946E-04   2.4579907E-04
      4     -127.3529236213   2.9378595E-04   9.3369016E-04
      5     -127.3532243246  -3.0070325E-04   4.7970581E-05
      6     -127.3532247041  -3.7949158E-07   2.4999899E-05
      7     -127.3532248207  -1.1662632E-07   9.2891446E-06
------------------------------------------------------------

 total:                                   0.119 sec
 * total energy  :  -127.3532248 Eh     change       -0.4812205E-05 Eh
   gradient norm :     0.0003599 Eh/α   predicted    -0.2042462E-05 ( -57.56%)
   displ. norm   :     0.0630558 α      lambda       -0.2979315E-05
   maximum displ.:     0.0418652 α      in ANC's #2, #4, #8, ...

........................................................................
.............................. CYCLE   16 ..............................
........................................................................
------------------------------------------------------------
  cycle        total energy    energy error   density error
------------------------------------------------------------
      1     -127.3532140956  -1.2958159E+02   3.5733340E-04
      2     -127.3519295504   1.2845453E-03   2.3372571E-03
      3     -127.3532266179  -1.2970675E-03   1.6910697E-04
      4     -127.3530803766   1.4624131E-04   6.5437192E-04
      5     -127.3532281405  -1.4776392E-04   4.2657617E-05
      6     -127.3532285972  -4.5665615E-07   9.5928668E-06
------------------------------------------------------------

 total:                                   0.104 sec
 * total energy  :  -127.3532286 Eh     change       -0.3776472E-05 Eh
   gradient norm :     0.0003745 Eh/α   predicted    -0.1494717E-05 ( -60.42%)
   displ. norm   :     0.0588084 α      lambda       -0.3089616E-05
   maximum displ.:     0.0400377 α      in ANC's #2, #4, #8, ...

........................................................................
.............................. CYCLE   17 ..............................
........................................................................
------------------------------------------------------------
  cycle        total energy    energy error   density error
------------------------------------------------------------
      1     -127.3532308167  -1.2958146E+02   2.5506058E-04
      2     -127.3530500134   1.8080330E-04   8.6416807E-04
      3     -127.3532105004  -1.6048709E-04   3.3648858E-04
      4     -127.3530559787   1.5452177E-04   7.3935237E-04
      5     -127.3532260813  -1.7010261E-04   1.6171104E-04
      6     -127.3532323106  -6.2293044E-06   4.3787052E-05
      7     -127.3532327212  -4.1059937E-07   1.5172934E-05
------------------------------------------------------------

 total:                                   0.120 sec
 * total energy  :  -127.3532327 Eh     change       -0.4124020E-05 Eh
   gradient norm :     0.0002141 Eh/α   predicted    -0.1548428E-05 ( -62.45%)
   displ. norm   :     0.0763077 α      lambda       -0.4340272E-05
   maximum displ.:     0.0526140 α      in ANC's #2, #4, #8, ...

........................................................................
.............................. CYCLE   18 ..............................
........................................................................
------------------------------------------------------------
  cycle        total energy    energy error   density error
------------------------------------------------------------
      1     -127.3531978483  -1.2958137E+02   5.1416636E-04
      2     -127.3502669406   2.9309077E-03   3.5202802E-03
      3     -127.3532321538  -2.9652132E-03   2.2048157E-04
      4     -127.3529149750   3.1717878E-04   9.7114725E-04
      5     -127.3532371703  -3.2219523E-04   7.3170545E-05
      6     -127.3532381189  -9.4864322E-07   4.1208550E-05
      7     -127.3532385553  -4.3635416E-07   4.6268467E-06
------------------------------------------------------------

 total:                                   0.119 sec
 * total energy  :  -127.3532386 Eh     change       -0.5834069E-05 Eh
   gradient norm :     0.0002096 Eh/α   predicted    -0.2176527E-05 ( -62.69%)
   displ. norm   :     0.1040416 α      lambda       -0.5600490E-05
   maximum displ.:     0.0723758 α      in ANC's #2, #4, #8, ...

........................................................................
.............................. CYCLE   19 ..............................
........................................................................
------------------------------------------------------------
  cycle        total energy    energy error   density error
------------------------------------------------------------
      1     -127.3532453480  -1.2958136E+02   4.0317122E-04
      2     -127.3532161468   2.9201244E-05   4.1981862E-04
      3     -127.3525618960   6.5425077E-04   1.7028505E-03
      4     -127.3531963810  -6.3448497E-04   3.9124766E-04
      5     -127.3532407760  -4.4395042E-05   1.2876548E-04
      6     -127.3532452219  -4.4458507E-06   4.6994529E-05
      7     -127.3532456624  -4.4046942E-07   1.6679861E-05
------------------------------------------------------------

 total:                                   0.119 sec
 * total energy  :  -127.3532457 Eh     change       -0.7107105E-05 Eh
   gradient norm :     0.0004012 Eh/α   predicted    -0.2814558E-05 ( -60.40%)
   displ. norm   :     0.1158498 α      lambda       -0.5235980E-05
   maximum displ.:     0.0816015 α      in ANC's #2, #4, #7, ...

........................................................................
.............................. CYCLE   20 ..............................
........................................................................
------------------------------------------------------------
  cycle        total energy    energy error   density error
------------------------------------------------------------
      1     -127.3532102752  -1.2958144E+02   5.9996265E-04
      2     -127.3503014892   2.9087860E-03   3.5050902E-03
      3     -127.3532108537  -2.9093645E-03   4.4040071E-04
      4     -127.3527983267   4.1252702E-04   1.1595533E-03
      5     -127.3532488812  -4.5055454E-04   1.2235853E-04
      6     -127.3532519448  -3.0635335E-06   3.7378232E-05
      7     -127.3532522485  -3.0373195E-07   1.0229178E-05
------------------------------------------------------------

 total:                                   0.121 sec
 * total energy  :  -127.3532522 Eh     change       -0.6586148E-05 Eh
   gradient norm :     0.0003485 Eh/α   predicted    -0.2634535E-05 ( -60.00%)
   displ. norm   :     0.1081109 α      lambda       -0.4350881E-05
   maximum displ.:     0.0773568 α      in ANC's #2, #4, #7, ...
 * RMSD in coord.:     0.1629402 α      energy gain  -0.3859102E-02 Eh

generating ANC from exact Hessian ...
Using Lindh-Hessian (1995)
 Shifting diagonal of input Hessian by   9.898172961635421E-003
 Lowest  eigenvalues of input Hessian
    0.000000    0.000000    0.000000    0.000000    0.000000    0.000000
    0.010000    0.010012    0.010140    0.010237    0.010471    0.010880
    0.011389    0.011474    0.011796    0.012179    0.012628    0.013362
 Highest eigenvalues
    2.137503    2.197366    2.206011    2.225267    2.225376    2.289351
 

........................................................................
.............................. CYCLE   21 ..............................
........................................................................
------------------------------------------------------------
  cycle        total energy    energy error   density error
------------------------------------------------------------
      1     -127.3532450474  -1.2958159E+02   4.4288575E-04
      2     -127.3523211560   9.2389145E-04   1.9499533E-03
      3     -127.3531966290  -8.7547306E-04   5.3228874E-04
      4     -127.3529562084   2.4042061E-04   9.5019473E-04
      5     -127.3532570581  -3.0084969E-04   7.0151842E-05
      6     -127.3532568889   1.6919478E-07   6.8614904E-05
      7     -127.3532577276  -8.3865243E-07   3.0982790E-05
      8     -127.3532579441  -2.1648975E-07   5.5717971E-06
------------------------------------------------------------

 total:                                   0.117 sec
 * total energy  :  -127.3532579 Eh     change       -0.5695563E-05 Eh
   gradient norm :     0.0003299 Eh/α   predicted     0.0000000E+00 (-100.00%)
   displ. norm   :     0.0148544 α      lambda       -0.1194957E-05
   maximum displ.:     0.0102444 α      in ANC's #14, #2, #8, ...

........................................................................
.............................. CYCLE   22 ..............................
........................................................................
------------------------------------------------------------
  cycle        total energy    energy error   density error
------------------------------------------------------------
      1     -127.3532579494  -1.2958171E+02   1.0857299E-04
      2     -127.3530878776   1.7007175E-04   8.3953991E-04
      3     -127.3532574841  -1.6960649E-04   9.3752023E-05
      4     -127.3532527642   4.7198859E-06   1.4636909E-04
      5     -127.3532596711  -6.9068579E-06   1.3351409E-05
      6     -127.3532597042  -3.3088924E-08   4.6214739E-06
------------------------------------------------------------

 total:                                   0.091 sec
 * total energy  :  -127.3532597 Eh     change       -0.1760084E-05 Eh
   gradient norm :     0.0001805 Eh/α   predicted    -0.6514008E-06 ( -62.99%)
   displ. norm   :     0.0453742 α      lambda       -0.3242473E-05
   maximum displ.:     0.0301482 α      in ANC's #14, #2, #11, ...

........................................................................
.............................. CYCLE   23 ..............................
........................................................................
------------------------------------------------------------
  cycle        total energy    energy error   density error
------------------------------------------------------------
      1     -127.3532622462  -1.2958182E+02   2.1390843E-04
      2     -127.3531691535   9.3092667E-05   6.2460338E-04
      3     -127.3532409600  -7.1806461E-05   3.2558868E-04
      4     -127.3530960117   1.4494827E-04   7.1897861E-04
      5     -127.3532625423  -1.6653061E-04   5.3511694E-05
      6     -127.3532631339  -5.9157827E-07   1.1887946E-05
------------------------------------------------------------

 total:                                   0.090 sec
 * total energy  :  -127.3532631 Eh     change       -0.3429729E-05 Eh
   gradient norm :     0.0001582 Eh/α   predicted    -0.1623263E-05 ( -52.67%)
   displ. norm   :     0.0338002 α      lambda       -0.1278998E-05
   maximum displ.:     0.0245918 α      in ANC's #2, #14, #11, ...

........................................................................
.............................. CYCLE   24 ..............................
........................................................................
------------------------------------------------------------
  cycle        total energy    energy error   density error
------------------------------------------------------------
      1     -127.3532496173  -1.2958189E+02   2.8489628E-04
      2     -127.3520411616   1.2084557E-03   2.2507277E-03
      3     -127.3532473658  -1.2062041E-03   2.4154268E-04
      4     -127.3532474603  -9.4530066E-08   2.3337433E-04
      5     -127.3532641223  -1.6661984E-05   4.3488657E-05
      6     -127.3532644419  -3.1960508E-07   1.6145378E-05
------------------------------------------------------------

 total:                                   0.090 sec
 * total energy  :  -127.3532644 Eh     change       -0.1307988E-05 Eh
   gradient norm :     0.0002384 Eh/α   predicted    -0.6441771E-06 ( -50.75%)
   displ. norm   :     0.0151023 α      lambda       -0.4564861E-06
   maximum displ.:     0.0131787 α      in ANC's #2, #11, #14, ...

........................................................................
.............................. CYCLE   25 ..............................
........................................................................
------------------------------------------------------------
  cycle        total energy    energy error   density error
------------------------------------------------------------
      1     -127.3532553134  -1.2958189E+02   1.8561483E-04
      2     -127.3528458341   4.0947934E-04   1.1409288E-03
      3     -127.3532586674  -4.1283330E-04   1.7089963E-04
      4     -127.3532528426   5.8247814E-06   2.2162625E-04
      5     -127.3532651150  -1.2272423E-05   2.9852364E-05
      6     -127.3532652049  -8.9882860E-08   9.9538379E-06
------------------------------------------------------------

 total:                                   0.090 sec
 * total energy  :  -127.3532652 Eh     change       -0.7630604E-06 Eh
   gradient norm :     0.0002042 Eh/α   predicted    -0.2653945E-06 ( -65.22%)
   displ. norm   :     0.0129161 α      lambda       -0.6398187E-06
   maximum displ.:     0.0108787 α      in ANC's #2, #14, #3, ...

........................................................................
.............................. CYCLE   26 ..............................
........................................................................
------------------------------------------------------------
  cycle        total energy    energy error   density error
------------------------------------------------------------
      1     -127.3532585904  -1.2958185E+02   1.5593418E-04
      2     -127.3527265268   5.3206356E-04   1.3192195E-03
      3     -127.3532398429  -5.1331607E-04   3.2355942E-04
      4     -127.3532656955  -2.5852601E-05   4.3524799E-05
      5     -127.3532660698  -3.7435561E-07   1.3405203E-05
------------------------------------------------------------

 total:                                   0.077 sec
 * total energy  :  -127.3532661 Eh     change       -0.8649133E-06 Eh
   gradient norm :     0.0000982 Eh/α   predicted    -0.3212496E-06 ( -62.86%)
   displ. norm   :     0.0192398 α      lambda       -0.8496665E-06
   maximum displ.:     0.0153875 α      in ANC's #2, #14, #3, ...

........................................................................
.............................. CYCLE   27 ..............................
........................................................................
------------------------------------------------------------
  cycle        total energy    energy error   density error
------------------------------------------------------------
      1     -127.3532565450  -1.2958180E+02   1.9695468E-04
      2     -127.3521697524   1.0867926E-03   1.9718002E-03
      3     -127.3532348194  -1.0650670E-03   3.4384130E-04
      4     -127.3532660992  -3.1279857E-05   8.8996770E-05
      5     -127.3532677326  -1.6333877E-06   2.6806783E-05
      6     -127.3532678115  -7.8900086E-08   1.4325600E-05
------------------------------------------------------------

 total:                                   0.091 sec
 * total energy  :  -127.3532678 Eh     change       -0.1741660E-05 Eh
   gradient norm :     0.0001447 Eh/α   predicted    -0.4253037E-06 ( -75.58%)
   displ. norm   :     0.0198793 α      lambda       -0.7227482E-06
   maximum displ.:     0.0165346 α      in ANC's #2, #14, #3, ...

........................................................................
.............................. CYCLE   28 ..............................
........................................................................
------------------------------------------------------------
  cycle        total energy    energy error   density error
------------------------------------------------------------
      1     -127.3532554254  -1.2958179E+02   2.3682583E-04
      2     -127.3513528424   1.9025830E-03   2.8076332E-03
      3     -127.3532641244  -1.9112820E-03   1.2845222E-04
      4     -127.3532584595   5.6649126E-06   1.7978634E-04
      5     -127.3532685448  -1.0085307E-05   3.9423811E-05
      6     -127.3532687878  -2.4297151E-07   1.2164484E-05
------------------------------------------------------------

 total:                                   0.091 sec
 * total energy  :  -127.3532688 Eh     change       -0.9762537E-06 Eh
   gradient norm :     0.0002058 Eh/α   predicted    -0.3651161E-06 ( -62.60%)
   displ. norm   :     0.0159382 α      lambda       -0.5430302E-06
   maximum displ.:     0.0140044 α      in ANC's #2, #3, #14, ...

........................................................................
.............................. CYCLE   29 ..............................
........................................................................
------------------------------------------------------------
  cycle        total energy    energy error   density error
------------------------------------------------------------
      1     -127.3532549565  -1.2958181E+02   2.4091364E-04
      2     -127.3511924851   2.0624714E-03   2.8864832E-03
      3     -127.3532594421  -2.0669570E-03   1.8265426E-04
      4     -127.3532670493  -7.6071855E-06   9.0859500E-05
      5     -127.3532695230  -2.4736886E-06   2.2893185E-05
      6     -127.3532695777  -5.4728531E-08   1.1739935E-05
------------------------------------------------------------

 total:                                   0.091 sec
 * total energy  :  -127.3532696 Eh     change       -0.7899264E-06 Eh
   gradient norm :     0.0001778 Eh/α   predicted    -0.2736944E-06 ( -65.35%)
   displ. norm   :     0.0130519 α      lambda       -0.4865777E-06
   maximum displ.:     0.0117759 α      in ANC's #2, #3, #14, ...

........................................................................
.............................. CYCLE   30 ..............................
........................................................................
------------------------------------------------------------
  cycle        total energy    energy error   density error
------------------------------------------------------------
      1     -127.3532580425  -1.2958184E+02   2.2864902E-04
      2     -127.3514253364   1.8327062E-03   2.7876996E-03
      3     -127.3532694943  -1.8441579E-03   5.9468494E-05
      4     -127.3532664149   3.0793833E-06   1.0728361E-04
      5     -127.3532699739  -3.5589734E-06   3.6253704E-05
      6     -127.3532703150  -3.4113268E-07   6.7153821E-06
------------------------------------------------------------

 total:                                   0.091 sec
 * total energy  :  -127.3532703 Eh     change       -0.7373569E-06 Eh
   gradient norm :     0.0001347 Eh/α   predicted    -0.2453625E-06 ( -66.72%)
   displ. norm   :     0.0137066 α      lambda       -0.5468038E-06
   maximum displ.:     0.0120787 α      in ANC's #2, #3, #11, ...

........................................................................
.............................. CYCLE   31 ..............................
........................................................................
------------------------------------------------------------
  cycle        total energy    energy error   density error
------------------------------------------------------------
      1     -127.3532677979  -1.2958188E+02   1.2406947E-04
      2     -127.3528214311   4.4636683E-04   1.3748986E-03
      3     -127.3532707005  -4.4926940E-04   4.2723098E-05
      4     -127.3532673380   3.3624711E-06   1.0589570E-04
      5     -127.3532709992  -3.6611746E-06   2.2952845E-05
      6     -127.3532710951  -9.5848236E-08   8.3199592E-06
------------------------------------------------------------

 total:                                   0.090 sec
 * total energy  :  -127.3532711 Eh     change       -0.7800198E-06 Eh
   gradient norm :     0.0000733 Eh/α   predicted    -0.2739439E-06 ( -64.88%)
   displ. norm   :     0.0166301 α      lambda       -0.6335409E-06
   maximum displ.:     0.0141762 α      in ANC's #2, #3, #11, ...

........................................................................
.............................. CYCLE   32 ..............................
........................................................................
------------------------------------------------------------
  cycle        total energy    energy error   density error
------------------------------------------------------------
      1     -127.3532595765  -1.2958189E+02   2.3385714E-04
      2     -127.3513616624   1.8979141E-03   2.8418839E-03
      3     -127.3532718380  -1.9101755E-03   3.9981529E-05
      4     -127.3532703952   1.4427472E-06   7.2677039E-05
      5     -127.3532704465  -5.1237691E-08   6.9812978E-05
      6     -127.3532720152  -1.5687235E-06   8.9263898E-06
      7     -127.3532720175  -2.2850202E-09   6.2249680E-06
------------------------------------------------------------

 total:                                   0.104 sec
 * total energy  :  -127.3532720 Eh     change       -0.9224013E-06 Eh
   gradient norm :     0.0000956 Eh/α   predicted    -0.3198439E-06 ( -65.32%)
   displ. norm   :     0.0190305 α      lambda       -0.6746325E-06
   maximum displ.:     0.0159797 α      in ANC's #2, #3, #11, ...

........................................................................
.............................. CYCLE   33 ..............................
........................................................................
------------------------------------------------------------
  cycle        total energy    energy error   density error
------------------------------------------------------------
      1     -127.3532628960  -1.2958191E+02   2.0643805E-04
      2     -127.3518569993   1.4058967E-03   2.4458459E-03
      3     -127.3532722496  -1.4152503E-03   3.7226571E-05
      4     -127.3532648406   7.4090055E-06   1.4809612E-04
      5     -127.3532722583  -7.4176757E-06   2.0547584E-05
      6     -127.3532723231  -6.4797604E-08   1.2347536E-05
------------------------------------------------------------

 total:                                   0.090 sec
 * total energy  :  -127.3532723 Eh     change       -0.3055952E-06 Eh
   gradient norm :     0.0001396 Eh/α   predicted    -0.3398555E-06 (  11.21%)
   displ. norm   :     0.0194138 α      lambda       -0.6477088E-06
   maximum displ.:     0.0163074 α      in ANC's #2, #3, #11, ...

........................................................................
.............................. CYCLE   34 ..............................
........................................................................
------------------------------------------------------------
  cycle        total energy    energy error   density error
------------------------------------------------------------
      1     -127.3532504398  -1.2958188E+02   3.1389482E-04
      2     -127.3495215820   3.7288578E-03   3.9848560E-03
      3     -127.3532729863  -3.7514043E-03   4.9211425E-05
      4     -127.3532700970   2.8892532E-06   9.9834956E-05
      5     -127.3532713957  -1.2986350E-06   7.7890267E-05
      6     -127.3532732483  -1.8526138E-06   1.4558487E-05
      7     -127.3532732506  -2.2919551E-09   1.1709446E-05
------------------------------------------------------------

 total:                                   0.103 sec
 * total energy  :  -127.3532733 Eh     change       -0.9274999E-06 Eh
   gradient norm :     0.0001314 Eh/α   predicted    -0.3251057E-06 ( -64.95%)
   displ. norm   :     0.0180530 α      lambda       -0.5780320E-06
   maximum displ.:     0.0153068 α      in ANC's #2, #3, #4, ...

........................................................................
.............................. CYCLE   35 ..............................
........................................................................
------------------------------------------------------------
  cycle        total energy    energy error   density error
------------------------------------------------------------
      1     -127.3532519499  -1.2958186E+02   3.0684682E-04
      2     -127.3496447482   3.6072017E-03   3.9172305E-03
      3     -127.3532738674  -3.6291192E-03   4.2299526E-05
      4     -127.3532687209   5.1465201E-06   1.2711831E-04
      5     -127.3532733456  -4.6246592E-06   5.2840582E-05
      6     -127.3532741027  -7.5715630E-07   1.1740724E-05
------------------------------------------------------------

 total:                                   0.090 sec
 * total energy  :  -127.3532741 Eh     change       -0.8521592E-06 Eh
   gradient norm :     0.0000854 Eh/α   predicted    -0.2900917E-06 ( -65.96%)
   displ. norm   :     0.0165104 α      lambda       -0.5256438E-06
   maximum displ.:     0.0141000 α      in ANC's #2, #3, #4, ...

........................................................................
.............................. CYCLE   36 ..............................
........................................................................
------------------------------------------------------------
  cycle        total energy    energy error   density error
------------------------------------------------------------
      1     -127.3532732675  -1.2958188E+02   8.6323185E-05
      2     -127.3532069227   6.6344835E-05   4.5011962E-04
      3     -127.3532734493  -6.6526640E-05   7.7328597E-05
      4     -127.3532706395   2.8098585E-06   1.3368873E-04
      5     -127.3532744569  -3.8173975E-06   4.6113513E-05
      6     -127.3532748703  -4.1345996E-07   7.6005375E-06
------------------------------------------------------------

 total:                                   0.090 sec
 * total energy  :  -127.3532749 Eh     change       -0.7676137E-06 Eh
   gradient norm :     0.0001025 Eh/α   predicted    -0.2631632E-06 ( -65.72%)
   displ. norm   :     0.0152138 α      lambda       -0.4900660E-06
   maximum displ.:     0.0130931 α      in ANC's #2, #3, #4, ...

........................................................................
.............................. CYCLE   37 ..............................
........................................................................
------------------------------------------------------------
  cycle        total energy    energy error   density error
------------------------------------------------------------
      1     -127.3532652222  -1.2958185E+02   2.1126544E-04
      2     -127.3517151161   1.5501061E-03   2.5648635E-03
      3     -127.3532752075  -1.5600914E-03   4.1465635E-05
      4     -127.3532688394   6.3680949E-06   1.4124471E-04
      5     -127.3532755360  -6.6966136E-06   1.9065020E-05
      6     -127.3532755701  -3.4107131E-08   1.2841710E-05
------------------------------------------------------------

 total:                                   0.090 sec
 * total energy  :  -127.3532756 Eh     change       -0.6997890E-06 Eh
   gradient norm :     0.0000877 Eh/α   predicted    -0.2455159E-06 ( -64.92%)
   displ. norm   :     0.0148482 α      lambda       -0.4885019E-06
   maximum displ.:     0.0127767 α      in ANC's #2, #3, #4, ...

........................................................................
.............................. CYCLE   38 ..............................
........................................................................
------------------------------------------------------------
  cycle        total energy    energy error   density error
------------------------------------------------------------
      1     -127.3532561919  -1.2958182E+02   2.9058771E-04
      2     -127.3500441451   3.2120468E-03   3.6974948E-03
      3     -127.3532759905  -3.2318453E-03   4.6649817E-05
      4     -127.3532761248  -1.3435053E-07   3.3007465E-05
      5     -127.3532747797   1.3451085E-06   6.7660160E-05
      6     -127.3532762458  -1.4660414E-06   1.7450311E-05
      7     -127.3532762961  -5.0326690E-08   1.1248055E-05
------------------------------------------------------------

 total:                                   0.103 sec
 * total energy  :  -127.3532763 Eh     change       -0.7259788E-06 Eh
   gradient norm :     0.0000681 Eh/α   predicted    -0.2444528E-06 ( -66.33%)
   displ. norm   :     0.0153392 α      lambda       -0.5084580E-06
   maximum displ.:     0.0131376 α      in ANC's #2, #3, #4, ...

........................................................................
.............................. CYCLE   39 ..............................
........................................................................
------------------------------------------------------------
  cycle        total energy    energy error   density error
------------------------------------------------------------
      1     -127.3532553410  -1.2958181E+02   3.0213222E-04
      2     -127.3497128514   3.5424895E-03   3.8833618E-03
      3     -127.3532769429  -3.5640915E-03   3.1296683E-05
      4     -127.3532724025   4.5404660E-06   1.1739479E-04
      5     -127.3532768326  -4.4301092E-06   3.1251614E-05
      6     -127.3532770499  -2.1730631E-07   1.1541045E-05
------------------------------------------------------------

 total:                                   0.090 sec
 * total energy  :  -127.3532770 Eh     change       -0.7537856E-06 Eh
   gradient norm :     0.0000672 Eh/α   predicted    -0.2545939E-06 ( -66.22%)
   displ. norm   :     0.0162646 α      lambda       -0.5305330E-06
   maximum displ.:     0.0138951 α      in ANC's #2, #3, #4, ...

........................................................................
.............................. CYCLE   40 ..............................
........................................................................
------------------------------------------------------------
  cycle        total energy    energy error   density error
------------------------------------------------------------
      1     -127.3532617430  -1.2958182E+02   2.5880234E-04
      2     -127.3508108985   2.4508445E-03   3.2288635E-03
      3     -127.3532771766  -2.4662782E-03   3.9609934E-05
      4     -127.3532722031   4.9735150E-06   1.2456789E-04
      5     -127.3532770359  -4.8327591E-06   3.8934904E-05
      6     -127.3532774276  -3.9171380E-07   9.1728869E-06
------------------------------------------------------------

 total:                                   0.092 sec
 * total energy  :  -127.3532774 Eh     change       -0.3777156E-06 Eh
   gradient norm :     0.0001050 Eh/α   predicted    -0.2661184E-06 ( -29.55%)
   displ. norm   :     0.0165960 α      lambda       -0.5311147E-06
   maximum displ.:     0.0142083 α      in ANC's #2, #3, #4, ...

........................................................................
.............................. CYCLE   41 ..............................
........................................................................
------------------------------------------------------------
  cycle        total energy    energy error   density error
------------------------------------------------------------
      1     -127.3532779703  -1.2958186E+02   5.7799702E-05
      2     -127.3532748661   3.1041775E-06   1.1931357E-04
      3     -127.3532707896   4.0764623E-06   1.7368320E-04
      4     -127.3532766848  -5.8951689E-06   7.6206588E-05
      5     -127.3532767793  -9.4513098E-08   6.7412266E-05
      6     -127.3532781887  -1.4093548E-06   9.5268743E-06
      7     -127.3532782116  -2.2931886E-08   9.1574933E-07
------------------------------------------------------------

 total:                                   0.103 sec
 * total energy  :  -127.3532782 Eh     change       -0.7839966E-06 Eh
   gradient norm :     0.0000896 Eh/α   predicted    -0.2665909E-06 ( -66.00%)
   displ. norm   :     0.0158244 α      lambda       -0.4924229E-06
   maximum displ.:     0.0137256 α      in ANC's #2, #3, #4, ...

........................................................................
.............................. CYCLE   42 ..............................
........................................................................
------------------------------------------------------------
  cycle        total energy    energy error   density error
------------------------------------------------------------
      1     -127.3532787302  -1.2958188E+02   5.2535762E-05
      2     -127.3532536982   2.5032070E-05   3.2715132E-04
      3     -127.3532788081  -2.5109944E-05   3.3266807E-05
      4     -127.3532737773   5.0308440E-06   1.2287047E-04
      5     -127.3532789189  -5.1416342E-06   7.8994414E-06
      6     -127.3532789343  -1.5459023E-08   1.0449819E-06
------------------------------------------------------------

 total:                                   0.090 sec
 * total energy  :  -127.3532789 Eh     change       -0.7227508E-06 Eh
   gradient norm :     0.0000699 Eh/α   predicted    -0.2467710E-06 ( -65.86%)
   displ. norm   :     0.0143303 α      lambda       -0.4400082E-06
   maximum displ.:     0.0126441 α      in ANC's #2, #3, #4, ...
 * RMSD in coord.:     0.0410491 α      energy gain  -0.2668584E-04 Eh

generating ANC from exact Hessian ...
Using Lindh-Hessian (1995)
 Shifting diagonal of input Hessian by   9.898222090276685E-003
 Lowest  eigenvalues of input Hessian
    0.000000    0.000000    0.000000    0.000000    0.000000    0.000000
    0.010000    0.010012    0.010141    0.010234    0.010472    0.010881
    0.011389    0.011473    0.011798    0.012176    0.012632    0.013360
 Highest eigenvalues
    2.137833    2.197607    2.206266    2.225456    2.225516    2.289827
 

........................................................................
.............................. CYCLE   43 ..............................
........................................................................
------------------------------------------------------------
  cycle        total energy    energy error   density error
------------------------------------------------------------
      1     -127.3532795758  -1.2958189E+02   4.0696943E-05
      2     -127.3532792934   2.8236286E-07   4.1331837E-05
      3     -127.3532743953   4.8980627E-06   1.4483138E-04
      4     -127.3532774815  -3.0861614E-06   8.4436462E-05
      5     -127.3532794040  -1.9224944E-06   2.4039132E-05
      6     -127.3532795798  -1.7583787E-07   3.9454722E-06
------------------------------------------------------------

 total:                                   0.090 sec
 * total energy  :  -127.3532796 Eh     change       -0.6454914E-06 Eh
   gradient norm :     0.0000582 Eh/α   predicted     0.0000000E+00 (-100.00%)
   displ. norm   :     0.0000874 α      lambda        0.0000000E+00
   maximum displ.:     0.0000800 α      in ANC's #2, #209, #205, ...

........................................................................
.............................. CYCLE   44 ..............................
........................................................................
------------------------------------------------------------
  cycle        total energy    energy error   density error
------------------------------------------------------------
      1     -127.3532768242  -1.2958189E+02   1.0708099E-04
      2     -127.3529021570   3.7466722E-04   1.2614656E-03
      3     -127.3532795666  -3.7740961E-04   8.7231310E-06
      4     -127.3532793037   2.6284275E-07   2.8828548E-05
      5     -127.3532795697  -2.6598769E-07   8.1079613E-06
------------------------------------------------------------

 total:                                   0.089 sec
 * total energy  :  -127.3532796 Eh     change        0.1013265E-07 Eh
   gradient norm :     0.0000784 Eh/α   predicted    -0.3041757E-08 (-130.02%)
   displ. norm   :     0.0000874 α      lambda        0.0000000E+00
   maximum displ.:     0.0000800 α      in ANC's #2, #209, #205, ...

........................................................................
.............................. CYCLE   45 ..............................
........................................................................
------------------------------------------------------------
  cycle        total energy    energy error   density error
------------------------------------------------------------
      1     -127.3532696111  -1.2958188E+02   1.9259147E-04
      2     -127.3525669945   7.0261661E-04   1.6816350E-03
      3     -127.3532538688  -6.8687438E-04   2.8326777E-04
      4     -127.3532793603  -2.5491456E-05   3.1404956E-05
      5     -127.3532795494  -1.8907866E-07   1.3481002E-05
------------------------------------------------------------

 total:                                   0.077 sec
 * total energy  :  -127.3532795 Eh     change        0.2034076E-07 Eh
   gradient norm :     0.0000975 Eh/α   predicted    -0.2534083E-08 (-112.46%)
   displ. norm   :     0.0000874 α      lambda        0.0000000E+00
   maximum displ.:     0.0000800 α      in ANC's #2, #209, #205, ...

........................................................................
.............................. CYCLE   46 ..............................
........................................................................
------------------------------------------------------------
  cycle        total energy    energy error   density error
------------------------------------------------------------
      1     -127.3532612446  -1.2958187E+02   2.6661204E-04
      2     -127.3520556097   1.2056350E-03   2.2216529E-03
      3     -127.3532298246  -1.1742149E-03   3.9334328E-04
      4     -127.3532790318  -4.9207191E-05   4.8320705E-05
      5     -127.3532793657  -3.3393741E-07   3.0194835E-05
      6     -127.3532795799  -2.1414158E-07   7.9467476E-06
------------------------------------------------------------

 total:                                   0.090 sec
 * total energy  :  -127.3532796 Eh     change       -0.3051403E-07 Eh
   gradient norm :     0.0001106 Eh/α   predicted    -0.1915466E-08 ( -93.72%)
   displ. norm   :     0.0000874 α      lambda        0.0000000E+00
   maximum displ.:     0.0000800 α      in ANC's #2, #209, #205, ...

   *** GEOMETRY OPTIMIZATION CONVERGED AFTER 46 ITERATIONS ***

------------------------------------------------------------------------
 total energy gain   :        -0.0038864 Eh       -2.4388 kcal/mol
 total RMSD          :         0.1952174 a0        0.1033 Å
 total power (kW/mol):        -0.2218224 (step)   -1.9636 (real)
------------------------------------------------------------------------

 ANCopt (total)                0 d,  0 h,  0 min,  5.197 sec
 optimizer setup                ...        0 min,  0.000 sec (  0.005%)
 model hessian                  ...        0 min,  0.087 sec (  1.679%)
 ANC generation                 ...        0 min,  0.016 sec (  0.300%)
 coordinate transformation      ...        0 min,  0.005 sec (  0.095%)
 single point calculation       ...        0 min,  5.060 sec ( 97.366%)
 optimization log               ...        0 min,  0.010 sec (  0.187%)
 hessian update                 ...        0 min,  0.007 sec (  0.133%)
 rational function              ...        0 min,  0.006 sec (  0.121%)

================
 final structure:
================
76
 xtb: 6.7.1 (edcfbbe)
C            8.77899723214779       -0.46020080573074        3.03901615146490
C            7.58684055470844        0.23474492704001        3.10515506050440
C            6.67769030744531        0.17020093417331        2.06184178459417
C            6.95017024572310       -0.58700058156531        0.92771154351716
C            8.15152700820703       -1.31097645936608        0.88268798270732
C            9.05582366954699       -1.24007234530909        1.92648723802547
O            8.48023776022158       -2.12252578815918       -0.17270116321061
C            7.59156052503413       -2.20044960700084       -1.21390001074531
C            7.93445056652612       -3.01665158747621       -2.27607595871470
C            7.09400390470850       -3.12398453477495       -3.37388603406329
C            5.91893976539619       -2.39829459811648       -3.40774628403629
C            5.56883425038052       -1.57938988548448       -2.34645861929493
C            6.38684556401839       -1.48124677804104       -1.22609869569952
N            6.06276134056495       -0.67306940145594       -0.14102508766904
C            4.83599855853613        0.03599681423450       -0.12094226892754
C            3.62480048468178       -0.68331276435393       -0.06029981940052
C            2.43491263886955       -0.01317165336010       -0.03525830702410
C            2.39610269509873        1.39405181580280       -0.05670341890797
C            3.61520944992616        2.12260329429177       -0.11180265575990
C            3.57834336160988        3.53266363890074       -0.12623312373523
C            2.38965848487615        4.20656206500583       -0.07947631023508
C            1.16147923383392        3.52192950534494       -0.01954818195456
N           -0.00048500169335        4.17147391453945        0.03537924578316
C           -1.16234808500062        3.52089368956197        0.07899835485122
C           -2.39062305756069        4.20418239499081        0.15109234122513
C           -3.57919354824763        3.52938348510354        0.18635212711649
C           -3.61584835188233        2.11978292365748        0.14732825160504
C           -4.82732630112371        1.40441412984315        0.17581400189938
C           -4.83629491733236        0.03312577701541        0.12073475782937
N           -6.06291084272802       -0.67643177850201        0.12941085483637
C           -6.95115459612134       -0.57207144906396       -0.93698231753239
C           -6.67960743010006        0.20453406412524       -2.05814559502517
C           -7.58956953136240        0.28692893076505       -3.09948653807987
C           -8.78163798631812       -0.40914025539046       -3.04437027464806
C           -9.05755374682045       -1.20803223222598       -1.94519374889515
C           -8.15244156821045       -1.29680813309740       -0.90346781751250
O           -8.48026859907476       -2.12638614623853        0.13807649251281
C           -7.59077143836710       -2.22214798411329        1.17707005891236
C           -7.93275964063233       -3.05652596616422        2.22532936393380
C           -7.09143914356032       -3.18266788865291        3.32046143802847
C           -5.91638951527571       -2.45757547423621        3.36586856419120
C           -5.56718261641218       -1.62050965415802        2.31855169637491
C           -6.38608384431920       -1.50316401812100        1.20068477532670
C           -3.62501025400685       -0.68480611708454        0.04690838660415
C           -2.43523980976809       -0.01413434719293        0.03303951707912
C           -2.39664477377153        1.39250361638866        0.07911157098177
C           -1.16027697167499        2.08882824434406        0.05284355065649
N           -0.00028074355436        1.43919244820941        0.01143909678019
C            1.15962167980926        2.08962436131387       -0.01849113039616
C            4.82681826901416        1.40803158569022       -0.15220534462116
H            9.49084224765769       -0.40823682889131        3.84749730477994
H            7.35215831347042        0.83301230543749        3.97197442139120
H            5.74475707411105        0.70713226150598        2.12904818119754
H            9.96955583006361       -1.80741165759656        1.85017696128461
H            8.86617811082906       -3.55696284645749       -2.22574080475111
H            7.36741440700237       -3.76515556661071       -4.19683835321879
H            5.26440012731728       -2.46082693884972       -4.26333257463584
H            4.65572642334609       -1.00686181258470       -2.38791411625084
H            3.65740515078486       -1.76218799317148       -0.02905209020490
H            1.49769346079038       -0.54577719548512        0.01331649950362
H            4.51006666690857        4.07670361942108       -0.17131076112689
H            2.35761911790849        5.28500931313456       -0.08507626371300
H           -2.35874703594378        5.28237180512065        0.17554722750762
H           -4.51098655121099        4.07240707066449        0.24118498355908
H           -5.75903744518190        1.94888366395680        0.23712514099761
H           -5.74675672566842        0.74261094223653       -2.11681996305033
H           -7.35560777641612        0.90002270934459       -3.95608050794699
H           -9.49412086979876       -0.34333318950458       -3.85127968259535
H           -9.97120013405276       -1.77665320931674       -1.87792743965423
H           -8.86449497412634       -3.59595946957932        2.16644639784644
H           -7.36414953685654       -3.83792519664032        4.13247727763937
H           -5.26115994607401       -2.53477144328024        4.21972689414823
H           -4.65407730262821       -1.04871264002469        2.36913499154464
H           -3.65746222106880       -1.76297672761351       -0.00316253438513
H           -1.49795626173187       -0.54565208291347       -0.02524806096504
H            5.75846632692865        1.95363723564013       -0.20356764902221
 
 Bond Distances (Angstroems)
 ---------------------------
C1-C2=1.3815         C1-C6=1.3866         C1-H51=1.0785        C2-C1=1.3815         C2-C3=1.3854         C2-H52=1.0791        
C3-C2=1.3854         C3-C4=1.3906         C3-H53=1.0785        C4-C3=1.3906         C4-C5=1.4034         C4-N14=1.3918        
C5-C4=1.4034         C5-C6=1.3829         C5-O7=1.3713         C6-C1=1.3866         C6-C5=1.3829         C6-H54=1.0782        
O7-C5=1.3713         O7-C8=1.3711         C8-O7=1.3711         C8-C9=1.3827         C8-C13=1.4031        C9-C8=1.3827         
C9-C10=1.3867        C9-H55=1.0782        C10-C9=1.3867        C10-C11=1.3815       C10-H56=1.0785       C11-C10=1.3815       
C11-C12=1.3855       C11-H57=1.0791       C12-C11=1.3855       C12-C13=1.3907       C12-H58=1.0786       C13-C8=1.4031        
C13-C12=1.3907       C13-N14=1.3912       N14-C4=1.3918        N14-C13=1.3912       N14-C15=1.4171       C15-N14=1.4171       
C15-C16=1.4100       C15-C50=1.3724       C16-C15=1.4100       C16-C17=1.3659       C16-H59=1.0798       C17-C16=1.3659       
C17-C18=1.4079       C17-H60=1.0791       C18-C17=1.4079       C18-C19=1.4213       C18-C49=1.4192       C19-C18=1.4213       
C19-C20=1.4106       C19-C50=1.4072       C20-C19=1.4106       C20-C21=1.3672       C20-H61=1.0799       C21-C20=1.3672       
C21-C22=1.4074       C21-H62=1.0789       C22-C21=1.4074       C22-N23=1.3323       C22-C49=1.4323       N23-C22=1.3323       
N23-C24=1.3323       C24-N23=1.3323       C24-C25=1.4074       C24-C47=1.4323       C25-C24=1.4074       C25-C26=1.3672       
C25-H63=1.0789       C26-C25=1.3672       C26-C27=1.4106       C26-H64=1.0799       C27-C26=1.4106       C27-C28=1.4072       
C27-C46=1.4213       C28-C27=1.4072       C28-C29=1.3724       C28-H65=1.0809       C29-C28=1.3724       C29-N30=1.4171       
C29-C44=1.4100       N30-C29=1.4171       N30-C31=1.3918       N30-C43=1.3912       C31-N30=1.3918       C31-C32=1.3906       
C31-C36=1.4034       C32-C31=1.3906       C32-C33=1.3854       C32-H66=1.0785       C33-C32=1.3854       C33-C34=1.3815       
C33-H67=1.0791       C34-C33=1.3815       C34-C35=1.3866       C34-H68=1.0785       C35-C34=1.3866       C35-C36=1.3829       
C35-H69=1.0782       C36-C31=1.4034       C36-C35=1.3829       C36-O37=1.3713       O37-C36=1.3713       O37-C38=1.3711       
C38-O37=1.3711       C38-C39=1.3827       C38-C43=1.4031       C39-C38=1.3827       C39-C40=1.3867       C39-H70=1.0782       
C40-C39=1.3867       C40-C41=1.3815       C40-H71=1.0785       C41-C40=1.3815       C41-C42=1.3855       C41-H72=1.0791       
C42-C41=1.3855       C42-C43=1.3907       C42-H73=1.0786       C43-N30=1.3912       C43-C38=1.4031       C43-C42=1.3907       
C44-C29=1.4100       C44-C45=1.3659       C44-H74=1.0798       C45-C44=1.3659       C45-C46=1.4079       C45-H75=1.0791       
C46-C27=1.4213       C46-C45=1.4079       C46-C47=1.4192       C47-C24=1.4323       C47-C46=1.4192       C47-N48=1.3302       
N48-C47=1.3302       N48-C49=1.3302       C49-C18=1.4192       C49-C22=1.4323       C49-N48=1.3302       C50-C15=1.3724       
C50-C19=1.4072       C50-H76=1.0809       H51-C1=1.0785        H52-C2=1.0791        H53-C3=1.0785        H54-C6=1.0782        
H55-C9=1.0782        H56-C10=1.0785       H57-C11=1.0791       H58-C12=1.0786       H59-C16=1.0798       H60-C17=1.0791       
H61-C20=1.0799       H62-C21=1.0789       H63-C25=1.0789       H64-C26=1.0799       H65-C28=1.0809       H66-C32=1.0785       
H67-C33=1.0791       H68-C34=1.0785       H69-C35=1.0782       H70-C39=1.0782       H71-C40=1.0785       H72-C41=1.0791       
H73-C42=1.0786       H74-C44=1.0798       H75-C45=1.0791       H76-C50=1.0809       
 C  H  Rav=1.0790 sigma=0.0007  Rmin=1.0782  Rmax=1.0809    26
 C  C  Rav=1.3949 sigma=0.0173  Rmin=1.3659  Rmax=1.4323    46
 N  C  Rav=1.3725 sigma=0.0350  Rmin=1.3302  Rmax=1.4171    10
 O  C  Rav=1.3712 sigma=0.0001  Rmin=1.3711  Rmax=1.3713     4
 
 selected bond angles (degree)
 --------------------
C6-C1-C2=119.58                H51-C1-C2=120.63               H51-C1-C6=119.79               C3-C2-C1=120.45                
H52-C2-C1=120.33               H52-C2-C3=119.21               C4-C3-C2=120.73                H53-C3-C2=119.84               
H53-C3-C4=119.43               C5-C4-C3=118.35                N14-C4-C3=122.34               N14-C4-C5=119.29               
C6-C5-C4=120.61                O7-C5-C4=122.36                O7-C5-C6=117.03                C5-C6-C1=120.26                
H54-C6-C1=121.46               H54-C6-C5=118.28               C8-O7-C5=117.56                C9-C8-O7=117.14                
C13-C8-O7=122.27               C13-C8-C9=120.58               C10-C9-C8=120.23               H55-C9-C8=118.31               
H55-C9-C10=121.46              C11-C10-C9=119.62              H56-C10-C9=119.77              H56-C10-C11=120.61             
 
 selected dihedral angles (degree)
 ---------------------------------
C3-C2-C1-C6=359.17            C3-C2-C1-H51=179.71           H52-C2-C1-C6=179.04           H52-C2-C1-H51=359.58          
C4-C3-C2-C1=359.63            C4-C3-C2-H52=179.75           H53-C3-C2-C1=179.26           H53-C3-C2-H52=359.39          
C5-C4-C3-C2=  1.66            C5-C4-C3-H53=182.03           N14-C4-C3-C2=180.15           N14-C4-C3-H53=  0.52          
C6-C5-C4-C3=358.21            C6-C5-C4-N14=179.67           O7-C5-C4-C3=177.54            O7-C5-C4-N14=359.01           
C5-C6-C1-C2=  0.70            C5-C6-C1-H51=180.17           H54-C6-C1-C2=180.99           H54-C6-C1-H51=  0.46          
C1-C6-C5-C4=  0.62            C1-C6-C5-O7=181.25            H54-C6-C5-C4=180.34           H54-C6-C5-O7=  0.98           
C8-O7-C5-C4=  0.67            C8-O7-C5-C6=180.03            C9-C8-O7-C5=179.72            C13-C8-O7-C5=  0.32           
C10-C9-C8-O7=181.17           C10-C9-C8-C13=  0.59          H55-C9-C8-O7=  0.93           H55-C9-C8-C13=180.35          
C11-C10-C9-C8=  0.76          C11-C10-C9-H55=181.01         H56-C10-C9-C8=180.19          H56-C10-C9-H55=  0.43         
           -------------------------------------------------
          |                Final Singlepoint                |
           -------------------------------------------------
repulsion energy          2.2293704476301E+00 Eh
dispersion energy        -7.6093854381015E-04 Eh
interaction energy        0.0000000000000E+00 Eh
[...]
    27   6 C       46   6 C                                       1.4212834
    45   6 C       46   6 C                                       1.4079215
    24   6 C       47   6 C                                       1.4323059
    46   6 C       47   6 C                                       1.4192124
    47   6 C       48   7 N                                       1.3301626
    18   6 C       49   6 C                                       1.4192135
    22   6 C       49   6 C                                       1.4323069 (max)
    48   7 N       49   6 C                                       1.3301622
    15   6 C       50   6 C                                       1.3724217
    19   6 C       50   6 C                                       1.4072105
     1   6 C       51   1 H                                       1.0784552
     2   6 C       52   1 H                                       1.0790624
     3   6 C       53   1 H                                       1.0785066
     6   6 C       54   1 H                                       1.0782411
     9   6 C       55   1 H                                       1.0782330 (min)
    10   6 C       56   1 H                                       1.0784731
    11   6 C       57   1 H                                       1.0790554
    12   6 C       58   1 H                                       1.0785514
    16   6 C       59   1 H                                       1.0798201
    17   6 C       60   1 H                                       1.0790775
    20   6 C       61   1 H                                       1.0798704
    21   6 C       62   1 H                                       1.0789377
    25   6 C       63   1 H                                       1.0789378
    26   6 C       64   1 H                                       1.0798702
    28   6 C       65   1 H                                       1.0808756
    32   6 C       66   1 H                                       1.0785083
    33   6 C       67   1 H                                       1.0790623
    34   6 C       68   1 H                                       1.0784551
    35   6 C       69   1 H                                       1.0782414
    39   6 C       70   1 H                                       1.0782331
    40   6 C       71   1 H                                       1.0784725
    41   6 C       72   1 H                                       1.0790548
    42   6 C       73   1 H                                       1.0785509
    44   6 C       74   1 H                                       1.0798205
    45   6 C       75   1 H                                       1.0790779
    50   6 C       76   1 H                                       1.0808755

 * 4 distinct bonds (by element types)

   Z      Z             #   av. dist./Å        max./Å        min./Å
   1 H    6 C          26     1.0790123     1.0808756     1.0782330
   6 C    6 C          46     1.3948684     1.4323069     1.3658503
   6 C    7 N          10     1.3725211     1.4170865     1.3301622
   6 C    8 O           4     1.3712032     1.3713168     1.3710884

           -------------------------------------------------
          |               Frequency Printout                |
           -------------------------------------------------
 projected vibrational frequencies (cm⁻¹)
eigval :       -0.00    -0.00    -0.00    -0.00     0.00     0.00
eigval :        9.68     9.95    17.08    22.62    27.44    29.67
eigval :       41.54    50.50    51.94    64.80    69.81   104.94
eigval :      110.82   116.32   128.31   137.14   140.67   155.32
eigval :      165.56   180.54   197.94   227.43   239.01   247.46
eigval :      248.75   258.64   262.76   269.20   273.10   296.56
eigval :      330.77   336.55   356.50   369.53   372.17   387.26
eigval :      393.10   396.77   402.66   407.79   419.59   426.03
eigval :      428.95   429.62   429.82   438.49   454.25   455.22
eigval :      491.88   492.12   507.11   507.20   507.74   507.97
eigval :      515.93   519.23   521.77   526.27   529.42   556.55
eigval :      562.24   570.85   577.10   592.63   607.19   611.74
eigval :      621.59   640.68   642.43   659.68   661.25   662.41
eigval :      664.05   664.39   665.00   674.68   709.64   710.39
eigval :      711.32   756.23   763.75   765.87   777.82   777.93
eigval :      778.22   778.45   799.70   800.75   801.43   801.87
eigval :      824.45   824.81   850.74   854.28   855.22   855.26
eigval :      863.74   863.85   864.94   865.00   878.59   878.99
eigval :      884.83   885.54   897.24   897.39   898.90   899.09
eigval :      912.00   913.72   915.49   915.71   916.29   917.30
eigval :      917.59   917.68   989.99   991.77   995.17  1021.63
eigval :     1088.09  1088.12  1088.96  1089.42  1106.71  1110.00
eigval :     1110.04  1113.47  1118.37  1121.06  1147.85  1152.98
eigval :     1163.63  1165.18  1174.73  1174.95  1180.94  1181.44
eigval :     1198.22  1198.62  1203.27  1203.38  1221.64  1223.44
eigval :     1230.29  1232.17  1241.27  1241.68  1244.48  1245.68
eigval :     1258.57  1259.21  1273.32  1283.83  1293.76  1298.79
eigval :     1312.08  1313.11  1313.61  1319.63  1331.78  1334.49
eigval :     1342.14  1348.81  1351.53  1359.37  1380.86  1386.50
eigval :     1410.60  1422.10  1422.31  1423.73  1426.85  1443.84
eigval :     1444.09  1468.33  1471.21  1472.89  1473.15  1484.83
eigval :     1489.12  1489.48  1511.78  1516.47  1548.13  1548.16
eigval :     1563.69  1563.78  1574.09  1574.18  1581.17  1583.75
eigval :     1584.12  1585.96  1596.82  1597.95  3077.34  3077.38
eigval :     3082.50  3082.58  3085.42  3085.84  3090.78  3090.89
eigval :     3091.10  3091.21  3098.70  3099.05  3099.67  3100.35
eigval :     3100.56  3100.61  3100.82  3101.24  3108.16  3108.30
eigval :     3108.63  3108.98  3113.08  3113.59  3113.94  3114.14
 reduced masses (amu)
   1: 11.78   2: 11.88   3: 11.75   4: 11.88   5: 11.86   6: 11.94   7: 10.99   8: 11.18
   9: 11.80  10: 11.17  11: 11.37  12: 11.09  13: 11.55  14: 11.83  15: 10.58  16: 11.32
  17: 11.82  18: 10.38  19: 10.00  20: 10.32  21: 11.73  22: 11.50  23: 11.63  24: 11.11
  25: 11.31  26: 10.56  27: 11.63  28: 11.79  29: 11.50  30: 10.48  31: 10.49  32: 11.19
  33: 11.18  34: 11.56  35: 11.58  36: 11.51  37: 11.38  38: 11.80  39: 10.79  40: 11.55
  41: 11.66  42:  9.52  43: 10.39  44: 11.18  45: 10.33  46: 11.15  47: 10.46  48: 10.78
  49: 10.45  50: 10.20  51:  9.73  52: 10.71  53: 11.04  54: 11.43  55: 11.50  56: 10.58
  57: 10.31  58: 10.20  59: 11.10  60: 11.28  61: 11.47  62: 11.32  63: 11.11  64: 11.05
  65: 11.45  66: 12.34  67: 12.15  68: 11.45  69: 11.58  70: 11.14  71: 11.95  72: 11.07
  73: 11.63  74: 11.25  75: 11.19  76: 11.36  77: 11.73  78: 11.66  79: 11.75  80: 11.79
  81: 11.79  82: 11.48  83: 11.75  84: 11.85  85: 11.94  86: 11.97  87: 12.12  88: 11.43
  89:  3.30  90:  3.29  91:  3.26  92:  3.27  93: 11.73  94:  4.89  95:  6.51  96:  9.76
  97:  4.36  98:  4.48  99: 11.22 100: 11.40 101: 12.44 102: 12.44 103:  3.40 104:  3.42
 105:  3.33 106:  3.33 107:  3.41 108:  3.40 109:  3.57 110:  3.50 111:  3.84 112:  3.84
 113:  3.89 114:  3.88 115:  3.35 116:  3.23 117:  3.32 118:  3.35 119:  3.13 120:  3.38
 121: 11.34 122: 11.14 123: 10.23 124: 10.49 125: 10.48 126:  9.82 127:  5.41 128:  5.41
 129:  5.80 130:  5.90 131:  6.57 132:  8.30 133:  8.31 134:  7.11 135:  7.56 136:  6.04
 137:  2.67 138:  2.71 139:  3.73 140:  3.82 141:  1.79 142:  1.78 143:  2.41 144:  2.52
 145:  7.65 146:  7.37 147:  7.38 148:  7.38 149:  6.93 150:  6.08 151:  7.39 152:  7.89
 153:  5.02 154:  4.99 155:  8.39 156:  6.68 157:  5.08 158:  4.90 159:  9.22 160: 10.75
 161:  8.45 162: 11.32 163: 10.36 164: 11.70 165: 11.57 166: 11.39 167: 10.24 168: 10.43
 169: 10.19 170: 11.10 171: 11.17 172: 10.97 173: 10.60 174: 11.46 175: 11.84 176:  9.48
 177:  9.40 178: 10.04 179: 10.75 180:  9.71 181:  9.68 182: 11.24 183: 11.00 184: 10.59
 185: 10.64 186: 10.43 187: 10.50 188: 11.15 189: 11.69 190: 11.62 191: 11.62 192: 11.57
 193: 11.46 194: 11.46 195: 11.54 196: 11.53 197: 11.56 198: 11.55 199: 11.59 200: 11.62
 201: 11.67 202: 11.68 203:  1.82 204:  1.82 205:  1.79 206:  1.79 207:  1.79 208:  1.79
 209:  1.77 210:  1.77 211:  1.77 212:  1.77 213:  1.86 214:  1.86 215:  1.88 216:  1.82
 217:  1.82 218:  1.82 219:  1.82 220:  1.87 221:  1.86 222:  1.86 223:  1.86 224:  1.86
 225:  1.89 226:  1.89 227:  1.89 228:  1.89
 IR intensities (km·mol⁻¹)
   1:  0.26   2:  0.40   3:  0.60   4:  0.98   5:  9.37   6:  2.44   7: 22.75   8:  2.19
   9:  1.08  10:  0.37  11:  1.43  12:  0.67  13:  1.18  14:  0.95  15:  9.18  16:  2.21
  17:  0.20  18: 14.63  19:  1.62  20: 30.50  21:  3.07  22:  0.22  23:  2.75  24:  2.12
  25:  2.07  26: 24.38  27:  8.58  28:  2.88  29:  2.54  30:  0.11  31:  1.83  32:  6.35
  33: 13.29  34: 10.76  35:  0.70  36: 16.06  37:  1.97  38: 18.27  39:  7.55  40: 21.05
  41:  3.32  42:  0.07  43:  2.02  44: 98.16  45:  5.94  46: 41.53  47:  3.12  48:  1.33
  49:  8.70  50:  3.11  51:  3.78  52: 14.10  53:  1.46  54:  1.23  55:  1.62  56:  7.70
  57:  0.34  58:  1.23  59: 10.82  60:  5.16  61:  9.66  62: 12.41  63: 10.74  64:  8.37
  65:  7.46  66: 65.68  67: 33.96  68:  7.45  69:  8.24  70: 12.28  71: 17.10  72:  4.43
  73: 15.69  74:  3.13  75:  8.48  76:  6.79  77: 13.35  78:  1.90  79:  6.59  80:  0.59
  81: 14.65  82:  0.57  83:  8.92  84:  5.95  85: 50.22  86: 11.81  87: 34.95  88: 13.82
  89: 67.00  90: 80.45  91: 16.87  92:122.79  93: 17.13  94: 53.14  95: 61.32  96: 21.94
  97: 26.23  98:190.74  99: 22.77 100: 53.04 101:  6.43 102: 14.04 103: 57.43 104:  9.44
 105:  8.90 106:  9.40 107:197.31 108:  4.51 109:  0.06 110:  6.76 111: 16.28 112: 38.15
 113: 23.23 114: 30.12 115:  2.36 116:  6.87 117:  6.13 118: 18.42 119:  9.14 120:  5.04
 121: 13.02 122: 41.64 123:  3.95 124: 10.11 125: 27.17 126:  2.17 127: 10.59 128:  0.11
 129: 90.16 130: 53.97 131: 88.78 132:  7.29 133:  3.31 134:221.37 135: 53.84 136: 57.00
 137: 18.16 138: 39.09 139: 98.24 140: 10.55 141:  4.53 142:  9.86 143:378.85 144: 16.42
 145:251.39 146: 51.72 147: 16.23 148: 18.09 149:101.29 150: 41.11 151: 27.74 152: 36.74
 153:  3.88 154: 28.02 155: 32.70 156:  7.61 157: 27.52 158: 20.62 159: 13.02 160:126.62
 161: 39.60 162: 87.33 163:131.77 164: 61.81 165:194.56 166:186.82 167:248.45 168:  9.11
 169: 89.03 170:519.99 171:  6.08 172: 19.47 173: 12.73 174: 31.29 175:  0.99 176:  5.53
 177:  0.18 178:  6.35 179:  6.75 180:  1.15 181:  5.93 182: 14.08 183: 16.30 184:114.82
 185:711.30 186:****** 187:198.43 188: 16.22 189:162.84 190: 55.37 191: 71.62 192: 69.63
 193:  7.74 194: 10.57 195:  0.49 196:  0.65 197: 34.87 198:185.48 199:668.09 200: 23.97
 201:203.89 202:  3.36 203: 21.40 204:  2.45 205: 71.13 206:358.88 207: 43.50 208: 78.91
 209: 14.15 210: 45.62 211: 17.34 212:  3.37 213: 44.65 214:170.29 215: 25.74 216: 60.13
 217:195.94 218: 80.98 219:178.60 220: 55.58 221: 21.72 222: 70.93 223: 23.22 224:468.72
 225: 19.66 226: 26.95 227:327.67 228:******
 Raman intensities (Ä⁴*amu⁻¹)
   1:  0.00   2:  0.00   3:  0.00   4:  0.00   5:  0.00   6:  0.00   7:  0.00   8:  0.00
   9:  0.00  10:  0.00  11:  0.00  12:  0.00  13:  0.00  14:  0.00  15:  0.00  16:  0.00
  17:  0.00  18:  0.00  19:  0.00  20:  0.00  21:  0.00  22:  0.00  23:  0.00  24:  0.00
  25:  0.00  26:  0.00  27:  0.00  28:  0.00  29:  0.00  30:  0.00  31:  0.00  32:  0.00
  33:  0.00  34:  0.00  35:  0.00  36:  0.00  37:  0.00  38:  0.00  39:  0.00  40:  0.00
  41:  0.00  42:  0.00  43:  0.00  44:  0.00  45:  0.00  46:  0.00  47:  0.00  48:  0.00
  49:  0.00  50:  0.00  51:  0.00  52:  0.00  53:  0.00  54:  0.00  55:  0.00  56:  0.00
  57:  0.00  58:  0.00  59:  0.00  60:  0.00  61:  0.00  62:  0.00  63:  0.00  64:  0.00
  65:  0.00  66:  0.00  67:  0.00  68:  0.00  69:  0.00  70:  0.00  71:  0.00  72:  0.00
  73:  0.00  74:  0.00  75:  0.00  76:  0.00  77:  0.00  78:  0.00  79:  0.00  80:  0.00
  81:  0.00  82:  0.00  83:  0.00  84:  0.00  85:  0.00  86:  0.00  87:  0.00  88:  0.00
  89:  0.00  90:  0.00  91:  0.00  92:  0.00  93:  0.00  94:  0.00  95:  0.00  96:  0.00
  97:  0.00  98:  0.00  99:  0.00 100:  0.00 101:  0.00 102:  0.00 103:  0.00 104:  0.00
 105:  0.00 106:  0.00 107:  0.00 108:  0.00 109:  0.00 110:  0.00 111:  0.00 112:  0.00
 113:  0.00 114:  0.00 115:  0.00 116:  0.00 117:  0.00 118:  0.00 119:  0.00 120:  0.00
 121:  0.00 122:  0.00 123:  0.00 124:  0.00 125:  0.00 126:  0.00 127:  0.00 128:  0.00
 129:  0.00 130:  0.00 131:  0.00 132:  0.00 133:  0.00 134:  0.00 135:  0.00 136:  0.00
 137:  0.00 138:  0.00 139:  0.00 140:  0.00 141:  0.00 142:  0.00 143:  0.00 144:  0.00
 145:  0.00 146:  0.00 147:  0.00 148:  0.00 149:  0.00 150:  0.00 151:  0.00 152:  0.00
 153:  0.00 154:  0.00 155:  0.00 156:  0.00 157:  0.00 158:  0.00 159:  0.00 160:  0.00
 161:  0.00 162:  0.00 163:  0.00 164:  0.00 165:  0.00 166:  0.00 167:  0.00 168:  0.00
 169:  0.00 170:  0.00 171:  0.00 172:  0.00 173:  0.00 174:  0.00 175:  0.00 176:  0.00
 177:  0.00 178:  0.00 179:  0.00 180:  0.00 181:  0.00 182:  0.00 183:  0.00 184:  0.00
 185:  0.00 186:  0.00 187:  0.00 188:  0.00 189:  0.00 190:  0.00 191:  0.00 192:  0.00
 193:  0.00 194:  0.00 195:  0.00 196:  0.00 197:  0.00 198:  0.00 199:  0.00 200:  0.00
 201:  0.00 202:  0.00 203:  0.00 204:  0.00 205:  0.00 206:  0.00 207:  0.00 208:  0.00
 209:  0.00 210:  0.00 211:  0.00 212:  0.00 213:  0.00 214:  0.00 215:  0.00 216:  0.00
 217:  0.00 218:  0.00 219:  0.00 220:  0.00 221:  0.00 222:  0.00 223:  0.00 224:  0.00
 225:  0.00 226:  0.00 227:  0.00 228:  0.00
 output can be read by thermo (or use thermo option).
 writing <g98.out> molden fake output.
 recommended (thermochemical) frequency scaling factor: 1.0
           -------------------------------------------------
          |             Thermodynamic Functions             |
           -------------------------------------------------

Molecule has the following symmetry elements: (C2) 
It seems to be the C2 point group
c2  symmetry found (for desy threshold:  0.10E+00) used in thermo

          ...................................................
          :                      SETUP                      :
          :.................................................:
          :  # frequencies                         222      :
          :  # imaginary freq.                       0      :
          :  linear?                             false      :
          :  only rotor calc.                    false      :
          :  symmetry                               c2      :
          :  rotational number                       2      :
          :  scaling factor                  1.0000000      :
          :  rotor cutoff                   50.0000000 cm⁻¹ :
          :  imag. cutoff                  -20.0000000 cm⁻¹ :
          :.................................................:

    mode    ω/cm⁻¹     T·S(HO)/kcal·mol⁻¹    T·S(FR)/kcal·mol⁻¹   T·S(vib)
   ------------------------------------------------------------------------
       1      9.68    -2.40760 (  0.14%)    -1.54286 ( 99.86%)    -1.54408
       2      9.95    -2.39148 (  0.16%)    -1.53480 ( 99.84%)    -1.53614
       3     17.08    -2.07160 (  1.34%)    -1.37482 ( 98.66%)    -1.38417
       4     22.62    -1.90520 (  4.02%)    -1.29156 ( 95.98%)    -1.31621
       5     27.44    -1.79089 (  8.31%)    -1.23434 ( 91.69%)    -1.28060
       6     29.67    -1.74455 ( 11.03%)    -1.21113 ( 88.97%)    -1.26999
       7     41.54    -1.54565 ( 32.27%)    -1.11144 ( 67.73%)    -1.25157
       8     50.50    -1.43044 ( 50.99%)    -1.05360 ( 49.01%)    -1.24577
       9     51.94    -1.41386 ( 53.80%)    -1.04527 ( 46.20%)    -1.24357
      10     64.80    -1.28369 ( 73.82%)    -0.97976 ( 26.18%)    -1.20414
      11     69.81    -1.23995 ( 79.16%)    -0.95769 ( 20.84%)    -1.18114
      12    104.94    -1.00192 ( 95.10%)    -0.83693 (  4.90%)    -0.99383
      13    110.82    -0.97033 ( 96.02%)    -0.82077 (  3.98%)    -0.96438
      14    116.32    -0.94233 ( 96.70%)    -0.80642 (  3.30%)    -0.93784
      15    128.31    -0.88587 ( 97.75%)    -0.77736 (  2.25%)    -0.88342
      16    137.14    -0.84777 ( 98.26%)    -0.75765 (  1.74%)    -0.84620
      17    140.67    -0.83326 ( 98.43%)    -0.75012 (  1.57%)    -0.83196
      18    155.32    -0.77697 ( 98.94%)    -0.72076 (  1.06%)    -0.77637
      19    165.56    -0.74099 ( 99.17%)    -0.70186 (  0.83%)    -0.74067
      20    180.54    -0.69254 ( 99.42%)    -0.67619 (  0.58%)    -0.69244
      21    197.94    -0.64168 ( 99.59%)    -0.64894 (  0.41%)    -0.64171
      22    227.43    -0.56624 ( 99.77%)    -0.60780 (  0.23%)    -0.56633
      23    239.01    -0.53972 ( 99.81%)    -0.59308 (  0.19%)    -0.53982
      24    247.46    -0.52135 ( 99.83%)    -0.58279 (  0.17%)    -0.52145
      25    248.75    -0.51861 ( 99.84%)    -0.58125 (  0.16%)    -0.51872
      26    258.64    -0.49818 ( 99.86%)    -0.56970 (  0.14%)    -0.49828
      27    262.76    -0.48996 ( 99.87%)    -0.56501 (  0.13%)    -0.49006
      28    269.20    -0.47743 ( 99.88%)    -0.55784 (  0.12%)    -0.47753
      29    273.10    -0.47004 ( 99.89%)    -0.55359 (  0.11%)    -0.47013
      30    296.56    -0.42821 ( 99.92%)    -0.52917 (  0.08%)    -0.42829
   ------------------------------------------------------------------------

   temp. (K)  partition function   enthalpy   heat capacity  entropy
                                   cal/mol     cal/K/mol   cal/K/mol   J/K/mol
 298.15  VIB  0.381E+17            21722.146    141.628    132.660
         ROT  0.647E+08              888.752      2.981     38.722
         INT  0.246E+25            22610.899    144.608    171.382
         TR   0.158E+29             1481.254      4.968     45.243
         TOT                       24092.1525   149.5766   216.6251   906.3594

       T/K    H(0)-H(T)+PV         H(T)/Eh          T*S/Eh         G(T)/Eh
   ------------------------------------------------------------------------
    298.15    0.383933E-01    0.601080E+00    0.102926E+00    0.498155E+00
   ------------------------------------------------------------------------

         :::::::::::::::::::::::::::::::::::::::::::::::::::::
         ::                  THERMODYNAMIC                  ::
         :::::::::::::::::::::::::::::::::::::::::::::::::::::
         :: total free energy        -126.855124753973 Eh   ::
         ::.................................................::
         :: total energy             -127.353279577219 Eh   ::
         :: zero point energy           0.562687110706 Eh   ::
         :: G(RRHO) w/o ZPVE           -0.064532287460 Eh   ::
         :: G(RRHO) contrib.            0.498154823245 Eh   ::
         :::::::::::::::::::::::::::::::::::::::::::::::::::::

optimized geometry written to: xtbopt.xyz


           -------------------------------------------------
          | TOTAL ENERGY             -127.353279577219 Eh   |
          | TOTAL ENTHALPY           -126.752199177597 Eh   |
          | TOTAL FREE ENERGY        -126.855124753973 Eh   |
          | GRADIENT NORM               0.000104595103 Eh/α |
           -------------------------------------------------

------------------------------------------------------------------------
 * finished run on 2025/09/10 at 03:40:47.227     
------------------------------------------------------------------------
 total:
 * wall-time:     0 d,  0 h,  0 min, 11.429 sec
 *  cpu-time:     0 d,  0 h,  7 min,  6.419 sec
 * ratio c/w:    37.312 speedup
 SCF:
 * wall-time:     0 d,  0 h,  0 min,  0.346 sec
 *  cpu-time:     0 d,  0 h,  0 min, 13.728 sec
 * ratio c/w:    39.649 speedup
 ANC optimizer:
 * wall-time:     0 d,  0 h,  0 min,  5.289 sec
 *  cpu-time:     0 d,  0 h,  3 min, 31.494 sec
 * ratio c/w:    39.988 speedup
 analytical hessian:
 * wall-time:     0 d,  0 h,  0 min,  5.726 sec
 *  cpu-time:     0 d,  0 h,  3 min, 19.834 sec
 * ratio c/w:    34.900 speedup

