$hessian                                                                        
        0.5644354619  -0.1851827695   0.1205818785  -0.2655075685   0.1388549737
        0.0331107215  -0.0510092483  -0.0023333021  -0.0577575332  -0.0220823214
        0.0227059450   0.0233466686   0.0382783035  -0.0211460988   0.0035012228
       -0.0921531496   0.0273600211  -0.0023823275  -0.0039418254   0.0035991754
       -0.0036171793   0.0009687726   0.0000583671  -0.0004423444  -0.0006889011
       -0.0004345533  -0.0015178765   0.0014546938  -0.0005980877   0.0009034345
       -0.0011579824   0.0012959178   0.0010765578  -0.0003054756  -0.0010221369
       -0.0019507215  -0.0001765939   0.0015010416   0.0026214375   0.0005220359
       -0.0019986088  -0.0029421403   0.0006083790  -0.0005381867   0.0000240251
        0.0002537617   0.0003499391   0.0000437714   0.0000117259  -0.0002146165
       -0.0000291484   0.0002653377   0.0006601479  -0.0000230125  -0.0000277361
       -0.0006066626  -0.0000390607  -0.0002562027   0.0003632467   0.0000233688
        0.0002856805  -0.0003242906  -0.0000279166   0.0001497113   0.0006649498
        0.0000471826  -0.0003509936  -0.0011761542   0.0000082393   0.0001428368
        0.0008766808  -0.0000546419  -0.0000043567  -0.0002063877  -0.0000487371
       -0.0001113958  -0.0000484537   0.0000023831  -0.0000390539   0.0001204089
       -0.0000178454  -0.0000837680  -0.0000056924  -0.0000243844   0.0001763293
        0.0001435527   0.0000340961  -0.0000696644  -0.0000316442  -0.0000144795
        0.0000450290  -0.0000190600   0.0000341763  -0.0000078415   0.0001276820
       -0.0001655801   0.0002271855   0.0001178851   0.0000232236  -0.0002050530
       -0.0001573665   0.0000826935  -0.0001591384   0.0000342262  -0.0002090644
       -0.0000741470  -0.0001508476   0.0001566656   0.0001905434   0.0000898274
       -0.0000137911  -0.0001452429  -0.0000070200  -0.0001425527  -0.0000340164
       -0.0001471105   0.0002147043  -0.0002303757  -0.0000975466  -0.0000853524
        0.0002400756   0.0001555032  -0.0000187790   0.0001180727  -0.0000626897
        0.0001638575  -0.0000000882   0.0000265450  -0.0000128320   0.0000590370
       -0.0000592105  -0.0000396488  -0.0000235065  -0.0000453230  -0.0000059192
        0.0000284118   0.0002788953   0.0000139902   0.0000727887  -0.0008399785
       -0.0000449122  -0.0003844308   0.0010968220   0.0000657087   0.0004016904
       -0.0006493051  -0.0000286534  -0.0001391491   0.0001776705  -0.0002090961
       -0.1555216202  -0.0043890466  -0.1314450794  -0.0066391763   0.0051658445
        0.0017186363  -0.0006496639   0.0021169511  -0.0042764373  -0.0063568209
        0.0146898962   0.0198887684  -0.0000108285  -0.0000075411  -0.0000443755
        0.0000146530   0.0000106636  -0.0000114092  -0.0000191295   0.0000554097
       -0.0000339205  -0.0000164192   0.0000219756  -0.0000628207  -0.0000331613
        0.0000585707  -0.0000557250  -0.0000701336  -0.0000636938  -0.0000461021
       -0.0000588308  -0.0000273191  -0.0000382759  -0.0000526311  -0.0000250198
        0.0000010237  -0.0000016086  -0.0000542201   0.0000441279   0.0000309704
       -0.0000173548   0.0000386959   0.0000069058   0.0000085960  -0.0000335920
       -0.0000120728  -0.0000410592   0.0000347117  -0.0000391150  -0.0000630154
        0.0000614943   0.0000576979   0.0000346524   0.0000561235   0.0000561062
        0.0000419960   0.0000454912   0.0000533905   0.0000497980  -0.0000473915
        0.0000436779   0.0000602585  -0.0000600642  -0.0000600404  -0.0000328944
       -0.0000684472  -0.0000162742  -0.0000072245  -0.0000355308  -0.0000199091
        0.0000151575   0.0000378463  -0.0000713688  -0.0000260792   0.0000476060
       -0.0001812348  -0.0001316221   0.0000701697
       -0.1851827695   0.3156116674   0.1826467224   0.1049084116  -0.1249388592
       -0.0394634557   0.0229286954   0.0132421383   0.0440507100   0.0238166774
       -0.0259013647  -0.0152413066  -0.0455781144   0.0061923808  -0.0317796055
        0.0608077927  -0.1372314206  -0.1059078463   0.0048497624   0.0031687555
       -0.0000991354  -0.0009122328   0.0002925806  -0.0029260161   0.0005465946
        0.0006405365   0.0018069192  -0.0017058504   0.0002911293  -0.0010781982
        0.0012780932  -0.0012653654  -0.0009300326   0.0001670422   0.0008679139
        0.0017556000  -0.0000042049  -0.0007699017  -0.0012106485  -0.0028828101
        0.0010877767  -0.0008003121  -0.0001991871   0.0002242774  -0.0001662939
       -0.0001895725  -0.0002004821  -0.0000697245  -0.0000012781   0.0001223021
        0.0000055961  -0.0001753924  -0.0005274158   0.0000359392   0.0000273631
        0.0004542510   0.0000498542   0.0002106200  -0.0003099398  -0.0000404915
       -0.0002650937   0.0002891900   0.0000254628  -0.0000904438  -0.0005523835
       -0.0000749708   0.0002459396   0.0009887955  -0.0000062392  -0.0000720716
       -0.0007218766   0.0000740986  -0.0000032051   0.0002018922   0.0000800681
        0.0000825710   0.0000411736  -0.0000012032   0.0000122734  -0.0000818741
        0.0000390448   0.0000784347   0.0000063479   0.0000439221  -0.0001057162
       -0.0000778905  -0.0000522757   0.0001727815   0.0001098303   0.0000097962
       -0.0002369363   0.0000182142  -0.0002423615   0.0000518245  -0.0001533499
        0.0002491575  -0.0003213848  -0.0001282261  -0.0000916131   0.0002452203
        0.0002305500  -0.0001634133   0.0001636368  -0.0000664734   0.0002710006
        0.0001816907   0.0003340965  -0.0003423671  -0.0004600484  -0.0002428208
        0.0000133020   0.0003575582   0.0000159473   0.0003239290   0.0000001499
        0.0001690041  -0.0002827711   0.0003088802   0.0000996881   0.0001634990
       -0.0002995572  -0.0002349932   0.0000906433  -0.0001258316   0.0001193801
       -0.0002488820  -0.0000964994  -0.0001998671   0.0002245544  -0.0000439060
        0.0000453220   0.0000468138   0.0000670275   0.0000179247  -0.0000008515
       -0.0000216210  -0.0002490935  -0.0000077916  -0.0000818824   0.0007133140
        0.0000293250   0.0003646110  -0.0009440934  -0.0000550265  -0.0003276169
        0.0005630177   0.0000635364   0.0000326867  -0.0002081966   0.0001914470
       -0.0043443011  -0.0372552751  -0.0133507583   0.0151047294  -0.0097367536
       -0.0026308124   0.0016373332   0.0049264761  -0.0024719775   0.0047596715
       -0.0092988810  -0.0125893442   0.0000202311   0.0000526085   0.0000284465
       -0.0000306324  -0.0000103585  -0.0000139582   0.0000611557  -0.0000405878
       -0.0000002337   0.0000381355  -0.0000290478   0.0001012174   0.0000500503
       -0.0000145799   0.0000787809   0.0000357661   0.0000897099   0.0000745583
        0.0000453141   0.0000240017   0.0000588162   0.0000408962   0.0000148646
        0.0000091800   0.0000057865   0.0000423293  -0.0000620969  -0.0000297405
        0.0000186831  -0.0000597375  -0.0000044523  -0.0000102624   0.0000502578
       -0.0000022218   0.0000472348  -0.0000506250   0.0000522096   0.0000707718
       -0.0000590015  -0.0000589580  -0.0000550543  -0.0000525003  -0.0000529087
       -0.0000494195  -0.0000678819  -0.0000522644  -0.0000587187   0.0000668379
       -0.0000559272  -0.0000624662   0.0000531103   0.0000625919   0.0000546337
        0.0000633032  -0.0000004474  -0.0000056600   0.0000516893   0.0000435015
       -0.0000065545  -0.0000533865   0.0000804552   0.0000336344  -0.0000663424
        0.0000709143   0.0001051613  -0.0001156498
        0.1205818785   0.1826467224   0.5586165771  -0.0293587829  -0.0044951880
       -0.0846647320  -0.0118605699   0.0182182780   0.0235099864   0.0246873312
       -0.0161457625  -0.0082690327  -0.0407585058  -0.0064352729  -0.0549360519
        0.0582634276  -0.1407671783  -0.2341423957  -0.0011626875  -0.0014114197
        0.0020545239  -0.0023793588  -0.0019433333  -0.0041790854   0.0003302669
        0.0007832754   0.0016907261  -0.0014328583   0.0003573088  -0.0012719979
        0.0012013080  -0.0010821872  -0.0006537366   0.0001046779   0.0007316202
        0.0012037280   0.0000177448  -0.0000604123   0.0000443809  -0.0046169948
        0.0003388829  -0.0041939670   0.0002359529  -0.0000418023  -0.0000760309
       -0.0001759993  -0.0000306067  -0.0000666067   0.0000121734  -0.0000002256
       -0.0000406680  -0.0001461150  -0.0003799159   0.0000305187   0.0001250334
        0.0002407027   0.0000503417   0.0000970281  -0.0001597507  -0.0000522515
       -0.0001576052   0.0002363216   0.0000144218  -0.0000074704  -0.0004933839
       -0.0000790937   0.0001184622   0.0008036405   0.0000143353  -0.0000201495
       -0.0005998571   0.0000588774  -0.0000576894   0.0001873356   0.0001074546
        0.0000732411   0.0000485014   0.0000024076  -0.0000497005  -0.0000446838
        0.0000632365   0.0000662068   0.0000196823   0.0000306955  -0.0001392410
       -0.0000641388  -0.0000649738   0.0000664217   0.0000447099   0.0000160950
       -0.0001007727   0.0000161784  -0.0001052828   0.0000374612  -0.0000986895
        0.0001447514  -0.0002015184  -0.0000846759  -0.0000408103   0.0001624223
        0.0001491896  -0.0000937656   0.0001167451  -0.0000375058   0.0001752351
        0.0000869149   0.0001737949  -0.0001673222  -0.0002608654  -0.0001194596
        0.0000120861   0.0001681382   0.0000040909   0.0001471927   0.0000043521
        0.0001158223  -0.0001873001   0.0001967032   0.0000669917   0.0000944880
       -0.0002047666  -0.0001474060   0.0000392460  -0.0000869480   0.0000837250
       -0.0001451888  -0.0000353195  -0.0000760469   0.0000811369  -0.0000154990
        0.0000130193   0.0000664601   0.0000512320  -0.0000640029  -0.0000048332
        0.0000249742  -0.0001779327   0.0000049626  -0.0003059609   0.0008070100
        0.0000000238   0.0002573106  -0.0012244747  -0.0000402716   0.0000496781
        0.0007005345   0.0000976028  -0.0001000927  -0.0001217564   0.0001047528
       -0.1315277414  -0.0131792970  -0.1885073863   0.0208271825  -0.0132573361
       -0.0027942013  -0.0048635957  -0.0023639187  -0.0018049341   0.0018750630
       -0.0018057547  -0.0019512769  -0.0000125483   0.0000373494   0.0000440402
       -0.0000532735  -0.0000262203  -0.0000253361   0.0000444888  -0.0000923940
        0.0000144896   0.0000678001  -0.0000208282   0.0001178968   0.0000459689
        0.0000238845   0.0000708138   0.0000014893   0.0001100553   0.0000891733
        0.0000257434   0.0000117924   0.0000742218   0.0000305691   0.0000098316
        0.0000087151   0.0000062037   0.0000305823  -0.0000717592  -0.0000246649
        0.0000187770  -0.0000732365  -0.0000021505  -0.0000075764   0.0000650373
       -0.0000006590   0.0000531537  -0.0000618233   0.0000601508   0.0000722192
       -0.0000562550  -0.0000564453  -0.0000651834  -0.0000510704  -0.0000537559
       -0.0000543865  -0.0000817020  -0.0000549155  -0.0000655577   0.0000764045
       -0.0000624690  -0.0000613204   0.0000488318   0.0000610020   0.0000672567
        0.0000594514   0.0000007867  -0.0000058194   0.0000613162   0.0000610456
        0.0000001961  -0.0000656863   0.0000835491   0.0000482175  -0.0000774510
        0.0000195613   0.0000420081  -0.0001091196
       -0.2655075685   0.1049084116  -0.0293587829   0.5532670024  -0.1930392648
        0.0917480826  -0.1850861215   0.0263512657  -0.0956413391   0.0368623462
       -0.0436628145  -0.0404880600  -0.0490317375   0.0144789469  -0.0194663345
       -0.0014739927   0.0406870458   0.0706988312   0.0037267410  -0.0028551722
       -0.0012185818  -0.0012630453  -0.0005274936  -0.0021321342   0.0006995427
        0.0009000234   0.0024639395  -0.0023335954   0.0007614126  -0.0014722633
        0.0016810698  -0.0018895721  -0.0013974684   0.0002032863   0.0014597481
        0.0026884719   0.0011256130  -0.0017539690  -0.0030922726  -0.0009514515
        0.0058989203   0.0049188913  -0.0006678645   0.0008036871  -0.0007091731
       -0.0001431840  -0.0005162147  -0.0001762992   0.0000388681   0.0003241747
        0.0000367206  -0.0003617351  -0.0010064454   0.0000388459   0.0002895192
        0.0007983555  -0.0000275677   0.0003555920  -0.0005450712  -0.0000479935
       -0.0003927878   0.0005293409   0.0000500476  -0.0003640128  -0.0008284811
       -0.0000935591   0.0005871452   0.0015541136  -0.0000241932  -0.0001506749
       -0.0012029883   0.0000987821  -0.0000077065   0.0003156540   0.0001032410
        0.0001693412   0.0001111319  -0.0000057026   0.0000601833  -0.0002006531
        0.0000517509   0.0001136640   0.0000280927   0.0000521585  -0.0002040409
       -0.0001784689  -0.0000697167   0.0002191077   0.0001319712   0.0000173925
       -0.0002583640   0.0000291166  -0.0002592876   0.0000635076  -0.0002233552
        0.0003290775  -0.0004303250  -0.0001926139  -0.0001036197   0.0003479956
        0.0003024014  -0.0002055330   0.0002420652  -0.0000867338   0.0003720057
        0.0002136457   0.0003960007  -0.0004062819  -0.0005437677  -0.0002789714
        0.0000221384   0.0004146826   0.0000236293   0.0003790336   0.0000176588
        0.0002365727  -0.0003836781   0.0004214678   0.0001489729   0.0002079458
       -0.0004249333  -0.0003107155   0.0001001498  -0.0001830246   0.0001581173
       -0.0003275169  -0.0000908969  -0.0002130034   0.0002294119  -0.0000873896
        0.0000837219   0.0000688785   0.0000932157   0.0000451913   0.0000039015
       -0.0000497017  -0.0004114512  -0.0000163727  -0.0000923036   0.0011831921
        0.0000542782   0.0006135776  -0.0015378263  -0.0000956502  -0.0006107098
        0.0008564885   0.0000777320  -0.0000037611  -0.0002919708   0.0002559875
       -0.0193180056   0.0102289292  -0.0012907124  -0.0543401458   0.0344732620
        0.0434601504  -0.0199052996   0.0004100107  -0.0195687290   0.0021511603
        0.0028336305  -0.0003948031  -0.0000068214   0.0000534047   0.0000625290
       -0.0000341639  -0.0000171498  -0.0000290940   0.0000620271  -0.0000719285
        0.0000437300   0.0000453278  -0.0000176603   0.0001306965   0.0000317270
       -0.0000099035   0.0000920578   0.0001060644   0.0001316664   0.0000967409
        0.0000431393   0.0000312259   0.0000613602   0.0000659821   0.0000293550
        0.0000038053   0.0000050657   0.0000739520  -0.0000894194  -0.0000418827
        0.0000215419  -0.0000825550  -0.0000030207  -0.0000182461   0.0000656786
        0.0000060367   0.0000679566  -0.0000689483   0.0000754424   0.0001012842
       -0.0000926160  -0.0000879597  -0.0000781486  -0.0000808205  -0.0000811476
       -0.0000723775  -0.0000904936  -0.0000790779  -0.0000821786   0.0000924295
       -0.0000794919  -0.0000937950   0.0000854440   0.0000963432   0.0000732571
        0.0001014423   0.0000116740   0.0000009464   0.0000700341   0.0000520581
       -0.0000105746  -0.0000724335   0.0001184565   0.0000484127  -0.0000915928
       -0.0000056307   0.0001406767  -0.0002621949
        0.1388549737  -0.1249388592  -0.0044951880  -0.1930392648   0.3241803162
        0.1940667136  -0.0068499131  -0.0619477305  -0.0423810773  -0.0200309071
        0.0062080948  -0.0062986803   0.0132716727  -0.0061079483   0.0106131588
        0.0158256430  -0.0252828726  -0.0329589334  -0.0012748028  -0.0001216744
       -0.0013725684   0.0007708361   0.0003892035   0.0014867906  -0.0002659905
       -0.0003733469  -0.0008492127   0.0007031893  -0.0001408611   0.0005665581
       -0.0006284411   0.0003696710   0.0003775313   0.0000529169  -0.0005435173
       -0.0006571868  -0.0001428422   0.0008426476  -0.0009056060   0.0034839009
        0.0008469539  -0.0040189758   0.0007920352  -0.0001306559  -0.0000223017
        0.0000310821  -0.0000424201  -0.0000568057   0.0001048380  -0.0001888007
        0.0000113424   0.0001347030   0.0004014736  -0.0000141632  -0.0002192393
       -0.0001225237   0.0000751679  -0.0000717914   0.0001162414   0.0000212762
        0.0000927142  -0.0001405670  -0.0000238947   0.0001574990   0.0002553678
        0.0000143476  -0.0001879369  -0.0004464023  -0.0000072328   0.0000431040
        0.0003440765  -0.0000085562  -0.0000262214  -0.0000798480  -0.0000214549
       -0.0000422114  -0.0000031657   0.0000000690  -0.0000149565   0.0000450254
       -0.0000072815  -0.0000386827   0.0000094167  -0.0000079399   0.0001201512
        0.0000807120   0.0000134948  -0.0000129466   0.0000035654  -0.0000153313
       -0.0000182019  -0.0000087806  -0.0000287268   0.0000069373   0.0000623941
       -0.0000690067   0.0001010370   0.0000625112  -0.0000044170  -0.0001008998
       -0.0000677051   0.0000262227  -0.0000848478   0.0000113209  -0.0000994758
       -0.0000161112  -0.0000419967   0.0000467722   0.0000371436   0.0000151972
       -0.0000139005  -0.0000256657  -0.0000002453  -0.0000335819  -0.0000268625
       -0.0000749778   0.0000998439  -0.0001084817  -0.0000541016  -0.0000290057
        0.0001201783   0.0000658458   0.0000093071   0.0000620997  -0.0000197131
        0.0000665059  -0.0000241630  -0.0000310353   0.0000499912   0.0000242402
       -0.0000372564  -0.0000187941  -0.0000030519  -0.0000282952  -0.0000047066
        0.0000066072   0.0001204980   0.0000025435  -0.0000155113  -0.0003163857
       -0.0000120018  -0.0001481443   0.0003896351   0.0000233741   0.0002179426
       -0.0002294495  -0.0000199454   0.0000947578   0.0000016194   0.0002800483
       -0.0002536965   0.0005161485   0.0005054210   0.0350375285  -0.1168661308
       -0.1193610016   0.0105547397   0.0004312664   0.0106307403   0.0029611716
        0.0025418966  -0.0051480637  -0.0000160814   0.0000055409   0.0000136297
        0.0000166720   0.0000268956  -0.0000161742  -0.0000101289   0.0000191942
       -0.0000361875  -0.0000115412   0.0000206978  -0.0000475962   0.0000278065
        0.0000506791  -0.0000209099  -0.0000035371  -0.0000324038   0.0000013389
       -0.0000194950   0.0000147820  -0.0000116266  -0.0000146729  -0.0000208953
        0.0000066779  -0.0000015999  -0.0000295917   0.0000214918   0.0000181736
       -0.0000077040   0.0000166013   0.0000056418   0.0000042869  -0.0000132633
       -0.0000096979  -0.0000202204   0.0000143323  -0.0000181591  -0.0000324362
        0.0000346109   0.0000314522   0.0000133917   0.0000319021   0.0000318078
        0.0000209210   0.0000187837   0.0000294480   0.0000245020  -0.0000203902
        0.0000213415   0.0000335160  -0.0000355114  -0.0000331321  -0.0000108850
       -0.0000408721  -0.0000134279  -0.0000080782  -0.0000130763  -0.0000049279
        0.0000105581   0.0000169044  -0.0000400915  -0.0000104830   0.0000225310
        0.0000222925   0.0000038996   0.0000346016
        0.0331107215  -0.0394634557  -0.0846647320   0.0917480826   0.1940667136
        0.5633713939  -0.1567917695  -0.0082783963  -0.2179028076   0.0027556258
       -0.0307668451  -0.0549421852  -0.0214891463   0.0122305750  -0.0048448948
        0.0255716741  -0.0075540439   0.0143030935   0.0019856239  -0.0032175308
       -0.0037336395  -0.0002274901   0.0001894728   0.0000525325   0.0003148672
        0.0003974535   0.0010366803  -0.0012504023   0.0005250429  -0.0005742178
        0.0009091922  -0.0009767982  -0.0010000669   0.0004061121   0.0007017013
        0.0014985827  -0.0004269318  -0.0025617974  -0.0038455571   0.0011728247
       -0.0019437779   0.0025663541  -0.0004119348   0.0002781434   0.0002960349
       -0.0001587825  -0.0003502663   0.0000073955  -0.0000105339   0.0001109246
        0.0000280653  -0.0002515001  -0.0005157393   0.0000211088   0.0001480256
        0.0004364326  -0.0000422382   0.0001832396  -0.0001895571  -0.0000432041
       -0.0000685933   0.0002952641   0.0000200208  -0.0001883931  -0.0005239848
       -0.0000466396   0.0003275005   0.0008586610  -0.0000203894  -0.0001120246
       -0.0007158271   0.0000652604  -0.0000784242   0.0001981514   0.0000700628
        0.0001131260   0.0001117232  -0.0000020085  -0.0000037289  -0.0001227123
        0.0000484466   0.0000489176   0.0000501135   0.0000129096  -0.0001279471
       -0.0000992360  -0.0000505662   0.0000079161   0.0000068450   0.0000051494
        0.0000096331   0.0000164675   0.0000070323   0.0000266024  -0.0000593419
        0.0000610910  -0.0000885617  -0.0000487230  -0.0000050707   0.0000879081
        0.0000675013  -0.0000359860   0.0000698463  -0.0000167857   0.0000864648
        0.0000067488   0.0000244100  -0.0000093239  -0.0000693949  -0.0000063024
        0.0000027859   0.0000111936   0.0000037609   0.0000014143   0.0000079855
        0.0000594363  -0.0000944798   0.0000914347   0.0000353327   0.0000371860
       -0.0001100597  -0.0000656205   0.0000049221  -0.0000498799   0.0000510106
       -0.0000629292   0.0000151367   0.0000093830  -0.0000170132  -0.0000356235
        0.0000048732   0.0000614008   0.0000424018  -0.0000573527   0.0000036707
       -0.0000005392  -0.0001986340  -0.0000082886  -0.0003219576   0.0009360925
        0.0000462317   0.0003061275  -0.0014089570  -0.0000754322  -0.0000241047
        0.0007896568   0.0000595061   0.0001181950  -0.0001281565   0.0001799819
       -0.0200796179   0.0110224058  -0.0002772986   0.0434677066  -0.1195598508
       -0.2095334134  -0.0009718651   0.0004881397   0.0003337469   0.0001082122
       -0.0053663023  -0.0023954875  -0.0000336620   0.0000858885   0.0000890382
       -0.0000446402  -0.0000294324  -0.0000187804   0.0000321963  -0.0000675162
       -0.0000008116   0.0000060201  -0.0000246862   0.0000706041   0.0000459868
        0.0000267480   0.0000364724   0.0000716276   0.0000883261   0.0000565799
       -0.0000025139   0.0000155639   0.0000606772   0.0000472649  -0.0000071782
        0.0000079538   0.0000018597   0.0000265201  -0.0000585651  -0.0000108700
        0.0000097706  -0.0000561887   0.0000059380  -0.0000079957   0.0000522741
        0.0000039634   0.0000430021  -0.0000512063   0.0000493644   0.0000526092
       -0.0000432319  -0.0000407935  -0.0000564322  -0.0000373330  -0.0000403883
       -0.0000437189  -0.0000641100  -0.0000415664  -0.0000500473   0.0000617159
       -0.0000481137  -0.0000447477   0.0000363186   0.0000465491   0.0000562088
        0.0000447451   0.0000057121  -0.0000014910   0.0000522330   0.0000476641
        0.0000044734  -0.0000536852   0.0000584064   0.0000428947  -0.0000611334
        0.0000166198   0.0001115475  -0.0001842224
       -0.0510092483   0.0229286954  -0.0118605699  -0.1850861215  -0.0068499131
       -0.1567917695   0.5679966194  -0.1925419945   0.1089850270  -0.0973926512
        0.0618387914   0.0620792096   0.0037973789   0.0096438778   0.0235476179
       -0.0024026651  -0.0090674375  -0.0155030743  -0.0060266855   0.0075694420
        0.0004414533   0.0009236136  -0.0001327716   0.0008064108  -0.0002622916
       -0.0004769687  -0.0008300607   0.0009966196  -0.0003824264   0.0005674843
       -0.0010106884   0.0008369820   0.0004832324  -0.0001104169  -0.0014828164
       -0.0024637961  -0.0032798070   0.0026518993  -0.0007847748   0.0075006747
       -0.0148572578  -0.0219629813  -0.0006625822  -0.0006502715  -0.0015232525
        0.0008737046  -0.0000398099   0.0001107158  -0.0001454188   0.0004198174
        0.0000825244  -0.0001852055  -0.0003816543   0.0000315473   0.0003526417
       -0.0001358792  -0.0001451586  -0.0000283332   0.0000512795   0.0000660066
        0.0000454028   0.0000348160   0.0000218314   0.0000240758  -0.0003690607
        0.0000100927   0.0000473892   0.0004268779   0.0000307357  -0.0001043674
       -0.0002985191  -0.0000472507  -0.0000007539   0.0000326958  -0.0000272496
        0.0000340772  -0.0000001930   0.0000001044   0.0000105836   0.0000069826
       -0.0000290077   0.0000113754   0.0000009502  -0.0000074039   0.0000215629
        0.0000005065   0.0000253346   0.0000369496   0.0000131164  -0.0000002489
       -0.0000269310   0.0000020925  -0.0000281860  -0.0000235910   0.0000005541
        0.0000011239   0.0000052481   0.0000013998  -0.0000003483  -0.0000087213
       -0.0000070262   0.0000043648  -0.0000073688   0.0000048277  -0.0000103074
        0.0000158463   0.0000199112  -0.0000250675   0.0000049201  -0.0000166233
        0.0000030770   0.0000256505   0.0000044759   0.0000254429   0.0000064020
       -0.0000056806   0.0000148689  -0.0000041484   0.0000018822  -0.0000047262
        0.0000182097   0.0000049247   0.0000012058  -0.0000055220  -0.0000241517
        0.0000008326  -0.0000069805  -0.0000236659   0.0000270222   0.0000048962
        0.0000038527  -0.0000287981  -0.0000524835  -0.0000021365   0.0000056911
        0.0000343329  -0.0000283685   0.0000040635  -0.0001788340   0.0003491446
       -0.0000046960   0.0001396002  -0.0005108995   0.0000352005  -0.0000136641
        0.0003982467  -0.0000528918  -0.0009117897  -0.0003665518  -0.0013152820
       -0.0030319932   0.0049854406  -0.0010941134   0.0032975634   0.0002205580
        0.0030383089  -0.2353942013   0.1164106218   0.0145158131   0.0004880355
       -0.0005517177  -0.0000940222   0.0000392709  -0.0000901157  -0.0000708170
        0.0000457771   0.0000223786   0.0000010715   0.0000319764   0.0000011795
       -0.0001075074   0.0000829116  -0.0000324007  -0.0000113021   0.0001048848
        0.0001027167  -0.0000597937   0.0000320625   0.0000031640  -0.0000709249
        0.0000498898   0.0000746001  -0.0000684107   0.0000223536   0.0000110635
       -0.0000201010  -0.0000118240   0.0000144514   0.0000261802   0.0000011951
       -0.0000030589   0.0000273495  -0.0000003459   0.0000030550  -0.0000263920
        0.0000075738  -0.0000140300   0.0000242309  -0.0000201082  -0.0000165299
        0.0000105164   0.0000130591   0.0000287557   0.0000093913   0.0000134043
        0.0000194694   0.0000312637   0.0000142408   0.0000226992  -0.0000294175
        0.0000205046   0.0000141806  -0.0000077642  -0.0000140056  -0.0000292800
       -0.0000089852   0.0000070860   0.0000080414  -0.0000260568  -0.0000296304
       -0.0000050328   0.0000251145  -0.0000305755  -0.0000049715   0.0000247688
        0.0002803906   0.0002087969  -0.0000037206
       -0.0023333021   0.0132421383   0.0182182780   0.0263512657  -0.0619477305
       -0.0082783963  -0.1925419945   0.3076021837   0.1793997471   0.0325780202
       -0.1303882352  -0.1259125493   0.0319060659  -0.0250436879  -0.0089466122
       -0.0062670255  -0.0078064628  -0.0145064523   0.0045408679   0.0045135570
        0.0011199610  -0.0011227549   0.0000390120  -0.0009682600  -0.0003583173
       -0.0003207314  -0.0005479941   0.0007490650  -0.0003929218   0.0003616692
       -0.0005079060   0.0005682580   0.0006612677   0.0000207023  -0.0008097540
       -0.0010128577  -0.0000394119   0.0021429726   0.0016694534  -0.0059317605
       -0.0011986557  -0.0135539879   0.0006621803  -0.0010543494   0.0005813175
        0.0001075119   0.0006518428   0.0001580890   0.0001199051  -0.0003206688
       -0.0001679319   0.0004269164   0.0005969634  -0.0000490020  -0.0003136653
       -0.0003078818   0.0001101944  -0.0002436543   0.0001543137   0.0000279905
        0.0000516956  -0.0002822558  -0.0000329535   0.0003105645   0.0006250592
        0.0000340126  -0.0004681802  -0.0010347712   0.0000047937   0.0002131169
        0.0008283874  -0.0000413588  -0.0000130949  -0.0001842187  -0.0000376166
       -0.0000959654  -0.0000631419   0.0000016425  -0.0000534874   0.0001106339
       -0.0000132254  -0.0000621484  -0.0000213763  -0.0000217866   0.0000888701
        0.0000985315   0.0000278376  -0.0001343314  -0.0000699144  -0.0000123086
        0.0001398518  -0.0000174272   0.0001375315  -0.0000181634   0.0000990098
       -0.0001511911   0.0001944684   0.0000822474   0.0000524783  -0.0001498429
       -0.0001328848   0.0000890494  -0.0001070480   0.0000364175  -0.0001598397
       -0.0001007918  -0.0001898205   0.0001935131   0.0002365998   0.0001325315
       -0.0000118066  -0.0001942462  -0.0000086845  -0.0001786861  -0.0000122066
       -0.0001058029   0.0001651586  -0.0001877347  -0.0000663873  -0.0000897481
        0.0001777842   0.0001404042  -0.0000471672   0.0000862091  -0.0000573629
        0.0001504601   0.0000466371   0.0001089976  -0.0001177148   0.0000525085
       -0.0000346325  -0.0000298964  -0.0000117373  -0.0000536361  -0.0000110333
        0.0000368084   0.0002536205   0.0000097863   0.0000789562  -0.0008020794
       -0.0000385779  -0.0003091809   0.0010922674   0.0000373340   0.0003446085
       -0.0006396409  -0.0000094885   0.0002482286  -0.0002250441   0.0005086526
        0.0051984994   0.0031668990  -0.0021209524  -0.0100617565  -0.0014920563
       -0.0133675537   0.1169439675  -0.1014727098  -0.0132778159  -0.0004690172
       -0.0000247853  -0.0000189232  -0.0000057589  -0.0000490962  -0.0000157908
        0.0000517544   0.0000314024  -0.0000201174   0.0000144716   0.0000772547
       -0.0000822073   0.0000418403   0.0000160852   0.0000100438   0.0000155296
        0.0001309266  -0.0000402066  -0.0000958508  -0.0000277453  -0.0000424669
       -0.0000130725   0.0000292784  -0.0000395896  -0.0000425566  -0.0000106473
        0.0000016891   0.0000025160  -0.0000417945   0.0000346802   0.0000209460
       -0.0000125140   0.0000301689   0.0000034985   0.0000057397  -0.0000253633
       -0.0000024135  -0.0000299020   0.0000298863  -0.0000286548  -0.0000419442
        0.0000378611   0.0000340504   0.0000277482   0.0000341891   0.0000314297
        0.0000279353   0.0000367944   0.0000311229   0.0000326920  -0.0000358813
        0.0000310627   0.0000367980  -0.0000355589  -0.0000362479  -0.0000273137
       -0.0000446927  -0.0000039096  -0.0000038824  -0.0000295864  -0.0000137846
        0.0000142208   0.0000299914  -0.0000448236  -0.0000207517   0.0000397207
        0.0002057011   0.0001189739   0.0001399062
       -0.0577575332   0.0440507100   0.0235099864  -0.0956413391  -0.0423810773
       -0.2179028076   0.1089850270   0.1793997471   0.5539670921   0.0095595667
       -0.0973176442  -0.2180362857   0.0631875481  -0.0314338747   0.0053909152
       -0.0105498348  -0.0172631730  -0.0454967572  -0.0046129266   0.0044231374