$hessian                                                                        
        1.1400816818   0.3907160195   0.1025237039  -1.0894230445  -0.3658009316
       -0.0961715238  -0.0556492568  -0.0271430040  -0.0069320667   0.0052999658
        0.0130882074   0.0025190061  -0.0104594743  -0.0000675821  -0.0000937680
        0.0113775052  -0.0005674745  -0.0002207061  -0.0065232207  -0.0006791381
        0.0001575248   0.0003981483   0.0004765157  -0.0003395893   0.0000157321
        0.0005189994  -0.0000652061  -0.0001515083  -0.0000542952   0.0001461892
        0.0001591921   0.0000007603   0.0000462415  -0.0001842189  -0.0000464733
       -0.0000094328   0.0004115314  -0.0000620782   0.0000184413  -0.0005392107
        0.0004105338  -0.0001545021  -0.0000004695  -0.0003806890   0.0000965241
       -0.0004644522   0.0000459185  -0.0000886700   0.0003445684   0.0002736926
       -0.0001203887   0.0002054351  -0.0003415947   0.0001077759   0.0004229865
        0.0008565943  -0.0002101183  -0.0007276855  -0.0003626386   0.0000573926
        0.0006035582  -0.0004138064   0.0001829297   0.0000165817   0.0004121113
       -0.0001402343   0.0004831385  -0.0001111895   0.0000970682  -0.0004359076
       -0.0002843815   0.0000424448  -0.0001746491   0.0003202584  -0.0001311472
       -0.0001872930  -0.0003576543   0.0001114500   0.0001055160   0.0000904423
        0.0000192071  -0.0000770760  -0.0001026748  -0.0000377908  -0.0047948304
       -0.0016468501  -0.0003636317   0.0007310945  -0.0012478971   0.0001144423
       -0.0002172067   0.0005461430   0.0001205995   0.0003073547  -0.0001845451
        0.0000101615  -0.0001231509   0.0000654507  -0.0000283607   0.0002290424
        0.0001307524  -0.0000131941  -0.0004826419  -0.0001155153   0.0001235728
        0.0001007767   0.0003023569  -0.0000637203  -0.0004021146   0.0001079163
        0.0000751197   0.0001993641  -0.0003840075   0.0001060796   0.0003061199
        0.0002504789  -0.0000993188   0.0000751164  -0.0009405885   0.0001882567
       -0.0004823911   0.0006004558  -0.0000638454   0.0006002038   0.0002072914
       -0.0001529779  -0.0001219646  -0.0003995186   0.0001302597   0.0004897607
       -0.0000259578  -0.0001030022  -0.0003075032   0.0003665283  -0.0000375419
       -0.0002366089  -0.0002113916   0.0001053843  -0.0000809080   0.0001661509
       -0.0000714871   0.0002255671  -0.0002184570  -0.0000511585  -0.0005726703
        0.0001944963  -0.0002263709   0.0051679643  -0.0001647049   0.0004005515
       -0.0054484012  -0.0010315768  -0.0005075169   0.0103843397  -0.0067225294
       -0.0010284207   0.0001039540  -0.0003005494  -0.0000834758  -0.0004917484
       -0.0000348870   0.0000258304   0.0000120198   0.0000279886  -0.0000383620
       -0.0000272807   0.0000002034  -0.0000330068   0.0000189075   0.0000087083
        0.0000199186   0.0000037471   0.0000492949   0.0000229463  -0.0000147619
        0.0000306233   0.0000045614  -0.0000508917  -0.0000103627   0.0000101226
       -0.0000512563   0.0000007903   0.0000004971  -0.0000192058  -0.0000717305
        0.0000150282   0.0000244099  -0.0000512147   0.0000187891   0.0000254163
        0.0000240412  -0.0000009468  -0.0000375394  -0.0000222123   0.0000031118
        0.0000321264  -0.0000094830  -0.0000416973   0.0000206337   0.0000008697
        0.0000342074  -0.0000443346   0.0000190092   0.0000253363  -0.0000011647
        0.0000291655  -0.0000261257  -0.0000108098  -0.0000006898  -0.0000236703
       -0.0000251730  -0.0000258147  -0.0000071691   0.0000019319   0.0000162100
       -0.0000105937  -0.0000223448   0.0000093130  -0.0000039195   0.0000054944
        0.0000404963  -0.0000155813   0.0000543746   0.0000409988  -0.0000203301
       -0.0000372990  -0.0000562792   0.0000080440  -0.0000290563   0.0000184731
        0.0000137834   0.0000026740  -0.0000314443   0.0000393888   0.0000827903
        0.0002195533   0.0000886779
        0.3907160195   0.1524641436   0.0355864137  -0.3664564277  -0.1621931533
       -0.0338729812  -0.0259867462   0.0084646220  -0.0017811324   0.0049985843
        0.0042034853   0.0005776721  -0.0034072793   0.0010102013   0.0004376908
        0.0038770299   0.0002329380   0.0000189375  -0.0021919761  -0.0003624277
       -0.0000194400   0.0000510928   0.0003813827  -0.0000955858   0.0000093780
        0.0001738969  -0.0000197779  -0.0000645383  -0.0000220842   0.0000416372
        0.0000539830   0.0000075295   0.0000076026  -0.0000759568  -0.0000139257
       -0.0000007977   0.0000838469  -0.0000296878   0.0000057367  -0.0001083877
        0.0000804106  -0.0000278562  -0.0000111375  -0.0000963644   0.0000237397
       -0.0001115513  -0.0000015382  -0.0000198625   0.0000955465   0.0000783142
       -0.0000313227   0.0000605660  -0.0000926065   0.0000305617   0.0001009421
        0.0002104051  -0.0000464151  -0.0001606145  -0.0001011863   0.0000190046
        0.0001343449  -0.0000975848   0.0000380715   0.0000090503   0.0001216467
       -0.0000402988   0.0001234988  -0.0000284740   0.0000235945  -0.0001132562
       -0.0000674719   0.0000098380  -0.0000509044   0.0000859502  -0.0000350890
       -0.0000355207  -0.0000516609   0.0000169768   0.0000249726   0.0000274509
        0.0000091933  -0.0000291150  -0.0000329946  -0.0000199244  -0.0019487176
       -0.0007054265  -0.0001427757   0.0002873417  -0.0004812054   0.0000507292
       -0.0001074675   0.0002162227   0.0000225794   0.0001111983  -0.0000572005
        0.0000002358  -0.0000732115   0.0000447136  -0.0000038305   0.0000815795
        0.0000947795  -0.0000147912  -0.0001298046  -0.0000314452   0.0000345981
        0.0000268503   0.0001080660  -0.0000239541  -0.0001167926   0.0000385895
        0.0000200256   0.0000674373  -0.0001160371   0.0000306632   0.0001071550
        0.0000825203  -0.0000342953   0.0000219155  -0.0002734426   0.0000549833
       -0.0000870993   0.0001864503  -0.0000291760   0.0001232368   0.0000540525
       -0.0000374677  -0.0000411517  -0.0001392170   0.0000448109   0.0001637203
       -0.0000096873  -0.0000259582  -0.0001130518   0.0001070401   0.0000000383
       -0.0000900917  -0.0000559267   0.0000351860  -0.0000221483  -0.0000397187
       -0.0000038552   0.0000867694  -0.0000834611  -0.0000172036  -0.0002302545
        0.0000883165  -0.0000899909   0.0016753116   0.0001567407   0.0001375107
       -0.0027378442   0.0000162081   0.0001078901   0.0014516358  -0.0043352874
       -0.0010459128   0.0002741882   0.0003812219  -0.0000062894   0.0001311700
        0.0001323798   0.0000754625   0.0000066207   0.0000145705  -0.0000072732
       -0.0000083786   0.0000071433  -0.0000010279   0.0000055540   0.0000039593
        0.0000060683   0.0000007560   0.0000140155   0.0000062724  -0.0000087292
        0.0000113704   0.0000009070  -0.0000136969  -0.0000020498   0.0000030140
       -0.0000137330  -0.0000036420   0.0000013121  -0.0000057713  -0.0000203927
        0.0000057305   0.0000108101  -0.0000143745   0.0000057419   0.0000075304
        0.0000038192   0.0000005344  -0.0000027459  -0.0000120247  -0.0000058720
        0.0000150006  -0.0000006334  -0.0000145126   0.0000018364  -0.0000095093
        0.0000204656  -0.0000178146   0.0000119563   0.0000171640   0.0000034636
        0.0000029938  -0.0000078228  -0.0000026293  -0.0000060219  -0.0000058585
       -0.0000126725  -0.0000096645  -0.0000010431  -0.0000076504   0.0000074939
       -0.0000034872  -0.0000068222   0.0000058281  -0.0000030594   0.0000022331
        0.0000174299  -0.0000072959   0.0000223485   0.0000243042  -0.0000122607
       -0.0000050328  -0.0000273451   0.0000009850  -0.0000109696   0.0000046093
        0.0000015698   0.0000073099  -0.0000145754   0.0000168802  -0.0004141350
        0.0002602775   0.0000074687
        0.1025237039   0.0355864137   0.0262930477  -0.0963043825  -0.0338570105
       -0.0415502256  -0.0066531616  -0.0017953251   0.0139352228   0.0010548607
        0.0008120390   0.0018517227  -0.0008771960   0.0004413531  -0.0013162261
        0.0011902542   0.0002485539  -0.0000319823  -0.0005937585  -0.0005707424
        0.0002634286  -0.0001161620   0.0003816831   0.0000155886   0.0000093081
        0.0000278944   0.0000228071  -0.0000350763  -0.0000206646   0.0000077994
        0.0000035257  -0.0000041085  -0.0000011983  -0.0000278986  -0.0000073092
       -0.0000041645  -0.0000295899  -0.0000327201   0.0000190758   0.0000234475
       -0.0000180480   0.0000021213  -0.0000118920  -0.0000052278   0.0000028693
        0.0000005617  -0.0000068835   0.0000024284   0.0000083012   0.0000002049
       -0.0000008928   0.0000127628  -0.0000123799   0.0000068290  -0.0000059584
       -0.0000074909   0.0000000756   0.0000361360  -0.0000105237   0.0000076557
       -0.0000325686   0.0000146960  -0.0000092864   0.0000064886   0.0000181872
       -0.0000046309   0.0000100927   0.0000039224   0.0000027617  -0.0000142268
        0.0000055465  -0.0000007518  -0.0000139491   0.0000002353   0.0000027738
        0.0000289378   0.0000714889  -0.0000174331  -0.0000045401   0.0000135498
        0.0000044205  -0.0000046409  -0.0000353252  -0.0000124359  -0.0004646452
       -0.0002646034  -0.0001765283   0.0000464295  -0.0000419641  -0.0000165216
       -0.0000458801   0.0000138662  -0.0000226697   0.0000115509  -0.0000079945
       -0.0000011359  -0.0000245311   0.0000198461   0.0000009890  -0.0000029297
        0.0000165412   0.0000105233   0.0000291928   0.0000074798  -0.0000167524
       -0.0000100550   0.0000119658   0.0000039198  -0.0000033305   0.0000098270
        0.0000004460   0.0000102508  -0.0000086894   0.0000026865   0.0000164997
        0.0000066572  -0.0000023100  -0.0000028877  -0.0000011160  -0.0000045099
        0.0000156204   0.0000022874   0.0000026975  -0.0000127743   0.0000002326
       -0.0000024390   0.0000021790  -0.0000189211   0.0000061426   0.0000128244
       -0.0000090458   0.0000012386  -0.0000137433   0.0000016947   0.0000055101
       -0.0000102014   0.0000055151   0.0000075497  -0.0000000997  -0.0000405847
        0.0000066887   0.0000063600  -0.0000152606   0.0000093551  -0.0000380357
        0.0000127784  -0.0000029797   0.0003518858   0.0002098593   0.0002465068
       -0.0005859857   0.0000023929  -0.0013164191   0.0005131381  -0.0012585661
        0.0013413314   0.0000502875  -0.0000136520   0.0004078812   0.0000261139
        0.0000652826  -0.0002148186  -0.0000021113   0.0000074666  -0.0000002478
       -0.0000064448   0.0000015129   0.0000006616   0.0000061577   0.0000002565
       -0.0000010941   0.0000010234   0.0000024737  -0.0000011412  -0.0000011576
        0.0000027952  -0.0000026650  -0.0000057501  -0.0000011147  -0.0000019339
       -0.0000056932  -0.0000016996  -0.0000014673  -0.0000020761  -0.0000077172
        0.0000012572   0.0000035516  -0.0000077280   0.0000019059   0.0000081446
        0.0000042211  -0.0000022386   0.0000020697   0.0000036464   0.0000009389
        0.0000100432   0.0000092057   0.0000081794   0.0000009980   0.0000028971
        0.0000040500  -0.0000079795   0.0000104645   0.0000059997   0.0000040959
       -0.0000013666  -0.0000039739  -0.0000023860  -0.0000018681  -0.0000018661
       -0.0000044349  -0.0000028368  -0.0000020407  -0.0000023584   0.0000021627
       -0.0000036503  -0.0000042481   0.0000021728  -0.0000022131   0.0000013801
        0.0000048113  -0.0000032264   0.0000062790   0.0000023588  -0.0000041004
        0.0000012096  -0.0000058742  -0.0000043200   0.0000030475   0.0000035508
        0.0000025786   0.0000134981   0.0000039736   0.0000096781  -0.0000774711
        0.0000183982   0.0002331470
       -1.0894230445  -0.3664564277  -0.0963043825   1.4000824465   0.4501761722
        0.1188210997  -0.2429125928  -0.0632817107  -0.0167529875  -0.0283591968
       -0.0376540402  -0.0077826880   0.0199393835  -0.0024807097  -0.0003903762
       -0.0197191373   0.0011000984   0.0004328753   0.0121994585   0.0012090448
       -0.0002630204  -0.0009945394  -0.0003037285   0.0006307303   0.0000036041
       -0.0007809408   0.0001259184   0.0001816070   0.0001175622  -0.0001593000
       -0.0002611474   0.0000172693  -0.0000853235   0.0002658678   0.0000454939
        0.0000011017  -0.0006963648   0.0000955459  -0.0000215452   0.0009058453
       -0.0006879800   0.0002874907  -0.0000165095   0.0006267492  -0.0001639689
        0.0007616867  -0.0000761434   0.0001411938  -0.0005688682  -0.0004598482
        0.0001845337  -0.0003432167   0.0005464733  -0.0001718651  -0.0007265533
       -0.0013965240   0.0003512855   0.0012423295   0.0005750262  -0.0000927690
       -0.0010037168   0.0006767831  -0.0003090667  -0.0000433540  -0.0006532507
        0.0002172059  -0.0007989426   0.0001860240  -0.0001505028   0.0007120404
        0.0004583509  -0.0000664867   0.0002781913  -0.0005362583   0.0002123754
        0.0003381902   0.0006481017  -0.0002183109  -0.0001744706  -0.0001612474
       -0.0000245581   0.0000625932   0.0000910931   0.0000192344   0.0067933569
        0.0024378020   0.0005584040  -0.0012260558   0.0019187394  -0.0001839692
        0.0003373058  -0.0008660217  -0.0001741460  -0.0005228545   0.0003161393
       -0.0000270614   0.0002258996  -0.0001153195   0.0000511619  -0.0003817911
       -0.0001975606   0.0000169788   0.0008540787   0.0001889857  -0.0002295002
       -0.0001824972  -0.0005059419   0.0001116081   0.0006518842  -0.0001831316
       -0.0001192313  -0.0003468853   0.0006071440  -0.0001638841  -0.0004948099
       -0.0004009401   0.0001598151  -0.0001243151   0.0015636301  -0.0003027375
        0.0008816866  -0.0009932394   0.0001026676  -0.0010470064  -0.0003476830
        0.0002490897   0.0001902753   0.0006242656  -0.0002023261  -0.0007813867
        0.0000693151   0.0001422154   0.0005388484  -0.0005996358   0.0000346115
        0.0003878637   0.0003350443  -0.0001677513   0.0001391923  -0.0002865782
        0.0001451932  -0.0003888965   0.0003793640   0.0000908654   0.0008561559
       -0.0002947851   0.0003544971  -0.0096180089   0.0005558958  -0.0007046988
        0.0070567110   0.0055795959   0.0014587113  -0.0568241337   0.0083007437
        0.0002566655   0.0006921576   0.0018978912   0.0004774038   0.0001485033
       -0.0002468803  -0.0001275153  -0.0000170422  -0.0000565096   0.0000464389
        0.0000368604  -0.0000260875   0.0000290255   0.0000114866  -0.0000208689
       -0.0000276832  -0.0000115504  -0.0000447979  -0.0000330194   0.0000330590
       -0.0000550851  -0.0000042057   0.0000440480   0.0000155631  -0.0000151220
        0.0000360726   0.0000051037  -0.0000040475   0.0000208473   0.0000780182
       -0.0000270585  -0.0000563352   0.0000745881  -0.0000313345  -0.0000150131
       -0.0000395975   0.0000009335   0.0000289886   0.0000404920   0.0000110772
       -0.0000667772  -0.0000121768   0.0000443392  -0.0000337076  -0.0000341134
       -0.0001098155   0.0000624273  -0.0000490865  -0.0000584779   0.0000098144
        0.0000006193   0.0000411773   0.0000125240   0.0000457690   0.0000343772
        0.0000510138   0.0000413533   0.0000086413   0.0000492289  -0.0000308364
        0.0000160720   0.0000477526  -0.0000230233   0.0000091875   0.0000028278
       -0.0000834080   0.0000287494  -0.0000840976  -0.0000768507   0.0000372791
        0.0000202284   0.0000717917  -0.0000076164   0.0000494460  -0.0000190915
       -0.0000038552  -0.0000005047   0.0000717531  -0.0000357569   0.0010215348
       -0.0012513356  -0.0002242657
       -0.3658009316  -0.1621931533  -0.0338570105   0.4501761722   0.2620186299
        0.0468466776  -0.0644269788  -0.0807214875  -0.0076036510  -0.0359075921
       -0.0229532241  -0.0050369512   0.0051277040  -0.0062371175  -0.0025581825
       -0.0065514881  -0.0012299480  -0.0001797599   0.0037925387   0.0010594414
        0.0003001196   0.0002117513  -0.0008250257   0.0000999801  -0.0002008958
       -0.0003854861   0.0000552771   0.0001951444   0.0000181289  -0.0001092288
       -0.0001385719  -0.0000457584  -0.0000313093   0.0001522555   0.0000272667
        0.0000015162  -0.0001465201   0.0000781178  -0.0000100477   0.0002134228
       -0.0001475030   0.0000601671  -0.0000039773   0.0001933854  -0.0000517652
        0.0002167832  -0.0000150984   0.0000415457  -0.0001718994  -0.0001522739
        0.0000575286  -0.0001141451   0.0001885278  -0.0000613922  -0.0001951598
       -0.0003880167   0.0000928241   0.0003053932   0.0001724049  -0.0000321780
       -0.0002518860   0.0001772839  -0.0000749927  -0.0000075739  -0.0002289967
        0.0000757028  -0.0002407900   0.0000724450  -0.0000482837   0.0002073628
        0.0001326887  -0.0000194309   0.0000906421  -0.0001775061   0.0000699465
        0.0000693549   0.0000934548  -0.0000352118  -0.0000987223  -0.0000385423
        0.0000021981   0.0000890740   0.0001161273   0.0000552288   0.0031495693
        0.0009484516   0.0001536503  -0.0004092044   0.0008458479  -0.0000794124
        0.0001544603  -0.0003463259  -0.0000560131  -0.0001798937   0.0000997573
       -0.0000019168   0.0001116085  -0.0000604596   0.0000160570  -0.0000937645
       -0.0001358911   0.0000135420   0.0002113888   0.0000342972  -0.0000624958
       -0.0000561856  -0.0001722266   0.0000390393   0.0001935809  -0.0000662100
       -0.0000337247  -0.0001104591   0.0002079315  -0.0000562460  -0.0001749118
       -0.0001515346   0.0000609676  -0.0000326204   0.0004953670  -0.0000973246
        0.0002089612  -0.0003364724   0.0000491511  -0.0002702846  -0.0001084910
        0.0000700136   0.0000835634   0.0002347133  -0.0000772530  -0.0002672020
        0.0000118689   0.0000431556   0.0001832145  -0.0001914631   0.0000023147
        0.0001418118   0.0001137643  -0.0000585986   0.0000494605   0.0000363939
        0.0000228445  -0.0001437392   0.0001348176   0.0000358497   0.0003631092
       -0.0001591482   0.0001461986  -0.0020050621   0.0000924939  -0.0001340610
        0.0069145742  -0.0002417794  -0.0009912406   0.0059752011   0.0113899064
        0.0024346678  -0.0008985043  -0.0001387956   0.0004684653  -0.0013036814
       -0.0007370317  -0.0002532466  -0.0000183211  -0.0000207164   0.0000219125
        0.0000126597  -0.0000151072  -0.0000045264   0.0000050057  -0.0000076489
       -0.0000101851  -0.0000039174  -0.0000100810  -0.0000106853   0.0000151984
       -0.0000208832  -0.0000008223   0.0000131325   0.0000015160  -0.0000039731
        0.0000066651   0.0000071906  -0.0000032868   0.0000073557   0.0000223875
       -0.0000095655  -0.0000176299   0.0000242500  -0.0000104868  -0.0000035312
       -0.0000124139  -0.0000002514   0.0000016202   0.0000207242   0.0000154251
       -0.0000143718  -0.0000111741   0.0000159158  -0.0000070149   0.0000120779
       -0.0000337123   0.0000190965  -0.0000197837  -0.0000302159  -0.0000023168
        0.0000053917   0.0000145453   0.0000035216   0.0000216976   0.0000100083
        0.0000221441   0.0000139404   0.0000022661   0.0000257879  -0.0000122314
        0.0000051201   0.0000132973  -0.0000135087   0.0000056150   0.0000000014
       -0.0000327795   0.0000113703  -0.0000303680  -0.0000327496   0.0000158177
        0.0000009886   0.0000328356  -0.0000025454   0.0000202873  -0.0000039520
        0.0000056060  -0.0000095453   0.0000303635  -0.0000228733   0.0015547969
       -0.0003878917   0.0003158267
       -0.0961715238  -0.0338729812  -0.0415502256   0.1188210997   0.0468466776
        0.0874184668  -0.0170753909  -0.0076021185  -0.0510690054  -0.0075388631
       -0.0050393186  -0.0022782394   0.0013030393  -0.0026698051   0.0066740465
       -0.0016910188  -0.0002636360   0.0001267255   0.0009179738   0.0005787630
       -0.0013304916   0.0000040718  -0.0003694122  -0.0000055817   0.0000575796
       -0.0000627736  -0.0000614012  -0.0000094864   0.0000439092   0.0000166103
        0.0000204244   0.0000555487   0.0000023916  -0.0000285863  -0.0000033098
        0.0000047144   0.0000102683   0.0000363846  -0.0000189365   0.0000536168
       -0.0000396741   0.0000443691   0.0000026584   0.0000609937  -0.0000167845
        0.0000643269  -0.0000075450   0.0000115920  -0.0000492890  -0.0000476410
        0.0000204921  -0.0000329903   0.0000573740  -0.0000226892  -0.0000580557
       -0.0001252991   0.0000345448   0.0000841490   0.0000659578  -0.0000141225
       -0.0000622578   0.0000556890  -0.0000274630   0.0000000682  -0.0000761550
        0.0000300283  -0.0000768051   0.0000245884  -0.0000192818   0.0000666164
        0.0000445294  -0.0000077179   0.0000274073  -0.0000547169   0.0000183795
        0.0000106816  -0.0000037885  -0.0000318121   0.0000179909  -0.0000687771
       -0.0000095669  -0.0000465862   0.0000386025  -0.0000137156   0.0006303205
        0.0002581364   0.0003774655   0.0000017998   0.0000431061   0.0000635817
        0.0000375932   0.0000180122   0.0000316789  -0.0000087857  -0.0000043377
        0.0000044365   0.0000560467  -0.0000309801   0.0000041205  -0.0001009981
        0.0000188825  -0.0000057478   0.0001033491   0.0000378856  -0.0000055313
       -0.0000178670  -0.0000674974   0.0000121682   0.0000730805  -0.0000169771
       -0.0000125688  -0.0000393185   0.0000685065  -0.0000162807  -0.0000543683
       -0.0000452637   0.0000151672  -0.0000186916   0.0001432317  -0.0000225566
        0.0000765450  -0.0000863673   0.0000066462  -0.0001050576  -0.0000238463
        0.0000244348   0.0000218434   0.0000710570  -0.0000210061  -0.0000837773
        0.0000061975   0.0000123235   0.0000518137  -0.0000692708   0.0000023198
        0.0000549179   0.0000456132  -0.0000277816   0.0000050273  -0.0000648239
        0.0000053752  -0.0000135118   0.0000276502  -0.0000133120   0.0000421004
       -0.0000126428  -0.0000088504  -0.0004309528  -0.0000443240  -0.0004768902
        0.0013491295  -0.0008966336   0.0065211193  -0.0002227572   0.0025489180
       -0.0003064839  -0.0001100177   0.0005190712  -0.0025167319  -0.0002921769
       -0.0002522591   0.0004612610   0.0000057764  -0.0000124886   0.0000038535
        0.0000074839  -0.0000042733   0.0000025662   0.0000005974  -0.0000011325
       -0.0000021790   0.0000002630  -0.0000026732  -0.0000032240   0.0000016823
       -0.0000046150  -0.0000001044   0.0000028636   0.0000016018  -0.0000004583
        0.0000018073   0.0000007104  -0.0000008403   0.0000014142   0.0000057269
       -0.0000030402  -0.0000047838   0.0000093951  -0.0000021049  -0.0000016278
       -0.0000062817   0.0000021025  -0.0000007675  -0.0000089945  -0.0000017642
       -0.0000175727  -0.0000042338  -0.0000086670  -0.0000005949  -0.0000047031
       -0.0000107908   0.0000090708  -0.0000148438  -0.0000024679   0.0000004447
        0.0000051659   0.0000046231   0.0000021397   0.0000053870   0.0000044231
        0.0000034040   0.0000040514   0.0000022682   0.0000045820  -0.0000018712
        0.0000035305   0.0000036830  -0.0000013759   0.0000018197  -0.0000006809
       -0.0000060384   0.0000035944  -0.0000067735  -0.0000062563   0.0000057492
       -0.0000024326   0.0000050438   0.0000049529   0.0000015390  -0.0000051101
       -0.0000061818  -0.0000146419  -0.0000029403  -0.0000086179   0.0003767187
        0.0002576390  -0.0020227257
       -0.0556492568  -0.0259867462  -0.0066531616  -0.2429125928  -0.0644269788
       -0.0170753909   0.6376819343   0.0143114963   0.0156803911  -0.0687059363
       -0.0447704860  -0.0089632161  -0.0211666385  -0.0291716619  -0.0056331785
        0.0239702728   0.0160218692   0.0027741008  -0.0152481646  -0.0069727445
       -0.0001482805   0.0000863001   0.0067804218   0.0000496915   0.0002241396
        0.0008128893  -0.0002520889  -0.0004019332  -0.0000616575   0.0004146888
        0.0003757190   0.0002126930   0.0001640931  -0.0002871337  -0.0000913693
       -0.0000527379   0.0002680378  -0.0000992387   0.0000320146  -0.0004064025
        0.0002655707  -0.0001248944   0.0000436080  -0.0002695630   0.0000746318
       -0.0003658956   0.0000059373  -0.0000570417   0.0002901980   0.0001832916
       -0.0000876072   0.0001861132  -0.0002788769   0.0000899542   0.0003612263
        0.0007165302  -0.0001795766  -0.0006141551  -0.0003188530   0.0000622489
        0.0004560863  -0.0003276048   0.0001273176   0.0000164873   0.0003368626
       -0.0001257884   0.0004013058  -0.0000686231   0.0000707742  -0.0003695832
       -0.0002146344   0.0000243055  -0.0001106194   0.0002432118  -0.0000974653
       -0.0001464139  -0.0001904386   0.0000579102   0.0002778582   0.0001054503
       -0.0000979836  -0.0001422287  -0.0002854451  -0.0001840746  -0.0166016875
       -0.0077193888  -0.0015563201   0.0018066661  -0.0027863358   0.0003009638
       -0.0004740664   0.0013502579   0.0003783307   0.0008044173  -0.0003187898
        0.0001648917  -0.0001759666   0.0001146601  -0.0000238855  -0.0002108496
        0.0004630264  -0.0000008626  -0.0000965685   0.0001404161   0.0000445122
        0.0000606369   0.0000870978  -0.0000077714  -0.0001939092   0.0001143317
        0.0000264689   0.0001113648  -0.0002239856   0.0000630172   0.0002131150
        0.0001812592  -0.0000827689  -0.0000407879  -0.0006762643   0.0001375325
       -0.0003515404   0.0004823953  -0.0000655726   0.0003426633   0.0002003313
       -0.0000750696  -0.0001129115  -0.0002839293   0.0001096689   0.0003124578
       -0.0000101433  -0.0001001422  -0.0002402159   0.0001783734  -0.0000288381
       -0.0000727580  -0.0000798689   0.0000475587  -0.0001533889  -0.0003156504
        0.0000272516   0.0004238432  -0.0006993008  -0.0001891983  -0.0014382334
        0.0004662594  -0.0006245974   0.0153511385  -0.0004865774   0.0007014374
       -0.0695272155  -0.0030528265  -0.0030261700  -0.1887929791   0.1274656196
        0.0198003379   0.0027799244   0.0214414894   0.0041931333  -0.0046719923
       -0.0019637386  -0.0007592771   0.0000413305   0.0000006987  -0.0000916036
       -0.0000127418   0.0000196526   0.0000142559   0.0000200579   0.0000070894
        0.0000265679   0.0000200224   0.0000442478   0.0000195697  -0.0000282776
        0.0000260853  -0.0000031979  -0.0000598016  -0.0000083550  -0.0000025265
       -0.0000470381  -0.0000159816  -0.0000020770  -0.0000109761  -0.0000777251
        0.0000061757   0.0000276460  -0.0000324451   0.0000100892   0.0000315046
        0.0000299676  -0.0000081720   0.0000154789  -0.0000311636  -0.0000147740
        0.0000229874   0.0000567063   0.0000431351  -0.0000646632  -0.0000057059
        0.0000131068  -0.0000430441   0.0000226644   0.0000879891   0.0000039653
        0.0000435887  -0.0000393736  -0.0000028621  -0.0000055302  -0.0000196756
       -0.0000465499  -0.0000240805  -0.0000067700  -0.0000243209   0.0000113419
       -0.0000054626  -0.0000301995   0.0000233986  -0.0000050506  -0.0000124481
        0.0000666470  -0.0000055347   0.0000337960   0.0000412186  -0.0000067232
       -0.0000663098  -0.0000644046   0.0000290013  -0.0000369829   0.0000319457
       -0.0000505633   0.0000426834  -0.0000213667   0.0000859146   0.0030632546
       -0.0006685149   0.0005814318
       -0.0271430040   0.0084646220  -0.0017953251  -0.0632817107  -0.0807214875
       -0.0076021185   0.0143114963   0.5947175821   0.0934039134  -0.0019808661
       -0.2866448309  -0.0473882397  -0.0796609396  -0.0217495846  -0.0063220188
        0.0225147161  -0.0363985797  -0.0060290985  -0.0147436151   0.0100300040
        0.0017246848   0.0113123105  -0.0158234220  -0.0023990965  -0.0028164133
       -0.0013301796   0.0003763462   0.0016418723  -0.0002548439  -0.0008107472
       -0.0007319631  -0.0007806687  -0.0002827476   0.0003372195   0.0001313499
        0.0000504478   0.0006129573   0.0002002560  -0.0000113559  -0.0004717134
        0.0005101918  -0.0001605565  -0.0000050328  -0.0002840089   0.0000897937
       -0.0002490514   0.0000760624  -0.0000569305   0.0001600722   0.0001335787
       -0.0000374192   0.0000781971  -0.0000879481   0.0000211624   0.0002556345
        0.0002970921  -0.0000652333  -0.0003419596  -0.0000800733   0.0000060861
        0.0003601321  -0.0001344377   0.0000853016   0.0000313643   0.0001108440
       -0.0000286188   0.0001904655  -0.0000424216   0.0000318960  -0.0001757544
       -0.0001864238   0.0000453933  -0.0001183815   0.0002465871  -0.0000930200
       -0.0001654158  -0.0007005232   0.0001691710  -0.0009820754   0.0000707704
        0.0003539265   0.0009195035   0.0013273363   0.0005315084   0.0089567046
        0.0110397411   0.0006723328  -0.0006268884   0.0004548903  -0.0001330165
        0.0000348472  -0.0003521729  -0.0001229340  -0.0002454402   0.0000679004
       -0.0001400352   0.0001690175  -0.0001772078  -0.0001213023   0.0000915527
       -0.0001195791   0.0000251233  -0.0002290663  -0.0000966614   0.0000934141
        0.0000366102   0.0001302765  -0.0000359263  -0.0001328277   0.0000098788
        0.0000320823   0.0000578864  -0.0000943614   0.0000260675   0.0000568489
        0.0000473535  -0.0000193118   0.0000430039  -0.0002120883   0.0000419889
       -0.0001966273   0.0001048060   0.0000000723   0.0002349352   0.0000404271
       -0.0000562118  -0.0000248248  -0.0000612928   0.0000216609   0.0001001142
       -0.0000062826  -0.0000039033  -0.0000579444   0.0001185084  -0.0000019589
       -0.0000809409  -0.0000910735   0.0000351256   0.0000136352   0.0002649646
       -0.0001061987  -0.0001646657   0.0004365799   0.0001143706   0.0004097579
       -0.0001808570   0.0003807760  -0.0101021489  -0.0060563442  -0.0013962260
        0.0330107096   0.0356388802   0.0074519385   0.0907854036  -0.1713818680
       -0.0215389963  -0.0004771039  -0.0212421566  -0.0042763169  -0.0021343114
        0.0006638434  -0.0007767142  -0.0000219271   0.0000761791   0.0000315185
        0.0000014860   0.0000599476  -0.0000521790  -0.0000246047   0.0000463774
       -0.0000233106   0.0000012443  -0.0000124712   0.0000051460   0.0000071508
        0.0000020532   0.0000043935   0.0000322273  -0.0000005572   0.0000061193
        0.0000311321   0.0000067282  -0.0000004877   0.0000100441   0.0000236261