      -----------------------------------------------------------      
     |                   =====================                   |     
     |                           x T B                           |     
     |                   =====================                   |     
     |                         S. Grimme                         |     
     |          Mulliken Center for Theoretical Chemistry        |     
     |                    University of Bonn                     |     
      -----------------------------------------------------------      

   * xtb version 6.7.1 (edcfbbe) compiled by 'albert@albert-system' on 2024-07-22

   xtb is free software: you can redistribute it and/or modify it under
   the terms of the GNU Lesser General Public License as published by
   the Free Software Foundation, either version 3 of the License, or
   (at your option) any later version.
   
   xtb is distributed in the hope that it will be useful,
   but WITHOUT ANY WARRANTY; without even the implied warranty of
   MERCHANTABILITY or FITNESS FOR A PARTICULAR PURPOSE.  See the
   GNU Lesser General Public License for more details.
   
   Cite this work as:
   * C. Bannwarth, E. Caldeweyher, S. Ehlert, A. Hansen, P. Pracht,
     J. Seibert, S. Spicher, S. Grimme, WIREs Comput. Mol. Sci., 2020, 11,
     e01493. DOI: 10.1002/wcms.1493
   
   for GFN2-xTB:
   * C. Bannwarth, S. Ehlert and S. Grimme., J. Chem. Theory Comput., 2019,
     15, 1652-1671. DOI: 10.1021/acs.jctc.8b01176
   for GFN1-xTB:
   * S. Grimme, C. Bannwarth, P. Shushkov, J. Chem. Theory Comput., 2017,
     13, 1989-2009. DOI: 10.1021/acs.jctc.7b00118
   for GFN0-xTB:
   * P. Pracht, E. Caldeweyher, S. Ehlert, S. Grimme, ChemRxiv, 2019, preprint.
     DOI: 10.26434/chemrxiv.8326202.v1
   for GFN-FF:
   * S. Spicher and S. Grimme, Angew. Chem. Int. Ed., 2020, 59, 15665-15673.
     DOI: 10.1002/anie.202004239
   
   for ALPB and GBSA implicit solvation:
   * S. Ehlert, M. Stahn, S. Spicher, S. Grimme, J. Chem. Theory Comput.,
     2021, 17, 4250-4261. DOI: 10.1021/acs.jctc.1c00471
   
   for ddCOSMO and CPCM-X implicit solvation:
   * M. Stahn, S. Ehlert, S. Grimme, J. Phys. Chem. A,
     2023, XX, XXXX-XXXX. DOI: 10.1021/acs.jpca.3c04382
   
   for DFT-D4:
   * E. Caldeweyher, C. Bannwarth and S. Grimme, J. Chem. Phys., 2017,
     147, 034112. DOI: 10.1063/1.4993215
   * E. Caldeweyher, S. Ehlert, A. Hansen, H. Neugebauer, S. Spicher,
     C. Bannwarth and S. Grimme, J. Chem. Phys., 2019, 150, 154122.
     DOI: 10.1063/1.5090222
   * E. Caldeweyher, J.-M. Mewes, S. Ehlert and S. Grimme, Phys. Chem. Chem. Phys.
     2020, 22, 8499-8512. DOI: 10.1039/D0CP00502A
   
   for sTDA-xTB:
   * S. Grimme and C. Bannwarth, J. Chem. Phys., 2016, 145, 054103.
     DOI: 10.1063/1.4959605
   
   in the mass-spec context:
   * V. Asgeirsson, C. Bauer and S. Grimme, Chem. Sci., 2017, 8, 4879.
     DOI: 10.1039/c7sc00601b
   * J. Koopman and S. Grimme, ACS Omega 2019, 4, 12, 15120-15133.
     DOI: 10.1021/acsomega.9b02011
   
   for metadynamics refer to:
   * S. Grimme, J. Chem. Theory Comput., 2019, 155, 2847-2862
     DOI: 10.1021/acs.jctc.9b00143
   
   for SPH calculations refer to:
   * S. Spicher and S. Grimme, J. Chem. Theory Comput., 2021, 17, 1701-1714
     DOI: 10.1021/acs.jctc.0c01306
   
   for ONIOM refer to:
   * C. Plett, A. Katbashev, S. Ehlert, S. Grimme, M. Bursch,
     Phys. Chem. Chem. Phys., 2023, 25, 17860-17868. DOI: 10.1039/D3CP02178E
   
   for DIPRO refer to:
   * J. Kohn, N. Gildemeister, S. Grimme, D. Fazzi, A. Hansen,
     J. Chem. Phys., 2023, just accepted.
   
   for PTB refer to:
   * S. Grimme, M. Mueller, A. Hansen, J. Chem. Phys., 2023, 158, 124111.
     DOI: 10.1063/5.0137838
   
   with help from (in alphabetical order)
   P. Atkinson, C. Bannwarth, F. Bohle, G. Brandenburg, E. Caldeweyher
   M. Checinski, S. Dohm, S. Ehlert, S. Ehrlich, I. Gerasimov, C. Hölzer
   A. Katbashev, J. Kohn, J. Koopman, C. Lavigne, S. Lehtola, F. März, M. Müller,
   F. Musil, H. Neugebauer, J. Pisarek, C. Plett, P. Pracht, F. Pultar,
   J. Seibert, P. Shushkov, S. Spicher, M. Stahn, M. Steiner, T. Strunk,
   J. Stückrath, T. Rose, and J. Unsleber
   
 * started run on 2025/09/12 at 02:10:20.927     
   ID    Z sym.   atoms
    1    6 C      1-7, 9-16, 18-31, 33-52, 54-60
    2    7 N      8, 17
    3    8 O      32, 53
    4    1 H      61-100

           -------------------------------------------------
          |                Calculation Setup                |
           -------------------------------------------------

          program call               : xtb data2507/toluene/BPPyA/BPPyA.xyz --gfn 2 --gbsa toluene --ohess vtight --parallel 40 --molden --ceasefiles --namespace data2507/toluene/BPPyA/BPPyA_toluene_S0_preOpt
          calculation namespace      : data2507/toluene/BPPyA/BPPyA_toluene_S0_preOpt
          coordinate file            : data2507/toluene/BPPyA/BPPyA.xyz
          omp threads                :                    40


           -------------------------------------------------
          |                 G F N 2 - x T B                 |
           -------------------------------------------------

        Reference                      10.1021/acs.jctc.8b01176
      * Hamiltonian:
        H0-scaling (s, p, d)           1.850000    2.230000    2.230000
        zeta-weighting                 0.500000
      * Dispersion:
        s8                             2.700000
        a1                             0.520000
        a2                             5.000000
        s9                             5.000000
      * Repulsion:
        kExp                           1.500000    1.000000
        rExp                           1.000000
      * Coulomb:
        alpha                          2.000000
        third order                    shell-resolved
        anisotropic                    true
        a3                             3.000000
        a5                             4.000000
        cn-shift                       1.200000
        cn-exp                         4.000000
        max-rad                        5.000000

      * Solvation model:               GBSA
        Solvent                        toluene
        Parameter file                 internal GFN2-xTB/GBSA
        Dielectric constant                7.0000E+00
        Reference state                gsolv [1 M gas/solution]
        Free energy shift                  4.5239E-03 Eh       2.8388E+00 kcal/mol
        Temperature                        2.9815E+02 K
        Density                            8.6700E-01 kg/L
        Solvent mass                       9.2140E+01 g/mol
        Interaction kernel             Still
        Born radius scaling (c1)           1.5686E+00
        Born radii integrator          GBOBC
        Born offset                        0.0000E+00 a0       0.0000E+00 AA
        H-bond correction              false
        Ion screening                  false
        Surface tension                    1.0000E-05 Eh       1.5569E+01 dyn/cm
        Grid points                               230 per atom

          ...................................................
          :                      SETUP                      :
          :.................................................:
          :  # basis functions                 280          :
          :  # atomic orbitals                 280          :
          :  # shells                          160          :
          :  # electrons                       286          :
          :  max. iterations                   250          :
          :  Hamiltonian                  GFN2-xTB          :
          :  restarted?                      false          :
          :  GBSA solvation                   true          :
          :  PC potential                    false          :
          :  electronic temp.          300.0000000     K    :
          :  accuracy                    1.0000000          :
          :  -> integral cutoff          0.2500000E+02      :
          :  -> integral neglect         0.1000000E-07      :
          :  -> SCF convergence          0.1000000E-05 Eh   :
          :  -> wf. convergence          0.1000000E-03 e    :
          :  Broyden damping             0.4000000          :
          :  net charge                          0          :
          :  unpaired electrons                  0          :
          ...................................................

 iter      E             dE          RMSdq      gap      omega  full diag
   1   -156.9804447 -0.156980E+03  0.392E+00    1.52       0.0  T
   2   -157.0474540 -0.670093E-01  0.232E+00    1.59       1.0  T
   3   -157.0061830  0.412710E-01  0.906E-01    1.69       1.0  T
   4   -157.0611789 -0.549960E-01  0.231E-01    1.61       1.0  T
   5   -157.0633325 -0.215359E-02  0.127E-01    1.62       1.0  T
   6   -157.0646660 -0.133344E-02  0.460E-02    1.62       1.0  T
   7   -157.0647581 -0.921340E-04  0.235E-02    1.62       1.0  T
   8   -157.0647801 -0.219991E-04  0.103E-02    1.62       1.0  T
   9   -157.0647838 -0.373093E-05  0.344E-03    1.62       2.9  T
  10   -157.0647844 -0.602958E-06  0.135E-03    1.62       7.4  T
  11   -157.0647846 -0.124535E-06  0.496E-04    1.62      20.2  T
  12   -157.0647846 -0.204369E-08  0.257E-04    1.62      38.9  T

   *** convergence criteria satisfied after 12 iterations ***

         #    Occupation            Energy/Eh            Energy/eV
      -------------------------------------------------------------
         1        2.0000           -0.7364113             -20.0388
       ...           ...                  ...                  ...
       137        2.0000           -0.3874164             -10.5421
       138        2.0000           -0.3871264             -10.5342
       139        2.0000           -0.3842662             -10.4564
       140        2.0000           -0.3832513             -10.4288
       141        2.0000           -0.3697691             -10.0619
       142        2.0000           -0.3536482              -9.6233
       143        2.0000           -0.3420247              -9.3070 (HOMO)
       144                         -0.2824590              -7.6861 (LUMO)
       145                         -0.2555478              -6.9538
       146                         -0.2549674              -6.9380
       147                         -0.2429578              -6.6112
       148                         -0.2336206              -6.3571
       ...                                ...                  ...
       280                          0.7292784              19.8447
      -------------------------------------------------------------
                  HL-Gap            0.0595656 Eh            1.6209 eV
             Fermi-level           -0.3122418 Eh           -8.4965 eV

 SCC (total)                   0 d,  0 h,  0 min,  0.184 sec
 SCC setup                      ...        0 min,  0.003 sec (  1.425%)
 Dispersion                     ...        0 min,  0.005 sec (  2.619%)
 classical contributions        ...        0 min,  0.000 sec (  0.032%)
 integral evaluation            ...        0 min,  0.011 sec (  5.916%)
 iterations                     ...        0 min,  0.146 sec ( 79.375%)
 molecular gradient             ...        0 min,  0.017 sec (  9.345%)
 printout                       ...        0 min,  0.002 sec (  1.223%)

         :::::::::::::::::::::::::::::::::::::::::::::::::::::
         ::                     SUMMARY                     ::
         :::::::::::::::::::::::::::::::::::::::::::::::::::::
         :: total energy            -154.461735597793 Eh    ::
         :: total w/o Gsasa/hb      -154.403624332462 Eh    ::
         :: gradient norm              0.139981975865 Eh/a0 ::
         :: HOMO-LUMO gap              1.620862992149 eV    ::
         ::.................................................::
         :: SCC energy              -157.062048310069 Eh    ::
         :: -> isotropic ES            0.038479512639 Eh    ::
         :: -> anisotropic ES          0.018374098793 Eh    ::
         :: -> anisotropic XC          0.076698803535 Eh    ::
         :: -> dispersion             -0.144475004884 Eh    ::
         :: -> Gsolv                  -0.060822485740 Eh    ::
         ::    -> Gelec               -0.002711220409 Eh    ::
         ::    -> Gsasa               -0.062635145203 Eh    ::
         ::    -> Ghb                  0.000000000000 Eh    ::
         ::    -> Gshift               0.004523879872 Eh    ::
         :: repulsion energy           2.600312712276 Eh    ::
         :: add. restraining           0.000000000000 Eh    ::
         :: total charge              -0.000000000000 e     ::
         :::::::::::::::::::::::::::::::::::::::::::::::::::::

      ----------------------------------------------------------- 
     |                   =====================                   |
     |                        A N C O P T                        |
     |                   =====================                   |
     |               Approximate Normal Coordinate               |
     |                Rational Function Optimizer                |
      ----------------------------------------------------------- 

Optimization log is written to '/dev/null'
      ----------------------------------------------------------- 
     |                   =====================                   |
     |                        A N C O P T                        |
     |                   =====================                   |
     |               Approximate Normal Coordinate               |
     |                Rational Function Optimizer                |
      ----------------------------------------------------------- 

          ...................................................
          :                      SETUP                      :
          :.................................................:
          :   optimization level         verytight          :
          :   max. optcycles                  2000          :
          :   ANC micro-cycles                  20          :
          :   degrees of freedom               294          :
          :.................................................:
          :   RF solver                   davidson          :
          :   write xtbopt.log                true          :
          :   linear?                        false          :
          :   energy convergence         0.1000000E-06 Eh   :
          :   grad. convergence          0.2000000E-03 Eh/α :
          :   maxmium RF displ.          1.0000000          :
          :   Hlow (freq-cutoff)         0.1000000E-01      :
          :   Hmax (freq-cutoff)         5.0000000          :
          :   S6 in model hess.         20.0000000          :
          ...................................................

generating ANC from exact Hessian ...
Using Lindh-Hessian (1995)
 Shifting diagonal of input Hessian by   9.949816463543546E-003
 Lowest  eigenvalues of input Hessian
    0.000000    0.000000    0.000000    0.000000    0.000000    0.000000
    0.010000    0.010012    0.010085    0.010163    0.010198    0.010234
    0.010301    0.010444    0.010533    0.010603    0.010677    0.010725
 Highest eigenvalues
    2.079297    2.095885    2.096166    2.121373    2.134620    2.134695
 

........................................................................
.............................. CYCLE    1 ..............................
........................................................................

 iter      E             dE          RMSdq      gap      omega  full diag
   1   -157.0647846 -0.157065E+03  0.841E-05    1.62       0.0  T
   2   -157.0647846 -0.136765E-09  0.531E-05    1.62     188.3  T
   3   -157.0647846 -0.713101E-10  0.377E-05    1.62     265.2  T
     SCC iter.                  ...        0 min,  0.040 sec
     gradient                   ...        0 min,  0.017 sec
 * total energy  :  -154.4617356 Eh     change       -0.2423832E-08 Eh
   gradient norm :     0.1399826 Eh/α   predicted     0.0000000E+00 (-100.00%)
   displ. norm   :     0.4251617 α      lambda       -0.2866276E-01
   maximum displ.:     0.1272482 α      in ANC's #49, #115, #31, ...

........................................................................
.............................. CYCLE    2 ..............................
........................................................................

 iter      E             dE          RMSdq      gap      omega  full diag
   1   -157.1604370 -0.157160E+03  0.154E-01    1.69       0.0  T
   2   -157.1606990 -0.262067E-03  0.111E-01    1.71       1.0  T
   3   -157.1607318 -0.327594E-04  0.567E-02    1.71       1.0  T
   4   -157.1608764 -0.144657E-03  0.133E-02    1.71       1.0  T
   5   -157.1608939 -0.174268E-04  0.386E-03    1.71       2.6  T
   6   -157.1608951 -0.122188E-05  0.151E-03    1.71       6.6  T
   7   -157.1608951  0.124526E-07  0.908E-04    1.71      11.0  T
   8   -157.1608951 -0.469045E-07  0.308E-04    1.71      32.5  T
     SCC iter.                  ...        0 min,  0.092 sec
     gradient                   ...        0 min,  0.017 sec
 * total energy  :  -154.4824393 Eh     change       -0.2070365E-01 Eh
   gradient norm :     0.0557237 Eh/α   predicted    -0.1695203E-01 ( -18.12%)
   displ. norm   :     0.5103757 α      lambda       -0.1187274E-01
   maximum displ.:     0.1681516 α      in ANC's #49, #24, #31, ...

........................................................................
.............................. CYCLE    3 ..............................
........................................................................

 iter      E             dE          RMSdq      gap      omega  full diag
   1   -157.2233487 -0.157223E+03  0.119E-01    1.75       0.0  T
   2   -157.2235660 -0.217301E-03  0.894E-02    1.78       1.0  T
   3   -157.2236676 -0.101568E-03  0.463E-02    1.77       1.0  T
   4   -157.2237250 -0.574216E-04  0.124E-02    1.77       1.0  T
   5   -157.2237368 -0.118451E-04  0.363E-03    1.77       2.8  T
   6   -157.2237380 -0.119220E-05  0.120E-03    1.77       8.3  T
   7   -157.2237380 -0.414531E-08  0.733E-04    1.77      13.6  T
   8   -157.2237381 -0.301233E-07  0.253E-04    1.77      39.6  T
     SCC iter.                  ...        0 min,  0.092 sec
     gradient                   ...        0 min,  0.016 sec
 * total energy  :  -154.4903690 Eh     change       -0.7929748E-02 Eh
   gradient norm :     0.0144396 Eh/α   predicted    -0.7484374E-02 (  -5.62%)
   displ. norm   :     0.4902628 α      lambda       -0.4247026E-02
   maximum displ.:     0.1656975 α      in ANC's #24, #31, #22, ...

........................................................................
.............................. CYCLE    4 ..............................
........................................................................

 iter      E             dE          RMSdq      gap      omega  full diag
   1   -157.2468137 -0.157247E+03  0.791E-02    1.78       0.0  T
   2   -157.2468817 -0.680747E-04  0.565E-02    1.80       1.0  T
   3   -157.2468868 -0.503274E-05  0.297E-02    1.79       1.0  T
   4   -157.2469360 -0.492386E-04  0.662E-03    1.79       1.5  T
   5   -157.2469392 -0.317921E-05  0.231E-03    1.79       4.3  T
   6   -157.2469397 -0.458705E-06  0.749E-04    1.79      13.3  T
   7   -157.2469397 -0.164707E-08  0.437E-04    1.79      22.9  T
     SCC iter.                  ...        0 min,  0.081 sec
     gradient                   ...        0 min,  0.016 sec
 * total energy  :  -154.4935925 Eh     change       -0.3223497E-02 Eh
   gradient norm :     0.0150450 Eh/α   predicted    -0.2633917E-02 ( -18.29%)
   displ. norm   :     0.5221035 α      lambda       -0.2760300E-02
   maximum displ.:     0.1810900 α      in ANC's #24, #22, #21, ...

........................................................................
.............................. CYCLE    5 ..............................
........................................................................

 iter      E             dE          RMSdq      gap      omega  full diag
   1   -157.2584161 -0.157258E+03  0.816E-02    1.79       0.0  T
   2   -157.2584467 -0.306039E-04  0.526E-02    1.80       1.0  T
   3   -157.2583846  0.620810E-04  0.281E-02    1.80       1.0  T
   4   -157.2584711 -0.865008E-04  0.421E-03    1.80       2.4  T
   5   -157.2584726 -0.143469E-05  0.187E-03    1.80       5.4  T
   6   -157.2584728 -0.286709E-06  0.667E-04    1.80      15.0  T
   7   -157.2584728 -0.134025E-08  0.370E-04    1.80      27.0  T
     SCC iter.                  ...        0 min,  0.081 sec
     gradient                   ...        0 min,  0.016 sec
 * total energy  :  -154.4955533 Eh     change       -0.1960812E-02 Eh
   gradient norm :     0.0090545 Eh/α   predicted    -0.1756370E-02 ( -10.43%)
   displ. norm   :     0.4100253 α      lambda       -0.1105113E-02
   maximum displ.:     0.1833040 α      in ANC's #10, #21, #22, ...

........................................................................
.............................. CYCLE    6 ..............................
........................................................................

 iter      E             dE          RMSdq      gap      omega  full diag
   1   -157.2640185 -0.157264E+03  0.639E-02    1.79       0.0  T
   2   -157.2640261 -0.754034E-05  0.387E-02    1.80       1.0  T
   3   -157.2639922  0.338056E-04  0.175E-02    1.79       1.0  T
   4   -157.2640318 -0.395025E-04  0.217E-03    1.80       4.6  T
   5   -157.2640321 -0.373722E-06  0.105E-03    1.80       9.5  T
   6   -157.2640322 -0.800401E-07  0.442E-04    1.80      22.6  T
   7   -157.2640322 -0.149416E-08  0.228E-04    1.80      43.8  T
     SCC iter.                  ...        0 min,  0.081 sec
     gradient                   ...        0 min,  0.016 sec
 * total energy  :  -154.4963200 Eh     change       -0.7667095E-03 Eh
   gradient norm :     0.0051800 Eh/α   predicted    -0.6454590E-03 ( -15.81%)
   displ. norm   :     0.3134542 α      lambda       -0.4926819E-03
   maximum displ.:     0.1801614 α      in ANC's #10, #21, #11, ...

........................................................................
.............................. CYCLE    7 ..............................
........................................................................

 iter      E             dE          RMSdq      gap      omega  full diag
   1   -157.2665211 -0.157267E+03  0.507E-02    1.79       0.0  T
   2   -157.2665232 -0.207675E-05  0.299E-02    1.79       1.0  T
   3   -157.2665127  0.105335E-04  0.944E-03    1.79       1.1  T
   4   -157.2665246 -0.119136E-04  0.109E-03    1.79       9.2  T
   5   -157.2665247 -0.790115E-07  0.557E-04    1.79      17.9  T
   6   -157.2665247 -0.166588E-07  0.278E-04    1.79      36.0  T
     SCC iter.                  ...        0 min,  0.070 sec
     gradient                   ...        0 min,  0.017 sec
 * total energy  :  -154.4966942 Eh     change       -0.3741903E-03 Eh
   gradient norm :     0.0039197 Eh/α   predicted    -0.2705646E-03 ( -27.69%)
   displ. norm   :     0.3111490 α      lambda       -0.3946329E-03
   maximum displ.:     0.1946100 α      in ANC's #10, #11, #6, ...

........................................................................
.............................. CYCLE    8 ..............................
........................................................................

 iter      E             dE          RMSdq      gap      omega  full diag
   1   -157.2673486 -0.157267E+03  0.539E-02    1.79       0.0  T
   2   -157.2673500 -0.139103E-05  0.316E-02    1.79       1.0  T
   3   -157.2673442  0.576508E-05  0.696E-03    1.79       1.4  T
   4   -157.2673508 -0.652727E-05  0.881E-04    1.79      11.3  T
   5   -157.2673508 -0.512955E-07  0.447E-04    1.79      22.4  T
   6   -157.2673508 -0.653503E-08  0.231E-04    1.79      43.2  T
     SCC iter.                  ...        0 min,  0.071 sec
     gradient                   ...        0 min,  0.016 sec
 * total energy  :  -154.4970101 Eh     change       -0.3158728E-03 Eh
   gradient norm :     0.0037117 Eh/α   predicted    -0.2164298E-03 ( -31.48%)
   displ. norm   :     0.3324632 α      lambda       -0.3601620E-03
   maximum displ.:     0.2121598 α      in ANC's #10, #11, #6, ...

........................................................................
.............................. CYCLE    9 ..............................
........................................................................

 iter      E             dE          RMSdq      gap      omega  full diag
   1   -157.2671361 -0.157267E+03  0.594E-02    1.79       0.0  T
   2   -157.2671376 -0.154879E-05  0.348E-02    1.79       1.0  T
   3   -157.2671311  0.648412E-05  0.726E-03    1.79       1.4  T
   4   -157.2671384 -0.730209E-05  0.968E-04    1.79      10.3  T
   5   -157.2671385 -0.697839E-07  0.479E-04    1.79      20.9  T
   6   -157.2671385 -0.733286E-08  0.255E-04    1.79      39.2  T
     SCC iter.                  ...        0 min,  0.069 sec
     gradient                   ...        0 min,  0.016 sec
 * total energy  :  -154.4973030 Eh     change       -0.2929492E-03 Eh
   gradient norm :     0.0037701 Eh/α   predicted    -0.2000015E-03 ( -31.73%)
   displ. norm   :     0.3572255 α      lambda       -0.3260655E-03
   maximum displ.:     0.2275623 α      in ANC's #10, #11, #6, ...

........................................................................
.............................. CYCLE   10 ..............................
........................................................................

 iter      E             dE          RMSdq      gap      omega  full diag
   1   -157.2665388 -0.157267E+03  0.639E-02    1.79       0.0  T
   2   -157.2665409 -0.203833E-05  0.375E-02    1.79       1.0  T
   3   -157.2665325  0.834126E-05  0.828E-03    1.79       1.2  T
   4   -157.2665419 -0.935914E-05  0.109E-03    1.79       9.2  T
   5   -157.2665420 -0.980427E-07  0.505E-04    1.79      19.8  T
   6   -157.2665420 -0.845375E-08  0.277E-04    1.79      36.1  T
     SCC iter.                  ...        0 min,  0.070 sec
     gradient                   ...        0 min,  0.017 sec
 * total energy  :  -154.4975717 Eh     change       -0.2686661E-03 Eh
   gradient norm :     0.0035128 Eh/α   predicted    -0.1838376E-03 ( -31.57%)
   displ. norm   :     0.3814164 α      lambda       -0.3011308E-03
   maximum displ.:     0.2414485 α      in ANC's #10, #6, #11, ...

........................................................................
.............................. CYCLE   11 ..............................
........................................................................

 iter      E             dE          RMSdq      gap      omega  full diag
   1   -157.2660286 -0.157266E+03  0.680E-02    1.79       0.0  T
   2   -157.2660311 -0.253260E-05  0.399E-02    1.79       1.0  T
   3   -157.2660220  0.915662E-05  0.876E-03    1.79       1.1  T
   4   -157.2660323 -0.102782E-04  0.121E-03    1.79       8.3  T
   5   -157.2660324 -0.129089E-06  0.526E-04    1.79      19.0  T
   6   -157.2660324 -0.950766E-08  0.286E-04    1.79      35.0  T
     SCC iter.                  ...        0 min,  0.070 sec
     gradient                   ...        0 min,  0.016 sec
 * total energy  :  -154.4978211 Eh     change       -0.2494422E-03 Eh
   gradient norm :     0.0031689 Eh/α   predicted    -0.1724700E-03 ( -30.86%)
   displ. norm   :     0.4020429 α      lambda       -0.2747443E-03
   maximum displ.:     0.2531168 α      in ANC's #10, #6, #11, ...

........................................................................
.............................. CYCLE   12 ..............................
........................................................................

 iter      E             dE          RMSdq      gap      omega  full diag
   1   -157.2657869 -0.157266E+03  0.716E-02    1.79       0.0  T
   2   -157.2657896 -0.262992E-05  0.420E-02    1.79       1.0  T
   3   -157.2657819  0.768776E-05  0.814E-03    1.79       1.2  T
   4   -157.2657906 -0.866077E-05  0.127E-03    1.79       7.9  T
   5   -157.2657907 -0.146162E-06  0.551E-04    1.79      18.2  T
   6   -157.2657907 -0.106395E-07  0.296E-04    1.79      33.8  T
     SCC iter.                  ...        0 min,  0.069 sec
     gradient                   ...        0 min,  0.016 sec
 * total energy  :  -154.4980435 Eh     change       -0.2223104E-03 Eh
   gradient norm :     0.0030290 Eh/α   predicted    -0.1595778E-03 ( -28.22%)
   displ. norm   :     0.3888220 α      lambda       -0.2183323E-03
   maximum displ.:     0.2439396 α      in ANC's #10, #6, #11, ...

........................................................................
.............................. CYCLE   13 ..............................
........................................................................

 iter      E             dE          RMSdq      gap      omega  full diag
   1   -157.2658889 -0.157266E+03  0.692E-02    1.79       0.0  T
   2   -157.2658909 -0.201574E-05  0.406E-02    1.79       1.0  T
   3   -157.2658868  0.402930E-05  0.619E-03    1.79       1.6  T
   4   -157.2658915 -0.461877E-05  0.113E-03    1.79       8.8  T
   5   -157.2658916 -0.111744E-06  0.512E-04    1.79      19.5  T
   6   -157.2658916 -0.884882E-08  0.276E-04    1.79      36.2  T
     SCC iter.                  ...        0 min,  0.070 sec
     gradient                   ...        0 min,  0.016 sec
 * total energy  :  -154.4982130 Eh     change       -0.1695479E-03 Eh
   gradient norm :     0.0028562 Eh/α   predicted    -0.1256715E-03 ( -25.88%)
   displ. norm   :     0.3338033 α      lambda       -0.1466445E-03
   maximum displ.:     0.2078333 α      in ANC's #10, #6, #11, ...

........................................................................
.............................. CYCLE   14 ..............................
........................................................................

 iter      E             dE          RMSdq      gap      omega  full diag
   1   -157.2663206 -0.157266E+03  0.593E-02    1.79       0.0  T
   2   -157.2663217 -0.114241E-05  0.347E-02    1.79       1.0  T
   3   -157.2663204  0.127506E-05  0.404E-03    1.79       2.5  T
   4   -157.2663220 -0.157420E-05  0.803E-04    1.79      12.5  T
   5   -157.2663221 -0.385516E-07  0.386E-04    1.79      25.9  T
   6   -157.2663221 -0.293008E-08  0.217E-04    1.79      46.1  T
     SCC iter.                  ...        0 min,  0.069 sec
     gradient                   ...        0 min,  0.016 sec
 * total energy  :  -154.4983234 Eh     change       -0.1103693E-03 Eh
   gradient norm :     0.0023797 Eh/α   predicted    -0.8149335E-04 ( -26.16%)
   displ. norm   :     0.2644233 α      lambda       -0.9236824E-04
   maximum displ.:     0.1607247 α      in ANC's #10, #6, #7, ...

........................................................................
.............................. CYCLE   15 ..............................
........................................................................

 iter      E             dE          RMSdq      gap      omega  full diag
   1   -157.2669041 -0.157267E+03  0.463E-02    1.79       0.0  T
   2   -157.2669047 -0.567185E-06  0.272E-02    1.79       1.0  T
   3   -157.2669042  0.492363E-06  0.288E-03    1.79       3.5  T
   4   -157.2669048 -0.660724E-06  0.541E-04    1.79      18.5  T
   5   -157.2669048 -0.828044E-08  0.272E-04    1.79      36.8  T
     SCC iter.                  ...        0 min,  0.058 sec
     gradient                   ...        0 min,  0.016 sec
 * total energy  :  -154.4983913 Eh     change       -0.6791447E-04 Eh
   gradient norm :     0.0017591 Eh/α   predicted    -0.4941516E-04 ( -27.24%)
   displ. norm   :     0.2932384 α      lambda       -0.5822332E-04
   maximum displ.:     0.1660272 α      in ANC's #10, #6, #14, ...

........................................................................
.............................. CYCLE   16 ..............................
........................................................................

 iter      E             dE          RMSdq      gap      omega  full diag
   1   -157.2675383 -0.157268E+03  0.492E-02    1.79       0.0  T
   2   -157.2675389 -0.600985E-06  0.288E-02    1.79       1.0  T
   3   -157.2675381  0.797327E-06  0.336E-03    1.79       3.0  T
   4   -157.2675391 -0.101615E-05  0.559E-04    1.79      17.9  T
   5   -157.2675391 -0.713760E-08  0.314E-04    1.79      31.9  T
   6   -157.2675391 -0.259382E-08  0.191E-04    1.79      52.4  T
     SCC iter.                  ...        0 min,  0.070 sec
     gradient                   ...        0 min,  0.016 sec
 * total energy  :  -154.4984441 Eh     change       -0.5283282E-04 Eh
   gradient norm :     0.0016014 Eh/α   predicted    -0.3022598E-04 ( -42.79%)
   displ. norm   :     0.1031066 α      lambda       -0.2375282E-04
   maximum displ.:     0.0520780 α      in ANC's #6, #10, #14, ...

........................................................................
.............................. CYCLE   17 ..............................
........................................................................

 iter      E             dE          RMSdq      gap      omega  full diag
   1   -157.2676924 -0.157268E+03  0.135E-02    1.79       0.0  T
   2   -157.2676925 -0.668944E-07  0.793E-03    1.79       1.3  T
   3   -157.2676923  0.192967E-06  0.141E-03    1.79       7.1  T
   4   -157.2676925 -0.226397E-06  0.225E-04    1.79      44.5  T
   5   -157.2676925 -0.186614E-08  0.139E-04    1.79      71.9  T
     SCC iter.                  ...        0 min,  0.058 sec
     gradient                   ...        0 min,  0.016 sec
 * total energy  :  -154.4984727 Eh     change       -0.2856867E-04 Eh
   gradient norm :     0.0012754 Eh/α   predicted    -0.1193686E-04 ( -58.22%)
   displ. norm   :     0.1681398 α      lambda       -0.3214801E-04
   maximum displ.:     0.0799215 α      in ANC's #6, #11, #12, ...

........................................................................
.............................. CYCLE   18 ..............................
........................................................................

 iter      E             dE          RMSdq      gap      omega  full diag
   1   -157.2672994 -0.157267E+03  0.199E-02    1.79       0.0  T
   2   -157.2672996 -0.162998E-06  0.117E-02    1.79       1.0  T
   3   -157.2672990  0.583847E-06  0.234E-03    1.79       4.3  T
   4   -157.2672997 -0.678395E-06  0.327E-04    1.79      30.5  T
   5   -157.2672997 -0.328606E-08  0.192E-04    1.79      52.1  T
     SCC iter.                  ...        0 min,  0.063 sec
     gradient                   ...        0 min,  0.017 sec
 * total energy  :  -154.4985062 Eh     change       -0.3349650E-04 Eh
   gradient norm :     0.0011319 Eh/α   predicted    -0.1627718E-04 ( -51.41%)
   displ. norm   :     0.1401509 α      lambda       -0.1774519E-04
   maximum displ.:     0.0697006 α      in ANC's #6, #11, #12, ...

........................................................................
.............................. CYCLE   19 ..............................
........................................................................

 iter      E             dE          RMSdq      gap      omega  full diag
   1   -157.2672888 -0.157267E+03  0.162E-02    1.79       0.0  T
   2   -157.2672889 -0.102692E-06  0.954E-03    1.79       1.0  T
   3   -157.2672886  0.329696E-06  0.175E-03    1.79       5.7  T
   4   -157.2672890 -0.386088E-06  0.243E-04    1.79      41.2  T
   5   -157.2672890 -0.131911E-08  0.146E-04    1.79      68.4  T
     SCC iter.                  ...        0 min,  0.058 sec
     gradient                   ...        0 min,  0.016 sec
 * total energy  :  -154.4985265 Eh     change       -0.2033140E-04 Eh
   gradient norm :     0.0011736 Eh/α   predicted    -0.8950910E-05 ( -55.97%)
   displ. norm   :     0.1722036 α      lambda       -0.2061169E-04
   maximum displ.:     0.0865753 α      in ANC's #6, #11, #12, ...

........................................................................
.............................. CYCLE   20 ..............................
........................................................................

 iter      E             dE          RMSdq      gap      omega  full diag
   1   -157.2671173 -0.157267E+03  0.210E-02    1.79       0.0  T
   2   -157.2671175 -0.159348E-06  0.124E-02    1.79       1.0  T
   3   -157.2671171  0.416348E-06  0.199E-03    1.79       5.0  T
   4   -157.2671176 -0.495570E-06  0.291E-04    1.79      34.4  T
   5   -157.2671176 -0.176948E-08  0.175E-04    1.79      57.3  T
     SCC iter.                  ...        0 min,  0.059 sec
     gradient                   ...        0 min,  0.016 sec
 * total energy  :  -154.4985492 Eh     change       -0.2267897E-04 Eh
   gradient norm :     0.0011189 Eh/α   predicted    -0.1044396E-04 ( -53.95%)
   displ. norm   :     0.2040664 α      lambda       -0.2181111E-04
   maximum displ.:     0.1035271 α      in ANC's #6, #11, #12, ...
 * RMSD in coord.:     0.4470830 α      energy gain  -0.3681359E-01 Eh

generating ANC from exact Hessian ...
Using Lindh-Hessian (1995)
 Shifting diagonal of input Hessian by   9.950412479335424E-003
 Lowest  eigenvalues of input Hessian
    0.000000    0.000000    0.000000    0.000000    0.000000    0.000000
    0.010000    0.010015    0.010106    0.010210    0.010243    0.010310
    0.010388    0.010536    0.010669    0.010786    0.010857    0.010888
 Highest eigenvalues
    2.147960    2.151281    2.160513    2.167361    2.168817    2.189206
 

........................................................................
.............................. CYCLE   21 ..............................
........................................................................

 iter      E             dE          RMSdq      gap      omega  full diag
   1   -157.2668299 -0.157267E+03  0.264E-02    1.79       0.0  T
   2   -157.2668301 -0.217117E-06  0.155E-02    1.79       1.0  T
   3   -157.2668297  0.371134E-06  0.208E-03    1.79       4.8  T
   4   -157.2668302 -0.461796E-06  0.344E-04    1.79      29.1  T
   5   -157.2668302 -0.218964E-08  0.207E-04    1.79      48.3  T
     SCC iter.                  ...        0 min,  0.060 sec
     gradient                   ...        0 min,  0.017 sec
 * total energy  :  -154.4985704 Eh     change       -0.2119411E-04 Eh
   gradient norm :     0.0011216 Eh/α   predicted     0.0000000E+00 (-100.00%)
   displ. norm   :     0.0278603 α      lambda       -0.6629905E-05
   maximum displ.:     0.0152310 α      in ANC's #14, #6, #16, ...

........................................................................
.............................. CYCLE   22 ..............................
........................................................................

 iter      E             dE          RMSdq      gap      omega  full diag
   1   -157.2672592 -0.157267E+03  0.614E-03    1.79       0.0  T
   2   -157.2672592 -0.234255E-07  0.363E-03    1.79       2.8  T
   3   -157.2672591  0.851611E-07  0.924E-04    1.79      10.8  T
   4   -157.2672592 -0.973095E-07  0.135E-04    1.79      74.2  T
     SCC iter.                  ...        0 min,  0.047 sec
     gradient                   ...        0 min,  0.017 sec
 * total energy  :  -154.4985778 Eh     change       -0.7458909E-05 Eh
   gradient norm :     0.0004195 Eh/α   predicted    -0.3382762E-05 ( -54.65%)
   displ. norm   :     0.0665882 α      lambda       -0.9170360E-05
   maximum displ.:     0.0369924 α      in ANC's #14, #6, #16, ...

........................................................................
.............................. CYCLE   23 ..............................
........................................................................

 iter      E             dE          RMSdq      gap      omega  full diag
   1   -157.2674532 -0.157267E+03  0.119E-02    1.79       0.0  T
   2   -157.2674532 -0.613505E-07  0.702E-03    1.79       1.4  T
   3   -157.2674531  0.163567E-06  0.128E-03    1.79       7.8  T
   4   -157.2674533 -0.192858E-06  0.184E-04    1.79      54.4  T
   5   -157.2674533 -0.143626E-08  0.103E-04    1.79      96.8  T
     SCC iter.                  ...        0 min,  0.058 sec
     gradient                   ...        0 min,  0.016 sec
 * total energy  :  -154.4985868 Eh     change       -0.8948338E-05 Eh
   gradient norm :     0.0008484 Eh/α   predicted    -0.4596938E-05 ( -48.63%)
   displ. norm   :     0.0493580 α      lambda       -0.3782728E-05
   maximum displ.:     0.0247081 α      in ANC's #14, #6, #4, ...

........................................................................
.............................. CYCLE   24 ..............................
........................................................................

 iter      E             dE          RMSdq      gap      omega  full diag
   1   -157.2672814 -0.157267E+03  0.814E-03    1.79       0.0  T
   2   -157.2672815 -0.200254E-07  0.478E-03    1.79       2.1  T
   3   -157.2672814  0.341342E-07  0.633E-04    1.79      15.8  T
   4   -157.2672815 -0.423623E-07  0.111E-04    1.79      90.4  T
     SCC iter.                  ...        0 min,  0.047 sec
     gradient                   ...        0 min,  0.017 sec
 * total energy  :  -154.4985910 Eh     change       -0.4162120E-05 Eh
   gradient norm :     0.0005678 Eh/α   predicted    -0.1893841E-05 ( -54.50%)
   displ. norm   :     0.0563462 α      lambda       -0.3444560E-05
   maximum displ.:     0.0279639 α      in ANC's #6, #14, #4, ...

........................................................................
.............................. CYCLE   25 ..............................
........................................................................

 iter      E             dE          RMSdq      gap      omega  full diag
   1   -157.2672381 -0.157267E+03  0.819E-03    1.79       0.0  T
   2   -157.2672381 -0.160241E-07  0.481E-03    1.79       2.1  T
   3   -157.2672380  0.378432E-07  0.638E-04    1.79      15.7  T
   4   -157.2672381 -0.449512E-07  0.126E-04    1.79      79.1  T
     SCC iter.                  ...        0 min,  0.048 sec
     gradient                   ...        0 min,  0.016 sec
 * total energy  :  -154.4985949 Eh     change       -0.3900505E-05 Eh
   gradient norm :     0.0002939 Eh/α   predicted    -0.1725651E-05 ( -55.76%)
   displ. norm   :     0.0638016 α      lambda       -0.3387617E-05
   maximum displ.:     0.0333399 α      in ANC's #6, #4, #2, ...

........................................................................
.............................. CYCLE   26 ..............................
........................................................................

 iter      E             dE          RMSdq      gap      omega  full diag
   1   -157.2671482 -0.157267E+03  0.771E-03    1.79       0.0  T
   2   -157.2671482 -0.148637E-07  0.453E-03    1.79       2.2  T
   3   -157.2671481  0.556011E-07  0.687E-04    1.79      14.6  T
   4   -157.2671482 -0.638247E-07  0.133E-04    1.79      75.3  T
     SCC iter.                  ...        0 min,  0.047 sec
     gradient                   ...        0 min,  0.016 sec
 * total energy  :  -154.4985989 Eh     change       -0.3998940E-05 Eh
   gradient norm :     0.0004492 Eh/α   predicted    -0.1697271E-05 ( -57.56%)
   displ. norm   :     0.0814880 α      lambda       -0.3943414E-05
   maximum displ.:     0.0428045 α      in ANC's #6, #4, #2, ...

........................................................................
.............................. CYCLE   27 ..............................
........................................................................

 iter      E             dE          RMSdq      gap      omega  full diag
   1   -157.2671201 -0.157267E+03  0.831E-03    1.79       0.0  T
   2   -157.2671201 -0.227833E-07  0.489E-03    1.79       2.0  T
   3   -157.2671200  0.931598E-07  0.866E-04    1.79      11.6  T
   4   -157.2671201 -0.106317E-06  0.159E-04    1.79      63.1  T
     SCC iter.                  ...        0 min,  0.047 sec
     gradient                   ...        0 min,  0.016 sec
 * total energy  :  -154.4986036 Eh     change       -0.4757006E-05 Eh
   gradient norm :     0.0006287 Eh/α   predicted    -0.1990355E-05 ( -58.16%)
   displ. norm   :     0.1076156 α      lambda       -0.4765505E-05
   maximum displ.:     0.0561805 α      in ANC's #6, #4, #2, ...

........................................................................
.............................. CYCLE   28 ..............................
........................................................................

 iter      E             dE          RMSdq      gap      omega  full diag
   1   -157.2671397 -0.157267E+03  0.982E-03    1.79       0.0  T
   2   -157.2671397 -0.417820E-07  0.578E-03    1.79       1.7  T
   3   -157.2671396  0.131140E-06  0.108E-03    1.79       9.3  T
   4   -157.2671398 -0.152952E-06  0.182E-04    1.79      54.9  T
   5   -157.2671398 -0.105044E-08  0.118E-04    1.79      85.1  T
     SCC iter.                  ...        0 min,  0.058 sec
     gradient                   ...        0 min,  0.016 sec
 * total energy  :  -154.4986092 Eh     change       -0.5637969E-05 Eh
   gradient norm :     0.0005899 Eh/α   predicted    -0.2395132E-05 ( -57.52%)
   displ. norm   :     0.1307276 α      lambda       -0.5062833E-05
   maximum displ.:     0.0677982 α      in ANC's #6, #2, #4, ...

........................................................................
.............................. CYCLE   29 ..............................
........................................................................

 iter      E             dE          RMSdq      gap      omega  full diag
   1   -157.2671508 -0.157267E+03  0.112E-02    1.79       0.0  T
   2   -157.2671509 -0.606786E-07  0.657E-03    1.79       1.5  T
   3   -157.2671507  0.144367E-06  0.124E-03    1.79       8.1  T
   4   -157.2671509 -0.173555E-06  0.183E-04    1.79      54.8  T
   5   -157.2671509 -0.385199E-09  0.107E-04    1.79      93.5  T
     SCC iter.                  ...        0 min,  0.059 sec
     gradient                   ...        0 min,  0.018 sec
 * total energy  :  -154.4986151 Eh     change       -0.5839047E-05 Eh
   gradient norm :     0.0004079 Eh/α   predicted    -0.2554816E-05 ( -56.25%)
   displ. norm   :     0.1355592 α      lambda       -0.4551341E-05
   maximum displ.:     0.0697089 α      in ANC's #6, #2, #4, ...

........................................................................
.............................. CYCLE   30 ..............................
........................................................................

 iter      E             dE          RMSdq      gap      omega  full diag
   1   -157.2672098 -0.157267E+03  0.112E-02    1.79       0.0  T
   2   -157.2672099 -0.582857E-07  0.656E-03    1.79       1.5  T
   3   -157.2672098  0.109605E-06  0.120E-03    1.79       8.4  T
   4   -157.2672099 -0.134615E-06  0.191E-04    1.79      52.4  T
   5   -157.2672099 -0.218705E-09  0.123E-04    1.79      81.1  T
     SCC iter.                  ...        0 min,  0.059 sec
     gradient                   ...        0 min,  0.016 sec
 * total energy  :  -154.4986203 Eh     change       -0.5176809E-05 Eh
   gradient norm :     0.0003305 Eh/α   predicted    -0.2294969E-05 ( -55.67%)
   displ. norm   :     0.1321749 α      lambda       -0.4046201E-05
   maximum displ.:     0.0664675 α      in ANC's #6, #2, #4, ...

........................................................................
.............................. CYCLE   31 ..............................
........................................................................

 iter      E             dE          RMSdq      gap      omega  full diag
   1   -157.2671832 -0.157267E+03  0.108E-02    1.79       0.0  T
   2   -157.2671833 -0.487193E-07  0.634E-03    1.79       1.6  T
   3   -157.2671832  0.704872E-07  0.978E-04    1.79      10.2  T
   4   -157.2671833 -0.894115E-07  0.176E-04    1.79      56.8  T
     SCC iter.                  ...        0 min,  0.047 sec
     gradient                   ...        0 min,  0.016 sec
 * total energy  :  -154.4986248 Eh     change       -0.4570329E-05 Eh
   gradient norm :     0.0004161 Eh/α   predicted    -0.2040120E-05 ( -55.36%)
   displ. norm   :     0.1182694 α      lambda       -0.3510426E-05
   maximum displ.:     0.0563619 α      in ANC's #6, #2, #1, ...

........................................................................
.............................. CYCLE   32 ..............................
........................................................................

 iter      E             dE          RMSdq      gap      omega  full diag
   1   -157.2671099 -0.157267E+03  0.100E-02    1.79       0.0  T
   2   -157.2671099 -0.344616E-07  0.590E-03    1.79       1.7  T
   3   -157.2671098  0.761767E-07  0.920E-04    1.79      10.9  T
   4   -157.2671099 -0.910369E-07  0.172E-04    1.79      58.0  T
     SCC iter.                  ...        0 min,  0.048 sec
     gradient                   ...        0 min,  0.016 sec
 * total energy  :  -154.4986286 Eh     change       -0.3796647E-05 Eh
   gradient norm :     0.0004343 Eh/α   predicted    -0.1766853E-05 ( -53.46%)
   displ. norm   :     0.0849781 α      lambda       -0.2692640E-05
   maximum displ.:     0.0404793 α      in ANC's #2, #6, #1, ...

........................................................................
.............................. CYCLE   33 ..............................
........................................................................

 iter      E             dE          RMSdq      gap      omega  full diag
   1   -157.2669905 -0.157267E+03  0.817E-03    1.79       0.0  T
   2   -157.2669905 -0.202589E-07  0.482E-03    1.79       2.1  T
   3   -157.2669905  0.601441E-07  0.742E-04    1.79      13.5  T
   4   -157.2669905 -0.700186E-07  0.136E-04    1.79      73.7  T
     SCC iter.                  ...        0 min,  0.047 sec
     gradient                   ...        0 min,  0.016 sec
 * total energy  :  -154.4986316 Eh     change       -0.2948108E-05 Eh
   gradient norm :     0.0003184 Eh/α   predicted    -0.1355235E-05 ( -54.03%)
   displ. norm   :     0.0689673 α      lambda       -0.2488843E-05
   maximum displ.:     0.0341222 α      in ANC's #2, #1, #3, ...

........................................................................
.............................. CYCLE   34 ..............................
........................................................................

 iter      E             dE          RMSdq      gap      omega  full diag
   1   -157.2668211 -0.157267E+03  0.785E-03    1.79       0.0  T
   2   -157.2668211 -0.167530E-07  0.463E-03    1.79       2.2  T
   3   -157.2668211  0.432057E-07  0.647E-04    1.79      15.5  T
   4   -157.2668211 -0.505158E-07  0.134E-04    1.79      74.4  T
     SCC iter.                  ...        0 min,  0.047 sec
     gradient                   ...        0 min,  0.017 sec
 * total energy  :  -154.4986343 Eh     change       -0.2733754E-05 Eh
   gradient norm :     0.0002318 Eh/α   predicted    -0.1247528E-05 ( -54.37%)
   displ. norm   :     0.0655324 α      lambda       -0.2439436E-05
   maximum displ.:     0.0324494 α      in ANC's #2, #1, #29, ...

........................................................................
.............................. CYCLE   35 ..............................
........................................................................

 iter      E             dE          RMSdq      gap      omega  full diag
   1   -157.2666860 -0.157267E+03  0.806E-03    1.79       0.0  T
   2   -157.2666860 -0.166989E-07  0.475E-03    1.79       2.1  T
   3   -157.2666860  0.350384E-07  0.618E-04    1.79      16.2  T
   4   -157.2666860 -0.409197E-07  0.155E-04    1.79      64.7  T
     SCC iter.                  ...        0 min,  0.047 sec
     gradient                   ...        0 min,  0.016 sec
 * total energy  :  -154.4986370 Eh     change       -0.2726089E-05 Eh
   gradient norm :     0.0003159 Eh/α   predicted    -0.1225910E-05 ( -55.03%)
   displ. norm   :     0.0704004 α      lambda       -0.2441666E-05
   maximum displ.:     0.0356252 α      in ANC's #2, #1, #29, ...

........................................................................
.............................. CYCLE   36 ..............................
........................................................................

 iter      E             dE          RMSdq      gap      omega  full diag
   1   -157.2666231 -0.157267E+03  0.839E-03    1.79       0.0  T
   2   -157.2666231 -0.219603E-07  0.495E-03    1.79       2.0  T
   3   -157.2666230  0.600675E-07  0.731E-04    1.79      13.7  T
   4   -157.2666231 -0.683088E-07  0.158E-04    1.79      63.2  T
     SCC iter.                  ...        0 min,  0.047 sec
     gradient                   ...        0 min,  0.016 sec
 * total energy  :  -154.4986398 Eh     change       -0.2720855E-05 Eh
   gradient norm :     0.0003964 Eh/α   predicted    -0.1224231E-05 ( -55.01%)
   displ. norm   :     0.0658073 α      lambda       -0.2136620E-05
   maximum displ.:     0.0345106 α      in ANC's #2, #1, #29, ...

........................................................................
.............................. CYCLE   37 ..............................
........................................................................

 iter      E             dE          RMSdq      gap      omega  full diag
   1   -157.2667434 -0.157267E+03  0.740E-03    1.79       0.0  T
   2   -157.2667434 -0.254335E-07  0.438E-03    1.79       2.3  T
   3   -157.2667433  0.113283E-06  0.960E-04    1.79      10.4  T
   4   -157.2667434 -0.127545E-06  0.133E-04    1.79      75.1  T
     SCC iter.                  ...        0 min,  0.047 sec
     gradient                   ...        0 min,  0.016 sec
 * total energy  :  -154.4986421 Eh     change       -0.2311650E-05 Eh
   gradient norm :     0.0003329 Eh/α   predicted    -0.1072482E-05 ( -53.61%)
   displ. norm   :     0.0518687 α      lambda       -0.1474273E-05
   maximum displ.:     0.0291599 α      in ANC's #2, #1, #29, ...

........................................................................
.............................. CYCLE   38 ..............................
........................................................................

 iter      E             dE          RMSdq      gap      omega  full diag
   1   -157.2669186 -0.157267E+03  0.537E-03    1.79       0.0  T
   2   -157.2669186 -0.217292E-07  0.318E-03    1.79       3.1  T
   3   -157.2669185  0.125700E-06  0.105E-03    1.79       9.5  T
   4   -157.2669186 -0.141753E-06  0.118E-04    1.79      84.7  T
   5   -157.2669186 -0.778670E-09  0.645E-05    1.79     155.0  T
     SCC iter.                  ...        0 min,  0.058 sec
     gradient                   ...        0 min,  0.015 sec
 * total energy  :  -154.4986436 Eh     change       -0.1553062E-05 Eh
   gradient norm :     0.0002025 Eh/α   predicted    -0.7409071E-06 ( -52.29%)
   displ. norm   :     0.0392865 α      lambda       -0.9596565E-06
   maximum displ.:     0.0236548 α      in ANC's #2, #1, #3, ...

........................................................................
.............................. CYCLE   39 ..............................
........................................................................

 iter      E             dE          RMSdq      gap      omega  full diag
   1   -157.2670511 -0.157267E+03  0.366E-03    1.79       0.0  T
   2   -157.2670511 -0.103863E-07  0.217E-03    1.79       4.6  T
   3   -157.2670510  0.617420E-07  0.773E-04    1.79      12.9  T
   4   -157.2670511 -0.697892E-07  0.988E-05    1.79     101.2  T
     SCC iter.                  ...        0 min,  0.047 sec
     gradient                   ...        0 min,  0.016 sec
 * total energy  :  -154.4986447 Eh     change       -0.1101776E-05 Eh
   gradient norm :     0.0001721 Eh/α   predicted    -0.4828058E-06 ( -56.18%)
   displ. norm   :     0.0437805 α      lambda       -0.1041560E-05
   maximum displ.:     0.0270891 α      in ANC's #2, #1, #32, ...

........................................................................
.............................. CYCLE   40 ..............................
........................................................................

 iter      E             dE          RMSdq      gap      omega  full diag
   1   -157.2671614 -0.157267E+03  0.377E-03    1.79       0.0  T
   2   -157.2671614 -0.672193E-08  0.224E-03    1.79       4.5  T
   3   -157.2671613  0.664481E-07  0.811E-04    1.79      12.3  T
   4   -157.2671614 -0.737137E-07  0.103E-04    1.79      97.2  T
     SCC iter.                  ...        0 min,  0.047 sec
     gradient                   ...        0 min,  0.016 sec
 * total energy  :  -154.4986460 Eh     change       -0.1297979E-05 Eh
   gradient norm :     0.0002511 Eh/α   predicted    -0.5251279E-06 ( -59.54%)
   displ. norm   :     0.0696302 α      lambda       -0.1671139E-05
   maximum displ.:     0.0430942 α      in ANC's #2, #1, #32, ...

........................................................................
.............................. CYCLE   41 ..............................
........................................................................

 iter      E             dE          RMSdq      gap      omega  full diag
   1   -157.2671763 -0.157267E+03  0.593E-03    1.79       0.0  T
   2   -157.2671763 -0.931468E-08  0.352E-03    1.79       2.8  T
   3   -157.2671762  0.833203E-07  0.910E-04    1.79      11.0  T
   4   -157.2671763 -0.922148E-07  0.135E-04    1.79      74.0  T
     SCC iter.                  ...        0 min,  0.047 sec
     gradient                   ...        0 min,  0.016 sec
 * total energy  :  -154.4986481 Eh     change       -0.2091784E-05 Eh
   gradient norm :     0.0003836 Eh/α   predicted    -0.8391693E-06 ( -59.88%)
   displ. norm   :     0.1159327 α      lambda       -0.2609605E-05
   maximum displ.:     0.0719557 α      in ANC's #2, #1, #32, ...

........................................................................
.............................. CYCLE   42 ..............................
........................................................................

 iter      E             dE          RMSdq      gap      omega  full diag
   1   -157.2670829 -0.157267E+03  0.986E-03    1.79       0.0  T
   2   -157.2670829 -0.201486E-07  0.586E-03    1.79       1.7  T
   3   -157.2670828  0.108826E-06  0.107E-03    1.79       9.4  T
   4   -157.2670829 -0.123055E-06  0.199E-04    1.79      50.4  T
   5   -157.2670829 -0.140790E-08  0.116E-04    1.79      86.4  T
     SCC iter.                  ...        0 min,  0.058 sec
     gradient                   ...        0 min,  0.016 sec
 * total energy  :  -154.4986513 Eh     change       -0.3144606E-05 Eh
   gradient norm :     0.0005254 Eh/α   predicted    -0.1314605E-05 ( -58.19%)
   displ. norm   :     0.1531443 α      lambda       -0.3208995E-05
   maximum displ.:     0.0961056 α      in ANC's #2, #1, #32, ...
 * RMSD in coord.:     0.1491328 α      energy gain  -0.1020704E-03 Eh

generating ANC from exact Hessian ...
Using Lindh-Hessian (1995)
 Shifting diagonal of input Hessian by   9.950438287518350E-003
 Lowest  eigenvalues of input Hessian
    0.000000    0.000000    0.000000    0.000000    0.000000    0.000000
    0.010000    0.010015    0.010108    0.010211    0.010241    0.010317
    0.010388    0.010529    0.010669    0.010791    0.010855    0.010895
 Highest eigenvalues
    2.147808    2.151119    2.160374    2.167323    2.168283    2.189421
 

........................................................................
.............................. CYCLE   43 ..............................
........................................................................

 iter      E             dE          RMSdq      gap      omega  full diag
   1   -157.2668816 -0.157267E+03  0.131E-02    1.79       0.0  T
   2   -157.2668817 -0.363534E-07  0.777E-03    1.79       1.3  T
   3   -157.2668816  0.902123E-07  0.104E-03    1.79       9.6  T
   4   -157.2668817 -0.108734E-06  0.243E-04    1.79      41.1  T
   5   -157.2668817 -0.128250E-08  0.152E-04    1.79      65.6  T
     SCC iter.                  ...        0 min,  0.058 sec
     gradient                   ...        0 min,  0.016 sec
 * total energy  :  -154.4986546 Eh     change       -0.3357724E-05 Eh
   gradient norm :     0.0006709 Eh/α   predicted     0.0000000E+00 (-100.00%)
   displ. norm   :     0.0126896 α      lambda       -0.4943250E-06
   maximum displ.:     0.0062436 α      in ANC's #16, #23, #15, ...

........................................................................
.............................. CYCLE   44 ..............................
........................................................................

 iter      E             dE          RMSdq      gap      omega  full diag
   1   -157.2671280 -0.157267E+03  0.240E-03    1.79       0.0  T
   2   -157.2671281 -0.191433E-07  0.139E-03    1.79       7.2  T
   3   -157.2671280  0.307207E-07  0.632E-04    1.79      15.8  T
   4   -157.2671281 -0.349452E-07  0.162E-04    1.79      61.7  T
     SCC iter.                  ...        0 min,  0.047 sec
     gradient                   ...        0 min,  0.016 sec
 * total energy  :  -154.4986565 Eh     change       -0.1850689E-05 Eh
   gradient norm :     0.0002422 Eh/α   predicted    -0.8876069E-06 ( -52.04%)
   displ. norm   :     0.0221714 α      lambda       -0.1432684E-05
   maximum displ.:     0.0114257 α      in ANC's #16, #23, #15, ...

........................................................................
.............................. CYCLE   45 ..............................
........................................................................

 iter      E             dE          RMSdq      gap      omega  full diag
   1   -157.2670965 -0.157267E+03  0.359E-03    1.79       0.0  T
   2   -157.2670965 -0.788881E-08  0.211E-03    1.79       4.7  T
   3   -157.2670964  0.744779E-07  0.844E-04    1.79      11.8  T
   4   -157.2670965 -0.831062E-07  0.113E-04    1.79      88.6  T
     SCC iter.                  ...        0 min,  0.047 sec
     gradient                   ...        0 min,  0.016 sec
 * total energy  :  -154.4986580 Eh     change       -0.1481871E-05 Eh
   gradient norm :     0.0002934 Eh/α   predicted    -0.7172112E-06 ( -51.60%)
   displ. norm   :     0.0221005 α      lambda       -0.7938779E-06
   maximum displ.:     0.0113891 α      in ANC's #16, #5, #23, ...

........................................................................
.............................. CYCLE   46 ..............................
........................................................................

 iter      E             dE          RMSdq      gap      omega  full diag
   1   -157.2669913 -0.157267E+03  0.336E-03    1.79       0.0  T
   2   -157.2669913 -0.451618E-08  0.198E-03    1.79       5.1  T
   3   -157.2669913  0.308281E-07  0.536E-04    1.79      18.6  T
   4   -157.2669913 -0.341826E-07  0.812E-05    1.79     123.2  T
     SCC iter.                  ...        0 min,  0.047 sec
     gradient                   ...        0 min,  0.016 sec
 * total energy  :  -154.4986588 Eh     change       -0.8297215E-06 Eh
   gradient norm :     0.0002225 Eh/α   predicted    -0.4029201E-06 ( -51.44%)
   displ. norm   :     0.0224588 α      lambda       -0.5905745E-06
   maximum displ.:     0.0099618 α      in ANC's #16, #5, #2, ...

........................................................................
.............................. CYCLE   47 ..............................
........................................................................

 iter      E             dE          RMSdq      gap      omega  full diag
   1   -157.2669355 -0.157267E+03  0.317E-03    1.79       0.0  T
   2   -157.2669355 -0.270913E-08  0.187E-03    1.79       5.4  T
   3   -157.2669355  0.360654E-08  0.197E-04    1.79      50.8  T
   4   -157.2669356 -0.452326E-08  0.544E-05    1.79     183.9  T
     SCC iter.                  ...        0 min,  0.047 sec
     gradient                   ...        0 min,  0.016 sec
 * total energy  :  -154.4986594 Eh     change       -0.6668151E-06 Eh
   gradient norm :     0.0001785 Eh/α   predicted    -0.2993433E-06 ( -55.11%)
   displ. norm   :     0.0311756 α      lambda       -0.7449095E-06
   maximum displ.:     0.0121232 α      in ANC's #2, #5, #16, ...

........................................................................
.............................. CYCLE   48 ..............................
........................................................................

 iter      E             dE          RMSdq      gap      omega  full diag
   1   -157.2669142 -0.157267E+03  0.416E-03    1.79       0.0  T
   2   -157.2669142 -0.450140E-08  0.245E-03    1.79       4.1  T
   3   -157.2669142  0.863938E-08  0.304E-04    1.79      32.9  T
   4   -157.2669142 -0.101571E-07  0.761E-05    1.79     131.5  T
     SCC iter.                  ...        0 min,  0.047 sec
     gradient                   ...        0 min,  0.016 sec
 * total energy  :  -154.4986603 Eh     change       -0.8182552E-06 Eh
   gradient norm :     0.0002269 Eh/α   predicted    -0.3731878E-06 ( -54.39%)
   displ. norm   :     0.0347763 α      lambda       -0.7651760E-06
   maximum displ.:     0.0150124 α      in ANC's #2, #5, #6, ...

........................................................................
.............................. CYCLE   49 ..............................
........................................................................

 iter      E             dE          RMSdq      gap      omega  full diag
   1   -157.2669614 -0.157267E+03  0.438E-03    1.79       0.0  T
   2   -157.2669614 -0.532819E-08  0.259E-03    1.79       3.9  T
   3   -157.2669613  0.437107E-07  0.640E-04    1.79      15.6  T
   4   -157.2669614 -0.482042E-07  0.833E-05    1.79     120.1  T
     SCC iter.                  ...        0 min,  0.047 sec
     gradient                   ...        0 min,  0.016 sec
 * total energy  :  -154.4986611 Eh     change       -0.8724184E-06 Eh
   gradient norm :     0.0002556 Eh/α   predicted    -0.3834466E-06 ( -56.05%)
   displ. norm   :     0.0442195 α      lambda       -0.9073162E-06
   maximum displ.:     0.0201473 α      in ANC's #2, #5, #6, ...

........................................................................
.............................. CYCLE   50 ..............................
........................................................................

 iter      E             dE          RMSdq      gap      omega  full diag
   1   -157.2670190 -0.157267E+03  0.530E-03    1.79       0.0  T
   2   -157.2670190 -0.888792E-08  0.313E-03    1.79       3.2  T
   3   -157.2670190  0.686447E-07  0.804E-04    1.79      12.4  T
   4   -157.2670190 -0.754421E-07  0.105E-04    1.79      95.0  T
     SCC iter.                  ...        0 min,  0.047 sec
     gradient                   ...        0 min,  0.016 sec
 * total energy  :  -154.4986622 Eh     change       -0.1081169E-05 Eh
   gradient norm :     0.0002596 Eh/α   predicted    -0.4565393E-06 ( -57.77%)
   displ. norm   :     0.0640028 α      lambda       -0.1296732E-05
   maximum displ.:     0.0296969 α      in ANC's #2, #5, #4, ...

........................................................................
.............................. CYCLE   51 ..............................
........................................................................

 iter      E             dE          RMSdq      gap      omega  full diag
   1   -157.2670528 -0.157267E+03  0.736E-03    1.79       0.0  T
   2   -157.2670529 -0.180160E-07  0.435E-03    1.79       2.3  T
   3   -157.2670528  0.101343E-06  0.994E-04    1.79      10.1  T
   4   -157.2670529 -0.111613E-06  0.151E-04    1.79      66.1  T
     SCC iter.                  ...        0 min,  0.047 sec
     gradient                   ...        0 min,  0.016 sec
 * total energy  :  -154.4986637 Eh     change       -0.1452662E-05 Eh
   gradient norm :     0.0002729 Eh/α   predicted    -0.6517618E-06 ( -55.13%)
   displ. norm   :     0.0724123 α      lambda       -0.1286349E-05
   maximum displ.:     0.0345650 α      in ANC's #2, #5, #4, ...

........................................................................
.............................. CYCLE   52 ..............................
........................................................................

 iter      E             dE          RMSdq      gap      omega  full diag
   1   -157.2670195 -0.157267E+03  0.801E-03    1.79       0.0  T
   2   -157.2670195 -0.209691E-07  0.473E-03    1.79       2.1  T
   3   -157.2670195  0.656070E-07  0.830E-04    1.79      12.0  T
   4   -157.2670195 -0.736798E-07  0.167E-04    1.79      60.0  T
     SCC iter.                  ...        0 min,  0.047 sec
     gradient                   ...        0 min,  0.016 sec
 * total energy  :  -154.4986651 Eh     change       -0.1421210E-05 Eh
   gradient norm :     0.0002368 Eh/α   predicted    -0.6487799E-06 ( -54.35%)
   displ. norm   :     0.0664269 α      lambda       -0.1113120E-05
   maximum displ.:     0.0326827 α      in ANC's #2, #5, #4, ...

........................................................................
.............................. CYCLE   53 ..............................
........................................................................

 iter      E             dE          RMSdq      gap      omega  full diag
   1   -157.2669812 -0.157267E+03  0.706E-03    1.79       0.0  T
   2   -157.2669812 -0.166743E-07  0.417E-03    1.79       2.4  T
   3   -157.2669812  0.255459E-07  0.570E-04    1.79      17.5  T
   4   -157.2669812 -0.310612E-07  0.128E-04    1.79      78.3  T
     SCC iter.                  ...        0 min,  0.047 sec
     gradient                   ...        0 min,  0.016 sec
 * total energy  :  -154.4986664 Eh     change       -0.1269410E-05 Eh
   gradient norm :     0.0001626 Eh/α   predicted    -0.5599481E-06 ( -55.89%)
   displ. norm   :     0.0773435 α      lambda       -0.1080384E-05
   maximum displ.:     0.0389719 α      in ANC's #2, #5, #4, ...

........................................................................
.............................. CYCLE   54 ..............................
........................................................................

 iter      E             dE          RMSdq      gap      omega  full diag
   1   -157.2669112 -0.157267E+03  0.795E-03    1.79       0.0  T
   2   -157.2669112 -0.201362E-07  0.470E-03    1.79       2.1  T
   3   -157.2669112  0.278667E-07  0.606E-04    1.79      16.5  T
   4   -157.2669112 -0.351586E-07  0.133E-04    1.79      75.1  T
     SCC iter.                  ...        0 min,  0.047 sec
     gradient                   ...        0 min,  0.016 sec
 * total energy  :  -154.4986675 Eh     change       -0.1150690E-05 Eh
   gradient norm :     0.0002147 Eh/α   predicted    -0.5425785E-06 ( -52.85%)
   displ. norm   :     0.0580128 α      lambda       -0.8476970E-06
   maximum displ.:     0.0302924 α      in ANC's #2, #5, #4, ...

........................................................................
.............................. CYCLE   55 ..............................
........................................................................

 iter      E             dE          RMSdq      gap      omega  full diag
   1   -157.2669186 -0.157267E+03  0.579E-03    1.79       0.0  T
   2   -157.2669186 -0.912911E-08  0.343E-03    1.79       2.9  T
   3   -157.2669186  0.160617E-07  0.446E-04    1.79      22.4  T
   4   -157.2669186 -0.197432E-07  0.103E-04    1.79      96.7  T
     SCC iter.                  ...        0 min,  0.047 sec
     gradient                   ...        0 min,  0.016 sec
 * total energy  :  -154.4986685 Eh     change       -0.1012497E-05 Eh
   gradient norm :     0.0002291 Eh/α   predicted    -0.4251311E-06 ( -58.01%)
   displ. norm   :     0.0842142 α      lambda       -0.1311924E-05
   maximum displ.:     0.0445176 α      in ANC's #2, #5, #4, ...

........................................................................
.............................. CYCLE   56 ..............................
........................................................................

 iter      E             dE          RMSdq      gap      omega  full diag
   1   -157.2669209 -0.157267E+03  0.836E-03    1.79       0.0  T
   2   -157.2669209 -0.154603E-07  0.496E-03    1.79       2.0  T
   3   -157.2669209  0.243946E-07  0.578E-04    1.79      17.3  T
   4   -157.2669209 -0.305836E-07  0.150E-04    1.79      66.8  T
     SCC iter.                  ...        0 min,  0.047 sec
     gradient                   ...        0 min,  0.016 sec
 * total energy  :  -154.4986700 Eh     change       -0.1512311E-05 Eh
   gradient norm :     0.0002986 Eh/α   predicted    -0.6587982E-06 ( -56.44%)
   displ. norm   :     0.0843132 α      lambda       -0.1379989E-05
   maximum displ.:     0.0453209 α      in ANC's #2, #32, #4, ...

........................................................................
.............................. CYCLE   57 ..............................
........................................................................

 iter      E             dE          RMSdq      gap      omega  full diag
   1   -157.2669814 -0.157267E+03  0.853E-03    1.79       0.0  T
   2   -157.2669814 -0.136201E-07  0.507E-03    1.79       2.0  T
   3   -157.2669814  0.170330E-07  0.495E-04    1.79      20.2  T
   4   -157.2669814 -0.230997E-07  0.134E-04    1.79      74.5  T
     SCC iter.                  ...        0 min,  0.047 sec
     gradient                   ...        0 min,  0.016 sec
 * total energy  :  -154.4986715 Eh     change       -0.1459275E-05 Eh
   gradient norm :     0.0002766 Eh/α   predicted    -0.6965173E-06 ( -52.27%)
   displ. norm   :     0.0643995 α      lambda       -0.8546781E-06
   maximum displ.:     0.0353953 α      in ANC's #2, #4, #32, ...

........................................................................
.............................. CYCLE   58 ..............................
........................................................................

 iter      E             dE          RMSdq      gap      omega  full diag
   1   -157.2669845 -0.157267E+03  0.648E-03    1.79       0.0  T
   2   -157.2669845 -0.850682E-08  0.385E-03    1.79       2.6  T
   3   -157.2669845  0.145949E-07  0.379E-04    1.79      26.4  T
   4   -157.2669845 -0.183229E-07  0.105E-04    1.79      95.2  T
     SCC iter.                  ...        0 min,  0.047 sec
     gradient                   ...        0 min,  0.016 sec
 * total energy  :  -154.4986723 Eh     change       -0.8049699E-06 Eh
   gradient norm :     0.0003321 Eh/α   predicted    -0.4311314E-06 ( -46.44%)
   displ. norm   :     0.0671815 α      lambda        0.2854963E-06
   maximum displ.:     0.0369878 α      in ANC's #2, #4, #32, ...

........................................................................
.............................. CYCLE   59 ..............................
........................................................................

 iter      E             dE          RMSdq      gap      omega  full diag
   1   -157.2669190 -0.157267E+03  0.677E-03    1.79       0.0  T
   2   -157.2669190 -0.114033E-07  0.402E-03    1.79       2.5  T
   3   -157.2669189  0.417884E-07  0.593E-04    1.79      16.9  T
   4   -157.2669190 -0.473015E-07  0.134E-04    1.79      74.6  T
     SCC iter.                  ...        0 min,  0.047 sec
     gradient                   ...        0 min,  0.016 sec
 * total energy  :  -154.4986721 Eh     change        0.1687307E-06 Eh
   gradient norm :     0.0006057 Eh/α   predicted     0.1422953E-06 ( -15.67%)
   displ. norm   :     0.0389883 α      lambda       -0.1113860E-05
   maximum displ.:     0.0169570 α      in ANC's #2, #5, #4, ...

........................................................................
.............................. CYCLE   60 ..............................
........................................................................

 iter      E             dE          RMSdq      gap      omega  full diag
   1   -157.2672532 -0.157267E+03  0.441E-03    1.79       0.0  T
   2   -157.2672533 -0.320210E-07  0.258E-03    1.79       3.9  T
   3   -157.2672533  0.900619E-08  0.428E-04    1.79      23.4  T
   4   -157.2672533 -0.967614E-08  0.183E-04    1.79      54.6  T
     SCC iter.                  ...        0 min,  0.047 sec
     gradient                   ...        0 min,  0.017 sec
 * total energy  :  -154.4986726 Eh     change       -0.4744169E-06 Eh
   gradient norm :     0.0003489 Eh/α   predicted    -0.5595079E-06 (  17.94%)
   displ. norm   :     0.0292315 α      lambda       -0.9741523E-06
   maximum displ.:     0.0115605 α      in ANC's #32, #2, #30, ...

........................................................................
.............................. CYCLE   61 ..............................
........................................................................

 iter      E             dE          RMSdq      gap      omega  full diag
   1   -157.2670382 -0.157267E+03  0.448E-03    1.79       0.0  T
   2   -157.2670383 -0.119870E-07  0.264E-03    1.79       3.8  T
   3   -157.2670382  0.244147E-07  0.519E-04    1.79      19.3  T
   4   -157.2670383 -0.272924E-07  0.113E-04    1.79      88.6  T
     SCC iter.                  ...        0 min,  0.047 sec
     gradient                   ...        0 min,  0.016 sec
 * total energy  :  -154.4986733 Eh     change       -0.6737937E-06 Eh
   gradient norm :     0.0001909 Eh/α   predicted    -0.4893501E-06 ( -27.37%)
   displ. norm   :     0.0177182 α      lambda       -0.4180839E-06
   maximum displ.:     0.0102131 α      in ANC's #2, #28, #29, ...

........................................................................
.............................. CYCLE   62 ..............................
........................................................................

 iter      E             dE          RMSdq      gap      omega  full diag
   1   -157.2670066 -0.157267E+03  0.203E-03    1.79       0.0  T
   2   -157.2670066 -0.924160E-09  0.121E-03    1.79       8.3  T
   3   -157.2670066  0.128255E-07  0.334E-04    1.79      30.0  T
   4   -157.2670066 -0.140523E-07  0.364E-05    1.79     274.6  T
     SCC iter.                  ...        0 min,  0.047 sec
     gradient                   ...        0 min,  0.016 sec
 * total energy  :  -154.4986738 Eh     change       -0.5108325E-06 Eh
   gradient norm :     0.0001357 Eh/α   predicted    -0.2134675E-06 ( -58.21%)
   displ. norm   :     0.0734046 α      lambda       -0.1039097E-05
   maximum displ.:     0.0433367 α      in ANC's #2, #28, #4, ...

........................................................................
.............................. CYCLE   63 ..............................
........................................................................

 iter      E             dE          RMSdq      gap      omega  full diag
   1   -157.2668794 -0.157267E+03  0.742E-03    1.79       0.0  T
   2   -157.2668794 -0.130109E-07  0.442E-03    1.79       2.3  T
   3   -157.2668794  0.738480E-07  0.823E-04    1.79      12.2  T
[...]
eigval :      604.03   618.61   629.52   638.34   648.16   650.30
eigval :      664.71   667.88   671.00   674.91   678.09   680.73
eigval :      683.15   689.94   709.08   710.95   729.98   748.07
eigval :      750.24   757.00   760.95   771.93   772.10   775.58
eigval :      791.79   793.67   798.12   804.22   811.48   814.81
eigval :      816.65   818.92   839.25   840.04   841.19   846.09
eigval :      847.67   848.17   863.86   865.22   867.93   870.62
eigval :      871.86   889.01   893.39   897.44   902.20   904.25
eigval :      909.35   912.97   913.68   915.76   916.11   916.55
eigval :      917.48   919.99   922.30   922.32   939.67   969.90
eigval :      978.18   998.20  1006.60  1011.93  1017.98  1022.33
eigval :     1029.46  1029.97  1031.66  1033.27  1045.40  1060.08
eigval :     1060.33  1077.98  1094.22  1100.57  1103.80  1113.95
eigval :     1124.49  1138.87  1147.88  1151.28  1152.90  1171.45
eigval :     1171.98  1172.65  1182.20  1182.93  1183.58  1185.92
eigval :     1191.55  1201.88  1206.16  1207.02  1211.44  1214.83
eigval :     1215.27  1217.98  1218.57  1237.32  1243.09  1247.95
eigval :     1248.83  1261.10  1264.47  1267.23  1268.63  1283.49
eigval :     1286.44  1305.22  1306.72  1317.16  1318.36  1322.21
eigval :     1325.99  1328.22  1338.58  1345.72  1346.04  1360.37
eigval :     1361.41  1371.41  1382.42  1387.66  1388.63  1389.86
eigval :     1399.23  1400.01  1401.03  1403.58  1405.02  1413.25
eigval :     1414.84  1416.30  1419.33  1420.04  1454.28  1468.46
eigval :     1469.27  1476.24  1477.33  1477.92  1479.11  1479.73
eigval :     1479.75  1482.21  1486.34  1486.70  1490.07  1492.92
eigval :     1497.58  1500.10  1500.55  1528.20  1560.16  1561.99
eigval :     1567.55  1570.38  1572.05  1575.82  1580.89  1580.94
eigval :     1592.85  1593.15  1597.74  1601.29  1603.85  1604.76
eigval :     1610.00  1610.27  2991.89  2992.19  2992.31  2993.05
eigval :     3022.26  3026.30  3028.61  3032.15  3035.28  3035.59
eigval :     3036.43  3039.44  3061.19  3062.87  3064.87  3067.44
eigval :     3068.26  3068.66  3068.95  3071.24  3077.66  3078.48
eigval :     3078.87  3080.51  3081.15  3082.78  3082.91  3083.43
eigval :     3086.21  3087.61  3093.92  3094.22  3094.60  3095.61
eigval :     3095.79  3102.21  3102.35  3104.14  3104.77  3119.02
 reduced masses (amu)
   1: 11.52   2: 11.44   3: 11.35   4: 11.58   5: 11.46   6: 11.52   7:  2.30   8:  1.21
   9: 11.03  10: 10.79  11: 11.08  12: 10.65  13: 10.58  14: 10.73  15: 10.25  16: 10.31
  17: 10.25  18: 10.74  19: 10.80  20: 10.45  21: 11.19  22: 11.93  23: 11.55  24: 10.47
  25: 10.57  26:  9.97  27:  9.48  28: 10.01  29: 10.64  30: 10.09  31: 10.68  32:  3.50
  33: 10.04  34:  9.22  35:  1.85  36: 10.34  37: 10.26  38: 10.16  39: 10.80  40: 10.55
  41: 10.55  42: 10.48  43: 10.30  44: 10.51  45: 10.73  46: 10.59  47: 10.54  48: 10.89
  49: 10.62  50: 11.12  51:  9.85  52:  9.85  53:  9.40  54:  9.89  55: 11.01  56: 11.20
  57: 11.33  58: 11.42  59:  9.41  60:  9.69  61:  9.63  62: 10.33  63: 10.13  64:  9.65
  65: 10.35  66: 10.75  67: 10.44  68: 10.83  69: 10.57  70: 11.06  71: 10.10  72: 10.62
  73: 11.00  74: 10.75  75: 10.76  76:  9.78  77: 10.91  78: 11.06  79: 11.80  80: 11.06
  81: 11.08  82: 10.97  83: 10.82  84: 11.43  85: 10.87  86: 11.06  87: 11.12  88: 11.26
  89: 11.24  90: 11.43  91: 11.31  92: 11.51  93: 11.64  94: 11.37  95: 11.04  96: 11.31
  97: 11.28  98: 11.28  99: 11.38 100: 11.16 101: 11.34 102: 11.77 103: 11.83 104: 11.01
 105: 11.55 106: 11.58 107: 10.86 108: 11.05 109: 11.47 110: 10.91 111: 10.58 112:  8.12
 113:  6.50 114:  3.69 115:  3.61 116:  4.03 117:  5.31 118: 10.13 119:  8.47 120:  4.06
 121:  4.69 122:  3.81 123: 12.27 124:  8.71 125:  9.07 126:  9.24 127: 12.18 128:  8.15
 129:  9.97 130:  3.78 131:  4.15 132:  3.75 133:  3.91 134:  3.27 135:  3.23 136:  3.94
 137:  3.97 138: 10.96 139:  3.48 140:  3.26 141:  3.70 142:  3.27 143:  3.40 144:  3.48
 145:  3.29 146:  3.15 147:  3.28 148:  3.21 149: 11.56 150:  9.18 151:  7.88 152: 10.25
 153:  5.96 154:  5.99 155:  4.36 156:  4.68 157:  4.52 158:  4.56 159:  4.77 160:  4.66
 161:  9.42 162:  5.64 163:  5.64 164: 10.00 165:  9.37 166:  6.57 167:  6.76 168:  7.10
 169:  7.51 170:  6.18 171:  4.92 172:  5.62 173:  5.21 174:  3.52 175:  3.43 176:  3.29
 177:  3.59 178:  4.44 179:  5.35 180:  5.09 181:  3.62 182:  4.28 183:  7.27 184:  7.03
 185:  5.66 186:  6.32 187:  6.22 188:  6.12 189:  6.35 190:  5.88 191:  7.08 192:  6.39
 193:  6.40 194:  7.97 195:  7.48 196:  3.79 197:  5.51 198:  8.15 199:  8.51 200: 10.42
 201: 10.12 202: 11.15 203: 10.83 204: 10.75 205: 10.71 206: 10.83 207: 10.20 208: 11.79
 209: 11.74 210: 11.47 211: 11.54 212: 10.07 213: 10.21 214:  9.78 215: 10.15 216: 10.00
 217: 11.08 218:  3.39 219:  3.28 220:  3.56 221:  4.02 222:  9.19 223:  9.74 224:  9.61
 225:  9.31 226:  9.58 227: 11.20 228: 10.20 229: 10.20 230:  1.81 231:  2.18 232:  2.21
 233:  1.81 234:  1.77 235:  1.78 236: 10.51 237:  2.05 238:  2.15 239: 10.48 240: 10.50
 241: 10.51 242:  9.87 243:  9.91 244: 11.56 245: 11.54 246: 11.58 247: 11.42 248: 11.55
 249: 11.55 250: 11.39 251: 11.77 252: 11.77 253: 11.64 254: 11.64 255: 11.59 256: 11.55
 257: 11.53 258: 11.55 259: 11.73 260: 11.73 261:  1.82 262:  1.82 263:  1.82 264:  1.81
 265:  1.67 266:  1.74 267:  1.83 268:  1.75 269:  1.50 270:  1.57 271:  1.57 272:  1.64
 273:  1.82 274:  1.78 275:  1.78 276:  1.80 277:  1.81 278:  1.79 279:  1.81 280:  1.78
 281:  1.87 282:  1.87 283:  1.76 284:  1.76 285:  1.77 286:  1.87 287:  1.78 288:  1.87
 289:  1.81 290:  1.81 291:  1.85 292:  1.86 293:  1.84 294:  1.87 295:  1.84 296:  1.89
 297:  1.90 298:  1.88 299:  1.89 300:  1.83
 IR intensities (km·mol⁻¹)
   1:  0.02   2:  0.00   3:  0.00   4:  0.06   5:  0.09   6:  0.00   7:  0.55   8:  0.33
   9:  0.07  10:  0.48  11:  0.07  12:  0.53  13:  0.04  14:  0.38  15:  0.16  16:  0.26
  17:  1.23  18:  0.57  19:  0.01  20:  0.28  21:  0.14  22:  0.51  23:  0.40  24:  3.46
  25:  3.43  26:  0.90  27:  1.15  28:  2.92  29:  1.15  30:  5.48  31:  0.75  32:  1.48
  33:  0.28  34:  1.14  35:  1.73  36:  0.27  37:  2.73  38:  6.53  39:  0.52  40:  9.21
  41:  1.79  42:  7.49  43:  0.29  44:  0.82  45:  1.30  46:  0.47  47:  4.63  48:  2.15
  49:  1.34  50:  1.73  51:  1.57  52:  0.21  53:  1.05  54:  1.32  55:  0.81  56:  1.94
  57:  0.45  58:  0.19  59:  1.93  60: 13.24  61: 11.47  62:  4.18  63:  2.19  64: 11.77
  65:  5.98  66:  2.79  67:  1.65  68:  3.50  69:  1.26  70:  0.26  71:  0.11  72:  0.83
  73:  4.01  74: 19.61  75:  1.25  76:  0.28  77:  6.46  78:  0.93  79:  8.69  80:  1.76
  81:  3.05  82:  4.71  83:  1.68  84:  9.32  85:  1.69  86:  3.95  87:  9.74  88:  8.50
  89: 21.39  90: 18.50  91: 12.31  92:  2.41  93:  7.65  94:  2.39  95: 12.60  96:  0.31
  97:  0.83  98:  9.96  99: 15.17 100:  5.26 101:  5.06 102:  8.44 103: 17.89 104:  5.27
 105:  0.55 106:  0.61 107:  0.85 108:  1.01 109:  1.15 110:  3.61 111:  2.26 112: 23.21
 113: 19.26 114: 43.95 115: 11.30 116:  6.62 117: 14.47 118:  7.81 119: 10.34 120:  3.43
 121:  4.81 122:  0.12 123: 34.23 124: 22.24 125: 21.11 126: 61.15 127: 26.72 128: 34.98
 129:  3.72 130:  0.32 131:  0.37 132:  0.16 133:  0.92 134:  1.04 135:  1.73 136:  0.22
 137:  0.39 138:  6.06 139:  2.18 140:  0.67 141:  2.40 142:  0.53 143:  2.27 144:  0.19
 145:  2.31 146:  0.05 147:  0.37 148:  0.24 149:  9.28 150:  7.29 151:  1.55 152:  7.31
 153: 18.71 154: 22.21 155:  4.49 156:  2.93 157:  0.38 158:  6.76 159: 23.95 160: 16.14
 161: 16.53 162:  0.97 163:  1.07 164: 40.15 165: 58.29 166:  1.12 167: 10.91 168:  7.20
 169: 33.64 170: 48.21 171: 46.43 172: 75.41 173: 22.30 174: 51.45 175: 57.54 176: 21.55
 177: 14.82 178: 19.47 179: 60.36 180: 18.50 181: 31.92 182: 19.69 183:168.98 184:177.09
 185: 62.40 186: 49.70 187: 39.17 188:  8.81 189: 12.50 190:116.35 191: 28.58 192: 90.25
 193: 83.84 194:108.30 195: 93.25 196: 19.18 197: 28.91 198:315.04 199:112.29 200:304.37
 201:139.80 202: 69.88 203:  2.19 204:602.82 205:496.99 206:383.07 207:121.03 208:  0.93
 209:  2.31 210: 40.56 211: 38.74 212: 20.69 213: 99.28 214: 20.07 215:  0.91 216: 18.98
 217:  5.36 218:  5.42 219:  6.99 220:  7.86 221:  2.61 222: 49.56 223:354.79 224:359.58
 225:104.17 226: 78.43 227: 56.03 228: 71.81 229: 48.16 230:  1.10 231: 28.53 232: 52.80
 233:  1.86 234:  6.72 235:  2.05 236:624.54 237: 61.81 238: 47.45 239: 93.00 240:137.93
 241:  9.95 242: 99.36 243: 84.15 244:  4.83 245: 74.50 246: 52.35 247:181.09 248:193.38
 249: 82.11 250: 34.73 251: 26.13 252: 39.39 253: 73.39 254: 98.19 255: 13.51 256:143.18
 257: 40.02 258:  3.70 259:  1.67 260:  4.42 261: 14.71 262: 42.86 263: 56.61 264: 28.06
 265: 36.29 266: 26.06 267: 27.99 268: 37.68 269: 71.40 270: 31.48 271: 24.15 272: 45.13
 273: 75.54 274: 51.02 275: 45.72 276: 50.16 277: 29.75 278:  2.48 279:104.94 280: 80.45
 281:163.51 282:135.98 283:  7.18 284:  5.19 285: 28.83 286: 74.23 287: 35.73 288:127.53
 289: 39.94 290: 36.74 291: 36.52 292:206.62 293: 41.37 294:112.55 295: 10.12 296: 91.15
 297: 85.98 298: 50.67 299: 84.40 300: 41.91
 Raman intensities (Ä⁴*amu⁻¹)
   1:  0.00   2:  0.00   3:  0.00   4:  0.00   5:  0.00   6:  0.00   7:  0.00   8:  0.00
   9:  0.00  10:  0.00  11:  0.00  12:  0.00  13:  0.00  14:  0.00  15:  0.00  16:  0.00
  17:  0.00  18:  0.00  19:  0.00  20:  0.00  21:  0.00  22:  0.00  23:  0.00  24:  0.00
  25:  0.00  26:  0.00  27:  0.00  28:  0.00  29:  0.00  30:  0.00  31:  0.00  32:  0.00
  33:  0.00  34:  0.00  35:  0.00  36:  0.00  37:  0.00  38:  0.00  39:  0.00  40:  0.00
  41:  0.00  42:  0.00  43:  0.00  44:  0.00  45:  0.00  46:  0.00  47:  0.00  48:  0.00
  49:  0.00  50:  0.00  51:  0.00  52:  0.00  53:  0.00  54:  0.00  55:  0.00  56:  0.00
  57:  0.00  58:  0.00  59:  0.00  60:  0.00  61:  0.00  62:  0.00  63:  0.00  64:  0.00
  65:  0.00  66:  0.00  67:  0.00  68:  0.00  69:  0.00  70:  0.00  71:  0.00  72:  0.00
  73:  0.00  74:  0.00  75:  0.00  76:  0.00  77:  0.00  78:  0.00  79:  0.00  80:  0.00
  81:  0.00  82:  0.00  83:  0.00  84:  0.00  85:  0.00  86:  0.00  87:  0.00  88:  0.00
  89:  0.00  90:  0.00  91:  0.00  92:  0.00  93:  0.00  94:  0.00  95:  0.00  96:  0.00
  97:  0.00  98:  0.00  99:  0.00 100:  0.00 101:  0.00 102:  0.00 103:  0.00 104:  0.00
 105:  0.00 106:  0.00 107:  0.00 108:  0.00 109:  0.00 110:  0.00 111:  0.00 112:  0.00
 113:  0.00 114:  0.00 115:  0.00 116:  0.00 117:  0.00 118:  0.00 119:  0.00 120:  0.00
 121:  0.00 122:  0.00 123:  0.00 124:  0.00 125:  0.00 126:  0.00 127:  0.00 128:  0.00
 129:  0.00 130:  0.00 131:  0.00 132:  0.00 133:  0.00 134:  0.00 135:  0.00 136:  0.00
 137:  0.00 138:  0.00 139:  0.00 140:  0.00 141:  0.00 142:  0.00 143:  0.00 144:  0.00
 145:  0.00 146:  0.00 147:  0.00 148:  0.00 149:  0.00 150:  0.00 151:  0.00 152:  0.00
 153:  0.00 154:  0.00 155:  0.00 156:  0.00 157:  0.00 158:  0.00 159:  0.00 160:  0.00
 161:  0.00 162:  0.00 163:  0.00 164:  0.00 165:  0.00 166:  0.00 167:  0.00 168:  0.00
 169:  0.00 170:  0.00 171:  0.00 172:  0.00 173:  0.00 174:  0.00 175:  0.00 176:  0.00
 177:  0.00 178:  0.00 179:  0.00 180:  0.00 181:  0.00 182:  0.00 183:  0.00 184:  0.00
 185:  0.00 186:  0.00 187:  0.00 188:  0.00 189:  0.00 190:  0.00 191:  0.00 192:  0.00
 193:  0.00 194:  0.00 195:  0.00 196:  0.00 197:  0.00 198:  0.00 199:  0.00 200:  0.00
 201:  0.00 202:  0.00 203:  0.00 204:  0.00 205:  0.00 206:  0.00 207:  0.00 208:  0.00
 209:  0.00 210:  0.00 211:  0.00 212:  0.00 213:  0.00 214:  0.00 215:  0.00 216:  0.00
 217:  0.00 218:  0.00 219:  0.00 220:  0.00 221:  0.00 222:  0.00 223:  0.00 224:  0.00
 225:  0.00 226:  0.00 227:  0.00 228:  0.00 229:  0.00 230:  0.00 231:  0.00 232:  0.00
 233:  0.00 234:  0.00 235:  0.00 236:  0.00 237:  0.00 238:  0.00 239:  0.00 240:  0.00
 241:  0.00 242:  0.00 243:  0.00 244:  0.00 245:  0.00 246:  0.00 247:  0.00 248:  0.00
 249:  0.00 250:  0.00 251:  0.00 252:  0.00 253:  0.00 254:  0.00 255:  0.00 256:  0.00
 257:  0.00 258:  0.00 259:  0.00 260:  0.00 261:  0.00 262:  0.00 263:  0.00 264:  0.00
 265:  0.00 266:  0.00 267:  0.00 268:  0.00 269:  0.00 270:  0.00 271:  0.00 272:  0.00
 273:  0.00 274:  0.00 275:  0.00 276:  0.00 277:  0.00 278:  0.00 279:  0.00 280:  0.00
 281:  0.00 282:  0.00 283:  0.00 284:  0.00 285:  0.00 286:  0.00 287:  0.00 288:  0.00
 289:  0.00 290:  0.00 291:  0.00 292:  0.00 293:  0.00 294:  0.00 295:  0.00 296:  0.00
 297:  0.00 298:  0.00 299:  0.00 300:  0.00
 output can be read by thermo (or use thermo option).
 writing <g98.out> molden fake output.
 recommended (thermochemical) frequency scaling factor: 1.0
           -------------------------------------------------
          |             Thermodynamic Functions             |
           -------------------------------------------------

Molecule has no symmetry elements
It seems to be the C1 point group
c1  symmetry found (for desy threshold:  0.10E+00) used in thermo
 inverting freq            2   19.0226771091278     

          ...................................................
          :                      SETUP                      :
          :.................................................:
          :  # frequencies                         293      :
          :  # imaginary freq.                       1      :
          :  linear?                             false      :
          :  only rotor calc.                    false      :
          :  symmetry                               c1      :
          :  rotational number                       1      :
          :  scaling factor                  1.0000000      :
          :  rotor cutoff                   50.0000000 cm⁻¹ :
          :  imag. cutoff                  -20.0000000 cm⁻¹ :
          :.................................................:

    mode    ω/cm⁻¹     T·S(HO)/kcal·mol⁻¹    T·S(FR)/kcal·mol⁻¹   T·S(vib)
   ------------------------------------------------------------------------
       1     19.02    -2.00765 (  2.05%)    -1.34282 ( 97.95%)    -1.35647
       2      9.18    -2.43898 (  0.11%)    -1.55855 ( 99.89%)    -1.55955
       3     12.47    -2.25779 (  0.39%)    -1.46794 ( 99.61%)    -1.47099
       4     14.27    -2.17783 (  0.66%)    -1.42796 ( 99.34%)    -1.43290
       5     21.36    -1.93905 (  3.22%)    -1.30850 ( 96.78%)    -1.32882
       6     23.71    -1.87729 (  4.81%)    -1.27759 ( 95.19%)    -1.30645
       7     33.68    -1.66959 ( 17.08%)    -1.17358 ( 82.92%)    -1.25828
       8     35.86    -1.63256 ( 20.92%)    -1.15502 ( 79.08%)    -1.25493
       9     39.91    -1.56936 ( 28.87%)    -1.12333 ( 71.13%)    -1.25209
      10     43.79    -1.51448 ( 37.05%)    -1.09580 ( 62.95%)    -1.25092
      11     46.10    -1.48421 ( 41.95%)    -1.08061 ( 58.05%)    -1.24991
      12     49.40    -1.44337 ( 48.80%)    -1.06010 ( 51.20%)    -1.24714
      13     55.57    -1.37403 ( 60.41%)    -1.02524 ( 39.59%)    -1.23595
      14     77.96    -1.17516 ( 85.53%)    -0.92495 ( 14.47%)    -1.13896
      15     87.08    -1.11052 ( 90.19%)    -0.89221 (  9.81%)    -1.08912
      16     96.45    -1.05095 ( 93.26%)    -0.86193 (  6.74%)    -1.03822
      17    106.62    -0.99271 ( 95.39%)    -0.83222 (  4.61%)    -0.98531
      18    111.82    -0.96511 ( 96.16%)    -0.81810 (  3.84%)    -0.95946
      19    118.20    -0.93306 ( 96.90%)    -0.80166 (  3.10%)    -0.92899
      20    121.02    -0.91950 ( 97.17%)    -0.79469 (  2.83%)    -0.91597
      21    124.14    -0.90484 ( 97.44%)    -0.78714 (  2.56%)    -0.90182
      22    128.97    -0.88291 ( 97.79%)    -0.77584 (  2.21%)    -0.88055
      23    130.95    -0.87420 ( 97.92%)    -0.77134 (  2.08%)    -0.87206
      24    150.73    -0.79397 ( 98.80%)    -0.72965 (  1.20%)    -0.79320
      25    159.32    -0.76263 ( 99.04%)    -0.71324 (  0.96%)    -0.76215
      26    164.17    -0.74573 ( 99.15%)    -0.70435 (  0.85%)    -0.74537
      27    167.91    -0.73309 ( 99.22%)    -0.69769 (  0.78%)    -0.73281
      28    180.44    -0.69286 ( 99.41%)    -0.67636 (  0.59%)    -0.69277
      29    204.54    -0.62370 ( 99.64%)    -0.63922 (  0.36%)    -0.62375
      30    205.02    -0.62242 ( 99.65%)    -0.63853 (  0.35%)    -0.62248
      31    209.32    -0.61109 ( 99.68%)    -0.63238 (  0.32%)    -0.61116
      32    221.22    -0.58111 ( 99.74%)    -0.61599 (  0.26%)    -0.58120
      33    223.34    -0.57597 ( 99.75%)    -0.61317 (  0.25%)    -0.57606
      34    230.64    -0.55872 ( 99.78%)    -0.60364 (  0.22%)    -0.55882
      35    238.27    -0.54137 ( 99.81%)    -0.59400 (  0.19%)    -0.54147
      36    252.13    -0.51152 ( 99.85%)    -0.57725 (  0.15%)    -0.51162
      37    257.42    -0.50065 ( 99.86%)    -0.57110 (  0.14%)    -0.50075
      38    263.22    -0.48906 ( 99.87%)    -0.56450 (  0.13%)    -0.48916
      39    270.83    -0.47433 ( 99.88%)    -0.55606 (  0.12%)    -0.47442
      40    280.06    -0.45715 ( 99.90%)    -0.54613 (  0.10%)    -0.45724
      41    284.21    -0.44968 ( 99.90%)    -0.54178 (  0.10%)    -0.44976
      42    299.88    -0.42265 ( 99.92%)    -0.52587 (  0.08%)    -0.42273
   ------------------------------------------------------------------------

   temp. (K)  partition function   enthalpy   heat capacity  entropy
                                   cal/mol     cal/K/mol   cal/K/mol   J/K/mol
 298.15  VIB  0.225E+23            28676.188    180.544    177.401
         ROT  0.152E+09              888.752      2.981     40.418
         INT  0.342E+31            29564.940    183.524    217.818
         TR   0.208E+29             1481.254      4.968     45.793
         TOT                       31046.1938   188.4926   263.6115  1102.9504

       T/K    H(0)-H(T)+PV         H(T)/Eh          T*S/Eh         G(T)/Eh
   ------------------------------------------------------------------------
    298.15    0.494753E-01    0.825845E+00    0.125250E+00    0.700595E+00
   ------------------------------------------------------------------------

         :::::::::::::::::::::::::::::::::::::::::::::::::::::
         ::                  THERMODYNAMIC                  ::
         :::::::::::::::::::::::::::::::::::::::::::::::::::::
         :: total free energy        -153.798090049349 Eh   ::
         ::.................................................::
         :: total energy             -154.498685140315 Eh   ::
         :: zero point energy           0.776370152819 Eh   ::
         :: G(RRHO) w/o ZPVE           -0.075775061853 Eh   ::
         :: G(RRHO) contrib.            0.700595090966 Eh   ::
         :::::::::::::::::::::::::::::::::::::::::::::::::::::
imag cut-off (cm-1) :    5.00
 found            2  significant imaginary frequencies
 writing imag mode distorted coords to xtbhess.xyz
 for further optimization.

optimized geometry written to: xtbopt.xyz


           -------------------------------------------------
          | TOTAL ENERGY             -154.498685140315 Eh   |
          | TOTAL ENTHALPY           -153.672839728412 Eh   |
          | TOTAL FREE ENERGY        -153.798090049349 Eh   |
          | GRADIENT NORM               0.000093379140 Eh/α |
          | HOMO-LUMO GAP               1.792282047262 eV   |
           -------------------------------------------------

------------------------------------------------------------------------
 * finished run on 2025/09/12 at 02:10:35.297     
------------------------------------------------------------------------
 total:
 * wall-time:     0 d,  0 h,  0 min, 14.368 sec
 *  cpu-time:     0 d,  0 h,  8 min, 56.133 sec
 * ratio c/w:    37.313 speedup
 SCF:
 * wall-time:     0 d,  0 h,  0 min,  0.185 sec
 *  cpu-time:     0 d,  0 h,  0 min,  7.396 sec
 * ratio c/w:    39.876 speedup
 ANC optimizer:
 * wall-time:     0 d,  0 h,  0 min,  7.046 sec
 *  cpu-time:     0 d,  0 h,  4 min, 41.807 sec
 * ratio c/w:    39.996 speedup
 analytical hessian:
 * wall-time:     0 d,  0 h,  0 min,  6.889 sec
 *  cpu-time:     0 d,  0 h,  3 min, 57.849 sec
 * ratio c/w:    34.526 speedup

