      -----------------------------------------------------------      
     |                   =====================                   |     
     |                           x T B                           |     
     |                   =====================                   |     
     |                         S. Grimme                         |     
     |          Mulliken Center for Theoretical Chemistry        |     
     |                    University of Bonn                     |     
      -----------------------------------------------------------      

   * xtb version 6.7.1 (edcfbbe) compiled by 'albert@albert-system' on 2024-07-22

   xtb is free software: you can redistribute it and/or modify it under
   the terms of the GNU Lesser General Public License as published by
   the Free Software Foundation, either version 3 of the License, or
   (at your option) any later version.
   
   xtb is distributed in the hope that it will be useful,
   but WITHOUT ANY WARRANTY; without even the implied warranty of
   MERCHANTABILITY or FITNESS FOR A PARTICULAR PURPOSE.  See the
   GNU Lesser General Public License for more details.
   
   Cite this work as:
   * C. Bannwarth, E. Caldeweyher, S. Ehlert, A. Hansen, P. Pracht,
     J. Seibert, S. Spicher, S. Grimme, WIREs Comput. Mol. Sci., 2020, 11,
     e01493. DOI: 10.1002/wcms.1493
   
   for GFN2-xTB:
   * C. Bannwarth, S. Ehlert and S. Grimme., J. Chem. Theory Comput., 2019,
     15, 1652-1671. DOI: 10.1021/acs.jctc.8b01176
   for GFN1-xTB:
   * S. Grimme, C. Bannwarth, P. Shushkov, J. Chem. Theory Comput., 2017,
     13, 1989-2009. DOI: 10.1021/acs.jctc.7b00118
   for GFN0-xTB:
   * P. Pracht, E. Caldeweyher, S. Ehlert, S. Grimme, ChemRxiv, 2019, preprint.
     DOI: 10.26434/chemrxiv.8326202.v1
   for GFN-FF:
   * S. Spicher and S. Grimme, Angew. Chem. Int. Ed., 2020, 59, 15665-15673.
     DOI: 10.1002/anie.202004239
   
   for ALPB and GBSA implicit solvation:
   * S. Ehlert, M. Stahn, S. Spicher, S. Grimme, J. Chem. Theory Comput.,
     2021, 17, 4250-4261. DOI: 10.1021/acs.jctc.1c00471
   
   for ddCOSMO and CPCM-X implicit solvation:
   * M. Stahn, S. Ehlert, S. Grimme, J. Phys. Chem. A,
     2023, XX, XXXX-XXXX. DOI: 10.1021/acs.jpca.3c04382
   
   for DFT-D4:
   * E. Caldeweyher, C. Bannwarth and S. Grimme, J. Chem. Phys., 2017,
     147, 034112. DOI: 10.1063/1.4993215
   * E. Caldeweyher, S. Ehlert, A. Hansen, H. Neugebauer, S. Spicher,
     C. Bannwarth and S. Grimme, J. Chem. Phys., 2019, 150, 154122.
     DOI: 10.1063/1.5090222
   * E. Caldeweyher, J.-M. Mewes, S. Ehlert and S. Grimme, Phys. Chem. Chem. Phys.
     2020, 22, 8499-8512. DOI: 10.1039/D0CP00502A
   
   for sTDA-xTB:
   * S. Grimme and C. Bannwarth, J. Chem. Phys., 2016, 145, 054103.
     DOI: 10.1063/1.4959605
   
   in the mass-spec context:
   * V. Asgeirsson, C. Bauer and S. Grimme, Chem. Sci., 2017, 8, 4879.
     DOI: 10.1039/c7sc00601b
   * J. Koopman and S. Grimme, ACS Omega 2019, 4, 12, 15120-15133.
     DOI: 10.1021/acsomega.9b02011
   
   for metadynamics refer to:
   * S. Grimme, J. Chem. Theory Comput., 2019, 155, 2847-2862
     DOI: 10.1021/acs.jctc.9b00143
   
   for SPH calculations refer to:
   * S. Spicher and S. Grimme, J. Chem. Theory Comput., 2021, 17, 1701-1714
     DOI: 10.1021/acs.jctc.0c01306
   
   for ONIOM refer to:
   * C. Plett, A. Katbashev, S. Ehlert, S. Grimme, M. Bursch,
     Phys. Chem. Chem. Phys., 2023, 25, 17860-17868. DOI: 10.1039/D3CP02178E
   
   for DIPRO refer to:
   * J. Kohn, N. Gildemeister, S. Grimme, D. Fazzi, A. Hansen,
     J. Chem. Phys., 2023, just accepted.
   
   for PTB refer to:
   * S. Grimme, M. Mueller, A. Hansen, J. Chem. Phys., 2023, 158, 124111.
     DOI: 10.1063/5.0137838
   
   with help from (in alphabetical order)
   P. Atkinson, C. Bannwarth, F. Bohle, G. Brandenburg, E. Caldeweyher
   M. Checinski, S. Dohm, S. Ehlert, S. Ehrlich, I. Gerasimov, C. Hölzer
   A. Katbashev, J. Kohn, J. Koopman, C. Lavigne, S. Lehtola, F. März, M. Müller,
   F. Musil, H. Neugebauer, J. Pisarek, C. Plett, P. Pracht, F. Pultar,
   J. Seibert, P. Shushkov, S. Spicher, M. Stahn, M. Steiner, T. Strunk,
   J. Stückrath, T. Rose, and J. Unsleber
   
 * started run on 2025/09/12 at 02:53:27.335     
   ID    Z sym.   atoms
    1    6 C      1-7, 9-16, 18-31, 33-52, 54-60
    2    7 N      8, 17
    3    8 O      32, 53
    4    1 H      61-100

           -------------------------------------------------
          |                Calculation Setup                |
           -------------------------------------------------

          program call               : xtb data2507/toluene/BPPyA/BPPyA_toluene_T1_crest.xyz --gfn 2 --uhf 2 --gbsa toluene --ohess vtight --parallel 40 --molden --ceasefiles --namespace data2507/toluene/BPPyA/BPPyA_toluene_T1_finalOpt
          calculation namespace      : data2507/toluene/BPPyA/BPPyA_toluene_T1_finalOpt
          coordinate file            : data2507/toluene/BPPyA/BPPyA_toluene_T1_crest.xyz
          omp threads                :                    40


           -------------------------------------------------
          |                 G F N 2 - x T B                 |
           -------------------------------------------------

        Reference                      10.1021/acs.jctc.8b01176
      * Hamiltonian:
        H0-scaling (s, p, d)           1.850000    2.230000    2.230000
        zeta-weighting                 0.500000
      * Dispersion:
        s8                             2.700000
        a1                             0.520000
        a2                             5.000000
        s9                             5.000000
      * Repulsion:
        kExp                           1.500000    1.000000
        rExp                           1.000000
      * Coulomb:
        alpha                          2.000000
        third order                    shell-resolved
        anisotropic                    true
        a3                             3.000000
        a5                             4.000000
        cn-shift                       1.200000
        cn-exp                         4.000000
        max-rad                        5.000000

      * Solvation model:               GBSA
        Solvent                        toluene
        Parameter file                 internal GFN2-xTB/GBSA
        Dielectric constant                7.0000E+00
        Reference state                gsolv [1 M gas/solution]
        Free energy shift                  4.5239E-03 Eh       2.8388E+00 kcal/mol
        Temperature                        2.9815E+02 K
        Density                            8.6700E-01 kg/L
        Solvent mass                       9.2140E+01 g/mol
        Interaction kernel             Still
        Born radius scaling (c1)           1.5686E+00
        Born radii integrator          GBOBC
        Born offset                        0.0000E+00 a0       0.0000E+00 AA
        H-bond correction              false
        Ion screening                  false
        Surface tension                    1.0000E-05 Eh       1.5569E+01 dyn/cm
        Grid points                               230 per atom

          ...................................................
          :                      SETUP                      :
          :.................................................:
          :  # basis functions                 280          :
          :  # atomic orbitals                 280          :
          :  # shells                          160          :
          :  # electrons                       286          :
          :  max. iterations                   250          :
          :  Hamiltonian                  GFN2-xTB          :
          :  restarted?                      false          :
          :  GBSA solvation                   true          :
          :  PC potential                    false          :
          :  electronic temp.          300.0000000     K    :
          :  accuracy                    1.0000000          :
          :  -> integral cutoff          0.2500000E+02      :
          :  -> integral neglect         0.1000000E-07      :
          :  -> SCF convergence          0.1000000E-05 Eh   :
          :  -> wf. convergence          0.1000000E-03 e    :
          :  Broyden damping             0.4000000          :
          :  net charge                          0          :
          :  unpaired electrons                  2          :
          ...................................................

 iter      E             dE          RMSdq      gap      omega  full diag
   1   -157.0719635 -0.157072E+03  0.392E+00    0.83       0.0  T
   2   -157.1762409 -0.104277E+00  0.239E+00    0.41       1.0  T
   3   -157.1420075  0.342334E-01  0.964E-01    0.71       1.0  T
   4   -157.1925781 -0.505706E-01  0.267E-01    0.53       1.0  T
   5   -157.1971004 -0.452233E-02  0.107E-01    0.54       1.0  T
   6   -157.1977144 -0.614022E-03  0.625E-02    0.53       1.0  T
   7   -157.1982061 -0.491651E-03  0.240E-02    0.54       1.0  T
   8   -157.1982298 -0.237368E-04  0.132E-02    0.54       1.0  T
   9   -157.1982430 -0.131455E-04  0.419E-03    0.54       2.4  T
  10   -157.1982440 -0.101236E-05  0.155E-03    0.54       6.4  T
  11   -157.1982442 -0.195725E-06  0.498E-04    0.54      20.1  T
  12   -157.1982442 -0.295140E-08  0.308E-04    0.54      32.4  T

   *** convergence criteria satisfied after 12 iterations ***

         #    Occupation            Energy/Eh            Energy/eV
      -------------------------------------------------------------
         1        2.0000           -0.7383970             -20.0928
       ...           ...                  ...                  ...
       138        2.0000           -0.3887209             -10.5776
       139        2.0000           -0.3881526             -10.5622
       140        2.0000           -0.3867268             -10.5234
       141        2.0000           -0.3690902             -10.0435
       142        2.0000           -0.3573645              -9.7244
       143        1.0000           -0.3334449              -9.0735
       144        1.0000           -0.2731196              -7.4320 (HOMO)
       145        0.0000           -0.2533396              -6.8937 (LUMO)
       146        0.0000           -0.2526826              -6.8758
       147                         -0.2327880              -6.3345
       148                         -0.2326375              -6.3304
       149                         -0.2306951              -6.2775
       ...                                ...                  ...
       280                          0.7383854              20.0925
      -------------------------------------------------------------
                  HL-Gap            0.0197800 Eh            0.5382 eV
             Fermi-level           -0.3044136 Eh           -8.2835 eV
 
 transition dipole moment (au) for excitation:         143         144
     X       Y       Z   
  -3.5780  -0.1697  -0.9193  total (au/Debye):    3.698   9.400
 dE (eV)             :    1.642
 oscillator strength :  0.77784E+00

 SCC (total)                   0 d,  0 h,  0 min,  0.338 sec
 SCC setup                      ...        0 min,  0.003 sec (  0.743%)
 Dispersion                     ...        0 min,  0.005 sec (  1.464%)
 classical contributions        ...        0 min,  0.000 sec (  0.068%)
 integral evaluation            ...        0 min,  0.011 sec (  3.401%)
 iterations                     ...        0 min,  0.263 sec ( 77.863%)
 molecular gradient             ...        0 min,  0.018 sec (  5.253%)
 printout                       ...        0 min,  0.038 sec ( 11.180%)

         :::::::::::::::::::::::::::::::::::::::::::::::::::::
         ::                     SUMMARY                     ::
         :::::::::::::::::::::::::::::::::::::::::::::::::::::
         :: total energy            -154.435361031612 Eh    ::
         :: total w/o Gsasa/hb      -154.381359693496 Eh    ::
         :: gradient norm              0.006487402613 Eh/a0 ::
         :: HOMO-LUMO gap              0.538240432520 eV    ::
         ::.................................................::
         :: SCC energy              -157.194225941625 Eh    ::
         :: -> isotropic ES            0.037588501780 Eh    ::
         :: -> anisotropic ES          0.015011755726 Eh    ::
         :: -> anisotropic XC          0.071615415084 Eh    ::
         :: -> dispersion             -0.155045417544 Eh    ::
         :: -> Gsolv                  -0.057879849001 Eh    ::
         ::    -> Gelec               -0.003878510885 Eh    ::
         ::    -> Gsasa               -0.058525217987 Eh    ::
         ::    -> Ghb                  0.000000000000 Eh    ::
         ::    -> Gshift               0.004523879872 Eh    ::
         :: repulsion energy           2.758864910013 Eh    ::
         :: add. restraining           0.000000000000 Eh    ::
         :: total charge               0.000000000014 e     ::
         :::::::::::::::::::::::::::::::::::::::::::::::::::::

      ----------------------------------------------------------- 
     |                   =====================                   |
     |                        A N C O P T                        |
     |                   =====================                   |
     |               Approximate Normal Coordinate               |
     |                Rational Function Optimizer                |
      ----------------------------------------------------------- 

Optimization log is written to '/dev/null'
      ----------------------------------------------------------- 
     |                   =====================                   |
     |                        A N C O P T                        |
     |                   =====================                   |
     |               Approximate Normal Coordinate               |
     |                Rational Function Optimizer                |
      ----------------------------------------------------------- 

          ...................................................
          :                      SETUP                      :
          :.................................................:
          :   optimization level         verytight          :
          :   max. optcycles                  2000          :
          :   ANC micro-cycles                  20          :
          :   degrees of freedom               294          :
          :.................................................:
          :   RF solver                   davidson          :
          :   write xtbopt.log                true          :
          :   linear?                        false          :
          :   energy convergence         0.1000000E-06 Eh   :
          :   grad. convergence          0.2000000E-03 Eh/α :
          :   maxmium RF displ.          1.0000000          :
          :   Hlow (freq-cutoff)         0.1000000E-01      :
          :   Hmax (freq-cutoff)         5.0000000          :
          :   S6 in model hess.         20.0000000          :
          ...................................................

generating ANC from exact Hessian ...
Using Lindh-Hessian (1995)
 Shifting diagonal of input Hessian by   9.974695132147505E-003
 Lowest  eigenvalues of input Hessian
    0.000000    0.000000    0.000000    0.000000    0.000000    0.000000
    0.010000    0.010142    0.010193    0.010223    0.010312    0.010343
    0.010597    0.010621    0.010705    0.010833    0.011027    0.011226
 Highest eigenvalues
    2.151226    2.157609    2.167373    2.173384    2.179195    2.186861
 

........................................................................
.............................. CYCLE    1 ..............................
........................................................................

 iter      E             dE          RMSdq      gap      omega  full diag
   1   -157.1982442 -0.157198E+03  0.112E-04    0.54       0.0  T
   2   -157.1982442 -0.236014E-09  0.763E-05    0.54     131.0  T
   3   -157.1982442 -0.152312E-09  0.496E-05    0.54     201.6  T
     SCC iter.                  ...        0 min,  0.045 sec
     gradient                   ...        0 min,  0.017 sec
 * total energy  :  -154.4353610 Eh     change       -0.3076963E-08 Eh
   gradient norm :     0.0064879 Eh/α   predicted     0.0000000E+00 (-100.00%)
   displ. norm   :     0.0554891 α      lambda       -0.6641693E-04
   maximum displ.:     0.0204293 α      in ANC's #10, #11, #24, ...

........................................................................
.............................. CYCLE    2 ..............................
........................................................................

 iter      E             dE          RMSdq      gap      omega  full diag
   1   -157.1940424 -0.157194E+03  0.105E-02    0.54       0.0  T
   2   -157.1940445 -0.216059E-05  0.710E-03    0.54       1.4  T
   3   -157.1940451 -0.614643E-06  0.389E-03    0.54       2.6  T
   4   -157.1940456 -0.475273E-06  0.154E-03    0.54       6.5  T
   5   -157.1940458 -0.159154E-06  0.492E-04    0.54      20.3  T
   6   -157.1940458 -0.243504E-07  0.162E-04    0.54      61.7  T
     SCC iter.                  ...        0 min,  0.080 sec
     gradient                   ...        0 min,  0.016 sec
 * total energy  :  -154.4354310 Eh     change       -0.6997346E-04 Eh
   gradient norm :     0.0034714 Eh/α   predicted    -0.4560972E-04 ( -34.82%)
   displ. norm   :     0.1073241 α      lambda       -0.8364887E-04
   maximum displ.:     0.0470181 α      in ANC's #10, #11, #12, ...

........................................................................
.............................. CYCLE    3 ..............................
........................................................................

 iter      E             dE          RMSdq      gap      omega  full diag
   1   -157.1901109 -0.157190E+03  0.154E-02    0.54       0.0  T
   2   -157.1901151 -0.425373E-05  0.102E-02    0.53       1.0  T
   3   -157.1901160 -0.909586E-06  0.562E-03    0.53       1.8  T
   4   -157.1901171 -0.109344E-05  0.217E-03    0.53       4.6  T
   5   -157.1901174 -0.333254E-06  0.758E-04    0.53      13.2  T
   6   -157.1901175 -0.645804E-07  0.258E-04    0.53      38.7  T
     SCC iter.                  ...        0 min,  0.081 sec
     gradient                   ...        0 min,  0.016 sec
 * total energy  :  -154.4354822 Eh     change       -0.5122286E-04 Eh
   gradient norm :     0.0011996 Eh/α   predicted    -0.4230632E-04 ( -17.41%)
   displ. norm   :     0.1067011 α      lambda       -0.2209478E-04
   maximum displ.:     0.0522099 α      in ANC's #10, #11, #8, ...

........................................................................
.............................. CYCLE    4 ..............................
........................................................................

 iter      E             dE          RMSdq      gap      omega  full diag
   1   -157.1897270 -0.157190E+03  0.118E-02    0.53       0.0  T
   2   -157.1897277 -0.724697E-06  0.723E-03    0.53       1.4  T
   3   -157.1897266  0.107956E-05  0.382E-03    0.53       2.6  T
   4   -157.1897280 -0.137957E-05  0.932E-04    0.53      10.7  T
   5   -157.1897281 -0.902520E-07  0.412E-04    0.53      24.3  T
   6   -157.1897281 -0.240087E-07  0.133E-04    0.53      74.9  T
     SCC iter.                  ...        0 min,  0.079 sec
     gradient                   ...        0 min,  0.016 sec
 * total energy  :  -154.4355072 Eh     change       -0.2492060E-04 Eh
   gradient norm :     0.0024831 Eh/α   predicted    -0.1135605E-04 ( -54.43%)
   displ. norm   :     0.0966126 α      lambda       -0.2940739E-04
   maximum displ.:     0.0464172 α      in ANC's #10, #11, #8, ...

........................................................................
.............................. CYCLE    5 ..............................
........................................................................

 iter      E             dE          RMSdq      gap      omega  full diag
   1   -157.1907443 -0.157191E+03  0.945E-03    0.53       0.0  T
   2   -157.1907444 -0.405885E-07  0.557E-03    0.53       1.8  T
   3   -157.1907442  0.170143E-06  0.117E-03    0.53       8.6  T
   4   -157.1907444 -0.178819E-06  0.295E-04    0.53      34.0  T
   5   -157.1907444 -0.124937E-07  0.122E-04    0.53      82.3  T
     SCC iter.                  ...        0 min,  0.065 sec
     gradient                   ...        0 min,  0.016 sec
 * total energy  :  -154.4355325 Eh     change       -0.2530176E-04 Eh
   gradient norm :     0.0021172 Eh/α   predicted    -0.1484138E-04 ( -41.34%)
   displ. norm   :     0.2081900 α      lambda       -0.5135958E-04
   maximum displ.:     0.0985446 α      in ANC's #10, #11, #8, ...

........................................................................
.............................. CYCLE    6 ..............................
........................................................................

 iter      E             dE          RMSdq      gap      omega  full diag
   1   -157.1920740 -0.157192E+03  0.185E-02    0.53       0.0  T
   2   -157.1920743 -0.281108E-06  0.109E-02    0.53       1.0  T
   3   -157.1920735  0.735574E-06  0.257E-03    0.53       3.9  T
   4   -157.1920744 -0.810970E-06  0.547E-04    0.53      18.3  T
   5   -157.1920744 -0.307805E-07  0.282E-04    0.53      35.4  T
     SCC iter.                  ...        0 min,  0.067 sec
     gradient                   ...        0 min,  0.017 sec
 * total energy  :  -154.4355697 Eh     change       -0.3729446E-04 Eh
   gradient norm :     0.0012653 Eh/α   predicted    -0.2679457E-04 ( -28.15%)
   displ. norm   :     0.2687330 α      lambda       -0.2686140E-04
   maximum displ.:     0.1253090 α      in ANC's #10, #8, #11, ...

........................................................................
.............................. CYCLE    7 ..............................
........................................................................

 iter      E             dE          RMSdq      gap      omega  full diag
   1   -157.1924681 -0.157192E+03  0.209E-02    0.53       0.0  T
   2   -157.1924685 -0.311819E-06  0.123E-02    0.53       1.0  T
   3   -157.1924678  0.629569E-06  0.249E-03    0.53       4.0  T
   4   -157.1924686 -0.728059E-06  0.468E-04    0.53      21.4  T
   5   -157.1924686 -0.136847E-07  0.272E-04    0.53      36.7  T
     SCC iter.                  ...        0 min,  0.057 sec
     gradient                   ...        0 min,  0.016 sec
 * total energy  :  -154.4355951 Eh     change       -0.2534875E-04 Eh
   gradient norm :     0.0012712 Eh/α   predicted    -0.1386874E-04 ( -45.29%)
   displ. norm   :     0.1297724 α      lambda       -0.1249010E-04
   maximum displ.:     0.0564162 α      in ANC's #2, #10, #8, ...

........................................................................
.............................. CYCLE    8 ..............................
........................................................................

 iter      E             dE          RMSdq      gap      omega  full diag
   1   -157.1921817 -0.157192E+03  0.994E-03    0.53       0.0  T
   2   -157.1921818 -0.636733E-07  0.587E-03    0.53       1.7  T
   3   -157.1921816  0.200004E-06  0.143E-03    0.53       7.0  T
   4   -157.1921818 -0.222181E-06  0.290E-04    0.53      34.4  T
   5   -157.1921818 -0.835939E-08  0.159E-04    0.53      62.7  T
     SCC iter.                  ...        0 min,  0.057 sec
     gradient                   ...        0 min,  0.017 sec
 * total energy  :  -154.4356105 Eh     change       -0.1535650E-04 Eh
   gradient norm :     0.0009301 Eh/α   predicted    -0.6295820E-05 ( -59.00%)
   displ. norm   :     0.1602322 α      lambda       -0.1733352E-04
   maximum displ.:     0.0784801 α      in ANC's #2, #8, #10, ...

........................................................................
.............................. CYCLE    9 ..............................
........................................................................

 iter      E             dE          RMSdq      gap      omega  full diag
   1   -157.1918066 -0.157192E+03  0.165E-02    0.53       0.0  T
   2   -157.1918068 -0.149409E-06  0.971E-03    0.53       1.0  T
   3   -157.1918065  0.291167E-06  0.186E-03    0.53       5.4  T
   4   -157.1918068 -0.337406E-06  0.365E-04    0.53      27.4  T
   5   -157.1918068 -0.924049E-08  0.220E-04    0.53      45.4  T
     SCC iter.                  ...        0 min,  0.057 sec
     gradient                   ...        0 min,  0.017 sec
 * total energy  :  -154.4356296 Eh     change       -0.1919190E-04 Eh
   gradient norm :     0.0007369 Eh/α   predicted    -0.8766622E-05 ( -54.32%)
   displ. norm   :     0.1438176 α      lambda       -0.1125951E-04
   maximum displ.:     0.0763606 α      in ANC's #2, #8, #1, ...

........................................................................
.............................. CYCLE   10 ..............................
........................................................................

 iter      E             dE          RMSdq      gap      omega  full diag
   1   -157.1916626 -0.157192E+03  0.159E-02    0.53       0.0  T
   2   -157.1916627 -0.942590E-07  0.933E-03    0.53       1.1  T
   3   -157.1916625  0.181999E-06  0.145E-03    0.53       6.9  T
   4   -157.1916627 -0.220904E-06  0.258E-04    0.53      38.8  T
   5   -157.1916627 -0.246106E-08  0.160E-04    0.53      62.4  T
     SCC iter.                  ...        0 min,  0.057 sec
     gradient                   ...        0 min,  0.017 sec
 * total energy  :  -154.4356427 Eh     change       -0.1307745E-04 Eh
   gradient norm :     0.0007953 Eh/α   predicted    -0.5682167E-05 ( -56.55%)
   displ. norm   :     0.1274040 α      lambda       -0.9933811E-05
   maximum displ.:     0.0718176 α      in ANC's #2, #1, #8, ...

........................................................................
.............................. CYCLE   11 ..............................
........................................................................

 iter      E             dE          RMSdq      gap      omega  full diag
   1   -157.1916576 -0.157192E+03  0.149E-02    0.53       0.0  T
   2   -157.1916577 -0.578619E-07  0.875E-03    0.53       1.1  T
   3   -157.1916576  0.107133E-06  0.113E-03    0.53       8.8  T
   4   -157.1916577 -0.134610E-06  0.213E-04    0.53      47.0  T
   5   -157.1916577 -0.988024E-09  0.135E-04    0.53      74.1  T
     SCC iter.                  ...        0 min,  0.057 sec
     gradient                   ...        0 min,  0.017 sec
 * total energy  :  -154.4356553 Eh     change       -0.1254425E-04 Eh
   gradient norm :     0.0006963 Eh/α   predicted    -0.5003770E-05 ( -60.11%)
   displ. norm   :     0.1550989 α      lambda       -0.1295856E-04
   maximum displ.:     0.0898171 α      in ANC's #2, #1, #8, ...

........................................................................
.............................. CYCLE   12 ..............................
........................................................................

 iter      E             dE          RMSdq      gap      omega  full diag
   1   -157.1916638 -0.157192E+03  0.183E-02    0.53       0.0  T
   2   -157.1916639 -0.679208E-07  0.108E-02    0.53       1.0  T
   3   -157.1916637  0.196576E-06  0.129E-03    0.53       7.8  T
   4   -157.1916639 -0.223533E-06  0.357E-04    0.53      28.0  T
   5   -157.1916639 -0.123588E-07  0.202E-04    0.53      49.5  T
     SCC iter.                  ...        0 min,  0.057 sec
     gradient                   ...        0 min,  0.017 sec
 * total energy  :  -154.4356715 Eh     change       -0.1619253E-04 Eh
   gradient norm :     0.0006101 Eh/α   predicted    -0.6551735E-05 ( -59.54%)
   displ. norm   :     0.1916864 α      lambda       -0.1472693E-04
   maximum displ.:     0.1126640 α      in ANC's #2, #1, #8, ...

........................................................................
.............................. CYCLE   13 ..............................
........................................................................

 iter      E             dE          RMSdq      gap      omega  full diag
   1   -157.1915397 -0.157192E+03  0.220E-02    0.53       0.0  T
   2   -157.1915398 -0.849857E-07  0.130E-02    0.53       1.0  T
   3   -157.1915396  0.198335E-06  0.128E-03    0.53       7.8  T
   4   -157.1915398 -0.231082E-06  0.412E-04    0.53      24.3  T
   5   -157.1915398 -0.157650E-07  0.236E-04    0.53      42.4  T
     SCC iter.                  ...        0 min,  0.057 sec
     gradient                   ...        0 min,  0.017 sec
 * total energy  :  -154.4356891 Eh     change       -0.1759739E-04 Eh
   gradient norm :     0.0007304 Eh/α   predicted    -0.7485147E-05 ( -57.46%)
   displ. norm   :     0.1859592 α      lambda       -0.1252731E-04
   maximum displ.:     0.1115532 α      in ANC's #2, #1, #8, ...

........................................................................
.............................. CYCLE   14 ..............................
........................................................................

 iter      E             dE          RMSdq      gap      omega  full diag
   1   -157.1915040 -0.157192E+03  0.208E-02    0.53       0.0  T
   2   -157.1915041 -0.846279E-07  0.122E-02    0.53       1.0  T
   3   -157.1915038  0.268106E-06  0.145E-03    0.53       6.9  T
   4   -157.1915041 -0.294090E-06  0.459E-04    0.53      21.8  T
   5   -157.1915041 -0.253408E-07  0.226E-04    0.53      44.3  T
     SCC iter.                  ...        0 min,  0.057 sec
     gradient                   ...        0 min,  0.017 sec
 * total energy  :  -154.4357044 Eh     change       -0.1536544E-04 Eh
   gradient norm :     0.0007460 Eh/α   predicted    -0.6360692E-05 ( -58.60%)
   displ. norm   :     0.1770801 α      lambda       -0.1175092E-04
   maximum displ.:     0.1081149 α      in ANC's #2, #1, #8, ...

........................................................................
.............................. CYCLE   15 ..............................
........................................................................

 iter      E             dE          RMSdq      gap      omega  full diag
   1   -157.1914904 -0.157191E+03  0.194E-02    0.53       0.0  T
   2   -157.1914905 -0.901680E-07  0.114E-02    0.53       1.0  T
   3   -157.1914903  0.179867E-06  0.138E-03    0.53       7.2  T
   4   -157.1914905 -0.207030E-06  0.393E-04    0.53      25.4  T
   5   -157.1914905 -0.163423E-07  0.220E-04    0.53      45.5  T
     SCC iter.                  ...        0 min,  0.057 sec
     gradient                   ...        0 min,  0.016 sec
 * total energy  :  -154.4357195 Eh     change       -0.1506758E-04 Eh
   gradient norm :     0.0005924 Eh/α   predicted    -0.5959640E-05 ( -60.45%)
   displ. norm   :     0.1957642 α      lambda       -0.1290467E-04
   maximum displ.:     0.1211608 α      in ANC's #2, #1, #8, ...

........................................................................
.............................. CYCLE   16 ..............................
........................................................................

 iter      E             dE          RMSdq      gap      omega  full diag
   1   -157.1915164 -0.157192E+03  0.204E-02    0.53       0.0  T
   2   -157.1915165 -0.116694E-06  0.120E-02    0.53       1.0  T
   3   -157.1915162  0.246998E-06  0.162E-03    0.53       6.2  T
   4   -157.1915165 -0.280327E-06  0.436E-04    0.53      23.0  T
   5   -157.1915165 -0.210293E-07  0.237E-04    0.53      42.2  T
     SCC iter.                  ...        0 min,  0.057 sec
     gradient                   ...        0 min,  0.017 sec
 * total energy  :  -154.4357359 Eh     change       -0.1640104E-04 Eh
   gradient norm :     0.0004277 Eh/α   predicted    -0.6563676E-05 ( -59.98%)
   displ. norm   :     0.2145957 α      lambda       -0.1285942E-04
   maximum displ.:     0.1342427 α      in ANC's #2, #1, #8, ...

........................................................................
.............................. CYCLE   17 ..............................
........................................................................

 iter      E             dE          RMSdq      gap      omega  full diag
   1   -157.1915101 -0.157192E+03  0.205E-02    0.53       0.0  T
   2   -157.1915102 -0.118816E-06  0.120E-02    0.53       1.0  T
   3   -157.1915101  0.196847E-06  0.155E-03    0.53       6.5  T
   4   -157.1915103 -0.246736E-06  0.333E-04    0.53      30.0  T
   5   -157.1915103 -0.457717E-08  0.216E-04    0.53      46.3  T
     SCC iter.                  ...        0 min,  0.057 sec
     gradient                   ...        0 min,  0.017 sec
 * total energy  :  -154.4357522 Eh     change       -0.1633145E-04 Eh
   gradient norm :     0.0004769 Eh/α   predicted    -0.6562672E-05 ( -59.82%)
   displ. norm   :     0.2101809 α      lambda       -0.1204536E-04
   maximum displ.:     0.1324771 α      in ANC's #2, #1, #8, ...

........................................................................
.............................. CYCLE   18 ..............................
........................................................................

 iter      E             dE          RMSdq      gap      omega  full diag
   1   -157.1916174 -0.157192E+03  0.180E-02    0.53       0.0  T
   2   -157.1916174 -0.926247E-07  0.106E-02    0.53       1.0  T
   3   -157.1916172  0.215043E-06  0.149E-03    0.53       6.7  T
   4   -157.1916175 -0.254877E-06  0.338E-04    0.53      29.6  T
   5   -157.1916175 -0.689144E-08  0.201E-04    0.53      49.7  T
     SCC iter.                  ...        0 min,  0.065 sec
     gradient                   ...        0 min,  0.018 sec
 * total energy  :  -154.4357681 Eh     change       -0.1584378E-04 Eh
   gradient norm :     0.0006105 Eh/α   predicted    -0.6142088E-05 ( -61.23%)
   displ. norm   :     0.2262367 α      lambda       -0.1393267E-04
   maximum displ.:     0.1426789 α      in ANC's #2, #1, #8, ...

........................................................................
.............................. CYCLE   19 ..............................
........................................................................

 iter      E             dE          RMSdq      gap      omega  full diag
   1   -157.1917144 -0.157192E+03  0.177E-02    0.52       0.0  T
   2   -157.1917145 -0.883183E-07  0.104E-02    0.52       1.0  T
   3   -157.1917142  0.236285E-06  0.152E-03    0.52       6.6  T
   4   -157.1917145 -0.280306E-06  0.313E-04    0.52      32.0  T
   5   -157.1917145 -0.469433E-08  0.183E-04    0.52      54.6  T
     SCC iter.                  ...        0 min,  0.057 sec
     gradient                   ...        0 min,  0.016 sec
 * total energy  :  -154.4357871 Eh     change       -0.1899351E-04 Eh
   gradient norm :     0.0006812 Eh/α   predicted    -0.7126762E-05 ( -62.48%)
   displ. norm   :     0.2960817 α      lambda       -0.1956014E-04
   maximum displ.:     0.1867967 α      in ANC's #2, #1, #8, ...

........................................................................
.............................. CYCLE   20 ..............................
........................................................................

 iter      E             dE          RMSdq      gap      omega  full diag
   1   -157.1917211 -0.157192E+03  0.226E-02    0.52       0.0  T
   2   -157.1917213 -0.148456E-06  0.133E-02    0.52       1.0  T
   3   -157.1917208  0.474933E-06  0.208E-03    0.52       4.8  T
   4   -157.1917213 -0.537547E-06  0.472E-04    0.52      21.2  T
   5   -157.1917213 -0.174756E-07  0.272E-04    0.52      36.7  T
     SCC iter.                  ...        0 min,  0.058 sec
     gradient                   ...        0 min,  0.017 sec
 * total energy  :  -154.4358131 Eh     change       -0.2601663E-04 Eh
   gradient norm :     0.0006686 Eh/α   predicted    -0.1016322E-04 ( -60.94%)
   displ. norm   :     0.3604728 α      lambda       -0.2268607E-04
   maximum displ.:     0.2285036 α      in ANC's #2, #1, #8, ...
 * RMSD in coord.:     0.2973295 α      energy gain  -0.4520444E-03 Eh

generating ANC from exact Hessian ...
Using Lindh-Hessian (1995)
 Shifting diagonal of input Hessian by   9.966028950954353E-003
 Lowest  eigenvalues of input Hessian
    0.000000    0.000000    0.000000    0.000000    0.000000    0.000000
    0.010000    0.010106    0.010179    0.010219    0.010296    0.010328
    0.010463    0.010584    0.010673    0.010779    0.010914    0.011199
 Highest eigenvalues
    2.143225    2.150732    2.161483    2.166554    2.172837    2.181835
 

........................................................................
.............................. CYCLE   21 ..............................
........................................................................

 iter      E             dE          RMSdq      gap      omega  full diag
   1   -157.1916337 -0.157192E+03  0.273E-02    0.52       0.0  T
   2   -157.1916339 -0.211972E-06  0.161E-02    0.52       1.0  T
   3   -157.1916333  0.616737E-06  0.241E-03    0.52       4.2  T
   4   -157.1916340 -0.706790E-06  0.539E-04    0.52      18.5  T
   5   -157.1916340 -0.203629E-07  0.318E-04    0.52      31.5  T
     SCC iter.                  ...        0 min,  0.057 sec
     gradient                   ...        0 min,  0.017 sec
 * total energy  :  -154.4358418 Eh     change       -0.2868938E-04 Eh
   gradient norm :     0.0005826 Eh/α   predicted     0.0000000E+00 (-100.00%)
   displ. norm   :     0.0269922 α      lambda       -0.3068686E-06
   maximum displ.:     0.0112721 α      in ANC's #2, #9, #22, ...

........................................................................
.............................. CYCLE   22 ..............................
........................................................................

 iter      E             dE          RMSdq      gap      omega  full diag
   1   -157.1920180 -0.157192E+03  0.410E-03    0.52       0.0  T
   2   -157.1920180 -0.106762E-07  0.241E-03    0.52       4.1  T
   3   -157.1920179  0.598510E-07  0.686E-04    0.52      14.6  T
   4   -157.1920180 -0.615815E-07  0.178E-04    0.52      56.1  T
     SCC iter.                  ...        0 min,  0.046 sec
     gradient                   ...        0 min,  0.016 sec
 * total energy  :  -154.4358477 Eh     change       -0.5963244E-05 Eh
   gradient norm :     0.0003461 Eh/α   predicted    -0.2330899E-05 ( -60.91%)
   displ. norm   :     0.1068437 α      lambda       -0.1355376E-04
   maximum displ.:     0.0460356 α      in ANC's #2, #9, #1, ...

........................................................................
.............................. CYCLE   23 ..............................
........................................................................

 iter      E             dE          RMSdq      gap      omega  full diag
   1   -157.1919316 -0.157192E+03  0.147E-02    0.52       0.0  T
   2   -157.1919317 -0.100853E-06  0.867E-03    0.52       1.2  T
   3   -157.1919314  0.318093E-06  0.164E-03    0.52       6.1  T
   4   -157.1919317 -0.348085E-06  0.391E-04    0.52      25.6  T
   5   -157.1919317 -0.175312E-07  0.192E-04    0.52      52.2  T
     SCC iter.                  ...        0 min,  0.057 sec
     gradient                   ...        0 min,  0.017 sec
 * total energy  :  -154.4358600 Eh     change       -0.1227394E-04 Eh
   gradient norm :     0.0004751 Eh/α   predicted    -0.6812140E-05 ( -44.50%)
   displ. norm   :     0.0560241 α      lambda       -0.3900821E-05
   maximum displ.:     0.0285933 α      in ANC's #2, #1, #9, ...

........................................................................
.............................. CYCLE   24 ..............................
........................................................................

 iter      E             dE          RMSdq      gap      omega  full diag
   1   -157.1916668 -0.157192E+03  0.685E-03    0.52       0.0  T
   2   -157.1916668 -0.173962E-07  0.403E-03    0.52       2.5  T
   3   -157.1916667  0.110071E-06  0.873E-04    0.52      11.4  T
   4   -157.1916668 -0.114758E-06  0.222E-04    0.52      45.1  T
     SCC iter.                  ...        0 min,  0.046 sec
     gradient                   ...        0 min,  0.017 sec
 * total energy  :  -154.4358645 Eh     change       -0.4543951E-05 Eh
   gradient norm :     0.0004396 Eh/α   predicted    -0.1953995E-05 ( -57.00%)
   displ. norm   :     0.0792578 α      lambda       -0.5504871E-05
   maximum displ.:     0.0417526 α      in ANC's #2, #1, #9, ...

........................................................................
.............................. CYCLE   25 ..............................
........................................................................

 iter      E             dE          RMSdq      gap      omega  full diag
   1   -157.1916272 -0.157192E+03  0.893E-03    0.52       0.0  T
   2   -157.1916272 -0.166305E-07  0.525E-03    0.52       1.9  T
   3   -157.1916270  0.267637E-06  0.126E-03    0.52       7.9  T
   4   -157.1916272 -0.281296E-06  0.247E-04    0.52      40.4  T
   5   -157.1916272 -0.839154E-08  0.931E-05    0.52     107.4  T
     SCC iter.                  ...        0 min,  0.058 sec
     gradient                   ...        0 min,  0.017 sec
 * total energy  :  -154.4358715 Eh     change       -0.6924343E-05 Eh
   gradient norm :     0.0003499 Eh/α   predicted    -0.2760604E-05 ( -60.13%)
   displ. norm   :     0.1146219 α      lambda       -0.7405375E-05
   maximum displ.:     0.0621432 α      in ANC's #2, #1, #9, ...

........................................................................
.............................. CYCLE   26 ..............................
........................................................................

 iter      E             dE          RMSdq      gap      omega  full diag
   1   -157.1916373 -0.157192E+03  0.125E-02    0.52       0.0  T
   2   -157.1916373 -0.278544E-07  0.734E-03    0.52       1.4  T
   3   -157.1916366  0.663619E-06  0.202E-03    0.52       4.9  T
   4   -157.1916374 -0.707616E-06  0.316E-04    0.52      31.6  T
   5   -157.1916374 -0.120425E-07  0.140E-04    0.52      71.4  T
     SCC iter.                  ...        0 min,  0.058 sec
     gradient                   ...        0 min,  0.017 sec
 * total energy  :  -154.4358799 Eh     change       -0.8456810E-05 Eh
   gradient norm :     0.0003130 Eh/α   predicted    -0.3724621E-05 ( -55.96%)
   displ. norm   :     0.1068074 α      lambda       -0.5204763E-05
   maximum displ.:     0.0600618 α      in ANC's #2, #1, #9, ...

........................................................................
.............................. CYCLE   27 ..............................
........................................................................

 iter      E             dE          RMSdq      gap      omega  full diag
   1   -157.1918213 -0.157192E+03  0.112E-02    0.52       0.0  T
   2   -157.1918214 -0.287342E-07  0.659E-03    0.52       1.5  T
   3   -157.1918210  0.335571E-06  0.153E-03    0.52       6.6  T
   4   -157.1918214 -0.366404E-06  0.228E-04    0.52      43.8  T
   5   -157.1918214 -0.425177E-08  0.130E-04    0.52      77.2  T
     SCC iter.                  ...        0 min,  0.057 sec
     gradient                   ...        0 min,  0.017 sec
 * total energy  :  -154.4358861 Eh     change       -0.6209437E-05 Eh
   gradient norm :     0.0003321 Eh/α   predicted    -0.2616722E-05 ( -57.86%)
   displ. norm   :     0.1018957 α      lambda       -0.4894555E-05
   maximum displ.:     0.0587445 α      in ANC's #2, #1, #9, ...

........................................................................
.............................. CYCLE   28 ..............................
........................................................................

 iter      E             dE          RMSdq      gap      omega  full diag
   1   -157.1919973 -0.157192E+03  0.105E-02    0.52       0.0  T
   2   -157.1919973 -0.239926E-07  0.616E-03    0.52       1.6  T
   3   -157.1919971  0.190897E-06  0.119E-03    0.52       8.4  T
   4   -157.1919973 -0.211639E-06  0.188E-04    0.52      53.3  T
   5   -157.1919973 -0.201408E-08  0.116E-04    0.52      86.4  T
     SCC iter.                  ...        0 min,  0.057 sec
     gradient                   ...        0 min,  0.017 sec
 * total energy  :  -154.4358924 Eh     change       -0.6263931E-05 Eh
   gradient norm :     0.0003383 Eh/α   predicted    -0.2461222E-05 ( -60.71%)
   displ. norm   :     0.1271571 α      lambda       -0.6521881E-05
   maximum displ.:     0.0740845 α      in ANC's #2, #1, #9, ...

........................................................................
.............................. CYCLE   29 ..............................
........................................................................

 iter      E             dE          RMSdq      gap      omega  full diag
   1   -157.1920807 -0.157192E+03  0.129E-02    0.52       0.0  T
   2   -157.1920807 -0.286723E-07  0.760E-03    0.52       1.3  T
   3   -157.1920806  0.870222E-07  0.893E-04    0.52      11.2  T
   4   -157.1920807 -0.103180E-06  0.194E-04    0.52      51.5  T
     SCC iter.                  ...        0 min,  0.049 sec
     gradient                   ...        0 min,  0.019 sec
 * total energy  :  -154.4359006 Eh     change       -0.8206313E-05 Eh
   gradient norm :     0.0003282 Eh/α   predicted    -0.3287023E-05 ( -59.95%)
   displ. norm   :     0.1496524 α      lambda       -0.7002751E-05
   maximum displ.:     0.0885350 α      in ANC's #2, #1, #9, ...

........................................................................
.............................. CYCLE   30 ..............................
........................................................................

 iter      E             dE          RMSdq      gap      omega  full diag
   1   -157.1920589 -0.157192E+03  0.145E-02    0.52       0.0  T
   2   -157.1920590 -0.329120E-07  0.851E-03    0.52       1.2  T
   3   -157.1920588  0.126860E-06  0.973E-04    0.52      10.3  T
   4   -157.1920590 -0.141675E-06  0.277E-04    0.52      36.2  T
     SCC iter.                  ...        0 min,  0.048 sec
     gradient                   ...        0 min,  0.016 sec
 * total energy  :  -154.4359089 Eh     change       -0.8304400E-05 Eh
   gradient norm :     0.0002741 Eh/α   predicted    -0.3538265E-05 ( -57.39%)
   displ. norm   :     0.1251912 α      lambda       -0.4901102E-05
   maximum displ.:     0.0757587 α      in ANC's #2, #1, #9, ...

........................................................................
.............................. CYCLE   31 ..............................
........................................................................

 iter      E             dE          RMSdq      gap      omega  full diag
   1   -157.1919707 -0.157192E+03  0.111E-02    0.52       0.0  T
   2   -157.1919707 -0.209879E-07  0.649E-03    0.52       1.5  T
   3   -157.1919706  0.131385E-06  0.936E-04    0.52      10.7  T
   4   -157.1919707 -0.142641E-06  0.236E-04    0.52      42.3  T
     SCC iter.                  ...        0 min,  0.046 sec
     gradient                   ...        0 min,  0.016 sec
 * total energy  :  -154.4359149 Eh     change       -0.5986411E-05 Eh
   gradient norm :     0.0002276 Eh/α   predicted    -0.2469284E-05 ( -58.75%)
   displ. norm   :     0.1048746 α      lambda       -0.4157205E-05
   maximum displ.:     0.0645877 α      in ANC's #2, #1, #5, ...

........................................................................
.............................. CYCLE   32 ..............................
........................................................................

 iter      E             dE          RMSdq      gap      omega  full diag
   1   -157.1919422 -0.157192E+03  0.844E-03    0.52       0.0  T
   2   -157.1919422 -0.158200E-07  0.496E-03    0.52       2.0  T
   3   -157.1919421  0.905143E-07  0.796E-04    0.53      12.6  T
   4   -157.1919422 -0.973486E-07  0.205E-04    0.52      48.7  T
     SCC iter.                  ...        0 min,  0.046 sec
     gradient                   ...        0 min,  0.016 sec
 * total energy  :  -154.4359203 Eh     change       -0.5427293E-05 Eh
   gradient norm :     0.0002177 Eh/α   predicted    -0.2091238E-05 ( -61.47%)
   displ. norm   :     0.1172508 α      lambda       -0.5102167E-05
   maximum displ.:     0.0723065 α      in ANC's #2, #1, #5, ...

........................................................................
.............................. CYCLE   33 ..............................
........................................................................

 iter      E             dE          RMSdq      gap      omega  full diag
   1   -157.1918606 -0.157192E+03  0.942E-03    0.53       0.0  T
   2   -157.1918606 -0.197222E-07  0.554E-03    0.53       1.8  T
   3   -157.1918605  0.873485E-07  0.810E-04    0.53      12.3  T
   4   -157.1918606 -0.937675E-07  0.231E-04    0.53      43.3  T
     SCC iter.                  ...        0 min,  0.046 sec
     gradient                   ...        0 min,  0.016 sec
 * total energy  :  -154.4359270 Eh     change       -0.6658570E-05 Eh
   gradient norm :     0.0002312 Eh/α   predicted    -0.2570029E-05 ( -61.40%)
   displ. norm   :     0.1469791 α      lambda       -0.6067635E-05
   maximum displ.:     0.0904152 α      in ANC's #2, #1, #5, ...

........................................................................
.............................. CYCLE   34 ..............................
........................................................................

 iter      E             dE          RMSdq      gap      omega  full diag
   1   -157.1917942 -0.157192E+03  0.122E-02    0.53       0.0  T
   2   -157.1917942 -0.293327E-07  0.716E-03    0.53       1.4  T
   3   -157.1917942  0.520261E-07  0.742E-04    0.53      13.5  T
   4   -157.1917942 -0.624874E-07  0.233E-04    0.53      42.9  T
     SCC iter.                  ...        0 min,  0.046 sec
     gradient                   ...        0 min,  0.016 sec
 * total energy  :  -154.4359345 Eh     change       -0.7517480E-05 Eh
   gradient norm :     0.0002403 Eh/α   predicted    -0.3065254E-05 ( -59.22%)
   displ. norm   :     0.1479851 α      lambda       -0.4969837E-05
   maximum displ.:     0.0921196 α      in ANC's #1, #2, #5, ...

........................................................................
.............................. CYCLE   35 ..............................
........................................................................

 iter      E             dE          RMSdq      gap      omega  full diag
   1   -157.1917863 -0.157192E+03  0.122E-02    0.53       0.0  T
   2   -157.1917863 -0.272566E-07  0.716E-03    0.53       1.4  T
   3   -157.1917861  0.194005E-06  0.117E-03    0.53       8.5  T
   4   -157.1917863 -0.211293E-06  0.263E-04    0.53      38.0  T
   5   -157.1917863 -0.632355E-08  0.144E-04    0.53      69.6  T
     SCC iter.                  ...        0 min,  0.057 sec
     gradient                   ...        0 min,  0.016 sec
 * total energy  :  -154.4359404 Eh     change       -0.5948290E-05 Eh
   gradient norm :     0.0002301 Eh/α   predicted    -0.2512922E-05 ( -57.75%)
   displ. norm   :     0.1167993 α      lambda       -0.3279384E-05
   maximum displ.:     0.0741362 α      in ANC's #1, #2, #5, ...

........................................................................
.............................. CYCLE   36 ..............................
........................................................................

 iter      E             dE          RMSdq      gap      omega  full diag
   1   -157.1918623 -0.157192E+03  0.935E-03    0.53       0.0  T
   2   -157.1918623 -0.205276E-07  0.550E-03    0.53       1.8  T
   3   -157.1918622  0.127334E-06  0.101E-03    0.53       9.9  T
   4   -157.1918623 -0.144687E-06  0.153E-04    0.53      65.4  T
   5   -157.1918623 -0.656087E-09  0.944E-05    0.53     105.9  T
     SCC iter.                  ...        0 min,  0.056 sec
     gradient                   ...        0 min,  0.016 sec
 * total energy  :  -154.4359445 Eh     change       -0.4014590E-05 Eh
   gradient norm :     0.0001906 Eh/α   predicted    -0.1652416E-05 ( -58.84%)
   displ. norm   :     0.1019238 α      lambda       -0.2809737E-05
   maximum displ.:     0.0656297 α      in ANC's #1, #2, #5, ...

........................................................................
.............................. CYCLE   37 ..............................
........................................................................

 iter      E             dE          RMSdq      gap      omega  full diag
   1   -157.1919755 -0.157192E+03  0.799E-03    0.53       0.0  T
   2   -157.1919755 -0.204171E-07  0.471E-03    0.53       2.1  T
   3   -157.1919753  0.139441E-06  0.104E-03    0.53       9.6  T
   4   -157.1919755 -0.157069E-06  0.140E-04    0.53      71.3  T
   5   -157.1919755 -0.779465E-09  0.814E-05    0.53     122.9  T
     SCC iter.                  ...        0 min,  0.056 sec
     gradient                   ...        0 min,  0.017 sec
 * total energy  :  -154.4359479 Eh     change       -0.3450879E-05 Eh
   gradient norm :     0.0001535 Eh/α   predicted    -0.1414875E-05 ( -59.00%)
   displ. norm   :     0.0964328 α      lambda       -0.2526689E-05
   maximum displ.:     0.0629493 α      in ANC's #1, #2, #4, ...

........................................................................
.............................. CYCLE   38 ..............................
........................................................................

 iter      E             dE          RMSdq      gap      omega  full diag
   1   -157.1920262 -0.157192E+03  0.747E-03    0.53       0.0  T
   2   -157.1920262 -0.200568E-07  0.440E-03    0.53       2.3  T
   3   -157.1920261  0.121664E-06  0.985E-04    0.53      10.1  T
   4   -157.1920262 -0.136538E-06  0.147E-04    0.53      67.9  T
     SCC iter.                  ...        0 min,  0.046 sec
     gradient                   ...        0 min,  0.016 sec
 * total energy  :  -154.4359509 Eh     change       -0.2997703E-05 Eh
   gradient norm :     0.0001476 Eh/α   predicted    -0.1269282E-05 ( -57.66%)
   displ. norm   :     0.0816440 α      lambda       -0.1861770E-05
   maximum displ.:     0.0542707 α      in ANC's #1, #2, #4, ...

........................................................................
.............................. CYCLE   39 ..............................
........................................................................

 iter      E             dE          RMSdq      gap      omega  full diag
   1   -157.1920405 -0.157192E+03  0.626E-03    0.53       0.0  T
   2   -157.1920405 -0.124437E-07  0.368E-03    0.53       2.7  T
   3   -157.1920404  0.100134E-06  0.850E-04    0.53      11.8  T
   4   -157.1920405 -0.108034E-06  0.168E-04    0.53      59.7  T
     SCC iter.                  ...        0 min,  0.046 sec
     gradient                   ...        0 min,  0.017 sec
 * total energy  :  -154.4359530 Eh     change       -0.2124215E-05 Eh
   gradient norm :     0.0001365 Eh/α   predicted    -0.9351203E-06 ( -55.98%)
   displ. norm   :     0.0554671 α      lambda       -0.1132374E-05
   maximum displ.:     0.0377016 α      in ANC's #1, #2, #4, ...

........................................................................
.............................. CYCLE   40 ..............................
........................................................................

 iter      E             dE          RMSdq      gap      omega  full diag
   1   -157.1920300 -0.157192E+03  0.416E-03    0.53       0.0  T
   2   -157.1920300 -0.323294E-08  0.245E-03    0.53       4.1  T
   3   -157.1920300  0.838622E-07  0.707E-04    0.53      14.1  T
   4   -157.1920301 -0.888930E-07  0.117E-04    0.53      85.7  T
     SCC iter.                  ...        0 min,  0.046 sec
     gradient                   ...        0 min,  0.017 sec
 * total energy  :  -154.4359544 Eh     change       -0.1328644E-05 Eh
   gradient norm :     0.0001105 Eh/α   predicted    -0.5677740E-06 ( -57.27%)
   displ. norm   :     0.0424260 α      lambda       -0.8854529E-06
   maximum displ.:     0.0294020 α      in ANC's #1, #2, #9, ...

........................................................................
.............................. CYCLE   41 ..............................
........................................................................

 iter      E             dE          RMSdq      gap      omega  full diag
   1   -157.1919923 -0.157192E+03  0.310E-03    0.53       0.0  T
   2   -157.1919923 -0.208246E-08  0.183E-03    0.53       5.5  T
   3   -157.1919922  0.165681E-07  0.330E-04    0.53      30.3  T
   4   -157.1919923 -0.177204E-07  0.816E-05    0.53     122.5  T
     SCC iter.                  ...        0 min,  0.046 sec
     gradient                   ...        0 min,  0.016 sec
 * total energy  :  -154.4359555 Eh     change       -0.1113741E-05 Eh
   gradient norm :     0.0000888 Eh/α   predicted    -0.4471023E-06 ( -59.86%)
   displ. norm   :     0.0408590 α      lambda       -0.9667814E-06
   maximum displ.:     0.0278904 α      in ANC's #1, #2, #11, ...

........................................................................
.............................. CYCLE   42 ..............................
........................................................................

 iter      E             dE          RMSdq      gap      omega  full diag
   1   -157.1919543 -0.157192E+03  0.310E-03    0.53       0.0  T
   2   -157.1919543 -0.193830E-08  0.183E-03    0.53       5.5  T
   3   -157.1919543  0.345056E-07  0.462E-04    0.53      21.6  T
   4   -157.1919543 -0.368555E-07  0.835E-05    0.53     119.8  T
     SCC iter.                  ...        0 min,  0.045 sec
     gradient                   ...        0 min,  0.016 sec
 * total energy  :  -154.4359567 Eh     change       -0.1249577E-05 Eh
   gradient norm :     0.0000927 Eh/α   predicted    -0.4866331E-06 ( -61.06%)
   displ. norm   :     0.0548328 α      lambda       -0.1277308E-05
   maximum displ.:     0.0368091 α      in ANC's #1, #2, #9, ...
 * RMSD in coord.:     0.1803875 α      energy gain  -0.1436531E-03 Eh

generating ANC from exact Hessian ...
Using Lindh-Hessian (1995)
 Shifting diagonal of input Hessian by   9.963857469400527E-003
 Lowest  eigenvalues of input Hessian
    0.000000    0.000000    0.000000    0.000000    0.000000    0.000000
    0.010000    0.010095    0.010179    0.010220    0.010290    0.010323
    0.010434    0.010585    0.010664    0.010774    0.010907    0.011191
 Highest eigenvalues
    2.144342    2.151234    2.162344    2.166600    2.173185    2.181720
 

........................................................................
.............................. CYCLE   43 ..............................
........................................................................

 iter      E             dE          RMSdq      gap      omega  full diag
   1   -157.1918973 -0.157192E+03  0.435E-03    0.53       0.0  T
   2   -157.1918973 -0.500830E-08  0.257E-03    0.53       3.9  T
   3   -157.1918973  0.257601E-07  0.447E-04    0.53      22.4  T
   4   -157.1918973 -0.287185E-07  0.972E-05    0.53     102.9  T
     SCC iter.                  ...        0 min,  0.046 sec
     gradient                   ...        0 min,  0.017 sec
 * total energy  :  -154.4359583 Eh     change       -0.1573280E-05 Eh
   gradient norm :     0.0001165 Eh/α   predicted     0.0000000E+00 (-100.00%)
   displ. norm   :     0.0076186 α      lambda       -0.1421239E-07
   maximum displ.:     0.0036470 α      in ANC's #1, #13, #11, ...

........................................................................
.............................. CYCLE   44 ..............................
........................................................................

 iter      E             dE          RMSdq      gap      omega  full diag
   1   -157.1919107 -0.157192E+03  0.121E-03    0.53       0.0  T
   2   -157.1919107 -0.591172E-09  0.712E-04    0.53      14.0  T
   3   -157.1919107  0.679751E-08  0.221E-04    0.53      45.2  T
     SCC iter.                  ...        0 min,  0.035 sec
     gradient                   ...        0 min,  0.016 sec
 * total energy  :  -154.4359587 Eh     change       -0.4427018E-06 Eh
   gradient norm :     0.0000728 Eh/α   predicted    -0.1695619E-06 ( -61.70%)
   displ. norm   :     0.0312419 α      lambda       -0.1092196E-05
   maximum displ.:     0.0149285 α      in ANC's #1, #13, #11, ...

........................................................................
.............................. CYCLE   45 ..............................
........................................................................

 iter      E             dE          RMSdq      gap      omega  full diag
   1   -157.1919924 -0.157192E+03  0.462E-03    0.53       0.0  T
   2   -157.1919924 -0.115175E-07  0.271E-03    0.53       3.7  T
   3   -157.1919924  0.510464E-07  0.659E-04    0.53      15.2  T
   4   -157.1919924 -0.571492E-07  0.105E-04    0.53      95.4  T
     SCC iter.                  ...        0 min,  0.045 sec
     gradient                   ...        0 min,  0.016 sec
 * total energy  :  -154.4359597 Eh     change       -0.9666570E-06 Eh
   gradient norm :     0.0001158 Eh/α   predicted    -0.5464114E-06 ( -43.47%)
   displ. norm   :     0.0140579 α      lambda       -0.2472351E-06
   maximum displ.:     0.0083830 α      in ANC's #1, #11, #5, ...

........................................................................
.............................. CYCLE   46 ..............................
........................................................................

 iter      E             dE          RMSdq      gap      omega  full diag
   1   -157.1920087 -0.157192E+03  0.172E-03    0.53       0.0  T
   2   -157.1920087 -0.570822E-09  0.101E-03    0.53       9.9  T
   3   -157.1920087  0.436347E-08  0.174E-04    0.53      57.6  T
   4   -157.1920087 -0.469117E-08  0.384E-05    0.53     260.7  T
     SCC iter.                  ...        0 min,  0.046 sec
     gradient                   ...        0 min,  0.017 sec
 * total energy  :  -154.4359600 Eh     change       -0.3123233E-06 Eh
   gradient norm :     0.0001102 Eh/α   predicted    -0.1340702E-06 ( -57.07%)
   displ. norm   :     0.0170038 α      lambda       -0.3411021E-06
   maximum displ.:     0.0101806 α      in ANC's #1, #5, #9, ...

........................................................................
.............................. CYCLE   47 ..............................
........................................................................

 iter      E             dE          RMSdq      gap      omega  full diag
   1   -157.1919783 -0.157192E+03  0.172E-03    0.53       0.0  T
   2   -157.1919783 -0.936495E-09  0.102E-03    0.53       9.8  T
   3   -157.1919783  0.281453E-07  0.421E-04    0.53      23.8  T
   4   -157.1919783 -0.299796E-07  0.642E-05    0.53     155.8  T
     SCC iter.                  ...        0 min,  0.045 sec
     gradient                   ...        0 min,  0.016 sec
 * total energy  :  -154.4359605 Eh     change       -0.4500702E-06 Eh
   gradient norm :     0.0001000 Eh/α   predicted    -0.1709378E-06 ( -62.02%)
   displ. norm   :     0.0305666 α      lambda       -0.6075268E-06
   maximum displ.:     0.0182925 α      in ANC's #1, #5, #9, ...

........................................................................
.............................. CYCLE   48 ..............................
........................................................................

 iter      E             dE          RMSdq      gap      omega  full diag
   1   -157.1919060 -0.157192E+03  0.294E-03    0.53       0.0  T
   2   -157.1919060 -0.404052E-08  0.174E-03    0.53       5.8  T
   3   -157.1919059  0.388996E-07  0.531E-04    0.53      18.8  T
   4   -157.1919060 -0.424323E-07  0.815E-05    0.53     122.8  T
     SCC iter.                  ...        0 min,  0.046 sec
     gradient                   ...        0 min,  0.017 sec
 * total energy  :  -154.4359612 Eh     change       -0.7243651E-06 Eh
   gradient norm :     0.0000873 Eh/α   predicted    -0.3054212E-06 ( -57.84%)
   displ. norm   :     0.0347158 α      lambda       -0.4986733E-06
   maximum displ.:     0.0212918 α      in ANC's #1, #5, #9, ...

........................................................................
.............................. CYCLE   49 ..............................
........................................................................

 iter      E             dE          RMSdq      gap      omega  full diag
   1   -157.1918561 -0.157192E+03  0.319E-03    0.53       0.0  T
   2   -157.1918561 -0.334828E-08  0.188E-03    0.53       5.3  T
   3   -157.1918561  0.155797E-07  0.360E-04    0.53      27.8  T
   4   -157.1918561 -0.176955E-07  0.585E-05    0.53     170.9  T
     SCC iter.                  ...        0 min,  0.045 sec
     gradient                   ...        0 min,  0.017 sec
 * total energy  :  -154.4359618 Eh     change       -0.5824456E-06 Eh
   gradient norm :     0.0001010 Eh/α   predicted    -0.2500281E-06 ( -57.07%)
   displ. norm   :     0.0279997 α      lambda       -0.3420722E-06
   maximum displ.:     0.0176501 α      in ANC's #1, #5, #9, ...

........................................................................
.............................. CYCLE   50 ..............................
........................................................................

 iter      E             dE          RMSdq      gap      omega  full diag
   1   -157.1918461 -0.157192E+03  0.248E-03    0.53       0.0  T
   2   -157.1918461 -0.162291E-08  0.146E-03    0.53       6.9  T
   3   -157.1918461  0.445471E-08  0.205E-04    0.53      48.9  T
   4   -157.1918461 -0.524562E-08  0.436E-05    0.53     229.4  T
     SCC iter.                  ...        0 min,  0.046 sec
     gradient                   ...        0 min,  0.017 sec
 * total energy  :  -154.4359622 Eh     change       -0.4413065E-06 Eh
   gradient norm :     0.0000941 Eh/α   predicted    -0.1721425E-06 ( -60.99%)
   displ. norm   :     0.0259369 α      lambda       -0.3501380E-06
   maximum displ.:     0.0166252 α      in ANC's #1, #5, #9, ...

........................................................................
.............................. CYCLE   51 ..............................
........................................................................

 iter      E             dE          RMSdq      gap      omega  full diag
   1   -157.1918719 -0.157192E+03  0.230E-03    0.53       0.0  T
   2   -157.1918719 -0.145914E-08  0.135E-03    0.53       7.4  T
   3   -157.1918719  0.382056E-08  0.191E-04    0.53      52.4  T
   4   -157.1918719 -0.456822E-08  0.364E-05    0.53     274.5  T
     SCC iter.                  ...        0 min,  0.046 sec
     gradient                   ...        0 min,  0.017 sec
 * total energy  :  -154.4359627 Eh     change       -0.4539464E-06 Eh
   gradient norm :     0.0000652 Eh/α   predicted    -0.1756216E-06 ( -61.31%)
   displ. norm   :     0.0268679 α      lambda       -0.3256640E-06
   maximum displ.:     0.0175991 α      in ANC's #1, #5, #9, ...

........................................................................
.............................. CYCLE   52 ..............................
........................................................................

 iter      E             dE          RMSdq      gap      omega  full diag
   1   -157.1919002 -0.157192E+03  0.232E-03    0.53       0.0  T
   2   -157.1919002 -0.161924E-08  0.137E-03    0.53       7.3  T
   3   -157.1919002  0.988888E-08  0.272E-04    0.53      36.8  T
   4   -157.1919002 -0.108918E-07  0.515E-05    0.53     194.1  T
     SCC iter.                  ...        0 min,  0.046 sec
     gradient                   ...        0 min,  0.017 sec
 * total energy  :  -154.4359631 Eh     change       -0.4123244E-06 Eh
   gradient norm :     0.0000429 Eh/α   predicted    -0.1670585E-06 ( -59.48%)
   displ. norm   :     0.0215815 α      lambda       -0.2227297E-06
   maximum displ.:     0.0144840 α      in ANC's #1, #5, #3, ...

........................................................................
.............................. CYCLE   53 ..............................
........................................................................

 iter      E             dE          RMSdq      gap      omega  full diag
   1   -157.1919214 -0.157192E+03  0.180E-03    0.53       0.0  T
   2   -157.1919214 -0.894261E-09  0.106E-03    0.53       9.4  T
   3   -157.1919214  0.680257E-08  0.220E-04    0.53      45.5  T
   4   -157.1919214 -0.736873E-08  0.436E-05    0.53     229.5  T
     SCC iter.                  ...        0 min,  0.045 sec
     gradient                   ...        0 min,  0.017 sec
 * total energy  :  -154.4359634 Eh     change       -0.2782051E-06 Eh
   gradient norm :     0.0000433 Eh/α   predicted    -0.1121639E-06 ( -59.68%)
   displ. norm   :     0.0172289 α      lambda       -0.1616921E-06
   maximum displ.:     0.0118271 α      in ANC's #1, #3, #5, ...

........................................................................
.............................. CYCLE   54 ..............................
........................................................................

 iter      E             dE          RMSdq      gap      omega  full diag
   1   -157.1919282 -0.157192E+03  0.141E-03    0.53       0.0  T
   2   -157.1919282 -0.445198E-09  0.829E-04    0.53      12.1  T
   3   -157.1919282  0.724603E-08  0.212E-04    0.53      47.1  T
     SCC iter.                  ...        0 min,  0.034 sec
     gradient                   ...        0 min,  0.017 sec
 * total energy  :  -154.4359636 Eh     change       -0.2069693E-06 Eh
   gradient norm :     0.0000479 Eh/α   predicted    -0.8186630E-07 ( -60.45%)
   displ. norm   :     0.0153816 α      lambda       -0.1458812E-06
   maximum displ.:     0.0107769 α      in ANC's #1, #3, #5, ...

........................................................................
.............................. CYCLE   55 ..............................
........................................................................

 iter      E             dE          RMSdq      gap      omega  full diag
   1   -157.1919181 -0.157192E+03  0.128E-03    0.53       0.0  T
   2   -157.1919181 -0.767557E-09  0.756E-04    0.53      13.2  T
   3   -157.1919181  0.419772E-08  0.179E-04    0.53      55.9  T
     SCC iter.                  ...        0 min,  0.034 sec
     gradient                   ...        0 min,  0.017 sec
 * total energy  :  -154.4359638 Eh     change       -0.2102911E-06 Eh
   gradient norm :     0.0000419 Eh/α   predicted    -0.7646654E-07 ( -63.64%)
   displ. norm   :     0.0144009 α      lambda       -0.1465441E-06
   maximum displ.:     0.0101253 α      in ANC's #1, #3, #5, ...

........................................................................
.............................. CYCLE   56 ..............................
........................................................................

 iter      E             dE          RMSdq      gap      omega  full diag
   1   -157.1919050 -0.157192E+03  0.127E-03    0.53       0.0  T
   2   -157.1919050 -0.361638E-09  0.753E-04    0.53      13.3  T
   3   -157.1919050  0.103269E-07  0.246E-04    0.53      40.7  T
     SCC iter.                  ...        0 min,  0.035 sec
     gradient                   ...        0 min,  0.016 sec
 * total energy  :  -154.4359640 Eh     change       -0.1938992E-06 Eh
   gradient norm :     0.0000432 Eh/α   predicted    -0.7654812E-07 ( -60.52%)
   displ. norm   :     0.0157147 α      lambda       -0.1531501E-06
   maximum displ.:     0.0109801 α      in ANC's #1, #3, #2, ...

........................................................................
.............................. CYCLE   57 ..............................
........................................................................

 iter      E             dE          RMSdq      gap      omega  full diag
   1   -157.1918866 -0.157192E+03  0.141E-03    0.53       0.0  T
   2   -157.1918866 -0.978503E-09  0.830E-04    0.53      12.1  T
   3   -157.1918866  0.330436E-08  0.166E-04    0.53      60.1  T
     SCC iter.                  ...        0 min,  0.034 sec
     gradient                   ...        0 min,  0.017 sec
 * total energy  :  -154.4359642 Eh     change       -0.2090261E-06 Eh
   gradient norm :     0.0000356 Eh/α   predicted    -0.7939710E-07 ( -62.02%)
   displ. norm   :     0.0161160 α      lambda       -0.1414176E-06
   maximum displ.:     0.0112080 α      in ANC's #1, #3, #2, ...

........................................................................
.............................. CYCLE   58 ..............................
........................................................................

 iter      E             dE          RMSdq      gap      omega  full diag
   1   -157.1918733 -0.157192E+03  0.143E-03    0.53       0.0  T
   2   -157.1918733 -0.615898E-10  0.842E-04    0.53      11.9  T
   3   -157.1918732  0.233316E-07  0.369E-04    0.53      27.1  T
     SCC iter.                  ...        0 min,  0.034 sec
     gradient                   ...        0 min,  0.016 sec
 * total energy  :  -154.4359644 Eh     change       -0.1679823E-06 Eh
   gradient norm :     0.0000434 Eh/α   predicted    -0.7264168E-07 ( -56.76%)
   displ. norm   :     0.0160312 α      lambda       -0.1359452E-06
   maximum displ.:     0.0111340 α      in ANC's #1, #3, #2, ...

........................................................................
.............................. CYCLE   59 ..............................
........................................................................

 iter      E             dE          RMSdq      gap      omega  full diag
   1   -157.1918713 -0.157192E+03  0.137E-03    0.53       0.0  T
   2   -157.1918713 -0.927059E-09  0.813E-04    0.53      12.3  T
   3   -157.1918713  0.177513E-07  0.339E-04    0.53      29.5  T
     SCC iter.                  ...        0 min,  0.035 sec
     gradient                   ...        0 min,  0.016 sec
 * total energy  :  -154.4359645 Eh     change       -0.1864159E-06 Eh
   gradient norm :     0.0000381 Eh/α   predicted    -0.6941425E-07 ( -62.76%)
   displ. norm   :     0.0160337 α      lambda       -0.1369389E-06
   maximum displ.:     0.0111061 α      in ANC's #1, #3, #9, ...

........................................................................
.............................. CYCLE   60 ..............................
........................................................................

 iter      E             dE          RMSdq      gap      omega  full diag
   1   -157.1918775 -0.157192E+03  0.138E-03    0.53       0.0  T
   2   -157.1918775 -0.539501E-09  0.815E-04    0.53      12.3  T
   3   -157.1918775  0.172838E-07  0.318E-04    0.53      31.4  T
     SCC iter.                  ...        0 min,  0.034 sec
     gradient                   ...        0 min,  0.016 sec
 * total energy  :  -154.4359647 Eh     change       -0.1871444E-06 Eh
   gradient norm :     0.0000515 Eh/α   predicted    -0.7015095E-07 ( -62.52%)
   displ. norm   :     0.0173398 α      lambda       -0.1504160E-06
   maximum displ.:     0.0119148 α      in ANC's #1, #3, #9, ...

........................................................................
.............................. CYCLE   61 ..............................
........................................................................

 iter      E             dE          RMSdq      gap      omega  full diag
   1   -157.1918900 -0.157192E+03  0.154E-03    0.53       0.0  T
   2   -157.1918900 -0.695849E-09  0.912E-04    0.53      11.0  T
   3   -157.1918900  0.119583E-07  0.269E-04    0.53      37.2  T
     SCC iter.                  ...        0 min,  0.034 sec
     gradient                   ...        0 min,  0.016 sec
 * total energy  :  -154.4359649 Eh     change       -0.2025468E-06 Eh
   gradient norm :     0.0000358 Eh/α   predicted    -0.7692766E-07 ( -62.02%)
   displ. norm   :     0.0179725 α      lambda       -0.1384263E-06
   maximum displ.:     0.0124261 α      in ANC's #1, #3, #9, ...

........................................................................
.............................. CYCLE   62 ..............................
........................................................................

 iter      E             dE          RMSdq      gap      omega  full diag
   1   -157.1919044 -0.157192E+03  0.162E-03    0.53       0.0  T
   2   -157.1919044 -0.579547E-09  0.953E-04    0.53      10.5  T
   3   -157.1919044  0.121907E-07  0.293E-04    0.53      34.1  T
     SCC iter.                  ...        0 min,  0.035 sec
     gradient                   ...        0 min,  0.017 sec
 * total energy  :  -154.4359651 Eh     change       -0.1825695E-06 Eh
   gradient norm :     0.0000573 Eh/α   predicted    -0.7124317E-07 ( -60.98%)
   displ. norm   :     0.0160710 α      lambda       -0.1120416E-06
   maximum displ.:     0.0112886 α      in ANC's #1, #3, #9, ...

........................................................................
.............................. CYCLE   63 ..............................
........................................................................

 iter      E             dE          RMSdq      gap      omega  full diag
   1   -157.1919160 -0.157192E+03  0.147E-03    0.53       0.0  T
   2   -157.1919160 -0.122643E-08  0.864E-04    0.53      11.6  T
   3   -157.1919159  0.932806E-08  0.261E-04    0.53      38.4  T
     SCC iter.                  ...        0 min,  0.035 sec
     gradient                   ...        0 min,  0.016 sec
 * total energy  :  -154.4359653 Eh     change       -0.1549710E-06 Eh
   gradient norm :     0.0000343 Eh/α   predicted    -0.5812860E-07 ( -62.49%)
   displ. norm   :     0.0123573 α      lambda       -0.8370129E-07
   maximum displ.:     0.0089446 α      in ANC's #1, #9, #3, ...

........................................................................
.............................. CYCLE   64 ..............................
........................................................................

 iter      E             dE          RMSdq      gap      omega  full diag
   1   -157.1919233 -0.157192E+03  0.113E-03    0.53       0.0  T
   2   -157.1919233 -0.849980E-09  0.665E-04    0.53      15.0  T
   3   -157.1919233  0.430146E-08  0.168E-04    0.53      59.4  T
     SCC iter.                  ...        0 min,  0.035 sec
     gradient                   ...        0 min,  0.016 sec
 * total energy  :  -154.4359654 Eh     change       -0.1292709E-06 Eh
   gradient norm :     0.0000364 Eh/α   predicted    -0.4444130E-07 ( -65.62%)
   displ. norm   :     0.0098611 α      lambda       -0.7774729E-07
   maximum displ.:     0.0071561 α      in ANC's #1, #9, #3, ...

........................................................................
.............................. CYCLE   65 ..............................
........................................................................

 iter      E             dE          RMSdq      gap      omega  full diag
[...]
eigval :      529.50   536.79   537.96   539.35   540.20   543.71
eigval :      546.28   565.55   567.37   572.03   580.81   587.19
eigval :      602.64   613.25   617.51   624.56   628.41   644.75
eigval :      662.23   666.25   669.37   671.26   673.43   679.14
eigval :      681.69   683.38   708.66   709.72   726.29   736.74
eigval :      743.30   752.02   757.71   768.35   775.28   777.23
eigval :      779.28   782.07   789.51   790.30   796.37   802.13
eigval :      804.32   809.11   813.85   817.26   838.91   840.21
eigval :      845.97   847.52   861.79   865.52   867.63   870.25
eigval :      872.41   875.16   879.26   883.26   883.79   898.73
eigval :      903.30   904.11   905.11   908.45   910.00   913.49
eigval :      914.55   918.12   923.67   927.42   929.09   973.08
eigval :      977.85   988.91  1008.27  1011.37  1020.11  1024.29
eigval :     1027.12  1028.19  1032.74  1033.88  1040.86  1061.39
eigval :     1063.01  1078.21  1087.91  1100.00  1101.19  1122.35
eigval :     1126.53  1137.44  1145.18  1151.86  1154.26  1161.68
eigval :     1171.80  1173.60  1176.23  1181.38  1181.80  1185.54
eigval :     1186.90  1205.37  1205.85  1207.03  1211.58  1212.51
eigval :     1215.77  1218.04  1220.30  1229.79  1234.08  1248.45
eigval :     1249.34  1250.85  1256.50  1263.33  1265.34  1280.93
eigval :     1286.15  1295.28  1306.19  1312.21  1317.36  1323.04
eigval :     1324.26  1330.10  1333.97  1343.81  1345.15  1347.49
eigval :     1349.19  1363.97  1364.71  1375.92  1383.83  1387.63
eigval :     1392.24  1393.22  1401.13  1401.45  1403.04  1403.65
eigval :     1408.81  1409.09  1417.68  1418.38  1421.80  1458.99
eigval :     1464.02  1466.33  1469.14  1474.42  1476.00  1476.95
eigval :     1477.11  1477.81  1480.76  1481.45  1482.42  1483.80
eigval :     1484.52  1496.47  1496.68  1507.34  1514.19  1515.81
eigval :     1530.54  1552.98  1556.10  1559.24  1562.91  1565.08
eigval :     1566.82  1570.50  1589.77  1590.21  1599.52  1599.94
eigval :     1601.96  1604.26  2989.48  2995.55  2997.95  3002.62
eigval :     3021.94  3024.11  3025.74  3029.57  3034.93  3035.70
eigval :     3042.19  3045.70  3051.41  3063.42  3063.95  3066.55
eigval :     3068.75  3071.38  3071.52  3073.32  3078.85  3080.00
eigval :     3081.04  3081.18  3081.97  3084.66  3085.14  3085.84
eigval :     3086.34  3086.87  3089.92  3092.83  3094.41  3096.36
eigval :     3097.11  3100.66  3104.85  3106.16  3106.79  3114.23
 reduced masses (amu)
   1: 11.35   2: 11.67   3: 11.43   4: 11.29   5: 11.54   6: 11.34   7: 11.02   8: 10.78
   9: 11.29  10: 10.43  11: 10.66  12:  9.61  13: 11.01  14: 10.40  15:  7.66  16:  9.87
  17:  6.67  18: 10.35  19: 10.61  20: 11.23  21:  1.61  22: 11.19  23: 11.78  24: 10.54
  25:  9.81  26:  9.73  27:  9.71  28:  9.50  29: 10.79  30: 10.72  31: 10.76  32: 10.62
  33:  9.69  34:  1.85  35:  2.84  36: 10.24  37: 10.26  38: 10.47  39: 10.45  40: 10.69
  41: 10.58  42: 10.47  43: 10.57  44: 10.59  45: 10.51  46: 10.82  47: 10.85  48: 11.08
  49: 10.51  50: 10.16  51: 10.95  52: 10.00  53:  9.39  54:  9.37  55: 10.48  56: 11.24
  57: 11.24  58: 10.66  59: 10.63  60:  9.51  61:  9.56  62: 10.72  63: 10.39  64:  9.65
  65:  9.57  66: 10.12  67: 10.58  68: 10.65  69: 10.71  70: 10.79  71: 10.87  72: 10.75
  73: 11.28  74: 10.37  75: 11.01  76: 10.48  77: 10.42  78: 11.13  79: 11.13  80: 10.94
  81: 10.73  82: 11.04  83: 11.18  84: 11.48  85: 11.27  86: 11.21  87: 11.03  88: 11.29
  89: 11.31  90: 11.27  91: 11.42  92: 11.50  93: 10.96  94: 11.45  95: 11.59  96: 11.30
  97: 11.13  98: 11.40  99: 11.01 100: 11.41 101: 11.54 102: 11.42 103: 11.70 104: 11.83
 105: 11.54 106: 11.55 107: 10.88 108: 11.56 109: 10.83 110: 10.68 111: 10.80 112:  3.65
 113:  4.48 114:  3.72 115:  3.83 116:  9.52 117:  4.29 118:  4.11 119:  9.53 120:  9.32
 121:  5.73 122:  4.68 123:  3.91 124:  4.15 125: 12.46 126: 12.48 127: 12.64 128: 12.62
 129:  9.83 130:  4.21 131:  4.50 132:  3.97 133:  3.36 134:  3.38 135:  3.54 136:  3.29
 137:  3.44 138:  3.34 139:  9.60 140:  4.83 141:  4.18 142:  3.27 143:  3.40 144:  3.27
 145:  3.72 146:  3.84 147:  3.10 148:  4.17 149: 10.15 150:  9.31 151:  8.61 152:  9.84
 153:  5.92 154:  5.87 155:  4.62 156:  4.37 157:  4.48 158:  4.59 159:  4.75 160:  4.61
 161:  9.28 162:  5.70 163:  5.71 164:  9.92 165:  9.62 166:  6.57 167:  6.51 168:  7.60
 169:  7.22 170:  6.21 171:  5.15 172:  4.83 173:  4.60 174:  3.56 175:  3.33 176:  3.75
 177:  3.41 178:  4.14 179:  3.79 180:  5.61 181:  6.06 182:  6.72 183:  5.08 184:  6.61
 185:  6.34 186:  5.86 187:  6.77 188:  6.00 189:  5.86 190:  6.89 191:  6.34 192:  6.59
 193:  7.73 194:  7.44 195:  8.85 196:  3.68 197:  4.49 198:  8.04 199:  7.91 200: 10.20
 201: 10.78 202: 10.60 203: 11.05 204: 11.66 205: 11.72 206:  9.78 207: 10.57 208: 11.43
 209: 11.10 210: 11.76 211: 11.38 212: 11.53 213: 11.54 214: 11.82 215:  9.56 216:  9.64
 217:  8.85 218:  9.01 219:  4.33 220:  3.48 221:  4.39 222:  3.45 223:  8.81 224:  8.87
 225:  9.22 226:  9.19 227: 10.31 228: 10.65 229: 10.18 230: 10.15 231: 10.99 232:  2.99
 233:  1.74 234:  1.65 235:  2.33 236:  1.84 237: 10.24 238:  2.12 239:  4.33 240:  2.21
 241:  7.86 242:  9.25 243:  9.39 244: 11.06 245: 11.14 246: 11.30 247: 11.29 248: 11.56
 249: 11.55 250: 11.43 251: 11.46 252: 11.54 253: 11.74 254: 11.64 255: 11.61 256: 11.62
 257: 11.50 258: 11.49 259: 11.69 260: 11.71 261:  1.82 262:  1.82 263:  1.83 264:  1.87
 265:  1.61 266:  1.73 267:  1.66 268:  1.87 269:  1.44 270:  1.58 271:  1.66 272:  1.67
 273:  1.79 274:  1.78 275:  1.79 276:  1.81 277:  1.82 278:  1.78 279:  1.78 280:  1.82
 281:  1.84 282:  1.76 283:  1.77 284:  1.76 285:  1.86 286:  1.77 287:  1.87 288:  1.87
 289:  1.81 290:  1.84 291:  1.81 292:  1.85 293:  1.87 294:  1.87 295:  1.84 296:  1.91
 297:  1.89 298:  1.87 299:  1.88 300:  1.82
 IR intensities (km·mol⁻¹)
   1:  1.24   2:  0.56   3:  0.13   4:  0.92   5:  0.01   6:  0.14   7:  0.32   8:  0.18
   9:  0.07  10:  0.48  11:  0.04  12:  0.32  13:  0.08  14:  0.05  15:  1.59  16:  0.20
  17:  0.25  18:  0.95  19:  0.47  20:  0.86  21:  0.56  22:  1.81  23:  0.67  24:  2.49
  25:  1.73  26:  0.29  27:  0.48  28:  0.20  29:  0.06  30:  0.63  31:  0.99  32:  0.08
  33:  0.06  34: 30.73  35:  2.25  36:  3.36  37:  0.86  38:  7.60  39:  3.41  40:  3.94
  41:  6.44  42:  3.82  43:  1.69  44:  1.63  45:  0.54  46:  3.45  47:  3.61  48:  3.94
  49:  0.40  50:  3.42  51:  1.02  52:  1.16  53:  0.24  54: 12.69  55:  0.14  56:  1.98
  57:  0.10  58: 12.50  59:  5.56  60:  2.38  61:  5.25  62:  1.77  63:  5.72  64:  0.42
  65:  2.24  66:  5.85  67:  1.14  68:  1.13  69:  0.82  70:  0.31  71:  3.24  72:  0.60
  73:  6.03  74:  3.97  75:  1.65  76:  1.88  77:  1.38  78:  6.31  79:  0.45  80:  3.02
  81:  1.01  82:  1.21  83:  2.91  84:  4.55  85:  1.91  86:  4.93  87:  7.99  88:  2.49
  89:  0.50  90: 18.40  91:  8.31  92: 14.22  93: 15.74  94: 10.15  95:  1.05  96:  4.69
  97:  4.85  98:  0.73  99:  1.23 100:  0.05 101:  5.74 102:  5.08 103: 16.87 104:  8.08
 105:  2.68 106:  1.53 107:  0.97 108:  1.21 109:  5.67 110:  2.66 111:  2.09 112:  0.77
 113: 14.94 114: 66.95 115: 12.59 116:  6.30 117:  7.48 118:  9.60 119: 14.00 120: 23.34
 121: 11.33 122: 33.30 123:  2.57 124:  9.83 125: 13.66 126: 59.39 127: 10.52 128: 26.65
 129:  1.10 130:  3.03 131:  3.33 132:  1.51 133:  0.58 134:  0.09 135:  2.45 136: 18.25
 137:  1.99 138:  3.81 139:  0.97 140:  0.11 141:  0.95 142:  0.66 143:  6.36 144:  2.00
 145:  1.13 146:  2.45 147:  0.49 148:  0.55 149:  1.98 150:  5.56 151: 17.61 152:  3.20
 153: 16.39 154:  6.09 155:  5.46 156:  4.81 157: 15.41 158:  2.23 159:  7.82 160: 11.26
 161: 19.54 162:  2.26 163:  0.90 164:  5.86 165: 38.41 166: 17.25 167:  3.29 168:  1.51
 169:  0.70 170: 62.98 171: 12.36 172:  4.71 173: 31.86 174:  2.26 175: 74.95 176:  5.07
 177:  4.65 178: 10.79 179: 21.50 180:  9.73 181:  6.65 182: 18.42 183: 92.79 184:170.71
 185:  8.43 186: 48.41 187:  7.90 188: 11.72 189:  2.14 190: 25.65 191:101.45 192: 51.77
 193:160.45 194: 69.30 195: 56.15 196:  2.81 197: 19.75 198: 46.77 199: 71.46 200: 21.51
 201: 45.38 202:284.78 203: 50.44 204: 59.44 205: 68.44 206:  8.73 207:312.46 208: 25.70
 209: 16.51 210:  0.32 211: 23.38 212: 48.38 213: 34.73 214: 28.42 215:  6.56 216:  7.18
 217: 95.34 218:133.03 219:  9.41 220: 10.50 221: 18.96 222:  8.19 223: 40.51 224: 49.05
 225: 56.07 226: 81.59 227: 76.96 228: 13.23 229: 20.42 230: 27.54 231: 35.32 232: 10.17
 233:  4.03 234:  5.68 235: 15.45 236: 15.86 237: 21.66 238:  0.54 239: 57.35 240: 17.39
 241: 69.21 242: 61.15 243: 43.37 244: 10.24 245: 17.73 246:  7.35 247: 72.80 248:350.66
 249: 42.54 250: 45.34 251:102.99 252: 54.95 253: 54.58 254: 60.44 255: 30.27 256: 33.68
 257: 39.41 258: 36.88 259:166.96 260: 11.48 261:112.06 262: 32.67 263: 30.52 264: 47.13
 265: 83.76 266: 12.28 267: 80.92 268: 30.86 269: 60.83 270: 99.46 271: 37.94 272: 25.35
 273: 66.87 274:118.48 275: 24.65 276: 65.89 277: 48.58 278: 28.12 279: 38.44 280: 71.76
 281:175.31 282:  3.87 283: 65.01 284: 14.66 285:140.04 286: 59.98 287:182.76 288:170.55
 289: 28.97 290: 86.24 291: 26.00 292: 51.90 293:124.34 294:103.38 295: 63.73 296: 49.41
 297: 80.27 298:117.69 299: 70.84 300: 37.19
 Raman intensities (Ä⁴*amu⁻¹)
   1:  0.00   2:  0.00   3:  0.00   4:  0.00   5:  0.00   6:  0.00   7:  0.00   8:  0.00
   9:  0.00  10:  0.00  11:  0.00  12:  0.00  13:  0.00  14:  0.00  15:  0.00  16:  0.00
  17:  0.00  18:  0.00  19:  0.00  20:  0.00  21:  0.00  22:  0.00  23:  0.00  24:  0.00
  25:  0.00  26:  0.00  27:  0.00  28:  0.00  29:  0.00  30:  0.00  31:  0.00  32:  0.00
  33:  0.00  34:  0.00  35:  0.00  36:  0.00  37:  0.00  38:  0.00  39:  0.00  40:  0.00
  41:  0.00  42:  0.00  43:  0.00  44:  0.00  45:  0.00  46:  0.00  47:  0.00  48:  0.00
  49:  0.00  50:  0.00  51:  0.00  52:  0.00  53:  0.00  54:  0.00  55:  0.00  56:  0.00
  57:  0.00  58:  0.00  59:  0.00  60:  0.00  61:  0.00  62:  0.00  63:  0.00  64:  0.00
  65:  0.00  66:  0.00  67:  0.00  68:  0.00  69:  0.00  70:  0.00  71:  0.00  72:  0.00
  73:  0.00  74:  0.00  75:  0.00  76:  0.00  77:  0.00  78:  0.00  79:  0.00  80:  0.00
  81:  0.00  82:  0.00  83:  0.00  84:  0.00  85:  0.00  86:  0.00  87:  0.00  88:  0.00
  89:  0.00  90:  0.00  91:  0.00  92:  0.00  93:  0.00  94:  0.00  95:  0.00  96:  0.00
  97:  0.00  98:  0.00  99:  0.00 100:  0.00 101:  0.00 102:  0.00 103:  0.00 104:  0.00
 105:  0.00 106:  0.00 107:  0.00 108:  0.00 109:  0.00 110:  0.00 111:  0.00 112:  0.00
 113:  0.00 114:  0.00 115:  0.00 116:  0.00 117:  0.00 118:  0.00 119:  0.00 120:  0.00
 121:  0.00 122:  0.00 123:  0.00 124:  0.00 125:  0.00 126:  0.00 127:  0.00 128:  0.00
 129:  0.00 130:  0.00 131:  0.00 132:  0.00 133:  0.00 134:  0.00 135:  0.00 136:  0.00
 137:  0.00 138:  0.00 139:  0.00 140:  0.00 141:  0.00 142:  0.00 143:  0.00 144:  0.00
 145:  0.00 146:  0.00 147:  0.00 148:  0.00 149:  0.00 150:  0.00 151:  0.00 152:  0.00
 153:  0.00 154:  0.00 155:  0.00 156:  0.00 157:  0.00 158:  0.00 159:  0.00 160:  0.00
 161:  0.00 162:  0.00 163:  0.00 164:  0.00 165:  0.00 166:  0.00 167:  0.00 168:  0.00
 169:  0.00 170:  0.00 171:  0.00 172:  0.00 173:  0.00 174:  0.00 175:  0.00 176:  0.00
 177:  0.00 178:  0.00 179:  0.00 180:  0.00 181:  0.00 182:  0.00 183:  0.00 184:  0.00
 185:  0.00 186:  0.00 187:  0.00 188:  0.00 189:  0.00 190:  0.00 191:  0.00 192:  0.00
 193:  0.00 194:  0.00 195:  0.00 196:  0.00 197:  0.00 198:  0.00 199:  0.00 200:  0.00
 201:  0.00 202:  0.00 203:  0.00 204:  0.00 205:  0.00 206:  0.00 207:  0.00 208:  0.00
 209:  0.00 210:  0.00 211:  0.00 212:  0.00 213:  0.00 214:  0.00 215:  0.00 216:  0.00
 217:  0.00 218:  0.00 219:  0.00 220:  0.00 221:  0.00 222:  0.00 223:  0.00 224:  0.00
 225:  0.00 226:  0.00 227:  0.00 228:  0.00 229:  0.00 230:  0.00 231:  0.00 232:  0.00
 233:  0.00 234:  0.00 235:  0.00 236:  0.00 237:  0.00 238:  0.00 239:  0.00 240:  0.00
 241:  0.00 242:  0.00 243:  0.00 244:  0.00 245:  0.00 246:  0.00 247:  0.00 248:  0.00
 249:  0.00 250:  0.00 251:  0.00 252:  0.00 253:  0.00 254:  0.00 255:  0.00 256:  0.00
 257:  0.00 258:  0.00 259:  0.00 260:  0.00 261:  0.00 262:  0.00 263:  0.00 264:  0.00
 265:  0.00 266:  0.00 267:  0.00 268:  0.00 269:  0.00 270:  0.00 271:  0.00 272:  0.00
 273:  0.00 274:  0.00 275:  0.00 276:  0.00 277:  0.00 278:  0.00 279:  0.00 280:  0.00
 281:  0.00 282:  0.00 283:  0.00 284:  0.00 285:  0.00 286:  0.00 287:  0.00 288:  0.00
 289:  0.00 290:  0.00 291:  0.00 292:  0.00 293:  0.00 294:  0.00 295:  0.00 296:  0.00
 297:  0.00 298:  0.00 299:  0.00 300:  0.00
 output can be read by thermo (or use thermo option).
 writing <g98.out> molden fake output.
 recommended (thermochemical) frequency scaling factor: 1.0
           -------------------------------------------------
          |             Thermodynamic Functions             |
           -------------------------------------------------

Refinement of some symmetry elements was terminated before convergence was reached.
Some symmetry elements may remain unidentified.
Molecule has no symmetry elements
It seems to be the C1 point group
c1  symmetry found (for desy threshold:  0.10E+00) used in thermo

          ...................................................
          :                      SETUP                      :
          :.................................................:
          :  # frequencies                         294      :
          :  # imaginary freq.                       0      :
          :  linear?                             false      :
          :  only rotor calc.                    false      :
          :  symmetry                               c1      :
          :  rotational number                       1      :
          :  scaling factor                  1.0000000      :
          :  rotor cutoff                   50.0000000 cm⁻¹ :
          :  imag. cutoff                  -20.0000000 cm⁻¹ :
          :.................................................:

    mode    ω/cm⁻¹     T·S(HO)/kcal·mol⁻¹    T·S(FR)/kcal·mol⁻¹   T·S(vib)
   ------------------------------------------------------------------------
       1     12.51    -2.25598 (  0.39%)    -1.46704 ( 99.61%)    -1.47011
       2     17.12    -2.07016 (  1.35%)    -1.37410 ( 98.65%)    -1.38353
       3     18.20    -2.03386 (  1.72%)    -1.35593 ( 98.28%)    -1.36763
       4     21.50    -1.93504 (  3.31%)    -1.30649 ( 96.69%)    -1.32728
       5     25.25    -1.84010 (  6.10%)    -1.25897 ( 93.90%)    -1.29444
       6     33.58    -1.67144 ( 16.90%)    -1.17451 ( 83.10%)    -1.25848
       7     34.51    -1.65528 ( 18.49%)    -1.16641 ( 81.51%)    -1.25680
       8     37.17    -1.61127 ( 23.40%)    -1.14435 ( 76.60%)    -1.25363
       9     42.47    -1.53257 ( 34.24%)    -1.10488 ( 65.76%)    -1.25132
      10     47.95    -1.46100 ( 45.82%)    -1.06895 ( 54.18%)    -1.24859
      11     50.47    -1.43080 ( 50.93%)    -1.05378 ( 49.07%)    -1.24581
      12     54.98    -1.38034 ( 59.38%)    -1.02841 ( 40.62%)    -1.23740
      13     57.94    -1.34943 ( 64.33%)    -1.01286 ( 35.67%)    -1.22938
      14     72.18    -1.22030 ( 81.29%)    -0.94777 ( 18.71%)    -1.16930
      15     76.08    -1.18950 ( 84.28%)    -0.93220 ( 15.72%)    -1.14904
      16     94.66    -1.06182 ( 92.78%)    -0.86746 (  7.22%)    -1.04779
      17     96.15    -1.05271 ( 93.19%)    -0.86283 (  6.81%)    -1.03977
      18    103.52    -1.00979 ( 94.84%)    -0.84095 (  5.16%)    -1.00107
      19    114.21    -0.95290 ( 96.46%)    -0.81185 (  3.54%)    -0.94791
      20    116.30    -0.94242 ( 96.70%)    -0.80646 (  3.30%)    -0.93793
      21    120.35    -0.92270 ( 97.11%)    -0.79634 (  2.89%)    -0.91905
      22    124.50    -0.90319 ( 97.46%)    -0.78629 (  2.54%)    -0.90022
      23    129.85    -0.87904 ( 97.85%)    -0.77383 (  2.15%)    -0.87677
      24    135.42    -0.85497 ( 98.18%)    -0.76139 (  1.82%)    -0.85327
      25    153.87    -0.78229 ( 98.90%)    -0.72355 (  1.10%)    -0.78164
      26    156.26    -0.77358 ( 98.96%)    -0.71899 (  1.04%)    -0.77302
      27    164.73    -0.74381 ( 99.16%)    -0.70334 (  0.84%)    -0.74347
      28    174.55    -0.71137 ( 99.33%)    -0.68619 (  0.67%)    -0.71120
      29    176.38    -0.70553 ( 99.36%)    -0.68310 (  0.64%)    -0.70538
      30    201.89    -0.63083 ( 99.63%)    -0.64309 (  0.37%)    -0.63087
      31    204.94    -0.62263 ( 99.65%)    -0.63864 (  0.35%)    -0.62268
      32    213.95    -0.59919 ( 99.70%)    -0.62589 (  0.30%)    -0.59927
      33    220.56    -0.58272 ( 99.74%)    -0.61688 (  0.26%)    -0.58281
      34    221.48    -0.58048 ( 99.74%)    -0.61565 (  0.26%)    -0.58057
      35    224.95    -0.57212 ( 99.76%)    -0.61104 (  0.24%)    -0.57221
      36    240.10    -0.53730 ( 99.81%)    -0.59173 (  0.19%)    -0.53740
      37    254.03    -0.50759 ( 99.85%)    -0.57503 (  0.15%)    -0.50769
      38    257.99    -0.49949 ( 99.86%)    -0.57044 (  0.14%)    -0.49959
      39    265.82    -0.48397 ( 99.87%)    -0.56159 (  0.13%)    -0.48407
      40    273.61    -0.46907 ( 99.89%)    -0.55303 (  0.11%)    -0.46917
      41    282.86    -0.45208 ( 99.90%)    -0.54318 (  0.10%)    -0.45217
      42    286.23    -0.44608 ( 99.91%)    -0.53968 (  0.09%)    -0.44617
   ------------------------------------------------------------------------

   temp. (K)  partition function   enthalpy   heat capacity  entropy
                                   cal/mol     cal/K/mol   cal/K/mol   J/K/mol
 298.15  VIB  0.127E+23            29235.143    184.013    180.593
         ROT  0.126E+09              888.752      2.981     40.044
         INT  0.160E+31            30123.895    186.994    220.637
         TR   0.208E+29             1481.254      4.968     45.793
         TOT                       31605.1488   191.9625   266.4301  1114.7435

       T/K    H(0)-H(T)+PV         H(T)/Eh          T*S/Eh         G(T)/Eh
   ------------------------------------------------------------------------
    298.15    0.503660E-01    0.824452E+00    0.126590E+00    0.697863E+00
   ------------------------------------------------------------------------

         :::::::::::::::::::::::::::::::::::::::::::::::::::::
         ::                  THERMODYNAMIC                  ::
         :::::::::::::::::::::::::::::::::::::::::::::::::::::
         :: total free energy        -153.738103030322 Eh   ::
         ::.................................................::
         :: total energy             -154.435965873337 Eh   ::
         :: zero point energy           0.774086364874 Eh   ::
         :: G(RRHO) w/o ZPVE           -0.076223521860 Eh   ::
         :: G(RRHO) contrib.            0.697862843014 Eh   ::
         :::::::::::::::::::::::::::::::::::::::::::::::::::::

optimized geometry written to: xtbopt.xyz


           -------------------------------------------------
          | TOTAL ENERGY             -154.435965873337 Eh   |
          | TOTAL ENTHALPY           -153.611513497938 Eh   |
          | TOTAL FREE ENERGY        -153.738103030322 Eh   |
          | GRADIENT NORM               0.000022548732 Eh/α |
          | HOMO-LUMO GAP               0.525926174287 eV   |
           -------------------------------------------------

------------------------------------------------------------------------
 * finished run on 2025/09/12 at 02:53:40.588     
------------------------------------------------------------------------
 total:
 * wall-time:     0 d,  0 h,  0 min, 13.252 sec
 *  cpu-time:     0 d,  0 h,  8 min, 15.150 sec
 * ratio c/w:    37.365 speedup
 SCF:
 * wall-time:     0 d,  0 h,  0 min,  0.339 sec
 *  cpu-time:     0 d,  0 h,  0 min, 12.504 sec
 * ratio c/w:    36.868 speedup
 ANC optimizer:
 * wall-time:     0 d,  0 h,  0 min,  5.665 sec
 *  cpu-time:     0 d,  0 h,  3 min, 46.502 sec
 * ratio c/w:    39.986 speedup
 analytical hessian:
 * wall-time:     0 d,  0 h,  0 min,  6.998 sec
 *  cpu-time:     0 d,  0 h,  4 min,  7.091 sec
 * ratio c/w:    35.306 speedup

