$hessian                                                                        
        0.6561347994   0.0105392174   0.0245370994  -0.3306271506   0.0412570456
       -0.0110657980  -0.0374125210  -0.0846391412  -0.0056340353  -0.0469576085
        0.0313359493  -0.0002370166  -0.0009309095  -0.0009890570   0.0002294506
        0.0001763365  -0.0003375963   0.0002695766  -0.0000036964   0.0000437134
       -0.0001179619   0.0001262803   0.0000261913  -0.0001883232   0.0000742550
       -0.0000493644   0.0000252279  -0.0000182430   0.0000010342   0.0000078156
        0.0000077410  -0.0000017556   0.0000038830   0.0000000329   0.0000001046
       -0.0000037817   0.0000010350  -0.0000096185  -0.0000028730  -0.0000009747
       -0.0000006161  -0.0000003315  -0.0000030863  -0.0000004229  -0.0000001561
        0.0000063770  -0.0000010098   0.0000002694   0.0000007510  -0.0000030751
       -0.0000002396  -0.0000014231   0.0000046939   0.0000000407   0.0000031178
        0.0000000765   0.0000002131   0.0000073973  -0.0000021548   0.0000013707
       -0.0000087713  -0.0000078878  -0.0000106553  -0.0000257047   0.0000198055
        0.0000140987   0.0000230605   0.0000089302  -0.0000037587  -0.0000143084
       -0.0000043810   0.0000000154  -0.0000035345  -0.0000019319   0.0000024904
       -0.0000032911  -0.0000009536   0.0000013810   0.0000042920   0.0000035288
        0.0000003203  -0.0000004940  -0.0000046151  -0.0000010603  -0.0000010247
        0.0000009325  -0.0000003469  -0.0000040063   0.0000001705  -0.0000004391
        0.0000024035   0.0000005718   0.0000001850  -0.0000011733  -0.0000009019
        0.0000002843   0.0000015353   0.0000012064  -0.0000001629   0.0000002405
        0.0000005877  -0.0000003531   0.0000008795   0.0000006104   0.0000002829
       -0.0000001173  -0.0000006393   0.0000004292  -0.0000000598   0.0000008366
       -0.0000005691   0.0000007467   0.0000006886   0.0000000838   0.0000004900
        0.0000004732  -0.0000002856  -0.0000004412   0.0000013651  -0.0000004325
        0.0000005129   0.0000003672  -0.0000001354  -0.0000001416  -0.0000003273
        0.0000002533   0.0000001438   0.0000008782  -0.0000002924   0.0000013729
        0.0000001886  -0.0000002147  -0.0000010364  -0.0000008195   0.0000005093
        0.0000001533   0.0000013459  -0.0000003195   0.0000028270  -0.0000000271
        0.0000002565   0.0000023944   0.0000025369   0.0000002438   0.0000043940
       -0.0000001395  -0.0000001168  -0.0000019766  -0.0000017026  -0.0000017436
        0.0000143238  -0.0000006751  -0.0000105808  -0.0003210889  -0.0001630595
       -0.0000024554   0.0001139568   0.0007701254   0.0003317627   0.0587408210
        0.0292677718   0.0038748856  -0.1530499594   0.0615834311  -0.0022888344
       -0.1091761603  -0.1112755815  -0.0080218587  -0.0177543433   0.0027113295
       -0.0004704285  -0.0004634663  -0.0028425514  -0.0006450874   0.0002437320
       -0.0000355303  -0.0001757509   0.0000109930  -0.0000130541  -0.0000224526
        0.0000011305   0.0000018181   0.0000032831   0.0000035151  -0.0000027330
       -0.0000002849   0.0000014932   0.0000013403  -0.0000004089   0.0000005670
       -0.0000005497  -0.0000001166   0.0000017234   0.0000021587   0.0000001489
        0.0000015935   0.0000002762   0.0000000563   0.0000011256   0.0000020454
        0.0000000483   0.0000038612  -0.0000040731   0.0000010056  -0.0000039968
        0.0000042250   0.0000048614  -0.0000015565  -0.0000032344   0.0000013908
       -0.0000002749  -0.0000002232  -0.0000026871  -0.0000007943   0.0000005854
       -0.0000000926  -0.0000003571   0.0000020956   0.0000003482   0.0000012198
        0.0000010150  -0.0000000263   0.0000008506   0.0000006256   0.0000002429
        0.0000005122   0.0000003983   0.0000000585   0.0000007225   0.0000008103
        0.0000000497   0.0000005084   0.0000002776   0.0000000821   0.0000004107
        0.0000005167  -0.0000000631   0.0000006898   0.0000010713  -0.0000001690
        0.0000008879   0.0000004378  -0.0000001922   0.0000002468   0.0000000894
       -0.0000002193   0.0000008941   0.0000007853  -0.0000004220   0.0000010772
        0.0000002584  -0.0000001744  -0.0000003302  -0.0000009913  -0.0000004778
        0.0000020878   0.0000001093  -0.0000002828   0.0000027554  -0.0000010450
        0.0000035506   0.0000075877   0.0000093639   0.0000134827   0.0000225712
        0.0000233830   0.0000012600   0.0001240875  -0.0001626060  -0.0000563016
       -0.0004926738  -0.0034843966  -0.0007165426  -0.0186028189   0.0264090480
        0.0003550145
        0.0105392174   0.6692676608   0.0234940998  -0.0382809161  -0.0954887247
       -0.0036338517  -0.0248177093   0.0278070618  -0.0003099354   0.0313910984
       -0.0117835192   0.0010025397  -0.0009597458  -0.0020101284  -0.0002970414
        0.0008062724   0.0003601001  -0.0001163808   0.0000219303  -0.0003906290
       -0.0001175261   0.0000073020   0.0001200730   0.0001157928  -0.0000408088
        0.0000312395   0.0000016006   0.0000143818   0.0000035703  -0.0000081361
        0.0000014111   0.0000222641   0.0000109203   0.0000000261  -0.0000154576
       -0.0000050985   0.0000007627  -0.0000110976  -0.0000054703   0.0000000304
       -0.0000057993  -0.0000035918  -0.0000018231   0.0000027218   0.0000003682
        0.0000053881  -0.0000004095   0.0000000148   0.0000030297  -0.0000084459
       -0.0000000996  -0.0000030409  -0.0000032525  -0.0000000496   0.0000009367
        0.0000017788  -0.0000006053  -0.0000021081  -0.0000036938   0.0000042339
       -0.0000157949   0.0000079776   0.0000051710   0.0000192774  -0.0000106017
        0.0000021414   0.0000041658   0.0000085708  -0.0000076067  -0.0000074496
       -0.0000086372   0.0000056644  -0.0000141209  -0.0000070958   0.0000032272
       -0.0000009868  -0.0000031318   0.0000008345   0.0000010566   0.0000004027
       -0.0000001325   0.0000011415  -0.0000015002  -0.0000013061   0.0000010438
       -0.0000020971   0.0000001281  -0.0000053236  -0.0000026865   0.0000013755
        0.0000070555   0.0000025894  -0.0000009658  -0.0000053619  -0.0000004754
       -0.0000002413   0.0000016152   0.0000017938  -0.0000008631   0.0000000755
       -0.0000007923  -0.0000003553   0.0000000183   0.0000004829  -0.0000007009
        0.0000002636   0.0000003894  -0.0000005943  -0.0000000225   0.0000001604
       -0.0000005885  -0.0000006059   0.0000007309  -0.0000005680   0.0000019721
        0.0000013918  -0.0000000517  -0.0000033159  -0.0000001307  -0.0000004940
       -0.0000005567  -0.0000010938   0.0000006828   0.0000001361   0.0000020903
       -0.0000006277   0.0000022773   0.0000004729  -0.0000000363  -0.0000012566
       -0.0000006434   0.0000008403  -0.0000004945   0.0000005080   0.0000003947
        0.0000006858   0.0000011713   0.0000002026   0.0000042057   0.0000020927
       -0.0000005015  -0.0000029237   0.0000026179   0.0000006134   0.0000011819
       -0.0000024106  -0.0000000117  -0.0000041233   0.0000077542  -0.0000028427
        0.0000036526  -0.0000152442   0.0000051370  -0.0001458507  -0.0000892351
        0.0001524239  -0.0003494091   0.0004292593  -0.0001650395  -0.0306181227
       -0.0686755728  -0.0038153850   0.1411091187  -0.2734301768  -0.0029334884
       -0.1112716912  -0.2344895543  -0.0132710095   0.0268794470  -0.0022660327
        0.0010802555  -0.0034748948  -0.0040797298  -0.0005339093  -0.0000861551
        0.0000184396  -0.0000423272   0.0000040686   0.0000310433  -0.0000062075
       -0.0000018786  -0.0000043226  -0.0000006599   0.0000023325  -0.0000042642
       -0.0000007688  -0.0000011365   0.0000016267   0.0000002297  -0.0000011949
       -0.0000005126   0.0000000708  -0.0000009537   0.0000020246  -0.0000000033
        0.0000026625   0.0000007601  -0.0000003471   0.0000022380   0.0000016563
       -0.0000000076   0.0000004024  -0.0000003254   0.0000004589   0.0000018399
        0.0000147295  -0.0000074146   0.0000004293   0.0000003492  -0.0000024512
       -0.0000050330   0.0000015340  -0.0000052667   0.0000004203   0.0000026235
        0.0000002664  -0.0000002638   0.0000022916   0.0000004773   0.0000011609
        0.0000006346  -0.0000001583   0.0000009286   0.0000000773   0.0000002370
        0.0000003115   0.0000000141  -0.0000004192   0.0000001684   0.0000003242
       -0.0000007184   0.0000002174   0.0000003609  -0.0000005434   0.0000000736
        0.0000005639  -0.0000007713   0.0000004563  -0.0000001728  -0.0000002017
        0.0000005592   0.0000005279  -0.0000001361   0.0000009609   0.0000005391
        0.0000001144   0.0000008531   0.0000008040  -0.0000006359   0.0000015258
       -0.0000003426  -0.0000002930  -0.0000007517  -0.0000011129   0.0000000106
        0.0000013302   0.0000004883   0.0000007577  -0.0000056999  -0.0000001441
        0.0000004416   0.0000084027   0.0000051091   0.0000022082  -0.0000191031
        0.0000169792   0.0000233272  -0.0001212599   0.0000972311   0.0001832256
       -0.0028553030  -0.0040643150  -0.0005771167   0.0022656710  -0.0014041468
       -0.0002189333
        0.0245370994   0.0234940998   0.1176880216  -0.0138652253   0.0003059192
       -0.0484986593  -0.0026792653  -0.0032261416   0.0009079787  -0.0008261993
        0.0013333518  -0.0061490524  -0.0001451772  -0.0000655097  -0.0002491560
        0.0000308794  -0.0000336283   0.0000541610   0.0000217638   0.0000048164
        0.0000054377   0.0000278208  -0.0000030342  -0.0000303243  -0.0000063034
       -0.0000075003   0.0000010945   0.0000055178  -0.0000070795  -0.0000013501
       -0.0000008568   0.0000025057   0.0000007540   0.0000001456  -0.0000016474
       -0.0000004316   0.0000003238  -0.0000002135   0.0000000941   0.0000009567
       -0.0000007571  -0.0000003395  -0.0000004576  -0.0000000363   0.0000005263
       -0.0000000140   0.0000003455   0.0000002634   0.0000001645  -0.0000001274
        0.0000002267   0.0000001079  -0.0000001893   0.0000002917   0.0000002465
        0.0000004937   0.0000002351  -0.0000005476  -0.0000004929   0.0000006327
       -0.0000026648  -0.0000020453  -0.0000000754  -0.0000048226   0.0000017677
       -0.0000023867   0.0000033333   0.0000013072   0.0000005259  -0.0000016869
       -0.0000011180   0.0000013464  -0.0000006748  -0.0000005748   0.0000004661
       -0.0000020559  -0.0000003314   0.0000000364  -0.0000000587   0.0000003447
        0.0000003493   0.0000002674   0.0000004572   0.0000001006   0.0000010999
       -0.0000000664  -0.0000002329  -0.0000012097  -0.0000014344   0.0000001662
        0.0000001789   0.0000015332   0.0000001377  -0.0000004373  -0.0000004256
       -0.0000002333   0.0000001281   0.0000000127  -0.0000000672  -0.0000004837
        0.0000012517  -0.0000008204   0.0000010678  -0.0000002272   0.0000008670
       -0.0000010443   0.0000001260  -0.0000004722  -0.0000000726   0.0000007852
       -0.0000003340   0.0000005124  -0.0000004042   0.0000005778   0.0000002674
       -0.0000004817   0.0000008596  -0.0000003372  -0.0000000121  -0.0000002356
        0.0000001642   0.0000001727  -0.0000001214  -0.0000007110   0.0000001414
        0.0000000610   0.0000005037   0.0000003706  -0.0000000560   0.0000001449
       -0.0000007147   0.0000002415  -0.0000005171  -0.0000003831   0.0000002283
        0.0000000904   0.0000005218  -0.0000000031   0.0000004923   0.0000006338
        0.0000000803   0.0000002724  -0.0000001234   0.0000001871  -0.0000003961
       -0.0000010648   0.0000001596   0.0000011154   0.0000017982  -0.0000005015
        0.0000006819   0.0000001022   0.0000003625  -0.0000139751  -0.0000441708
        0.0000022179   0.0000072181   0.0001091309   0.0000782927   0.0017861307
       -0.0014103608   0.0012357573   0.0009623248  -0.0071350528  -0.0481377266
       -0.0079940870  -0.0132811039  -0.0348292699   0.0001778850   0.0000033129
        0.0008447535  -0.0006092213  -0.0005852365   0.0081445050  -0.0000043366
       -0.0000231140  -0.0000280335   0.0000028544  -0.0000001508  -0.0000015106
        0.0000009320   0.0000002038   0.0000003895   0.0000005922   0.0000007063
        0.0000004610   0.0000000067   0.0000002618  -0.0000004583  -0.0000000117
       -0.0000000006  -0.0000001847  -0.0000000447   0.0000000618  -0.0000001359
        0.0000000261  -0.0000000123  -0.0000001887  -0.0000002223   0.0000000843
       -0.0000001554   0.0000002638   0.0000000081  -0.0000003515   0.0000006900
        0.0000016554  -0.0000003614  -0.0000002474  -0.0000002789  -0.0000004816
        0.0000001171   0.0000004077  -0.0000009048   0.0000001852   0.0000001265
       -0.0000001893   0.0000000422   0.0000001397  -0.0000000952   0.0000003877
       -0.0000003571  -0.0000000214   0.0000004848  -0.0000002232   0.0000003248
       -0.0000000747  -0.0000002071   0.0000000036   0.0000000531  -0.0000001561
        0.0000001056   0.0000000776  -0.0000001865   0.0000001151  -0.0000000823
       -0.0000000254  -0.0000000996   0.0000001818   0.0000000929  -0.0000001160
       -0.0000001090  -0.0000000637  -0.0000000440  -0.0000000848   0.0000002918
       -0.0000001669   0.0000003580   0.0000002299  -0.0000003205   0.0000002049
       -0.0000000882  -0.0000002383  -0.0000001798  -0.0000000750  -0.0000002611
        0.0000005224   0.0000006154  -0.0000003087   0.0000003946  -0.0000009883
        0.0000003600   0.0000001999  -0.0000007512   0.0000003327  -0.0000033413
       -0.0000011826   0.0000041692   0.0000167862   0.0000133954  -0.0000134588
       -0.0005875963  -0.0006259342   0.0081392434  -0.0008394323   0.0011819016
        0.0008324342
       -0.3306271506  -0.0382809161  -0.0138652253   0.6579346894  -0.0087866054
        0.0247663664  -0.1558815660  -0.0657007618  -0.0070593743   0.0566243736
       -0.0309791974   0.0005917646   0.0004504547   0.0054238236  -0.0004442070
       -0.0008594876   0.0000836696   0.0001129203   0.0002347948   0.0002492521
        0.0002050249  -0.0001765405  -0.0001512306   0.0001516386  -0.0001002552
        0.0000158690  -0.0000820490  -0.0000125151   0.0000295199  -0.0000068122
       -0.0000061206  -0.0000265641  -0.0000121697   0.0000036019   0.0000030007
        0.0000074340  -0.0000021292   0.0000008082  -0.0000020172  -0.0000083789
        0.0000122697   0.0000012031   0.0000029006  -0.0000017646  -0.0000002760
       -0.0000054803   0.0000016241   0.0000000884  -0.0000013992   0.0000029756
       -0.0000001187   0.0000003418   0.0000003781   0.0000001208   0.0000008931
       -0.0000021109   0.0000000958  -0.0000094333   0.0000086797  -0.0000045757
        0.0000368479   0.0000027713   0.0000256340   0.0000479567  -0.0000153057
       -0.0000315227  -0.0000296890  -0.0000268238   0.0000124649   0.0000125295
        0.0000042355   0.0000001248  -0.0000048255   0.0000040645  -0.0000013972
        0.0000176279  -0.0000012510  -0.0000007087  -0.0000070772  -0.0000009842
        0.0000001944   0.0000017954  -0.0000045780   0.0000015929  -0.0000111951
        0.0000010726  -0.0000000143   0.0000109826  -0.0000022293  -0.0000008228
       -0.0000096258  -0.0000039268   0.0000010236   0.0000058217  -0.0000059953
        0.0000012363  -0.0000013818  -0.0000005284   0.0000002971  -0.0000001857
       -0.0000000162   0.0000006357  -0.0000002302  -0.0000017085   0.0000012423
       -0.0000022052  -0.0000027126   0.0000009813  -0.0000020364  -0.0000003325
       -0.0000004680  -0.0000002652  -0.0000008728   0.0000004573  -0.0000048859
        0.0000051546  -0.0000015073   0.0000044981  -0.0000068140   0.0000016388
       -0.0000029615   0.0000017851  -0.0000008301  -0.0000002090  -0.0000026003
        0.0000006917  -0.0000030876  -0.0000003834  -0.0000000320  -0.0000008298
       -0.0000002911  -0.0000003353  -0.0000031496  -0.0000025746   0.0000008980
       -0.0000016285  -0.0000020184   0.0000000680  -0.0000083549   0.0000041618
       -0.0000001992   0.0000069036  -0.0000028540  -0.0000015895  -0.0000085154
        0.0000003466  -0.0000002912   0.0000167214  -0.0000104250   0.0000088841
       -0.0000228712   0.0000345345  -0.0000163894   0.0005494306   0.0002749415
        0.0002310989   0.0003109106  -0.0008065269  -0.0003132273  -0.0477096885
       -0.0307567443  -0.0033591341  -0.0352499880   0.0854074882   0.0018136519
       -0.0178372871  -0.0024628289  -0.0009210281  -0.1072724025   0.1101231484
        0.0003802067  -0.0192402798  -0.0261069075  -0.0017790358  -0.0002295711
       -0.0000060156  -0.0001353859   0.0000273226   0.0000002197   0.0000323440
        0.0000012394   0.0000021011   0.0000000489  -0.0000035192   0.0000005776
       -0.0000007024  -0.0000031441  -0.0000004848   0.0000003210   0.0000003243
       -0.0000013246  -0.0000001625  -0.0000000913  -0.0000030427  -0.0000000940
       -0.0000019919  -0.0000023192   0.0000001439  -0.0000026610  -0.0000012235
       -0.0000001904  -0.0000045439   0.0000009418  -0.0000009238  -0.0000061121
       -0.0000080852  -0.0000145541  -0.0000021203   0.0000015913  -0.0000008136
        0.0000014787  -0.0000034588   0.0000053718  -0.0000015801  -0.0000011906
        0.0000005486  -0.0000020017  -0.0000014309  -0.0000004187  -0.0000016553
        0.0000003013  -0.0000005039  -0.0000015179  -0.0000006257  -0.0000005924
       -0.0000012713  -0.0000002836  -0.0000001836  -0.0000004780  -0.0000003091
        0.0000002229  -0.0000007029  -0.0000012378   0.0000005833  -0.0000009225
       -0.0000013379   0.0000005335  -0.0000003652   0.0000002263  -0.0000004482
       -0.0000005205  -0.0000009485  -0.0000002175  -0.0000020524  -0.0000011534
       -0.0000002946  -0.0000006827  -0.0000003825  -0.0000002863  -0.0000013624
       -0.0000013973   0.0000004558  -0.0000022128   0.0000008916   0.0000006606
        0.0000027045   0.0000009050  -0.0000007479   0.0000046919   0.0000019897
       -0.0000026928  -0.0000023147  -0.0000040720   0.0000047329  -0.0000131854
        0.0000262375  -0.0000168341  -0.0001233704   0.0001429674  -0.0000045784
       -0.0001714429  -0.0006075014   0.0000869511  -0.0006051303   0.0029306842
       -0.0003666145
        0.0412570456  -0.0954887247   0.0003059192  -0.0087866054   0.6689557396
        0.0208728454  -0.1437468274  -0.2749185411  -0.0149880765   0.0261176909
       -0.0670313050  -0.0014966120   0.0043250805  -0.0011855202  -0.0004138531
       -0.0006599864   0.0002308131  -0.0002293595   0.0000630149   0.0005233408
        0.0000932182  -0.0003775123  -0.0005558282   0.0000915145   0.0002907219
        0.0005151935   0.0000402929   0.0001145609  -0.0001592813  -0.0001094789
       -0.0000055287   0.0000434224   0.0000068721  -0.0000031022  -0.0000159849
       -0.0000143615  -0.0000082549   0.0000171268   0.0000023445   0.0000115054
       -0.0000347111  -0.0000038732   0.0000007004   0.0000221775   0.0000037661
        0.0000140150  -0.0000100416  -0.0000035364  -0.0000046358  -0.0000031971
       -0.0000002444  -0.0000003699  -0.0000039687   0.0000021352  -0.0000074972
        0.0000062844  -0.0000022290   0.0000204771  -0.0000382993   0.0000113656
       -0.0000487744   0.0000703110   0.0000071640  -0.0002270054   0.0000092995
        0.0000714074   0.0000703216   0.0000213226  -0.0000024240  -0.0000422240
       -0.0000018506   0.0000121361   0.0000332667   0.0000076198  -0.0000065322
       -0.0000600334   0.0000059583  -0.0000016224   0.0000359496   0.0000058473
        0.0000027821  -0.0000212437  -0.0000001334  -0.0000072798   0.0000400671
        0.0000048860  -0.0000011707  -0.0000694297   0.0000021067   0.0000003765
        0.0000408948   0.0000084790  -0.0000017037  -0.0000381641   0.0000107155
       -0.0000020642   0.0000033126   0.0000011603  -0.0000011253   0.0000005875
       -0.0000024441  -0.0000004748   0.0000013841   0.0000000463   0.0000011675
       -0.0000007417  -0.0000007939   0.0000002123  -0.0000017532   0.0000005909
       -0.0000012174  -0.0000023692   0.0000031841  -0.0000015436   0.0000198368
       -0.0000215331   0.0000050722  -0.0000228845   0.0000259173  -0.0000073879
        0.0000092280  -0.0000082287   0.0000016910  -0.0000049861  -0.0000037289
        0.0000011228  -0.0000053873  -0.0000012366   0.0000006074   0.0000019377
        0.0000030270  -0.0000017448   0.0000049837  -0.0000003732  -0.0000013343
       -0.0000017905   0.0000033323  -0.0000005419   0.0000328140  -0.0000209118
        0.0000043882  -0.0000128827  -0.0000021509   0.0000076203   0.0000292788
       -0.0000101643  -0.0000034521  -0.0000345852  -0.0000037328  -0.0000156286
        0.0000545828  -0.0000369672   0.0000286723   0.0004486082   0.0000937050
       -0.0003407415  -0.0002824031  -0.0021321118  -0.0004643927  -0.0285115318
       -0.0137116969  -0.0016848586   0.0262187839   0.0273923552   0.0020751803
       -0.0266050396  -0.0019336184  -0.0012180907   0.1100250118  -0.2358492383
       -0.0027011350  -0.0020494585  -0.0011194640   0.0000734165  -0.0001998077
       -0.0001088982   0.0001750836   0.0000338530   0.0000269652   0.0000101054
        0.0000058194  -0.0000043440  -0.0000012736   0.0000034113   0.0000056464
        0.0000088056  -0.0000008531  -0.0000004794  -0.0000018471  -0.0000100695
        0.0000024609   0.0000007122  -0.0000028053   0.0000081088   0.0000006617
        0.0000025583   0.0000067018   0.0000001432   0.0000015360  -0.0000010746
        0.0000014033  -0.0000138241   0.0000079284  -0.0000111209   0.0000065949
        0.0000005127  -0.0000078961  -0.0000029528   0.0000049305  -0.0000013058
        0.0000066332   0.0000070778  -0.0000102752  -0.0000028577  -0.0000029372
       -0.0000020880   0.0000039350   0.0000060177   0.0000020588  -0.0000010513
       -0.0000020211   0.0000017023   0.0000010192  -0.0000001920   0.0000019305
       -0.0000000502   0.0000006849   0.0000001730   0.0000011964   0.0000015338
        0.0000002503   0.0000017874   0.0000004074   0.0000008330  -0.0000004650
       -0.0000006072   0.0000001033  -0.0000019197   0.0000007385   0.0000006445
        0.0000020429  -0.0000005871   0.0000000525   0.0000009226  -0.0000028025
        0.0000004954  -0.0000016718  -0.0000011279   0.0000009399   0.0000013819
        0.0000028285  -0.0000014644   0.0000006882  -0.0000045135  -0.0000032230
       -0.0000061877   0.0000027353   0.0000011357  -0.0000006526  -0.0000064374
        0.0000102999   0.0000014697  -0.0000060774  -0.0000110894  -0.0000785753
       -0.0000174618  -0.0000005657  -0.0001998722   0.0001065705   0.0002094785
       -0.0006921518   0.0005477861   0.0000770109   0.0034982643  -0.0042582537
       -0.0004470743
       -0.0110657980  -0.0036338517  -0.0484986593   0.0247663664   0.0208728454
        0.1184455534  -0.0111499759  -0.0117095283  -0.0476199769   0.0047510256
       -0.0042529062   0.0004514039  -0.0004877641  -0.0005206676   0.0071600204
       -0.0004378715  -0.0007512502  -0.0000188078  -0.0002576917   0.0001877551
       -0.0001107796   0.0001699110   0.0000655934  -0.0000858245  -0.0000740951
       -0.0001841341   0.0000503163  -0.0000498705   0.0000654022   0.0000373649
        0.0000016830  -0.0000198416  -0.0000047193  -0.0000094733   0.0000096014
       -0.0000012752   0.0000066166  -0.0000060630   0.0000023593  -0.0000038435
        0.0000061964   0.0000005435   0.0000007030  -0.0000033544  -0.0000004940
       -0.0000022410   0.0000007963   0.0000012119  -0.0000000812  -0.0000000151
        0.0000003316  -0.0000000387   0.0000022562  -0.0000002113   0.0000023165
       -0.0000028132   0.0000006321  -0.0000019445   0.0000086784  -0.0000029906
        0.0000170210  -0.0000067572  -0.0000062726   0.0000877971   0.0000075734
       -0.0000199918  -0.0000148006  -0.0000077492   0.0000001715   0.0000108508
       -0.0000033801  -0.0000014514  -0.0000155855  -0.0000047110   0.0000031644
        0.0000130689  -0.0000005071   0.0000002281  -0.0000074855  -0.0000016233
       -0.0000000277   0.0000051589  -0.0000009150   0.0000020105  -0.0000083964
       -0.0000003614  -0.0000000164   0.0000123917  -0.0000010267  -0.0000005545
       -0.0000084468  -0.0000011859   0.0000008752   0.0000072692  -0.0000021267
       -0.0000001164  -0.0000007244  -0.0000003889   0.0000003088  -0.0000009704
        0.0000014959  -0.0000004985   0.0000004225  -0.0000000728   0.0000006167
       -0.0000008227   0.0000003063  -0.0000002754   0.0000002574   0.0000004298
        0.0000002039   0.0000007119  -0.0000010654   0.0000008805  -0.0000040929
        0.0000028219   0.0000001184   0.0000037489  -0.0000038268   0.0000007064
       -0.0000010852   0.0000012569  -0.0000004759  -0.0000001736   0.0000004782
       -0.0000000676   0.0000008741   0.0000004394  -0.0000002203  -0.0000000366
       -0.0000012123   0.0000002846  -0.0000012190  -0.0000004578   0.0000002827
       -0.0000001147  -0.0000002099   0.0000000507  -0.0000058311   0.0000041337
       -0.0000001248   0.0000043347   0.0000013346  -0.0000013283  -0.0000079090
       -0.0000000613   0.0000006313   0.0000197779   0.0000083020  -0.0000001110
       -0.0000237995   0.0000086973  -0.0000044431  -0.0005574121   0.0002485263
       -0.0001251106   0.0005649615   0.0010344749   0.0001553883  -0.0032743832
       -0.0017897987  -0.0057524483  -0.0004391954   0.0050909409   0.0014220459
       -0.0019014241  -0.0002260567   0.0005806548   0.0007034153  -0.0025749555
       -0.0346789101  -0.0011202666  -0.0014183841   0.0006853117  -0.0000094254
       -0.0001702193   0.0000373138  -0.0000212121  -0.0000378696   0.0000158163
       -0.0000001685  -0.0000004414   0.0000011602   0.0000002206  -0.0000016294
       -0.0000015487  -0.0000003679   0.0000006259   0.0000001552   0.0000014403
       -0.0000004276  -0.0000002895   0.0000006112  -0.0000012152  -0.0000001464
       -0.0000003377  -0.0000013418  -0.0000000576  -0.0000001336   0.0000006222
       -0.0000005524   0.0000029565  -0.0000027407   0.0000017414  -0.0000003797
        0.0000022151  -0.0000011799   0.0000002180  -0.0000010931  -0.0000005601
       -0.0000020726  -0.0000015937   0.0000016186   0.0000004083   0.0000006305
        0.0000003501  -0.0000009548  -0.0000008040  -0.0000005480   0.0000005861
       -0.0000001010  -0.0000003171   0.0000002494  -0.0000001343   0.0000000002
       -0.0000001174  -0.0000004843   0.0000002822  -0.0000003548  -0.0000005388
        0.0000003604  -0.0000004808  -0.0000003457   0.0000000538  -0.0000000571
       -0.0000000132   0.0000000480   0.0000002032  -0.0000001487  -0.0000001694
       -0.0000007641  -0.0000000423  -0.0000001245  -0.0000005377   0.0000006136
       -0.0000004987   0.0000003688   0.0000002796  -0.0000006205  -0.0000001458
       -0.0000005421  -0.0000002205  -0.0000009920   0.0000007679   0.0000001087
        0.0000010075   0.0000007071  -0.0000013799  -0.0000015840   0.0000007233
       -0.0000027963  -0.0000007494  -0.0000001083  -0.0000000582   0.0000368994
        0.0000816984   0.0000223476   0.0001033117  -0.0000137078   0.0001144532
       -0.0000444862   0.0000248424  -0.0002022111  -0.0002789792  -0.0003772607
        0.0079499806
       -0.0374125210  -0.0248177093  -0.0026792653  -0.1558815660  -0.1437468274
       -0.0111499759   0.6641760571   0.0129293228   0.0297045473  -0.1464221860
        0.1278238769   0.0022316871   0.0100598029  -0.0070896600   0.0001687591
       -0.0013597150  -0.0019166030  -0.0004487959  -0.0001978390   0.0003013111
       -0.0002703778   0.0003352842   0.0003894619  -0.0000911017  -0.0004861084
       -0.0006413385   0.0000668467  -0.0001866195   0.0002642737   0.0001896465
        0.0000118707  -0.0000535994   0.0000049382  -0.0000227542   0.0000322862
       -0.0000013933   0.0000171702  -0.0000365665  -0.0000108595  -0.0000187742
        0.0000313695   0.0000019223   0.0000102077  -0.0000176423  -0.0000037428
       -0.0000129475   0.0000070988   0.0000034104   0.0000030971  -0.0000009950
       -0.0000002777   0.0000008675   0.0000075547  -0.0000023176   0.0000114165
       -0.0000145937   0.0000015201  -0.0000245267   0.0000606746  -0.0000061284
        0.0000652028  -0.0000428015   0.0000015325   0.0006167583  -0.0000256385
       -0.0001040983  -0.0001527773  -0.0000589579  -0.0000000558   0.0000957727
       -0.0000278645   0.0000036508  -0.0001021031   0.0000005478  -0.0000054281
        0.0000823528   0.0000009647  -0.0000009626  -0.0000388749  -0.0000121077
       -0.0000020894   0.0000304457  -0.0000017262   0.0000062151  -0.0000378779
        0.0000006058   0.0000022756   0.0000533130  -0.0000130796   0.0000034243
       -0.0000207983  -0.0000046814   0.0000003265   0.0000210920  -0.0000130697
        0.0000018412   0.0000013682   0.0000024517  -0.0000001434   0.0000014272
        0.0000014233   0.0000004235   0.0000011767  -0.0000008551   0.0000004612
       -0.0000000177  -0.0000005079   0.0000000180   0.0000003001   0.0000010532
       -0.0000008553   0.0000019120  -0.0000002781   0.0000005573  -0.0000078903
        0.0000243098  -0.0000054356   0.0000109676  -0.0000259726   0.0000069244
       -0.0000067554   0.0000053523  -0.0000007011   0.0000057092   0.0000022619
       -0.0000005030   0.0000046478   0.0000025683  -0.0000005480  -0.0000028243
       -0.0000005146   0.0000014341  -0.0000033591  -0.0000012005   0.0000025523
       -0.0000025795  -0.0000002168   0.0000013830  -0.0000189205   0.0000310394
       -0.0000054439   0.0000194808   0.0000094017  -0.0000078927  -0.0000527744
       -0.0000120020  -0.0000047879   0.0000811736   0.0000299256   0.0000238494
       -0.0001518457   0.0000510488   0.0000473786  -0.0001279907  -0.0000585021
       -0.0006035298  -0.0011662900  -0.0034924379  -0.0001089975  -0.0324680969
        0.0264551397  -0.0007832002   0.0034271480  -0.0019503632   0.0002905368
       -0.0060168099  -0.0002485771  -0.0005595139   0.0065696473   0.0122117656
        0.0008065408  -0.2977100210   0.0042796757  -0.0171073148  -0.0000902796
       -0.0007923290   0.0008083792  -0.0000720209  -0.0000729924   0.0000701685
       -0.0000152033  -0.0000020676  -0.0000141219  -0.0000000357  -0.0000114385