$hessian                                                                        
        0.2993534701  -0.2930556334  -0.0186302373  -0.2442585799   0.2370218068
        0.0141105076  -0.0538184744   0.0459878245   0.0050813214   0.0024596775
        0.0069644924  -0.0001082543  -0.0011800401   0.0021360402  -0.0003822940
        0.0008984142  -0.0004912233  -0.0000767532  -0.0021912709   0.0017380944
       -0.0001385662  -0.0001322134   0.0002497846   0.0000044209  -0.0004686696
       -0.0006692103   0.0001434787   0.0013211340  -0.0010709486  -0.0000623527
        0.0006432019   0.0012543793  -0.0001240129  -0.0087776100  -0.0049318739
        0.0010653645  -0.0013798427  -0.0012899623  -0.0000314330   0.0012185571
        0.0005193363  -0.0000288304   0.0190062775   0.0130449939  -0.0001012492
       -0.0040293451   0.0085268478   0.0010467966  -0.0013268720  -0.0068262454
        0.0000538260  -0.0005083811   0.0015228274  -0.0002007826  -0.0006885483
       -0.0014106690  -0.0007925499   0.0010920992  -0.0011352504  -0.0001749987
        0.0010247423   0.0021585481   0.0000975851  -0.0006755106  -0.0001548496
       -0.0000374855  -0.0024662580  -0.0023342356  -0.0005350576   0.0018207660
       -0.0005177997   0.0034440510  -0.0059792269  -0.0068014522  -0.0038817261
       -0.0004199307  -0.0000909868   0.0001506346   0.0000432088  -0.0000976324
       -0.0000162605  -0.0000494765   0.0000221026   0.0001095977  -0.0002508256
        0.0002104332  -0.0000152765  -0.0000235745   0.0001259539  -0.0000073029
       -0.0000870508   0.0000183074  -0.0000220708  -0.0003380349  -0.0004458070
       -0.0001329820  -0.0001053609  -0.0001165501   0.0000618961   0.0002735481
       -0.0000614428   0.0001309962
       -0.2930556334   0.5828732699   0.0248001844   0.2605479855  -0.4507452708
       -0.0209207036   0.0364607017  -0.0126607940  -0.0033004518  -0.0080553682
       -0.0057639799   0.0007268161   0.0025747258  -0.0009124406  -0.0001174951
       -0.0015278177   0.0006498800   0.0001070326   0.0011248424   0.0000986430
        0.0000717668   0.0000405906  -0.0011166377   0.0000397615   0.0014917958
        0.0012503011  -0.0002880218  -0.0023333405   0.0024048244  -0.0000098034
        0.0023070923  -0.0025364614   0.0002866678   0.0027719160   0.0025824090
       -0.0001480692  -0.0146093544   0.0035995297  -0.0021083972   0.0017819190
       -0.0087646432   0.0022637660   0.0147625816  -0.1056376360  -0.0017118563
        0.0057714157  -0.0066338453  -0.0012350562   0.0031334026   0.0032741289
        0.0005445025  -0.0009197405   0.0009997277   0.0005722683   0.0010297528
        0.0008063870   0.0002432826  -0.0008545860   0.0011088010   0.0001741954
        0.0003650726  -0.0012783937  -0.0002878931  -0.0004599784   0.0001805374
        0.0000373485   0.0002500687  -0.0001175897  -0.0001420684  -0.0036757155
        0.0001169454   0.0000018513  -0.0092661454  -0.0060923058   0.0004254151
        0.0005626209   0.0016532207  -0.0001406209  -0.0000324765   0.0001213735
        0.0000396984  -0.0001617516   0.0001586413  -0.0000364317   0.0000777753
       -0.0000018976  -0.0000090121   0.0001067396  -0.0000247688  -0.0000025920
       -0.0001625047   0.0002598085   0.0000560677   0.0001143204   0.0001200470
        0.0000605742  -0.0000459904  -0.0000380461  -0.0000008908  -0.0001149158
        0.0000662353   0.0000081646
       -0.0186302373   0.0248001844   0.0278638715   0.0135323714  -0.0192289759
       -0.0582543925   0.0052305340  -0.0036199608   0.0147330980  -0.0000734321
       -0.0004576842   0.0004833648  -0.0001188670  -0.0002686681  -0.0013506941
       -0.0000588437   0.0000138064  -0.0000019724   0.0000997710  -0.0002272107
       -0.0008717695   0.0000292424   0.0000225305  -0.0000131492  -0.0000085701
        0.0000096676   0.0002626335   0.0000016523  -0.0000170070  -0.0002000531
       -0.0002304004  -0.0001416358  -0.0004809540   0.0006710339   0.0006590322
        0.0021732310  -0.0001321688   0.0008738914   0.0042604871  -0.0003545702
       -0.0012902471  -0.0004832884   0.0012717819  -0.0003263734   0.0153243732
       -0.0003929077  -0.0005642434  -0.0028100738   0.0000565947   0.0004039637
        0.0002315598   0.0004368406  -0.0003628642  -0.0001305465   0.0000384742
        0.0002793647  -0.0002325620  -0.0001246780   0.0000239742  -0.0000034680
       -0.0000397079  -0.0000880356  -0.0003377078   0.0001013966   0.0000198817
       -0.0000200720   0.0000961058   0.0002742281   0.0003499573   0.0000002755
       -0.0002906777   0.0030659826  -0.0014318755  -0.0004479642  -0.0041642391
       -0.0000111333  -0.0000213909   0.0002592529  -0.0000124015   0.0000068550
        0.0000145730   0.0000481546   0.0000117633   0.0004337330  -0.0000051042
       -0.0000386450  -0.0002875053   0.0000030768  -0.0000109501   0.0000082256
        0.0000043056  -0.0000109778  -0.0000271902   0.0000403858   0.0000443675
        0.0000700500   0.0000090346   0.0000014775   0.0000424572  -0.0000461336
       -0.0000314765   0.0000927875
       -0.2442585799   0.2605479855   0.0135323714   0.6295022291  -0.1769228719
       -0.0278092118  -0.1858074280  -0.0008247105   0.0086674418  -0.0356215519
       -0.0263898004   0.0033025190   0.0080626795  -0.0068659407   0.0004530903
       -0.0019446280   0.0038604536  -0.0000747001   0.0028155875   0.0026728546
        0.0002801539  -0.0019844809   0.0009200413   0.0001230469  -0.0005315026
       -0.0002459528  -0.0000131720  -0.0012369468  -0.0004880997   0.0003457299
       -0.0073562788  -0.0051815591   0.0001075886  -0.0213745595   0.0247584947
        0.0007071981   0.0286706150  -0.0166408480   0.0023985916  -0.0027780858
        0.0138263916  -0.0024668100  -0.1190534808  -0.0434816142   0.0004025737
       -0.0329755343  -0.0328659811  -0.0006705752  -0.0020449135   0.0053976632
        0.0011241945  -0.0033493666  -0.0005973165  -0.0008015564   0.0002540676
        0.0006377789   0.0001432856  -0.0003685589   0.0004975553   0.0001526400
       -0.0010191156  -0.0008183502  -0.0001922586   0.0007228977  -0.0000560139
        0.0000111719   0.0009766757   0.0006489701   0.0001015642  -0.0015937278
       -0.0023142047  -0.0007137871  -0.0090566677  -0.0011381750   0.0012242753
        0.0006920635   0.0010848345  -0.0002251376  -0.0000109311   0.0002109973
        0.0000678011  -0.0000342718   0.0000109000  -0.0002093155   0.0001101280
        0.0000086437   0.0000040243  -0.0000781422  -0.0002108928   0.0000057190
        0.0005569879  -0.0003556189  -0.0000250472   0.0001382064   0.0002040120
        0.0000391399   0.0000754047   0.0000661312   0.0000208209  -0.0000987901
        0.0000442431  -0.0000133704
        0.2370218068  -0.4507452708  -0.0192289759  -0.1769228719   0.6959776096
        0.0140631509  -0.0057165655  -0.0592943888   0.0019704245  -0.0236900623
        0.0001505323   0.0021370826  -0.0036400528  -0.0049245060   0.0010309083
        0.0012836814  -0.0003701083  -0.0001121904   0.0024544723  -0.0039376360
       -0.0000267166   0.0007783806   0.0015806814  -0.0001659454  -0.0020457963
       -0.0014597156   0.0002888618   0.0027235097  -0.0035968840   0.0001642966
       -0.0077096950   0.0030623112   0.0001735851   0.0215449654   0.0026356117
       -0.0020867630   0.0178779363  -0.0379579603   0.0013280857  -0.0010355933
        0.0035833315  -0.0000672650  -0.0536104124  -0.1485695334   0.0015942657
       -0.0354687931   0.0141218769   0.0023413583   0.0012358578  -0.0074331412
       -0.0005264986   0.0008644377   0.0004724392  -0.0003519259  -0.0016466438
       -0.0019405690  -0.0007082836   0.0019132906  -0.0022512100  -0.0003961124
       -0.0006112197   0.0030540760   0.0005076128   0.0007022464  -0.0004525054
       -0.0001015626  -0.0018846737  -0.0010750069  -0.0000604671   0.0050649232
        0.0006682489   0.0014139669   0.0240986265   0.0021987302  -0.0033424788
       -0.0024766401  -0.0018632604   0.0000976759  -0.0012899467  -0.0003398578
        0.0000883365   0.0000919510  -0.0002763676  -0.0000808390   0.0001188314
       -0.0003250186   0.0000810923  -0.0003119494   0.0000477135   0.0000267456
        0.0002406522  -0.0002309402  -0.0000220210  -0.0002861981  -0.0003453927
       -0.0000934281   0.0000810197   0.0000376043   0.0000338924   0.0002505251
       -0.0002014937   0.0000301312
        0.0141105076  -0.0209207036  -0.0582543925  -0.0278092118   0.0140631509
        0.1626061166   0.0079256199   0.0015063703  -0.0642040432   0.0043632299
        0.0020269816  -0.0012123057   0.0004428162   0.0013629414   0.0095503167
        0.0001051985  -0.0002474136  -0.0001964897   0.0003071129   0.0002664575
        0.0063949384   0.0000473034  -0.0000135945  -0.0001680303  -0.0000661626
        0.0000007494  -0.0005015380   0.0001474042  -0.0000050138  -0.0001733421
        0.0005897136   0.0005457284  -0.0017267678   0.0005055606  -0.0022135609
       -0.0002342271  -0.0013072406   0.0036335801  -0.0069738015   0.0002479334
        0.0023365108   0.0033272115   0.0010824126  -0.0011520259  -0.0453925232
       -0.0005395737  -0.0002290713  -0.0002273518  -0.0014930870  -0.0003546673
        0.0004390276   0.0001409962  -0.0003329326   0.0009701975  -0.0002200993
       -0.0001161263   0.0000372148   0.0001279357  -0.0001409809  -0.0001426741
        0.0000430339   0.0002092718   0.0000984609  -0.0000158549  -0.0000280489
        0.0000409997  -0.0002284189  -0.0000384185  -0.0003152207   0.0003686446
        0.0003571558  -0.0004009826   0.0014696714  -0.0002107484   0.0012874437
       -0.0003145598  -0.0002856982  -0.0033659595   0.0001300137   0.0000058471
        0.0001330852  -0.0001977292  -0.0001115064  -0.0023629755   0.0000505031
        0.0000584648   0.0006318797   0.0000150168   0.0000130770   0.0000426989
       -0.0000186402   0.0000552329   0.0003031626  -0.0000165784  -0.0000278074
       -0.0000030985  -0.0000086173  -0.0000054612  -0.0000069087   0.0000151457
       -0.0000077397  -0.0000001212
       -0.0538184744   0.0364607017   0.0052305340  -0.1858074280  -0.0057165655
        0.0079256199   0.5986326139   0.0094926695  -0.0380258158  -0.1346546965
       -0.1231067449   0.0142659134  -0.0413105929  -0.0226367701   0.0048670617
        0.0052166424  -0.0040733572  -0.0006425558  -0.0304088988   0.0219932553
        0.0015136867  -0.0049893988   0.0009116255   0.0009563811  -0.0026171594
       -0.0013800435   0.0003600609   0.0033411534  -0.0061154649   0.0006014734
        0.0139411168   0.0029717123  -0.0010391475  -0.1395105149   0.1029404250
        0.0020029409  -0.0077781529   0.0076946491  -0.0007039167   0.0009706936
       -0.0021029968   0.0000729048  -0.0296024964  -0.0279027417   0.0029594011
        0.0047208860  -0.0012619021   0.0007386449  -0.0020634235  -0.0016696866
       -0.0002348548   0.0003829997  -0.0001057223  -0.0001843986  -0.0000371887
       -0.0000138065  -0.0000483655  -0.0000030161  -0.0000568956   0.0000102758
        0.0004238307   0.0001468721   0.0000357627  -0.0002662501   0.0000080797
        0.0000126505  -0.0002059296  -0.0002183820  -0.0000988920   0.0003730390
        0.0000950089   0.0001344378   0.0029998816   0.0014113932  -0.0000995703
        0.0075362077   0.0120445142  -0.0014056942  -0.0059443507  -0.0001764910
        0.0010662788   0.0011200989   0.0000702151  -0.0001166211  -0.0008115533
        0.0011943151   0.0000100489   0.0000391906  -0.0000503546  -0.0001426422
        0.0001741816  -0.0007921819   0.0000032702  -0.0000306908  -0.0000496243
       -0.0000301993  -0.0000561435  -0.0000401456  -0.0000042546   0.0000438232
        0.0000344405   0.0000095811
        0.0459878245  -0.0126607940  -0.0036199608  -0.0008247105  -0.0592943888
        0.0015063703   0.0094926695   0.6866573523  -0.0268576525  -0.0737882897
       -0.2887737227   0.0178690244  -0.0731100738   0.0208584311   0.0049737088
        0.0046125685  -0.0499881085   0.0019295494   0.0432513647   0.0253479444
       -0.0051053436   0.0007144762  -0.0101021504   0.0009270406   0.0131477892
        0.0053497926  -0.0015280355  -0.0186827301   0.0062066431   0.0017924390
        0.0007116641  -0.0644619253   0.0038546108   0.0870849738  -0.2189239651
        0.0007906505   0.0040453912   0.0037140735  -0.0013062967  -0.0007506953
       -0.0025758878   0.0004306285  -0.0307282790  -0.0081886133   0.0013981407
        0.0009757663  -0.0052976271   0.0004714897  -0.0020873748   0.0001827369
       -0.0000404486   0.0000830344  -0.0002905798  -0.0002306569  -0.0000973091
        0.0001551063   0.0000128687  -0.0001007913   0.0000760044   0.0000317505
        0.0001684078  -0.0001226324  -0.0000124947  -0.0001136394   0.0000443934
        0.0000059304   0.0000651243   0.0000479792   0.0000132530   0.0000177353
        0.0002577011  -0.0000752330  -0.0009779797  -0.0009310138   0.0000598659
       -0.0095754645  -0.0271074731   0.0024138620   0.0001114371   0.0011362069
        0.0003087550   0.0002196912  -0.0004899123   0.0000929065  -0.0003218719
       -0.0000172345  -0.0000270370   0.0000032663   0.0001909154  -0.0001315855
        0.0004893112  -0.0010536443   0.0000445475   0.0000312315   0.0000378697
        0.0000090477  -0.0000271504   0.0000005360   0.0000001077  -0.0000273676
        0.0000159869  -0.0000018026
        0.0050813214  -0.0033004518   0.0147330980   0.0086674418   0.0019704245
       -0.0642040432  -0.0380258158  -0.0268576525   0.1212356737   0.0118213544
        0.0223514596  -0.0486416351   0.0071074204   0.0013792217   0.0017414786
       -0.0009632746   0.0023631638  -0.0042774829   0.0006702887  -0.0027687155
        0.0030083153   0.0009266098   0.0007245850   0.0062162316  -0.0004209111
       -0.0002382067  -0.0005154473   0.0012226030   0.0006731538   0.0056725904
       -0.0009540313   0.0035285011   0.0004461736   0.0026354236  -0.0007839627
       -0.0508712567  -0.0002000251  -0.0009924245  -0.0018433516   0.0001907410
        0.0000587615  -0.0003209231   0.0014460491   0.0009337263   0.0060097452
       -0.0004974238  -0.0000167738   0.0042759293   0.0006501931   0.0000196036
        0.0009322289  -0.0001002001   0.0003321534  -0.0006947660   0.0000903964
        0.0000364156  -0.0000145370  -0.0000353327   0.0000708016   0.0001081281
       -0.0000006166  -0.0000858561   0.0000513413  -0.0000293457   0.0000070077
        0.0000348541   0.0000360174   0.0000195001  -0.0001792526  -0.0002026911
        0.0001689639  -0.0007835727  -0.0000768973  -0.0002503571   0.0013595509
        0.0000262761   0.0003662447   0.0016173927   0.0011335652   0.0002717637
        0.0064449795  -0.0001431451  -0.0000004490  -0.0004570456   0.0000690851
       -0.0000905325  -0.0000294358  -0.0001370983  -0.0000983168  -0.0014565267
        0.0000122188   0.0001678334   0.0005165509   0.0000056437   0.0000275711
       -0.0000781082   0.0000032939   0.0000013335   0.0000052904  -0.0000091342
        0.0000115093  -0.0000421680
        0.0024596775  -0.0080553682  -0.0000734321  -0.0356215519  -0.0236900623
        0.0043632299  -0.1346546965  -0.0737882897   0.0118213544   0.6413319902
       -0.0101047914  -0.0447441933  -0.2992338465  -0.0441992121   0.0241680247
       -0.0427220551   0.0780496783  -0.0001202921  -0.0217032553  -0.0326879646
        0.0032012440  -0.0026135246   0.0149107184  -0.0006741230  -0.0118254460
       -0.0063475022   0.0015112373   0.0115272391  -0.0064305790  -0.0006772744
        0.0019186740   0.0183339275  -0.0009751260   0.0330790706  -0.0260950781
       -0.0011848376  -0.0004796279  -0.0029561987   0.0006293823   0.0008471713
        0.0023152182  -0.0003265431  -0.0063364764   0.0038975489  -0.0001797906
       -0.0013633684  -0.0014301340   0.0000786012  -0.0002513271   0.0003090558
        0.0000194400  -0.0002106153  -0.0000063146  -0.0000820716  -0.0000830874
       -0.0000010572   0.0000058018  -0.0000289477  -0.0000119203   0.0000007345
       -0.0001561237  -0.0000356849  -0.0000186886   0.0001378052  -0.0000073493
       -0.0000093682   0.0000393143   0.0000197045   0.0000202761  -0.0001196987
       -0.0000745430  -0.0000386009  -0.0002052396  -0.0004428014   0.0000308579
       -0.1155668769   0.1182566307   0.0008771451  -0.0169880809  -0.0030261483
        0.0016952821  -0.0012863422   0.0030415423   0.0007474124   0.0000558766
        0.0000789701  -0.0000280046  -0.0000766945  -0.0000838814   0.0000432057
        0.0001379859   0.0002666008  -0.0000796134  -0.0000045265   0.0000087790
        0.0000019668   0.0000055777   0.0000049142  -0.0000009149  -0.0000089732
       -0.0000184079  -0.0000023217
        0.0069644924  -0.0057639799  -0.0004576842  -0.0263898004   0.0001505323
        0.0020269816  -0.1231067449  -0.2887737227   0.0223514596  -0.0101047914
        0.6700318383  -0.0260975678   0.0332437136  -0.0929011515  -0.0005208765
        0.0233254353   0.0262309876  -0.0033837890  -0.0154889814  -0.0133583017
        0.0017954943  -0.0012936829   0.0065379668  -0.0002804378  -0.0071767643
       -0.0030872107   0.0008733623   0.0070476776  -0.0060789160  -0.0002338799
        0.0056828762   0.0069075150  -0.0007818774   0.0102017463  -0.0656251833
        0.0025618616   0.0011017707  -0.0040352938   0.0007121991   0.0006894210
        0.0025243041  -0.0004108468   0.0018429039   0.0059492873  -0.0005322431
       -0.0015885746   0.0000965192  -0.0000120461   0.0002354515   0.0002132923
        0.0000376688   0.0000548373  -0.0000350540  -0.0000124635  -0.0001359296
       -0.0000990257  -0.0000173766   0.0000795291  -0.0001160872  -0.0000226804
       -0.0002496701   0.0000929348   0.0000150736   0.0001828240  -0.0000299969
       -0.0000119544  -0.0000189317   0.0000752775   0.0000381664   0.0000716657
       -0.0000059287  -0.0000376839  -0.0008179605  -0.0002929726   0.0001333371
        0.1181064123  -0.2326509422  -0.0003916310  -0.0258572962  -0.0020918603
        0.0024238797   0.0032951279  -0.0039439695   0.0002796785  -0.0002072480
        0.0002670360   0.0000062479  -0.0000579999   0.0001043897   0.0000167575
        0.0003475226  -0.0002872035  -0.0000613615  -0.0000008461   0.0000107125
        0.0000018273   0.0000270543   0.0000103736   0.0000019936  -0.0000052399
       -0.0000261667  -0.0000095895
       -0.0001082543   0.0007268161   0.0004833648   0.0033025190   0.0021370826
       -0.0012123057   0.0142659134   0.0178690244  -0.0486416351  -0.0447441933
       -0.0260975678   0.1227823102   0.0203947412   0.0059597224  -0.0511945173
        0.0026770703  -0.0080092564   0.0012295530   0.0021678478   0.0032462936
       -0.0061773413   0.0002495697  -0.0016308260  -0.0000805705   0.0014477787
        0.0007661008   0.0003458479  -0.0014032754   0.0008891469   0.0002664028
        0.0001275755  -0.0017195306   0.0058427648  -0.0033079621   0.0058023981
        0.0014516531   0.0000998215   0.0002561751  -0.0002199287  -0.0001036972
       -0.0002511339  -0.0001401980   0.0003008503  -0.0004008467   0.0021360764
        0.0002303784   0.0001560642   0.0001480554   0.0000267606  -0.0000344576
       -0.0000569887   0.0000359678   0.0000028175  -0.0000129129   0.0000047279
        0.0000022909  -0.0000008071   0.0000047079   0.0000026985   0.0000020199
        0.0000097053   0.0000026470  -0.0000017233  -0.0000065670  -0.0000006425
        0.0000001029   0.0000031495  -0.0000015514   0.0000050058  -0.0000003869
        0.0000063990   0.0000322532  -0.0000233791   0.0000447740  -0.0000351622
        0.0008478026  -0.0004254318  -0.0359184523   0.0028468287   0.0004227129
        0.0008104525   0.0007470494   0.0003714185   0.0090848303  -0.0000157206
       -0.0000305512  -0.0002036976   0.0000114783   0.0000036575   0.0000287390
       -0.0000902613  -0.0000668169  -0.0007551312   0.0000011123  -0.0000004353
        0.0000008343  -0.0000005695  -0.0000010436   0.0000000876   0.0000009108
        0.0000018521   0.0000010181
       -0.0011800401   0.0025747258  -0.0001188670   0.0080626795  -0.0036400528
        0.0004428162  -0.0413105929  -0.0731100738   0.0071074204  -0.2992338465
        0.0332437136   0.0203947412   0.6250419376  -0.0033281127  -0.0447697245
       -0.1651050792   0.0822015547   0.0067826957   0.0333479958   0.0372742232
       -0.0048335215   0.0023552005  -0.0229293838   0.0016402089   0.0143119578
        0.0076221836  -0.0017364096  -0.0122732964   0.0068830748   0.0007115162
       -0.0019402066  -0.0132727964   0.0011016044  -0.0249408627   0.0308070410
       -0.0000038429  -0.0010519585   0.0024277703  -0.0004375248  -0.0002891165
       -0.0015637800   0.0002139698  -0.0009940609  -0.0034928388   0.0003776880
        0.0005411841  -0.0001381544   0.0000037025  -0.0002183302  -0.0001890805
       -0.0000306737  -0.0000263944  -0.0000307984  -0.0000094507   0.0000185767
        0.0000164129  -0.0000002548  -0.0000520552   0.0000122369   0.0000032559
        0.0000237982   0.0000105112   0.0000069994   0.0000012510  -0.0000183880
        0.0000001501  -0.0000398817  -0.0000256450  -0.0000147768   0.0000290572
        0.0000583884   0.0000291987   0.0003996032   0.0000611958  -0.0000513814
       -0.0162760557   0.0012609106   0.0016737709  -0.1004349661  -0.1075919316
        0.0109898430  -0.0185100485   0.0254393818   0.0005905723  -0.0000673317
       -0.0003493878  -0.0000149467   0.0000271112  -0.0001701853  -0.0000689895
       -0.0001960510  -0.0000298101   0.0000242611  -0.0000054129  -0.0000092196
       -0.0000028716  -0.0000202605  -0.0000158027  -0.0000028813   0.0000054954
        0.0000121172   0.0000017024
        0.0021360402  -0.0009124406  -0.0002686681  -0.0068659407  -0.0049245060
        0.0013629414  -0.0226367701   0.0208584311   0.0013792217  -0.0441992121
       -0.0929011515   0.0059597224  -0.0033281127   0.6902966795  -0.0277450785
        0.1558185594  -0.2934015592  -0.0017871997  -0.0074762194  -0.0681231720
        0.0041805986  -0.0052463190   0.0079749643   0.0002653394  -0.0069818953
       -0.0056188559   0.0009964943   0.0060482627  -0.0026634056  -0.0003610982
        0.0009278396   0.0048127008  -0.0004531038   0.0158796125  -0.0111819408
       -0.0010085791   0.0005979086  -0.0015536854   0.0002028055   0.0003524480
        0.0012297011  -0.0001586980  -0.0013659683   0.0021792398  -0.0002507418
       -0.0004973573  -0.0003068351  -0.0000185752  -0.0000834959   0.0001159277
        0.0000157388   0.0000867304   0.0000039924  -0.0000041186  -0.0000864058
       -0.0000633590  -0.0000165092   0.0000599559  -0.0000753942  -0.0000130542
       -0.0001720993   0.0000893112   0.0000181984   0.0001297454  -0.0000336314
       -0.0000050687   0.0000103090   0.0000641076   0.0000181269   0.0000148883
        0.0000403208  -0.0000020790  -0.0004383019  -0.0001976621   0.0000018873
        0.0237614696  -0.0000535232  -0.0019707650  -0.1077339484  -0.2451629691
        0.0197006351   0.0016765470  -0.0006306036  -0.0000309532  -0.0002724655
        0.0002785384   0.0000102404  -0.0002384178  -0.0002987203   0.0000063885
        0.0000986145   0.0001466790  -0.0000263117   0.0000090493   0.0000145249
        0.0000024474   0.0000174564   0.0000036547   0.0000026297  -0.0000025074
       -0.0000053586  -0.0000028140
       -0.0003822940  -0.0001174951  -0.0013506941   0.0004530903   0.0010309083
        0.0095503167   0.0048670617   0.0049737088   0.0017414786   0.0241680247
       -0.0005208765  -0.0511945173  -0.0447697245  -0.0277450785   0.1192481535
        0.0029842918   0.0045917531  -0.0455744357  -0.0022673417   0.0003015648
        0.0020364915   0.0005663494   0.0018987157   0.0058459170  -0.0008463842
       -0.0003882986   0.0001119090   0.0007833350  -0.0004118777   0.0004910173
        0.0001255018   0.0008121965  -0.0006450049   0.0009142539  -0.0023362611
       -0.0052223728  -0.0000270747  -0.0001360159  -0.0004438689   0.0000187120
        0.0001555634   0.0002017312   0.0003189775   0.0002543099  -0.0005523079
       -0.0000090605   0.0000711165  -0.0003945666  -0.0000099013   0.0000151444
       -0.0000817584   0.0000193356  -0.0000344093   0.0000565847  -0.0000124582
       -0.0000070837   0.0000141363   0.0000110200  -0.0000079812  -0.0000086414
        0.0000028405   0.0000088498  -0.0000034775  -0.0000004449   0.0000014714
       -0.0000005211  -0.0000057379  -0.0000028968   0.0000090373   0.0000177638
       -0.0000109230   0.0000493594   0.0000172431   0.0000140315  -0.0000874430
        0.0004437391   0.0000340779   0.0023597911   0.0109724601   0.0196938311
       -0.0370246421   0.0016947779  -0.0021120773   0.0018085550  -0.0000039426
        0.0000038307  -0.0002096273  -0.0000748248  -0.0000325001  -0.0008643149
        0.0000299695   0.0000039251   0.0001311353  -0.0000004889  -0.0000014498
        0.0000035256   0.0000006424   0.0000013143  -0.0000027989   0.0000002880
       -0.0000010885   0.0000018533
        0.0008984142  -0.0015278177  -0.0000588437  -0.0019446280   0.0012836814
        0.0001051985   0.0052166424   0.0046125685  -0.0009632746  -0.0427220551
        0.0233254353   0.0026770703  -0.1651050792   0.1558185594   0.0029842918
        0.6607895443  -0.0434708441  -0.0458794742  -0.1350065093  -0.1086298969
        0.0129185308   0.0087227556   0.0057669525  -0.0010625036   0.0011775365
        0.0049759265   0.0000800734  -0.0019934436   0.0009495481   0.0000827917
       -0.0049931195  -0.0004185700   0.0009276894  -0.0260480297  -0.0268957673
        0.0038822231  -0.0018700596  -0.0008383458   0.0001717840  -0.0002248584
       -0.0000205893   0.0000605697   0.0009272752  -0.0002783063   0.0000503842
       -0.0005152461   0.0001008927   0.0000063822   0.0001186715  -0.0000064015
        0.0000288889  -0.0000907109   0.0000199378  -0.0000029482   0.0000281811
       -0.0000122412  -0.0000024917  -0.0000092779  -0.0000115766  -0.0000006891
       -0.0001171235   0.0000243361   0.0000073847   0.0001028426  -0.0000433422
       -0.0000015157  -0.0000316334   0.0000321604   0.0000027145  -0.0000100359
       -0.0000544752  -0.0000269287   0.0000280180  -0.0000887101   0.0000203415
       -0.0056642649  -0.0000538944   0.0010626613   0.0065764576  -0.0108167432
        0.0000045791  -0.2992866371  -0.0065466107   0.0234668286   0.0008528686
        0.0019002698  -0.0003416037   0.0002877016   0.0008608404  -0.0000837501
       -0.0001079422   0.0000459677  -0.0001105283   0.0000014501  -0.0000007529
       -0.0000036643  -0.0000025974  -0.0000102360  -0.0000014883   0.0000148925
        0.0000080449  -0.0000006837
       -0.0004912233   0.0006498800   0.0000138064   0.0038604536  -0.0003701083
       -0.0002474136  -0.0040733572  -0.0499881085   0.0023631638   0.0780496783
        0.0262309876  -0.0080092564   0.0822015547  -0.2934015592   0.0045917531
       -0.0434708441   0.6454738814  -0.0225899320  -0.0762934361  -0.2157249896
        0.0151998613  -0.0026036979  -0.0690866970   0.0041111039   0.0226905457
        0.0087496835  -0.0022556638  -0.0150598262   0.0060457271   0.0009580109
       -0.0004433972  -0.0098588070   0.0011520035  -0.0487873394   0.0234314049
        0.0029721849  -0.0014645505   0.0018306310  -0.0002206994  -0.0000812788
       -0.0011331033   0.0000852158   0.0001488467  -0.0026352701   0.0003185167
        0.0001456984  -0.0000149689   0.0000307760  -0.0000603953  -0.0001132849
        0.0000078999  -0.0000629283   0.0000240493  -0.0000129558   0.0000623636
        0.0000435808   0.0000084463  -0.0000251608   0.0000372497   0.0000098167
        0.0000568296  -0.0000222062  -0.0000056962  -0.0000436659  -0.0000080576
        0.0000046350  -0.0000132124  -0.0000129989  -0.0000060825  -0.0000080658
       -0.0000090842  -0.0000137268   0.0003182741   0.0000185962  -0.0000290369
       -0.0000399277   0.0006184476   0.0003721394   0.0126342049  -0.0270330518
        0.0002658667  -0.0050387069  -0.0436999961   0.0009271838  -0.0013581203
        0.0010279182  -0.0000626635  -0.0005207431  -0.0010754991   0.0001282376
       -0.0002255014   0.0000078455  -0.0000622857   0.0000003746  -0.0000043754
       -0.0000042219  -0.0000124696  -0.0000030121  -0.0000024451   0.0000090237
        0.0000052952   0.0000014579
       -0.0000767532   0.0001070326  -0.0000019724  -0.0000747001  -0.0001121904
       -0.0001964897  -0.0006425558   0.0019295494  -0.0042774829  -0.0001202921
       -0.0033837890   0.0012295530   0.0067826957  -0.0017871997  -0.0455744357
       -0.0458794742  -0.0225899320   0.1225854193   0.0111415587   0.0178254314
       -0.0540149851  -0.0005931529   0.0033512253   0.0000482190  -0.0007866949
       -0.0004939941   0.0061100687   0.0009475215  -0.0003827975  -0.0002144200
        0.0010497108   0.0008898928   0.0061702857   0.0049799190   0.0011982868
        0.0008531189   0.0002341266  -0.0000444747  -0.0001536126   0.0000138389
        0.0000836374  -0.0000232920  -0.0001077544   0.0001955138   0.0000907895
        0.0000518738  -0.0000146629  -0.0000028088   0.0000015465   0.0000138143
        0.0000049104   0.0000099190  -0.0000050476  -0.0000021117  -0.0000038150
       -0.0000013393   0.0000003823   0.0000013978  -0.0000010931   0.0000002488
        0.0000080769  -0.0000029367  -0.0000011480  -0.0000096189   0.0000055109
        0.0000007980   0.0000048262  -0.0000013500   0.0000009754  -0.0000040012
        0.0000026897   0.0000026683  -0.0000150645   0.0000085372   0.0000042584
        0.0010687035   0.0002973187   0.0064017885  -0.0011186149   0.0023111511
        0.0007904736   0.0234136617   0.0010480658  -0.0366379053  -0.0001760667
       -0.0003362642  -0.0018947216   0.0000214382  -0.0000046774   0.0001681672
       -0.0001202362  -0.0001078689  -0.0014662616  -0.0000004099   0.0000011913
       -0.0000002993   0.0000006158   0.0000011119  -0.0000000930  -0.0000022257
       -0.0000003429  -0.0000000855
       -0.0021912709   0.0011248424   0.0000997710   0.0028155875   0.0024544723