90
 energy: -137.974892786780 gnorm: 0.000090094355 xtb: 6.7.1 (edcfbbe)
C           -9.60451926850306       -6.00172329019352        0.57692570931339
C           -8.43651994835860       -6.23847798700239       -0.12997079464439
C           -7.46133883117640       -5.26206671461428       -0.20997391352966
C           -7.63848838578029       -4.02651155080893        0.41267767048214
C           -6.60562169476835       -2.98601833278794        0.32258455426371
C           -5.24859267022966       -3.33074985825896        0.40803901976320
C           -4.24479113290646       -2.38800293395238        0.32227053283483
C           -4.61042294403419       -1.06122601825127        0.12838978563580
C           -5.97500414714322       -0.68880722833134        0.06840486201775
C           -6.96600002757482       -1.64838315577461        0.16320014911375
C           -5.99753915763294        0.74544117179602       -0.07164962547937
C           -7.01777983060447        1.67118476430239       -0.18946836055263
C           -6.69874273337601        3.02030047788595       -0.33918997511198
C           -7.76559690449895        4.02360118871849       -0.45639852629144
C           -8.90803496918968        3.93753537895671        0.33906964235295
C           -9.91148216534035        4.88267662657400        0.23654495359012
C           -9.79570715196810        5.92712815032438       -0.66650241636983
C           -8.66769224051747        6.02058602501794       -1.46572046161952
C           -7.65946061209702        5.08070072032978       -1.35971100597079
C           -5.35314971633494        3.41216348769304       -0.38397660685821
C           -4.32030739655317        2.50496524397447       -0.26215535266477
C           -4.64537949115513        1.16546722179510       -0.08548316404496
N           -3.82240797201140        0.06570315141293        0.03339361588705
C           -2.42497301828034        0.08712140649940        0.04644662182118
C           -1.69584168549611       -0.77890652456071       -0.77370828871168
C           -0.32211841672923       -0.75467028584270       -0.76169435196214
C            0.39133173124564        0.13079889656970        0.06685206438962
C            1.83770892783562        0.15439661363417        0.07341296046121
C            2.59701825516936       -0.99381436654767       -0.23071373666812
C            3.96288794042928       -0.97073694290104       -0.22020718713719
C            4.68446622631943        0.21004766090450        0.07708013052074
C            6.11146280106790        0.18605759680735        0.05852972138924
C            6.93115480091384        1.30772583633756        0.29762375574922
C            8.30289181257345        1.15126011642678        0.24316315039039
C            9.24795251829624        2.23058915369516        0.48848905011449
C           10.58775289163435        1.91645126204570        0.75333656114183
C           11.51331219155530        2.90914645070973        0.99625854870895
C           11.13061427194255        4.24244692360804        0.97786200913492
C            9.80997639258940        4.56891560141006        0.70704645101427
C            8.87797758548480        3.58009318399878        0.46466778701888
N            8.83102154302279       -0.07350321139471       -0.02765411423747
C            8.02874440538821       -1.10307242236665       -0.24908266089441
C            8.63076770724346       -2.40495752635253       -0.54704110538700
C            7.83785743408065       -3.54779383181120       -0.62536076154849
C            8.40950359456697       -4.77315284876711       -0.90971353535173
C            9.77651528060544       -4.87091826259587       -1.11985905815776
C           10.57149998860169       -3.73776085873474       -1.04419375460171
C           10.00366939251801       -2.51063727835298       -0.75858658910625
N            6.72255660621116       -1.00204893444484       -0.21431062071614
C            3.92259108784234        1.36192162353070        0.37469900200519
C            2.55449821683906        1.32740762630663        0.38151790754953
C           -0.36125631948293        0.99220958835179        0.88607313065923
C           -1.73528508484047        0.97391069132363        0.87822542929572
C           -8.81955426330509       -3.79965325144049        1.11928208771906
C           -9.79092025973505       -4.77955348910611        1.20252533668485
H          -10.36506948838524       -6.76615956603421        0.64081587011050
H           -8.28711828471307       -7.18810521516570       -0.62361179522381
H           -6.56290148696146       -5.44802095470576       -0.78032797492664
H           -4.98320976201063       -4.36393562456202        0.57413128113527
H           -3.20888489205456       -2.67417984426695        0.41953101998657
H           -8.00555046137662       -1.36720366423085        0.09514785987508
H           -8.04834154922995        1.35103817206006       -0.19443058424979
H           -8.99683595775929        3.13672553629308        1.05883572085476
H          -10.78712355888260        4.80703188151778        0.86532300486725
H          -10.58126317772831        6.66412289432079       -0.74798836029728
H           -8.57471627244241        6.82981390368454       -2.17589506413496
H           -6.79200543216355        5.15049284305326       -1.99991408189958
H           -5.11894923440481        4.45965720802498       -0.49980768483480
H           -3.29255242921231        2.82982119014180       -0.31131939450825
H           -2.22218611221926       -1.44081110810386       -1.44571390213000
H            0.21863470097971       -1.40314608245959       -1.43365669237261
H            2.09096426776585       -1.92515233122539       -0.43986934380974
H            4.52893981524941       -1.86337993462297       -0.44046246924387
H            6.49430252156831        2.26252073006144        0.53492694941580
H           10.87661612722894        0.87638052020994        0.77168725177831
H           12.54088505126295        2.64491747032670        1.20225129679518
H           11.85484892943294        5.02084081162456        1.16734225309702
H            9.50607019472968        5.60590455572472        0.68111380627021
H            7.86100632911468        3.86166155422889        0.23581655990578
H            6.77558920352452       -3.45506089964736       -0.45721218036640
H            7.78954549176920       -5.65599660028206       -0.96760894131248
H           10.22185541698976       -5.82948250501075       -1.34253005738935
H           11.63656240488493       -3.81268456362410       -1.20876534388801
H           10.60729045147654       -1.61741440068085       -0.70004418272578
H            4.41860218981562        2.29376793464398        0.60175408298876
H            2.01309349713158        2.23853713098981        0.59177369630018
H            0.14896231138451        1.65657372711651        1.56644784061154
H           -2.29129441632786        1.61857157368952        1.54310732850173
H           -8.96478183523356       -2.85743766474715        1.62731978928942
H          -10.69736394074203       -4.59102733241301        1.75985883627260
