$hessian                                                                        
        0.6728167025   0.0000836377   0.0000588972  -0.1517685788  -0.0752675115
        0.1178182796  -0.0387735770  -0.0118652932   0.0211774435   0.0103019571
        0.0000021256   0.0000047685  -0.0048274747  -0.0000007760  -0.0000005157
        0.0005904208  -0.0008723230   0.0011293887   0.0002037656  -0.0002019241
       -0.0000230686  -0.0006113436   0.0004572114  -0.0000955279   0.0008440713
        0.0006983516   0.0000806429  -0.0001489404  -0.0010243533  -0.0001077386
       -0.0000747435   0.0006600324   0.0000820856  -0.0003979036  -0.0000000897
       -0.0000000363   0.0002386380  -0.0000000052  -0.0000000871  -0.0000943768
       -0.0000872648  -0.0000408365   0.0000564468  -0.0000235527  -0.0000223053
       -0.0000504641  -0.0000001244  -0.0000001683   0.0000563659   0.0000233752
        0.0000220076  -0.0000945085   0.0000870766   0.0000406407  -0.0000743756
       -0.0006600779  -0.0000822431  -0.0001492467   0.0010241934   0.0001076443
        0.0008444793  -0.0006980104  -0.0000806156  -0.0006109751  -0.0004573898
        0.0000954230   0.0002036497   0.0002019722   0.0000232254   0.0005904453
        0.0008724862  -0.0011291418  -0.0387682879   0.0118615109  -0.0211843180
       -0.1517529419   0.0752310093  -0.1178355553  -0.2999019745  -0.0000396339
       -0.0000380829   0.0066948553   0.0063942926  -0.0107743646  -0.0058730701
       -0.0002501456   0.0001846416  -0.0001540469   0.0001180332  -0.0000050763
       -0.0000197071   0.0000138989  -0.0000044259   0.0000160439   0.0000024340
        0.0000254277   0.0000128507  -0.0000077567   0.0000129013   0.0000024866
        0.0000117215   0.0000083209  -0.0000029140   0.0000072545  -0.0000016794
       -0.0000003812  -0.0000001366  -0.0000002016  -0.0000030649  -0.0000074772
        0.0000013517   0.0000023406  -0.0000118458  -0.0000085062   0.0000129450
        0.0000076779  -0.0000130272   0.0000162307  -0.0000024721  -0.0000254870
       -0.0000195097  -0.0000138640   0.0000044935  -0.0001540169  -0.0001180872
        0.0000051735  -0.0058730395   0.0002456278  -0.0001881015   0.0066947677
       -0.0063938079   0.0107783535
        0.0000836377   0.2677059199  -0.2399089890  -0.0327607586  -0.1113940330
        0.1005421710  -0.0453667464   0.0081674313  -0.0105095997   0.0000018104
       -0.0220206799   0.0249071808  -0.0000007128  -0.0003064263  -0.0003290169
       -0.0000013867  -0.0002134217  -0.0000308844   0.0002323927  -0.0001929449
        0.0001139163  -0.0000309567   0.0000749064   0.0000215395   0.0000449253
       -0.0000337407  -0.0000901952  -0.0000368108   0.0000491460  -0.0000008479
       -0.0000370085  -0.0000839396  -0.0000536496  -0.0000001129   0.0001198423
        0.0000309151   0.0000000768   0.0000043201  -0.0000533902  -0.0000069807
        0.0000046527   0.0000088952  -0.0000074834  -0.0000079191   0.0000043372
       -0.0000000260  -0.0000091687  -0.0000172415   0.0000074975  -0.0000077329
        0.0000042605   0.0000069638   0.0000047740   0.0000088279   0.0000370568
       -0.0000841753  -0.0000535133   0.0000367429   0.0000495438  -0.0000005059
       -0.0000445763  -0.0000340111  -0.0000897607   0.0000306976   0.0000747476
        0.0000220736  -0.0002322331  -0.0001930536   0.0001141062   0.0000015991
       -0.0002131545  -0.0000311124   0.0453629834   0.0081766975  -0.0105053021
        0.0327233343  -0.1113411251   0.1005179099  -0.0000397054  -0.0364698838
        0.0048450073  -0.0061933095  -0.0072966148   0.0121642049   0.0001505714
        0.0063300666   0.0030738845   0.0000624869   0.0000478793  -0.0000244011
        0.0000056713   0.0000024661   0.0000135852   0.0000030954   0.0000043290
       -0.0000024338   0.0000002296   0.0000058722   0.0000436789  -0.0000003598
       -0.0000035328  -0.0000042572  -0.0000022184  -0.0000039792  -0.0000010077
        0.0000000025   0.0000005264  -0.0000002986   0.0000022184  -0.0000037645
       -0.0000011565   0.0000003888  -0.0000033086  -0.0000044164  -0.0000002399
        0.0000060239   0.0000439619  -0.0000031381   0.0000042282  -0.0000019008
       -0.0000056857   0.0000024473   0.0000141533  -0.0000626835   0.0000476839
       -0.0000240772  -0.0001552589   0.0063299856   0.0030737827   0.0061940094
       -0.0072968800   0.0121695665
        0.0000588972  -0.2399089890   0.4875866280   0.0497216772   0.0998107652
       -0.2038744685   0.0712853433  -0.0110410392   0.0176512456   0.0000046630
        0.0247593801  -0.0444791457  -0.0000007241   0.0002179802  -0.0000076377
        0.0000706264   0.0003361079   0.0000918114  -0.0004085302   0.0003783997
       -0.0000603680   0.0000359851  -0.0001384654  -0.0000593924  -0.0000727397
        0.0000710496   0.0001490088   0.0000555568  -0.0000792893   0.0000084251
        0.0000847548   0.0001187869   0.0000772519   0.0000000395  -0.0002055251
       -0.0000799451   0.0000000361   0.0000059149   0.0001315558   0.0000144866
       -0.0000101638  -0.0000152021   0.0000204171   0.0000154899  -0.0000080829
       -0.0000000118  -0.0000047417   0.0000154420  -0.0000204364   0.0000154531
       -0.0000080550  -0.0000145247  -0.0000101187  -0.0000152140  -0.0000849305
        0.0001185905   0.0000773227  -0.0000555562  -0.0000790995   0.0000084229
        0.0000728743   0.0000709653   0.0001488999  -0.0000361844  -0.0001387323
       -0.0000596562   0.0004086587   0.0003787690  -0.0000599464  -0.0000705612
        0.0003363785   0.0000917274  -0.0712920726  -0.0110612904   0.0176308184
       -0.0497392357   0.0998199526  -0.2039298517  -0.0000381509   0.0047577371
       -0.0409723904   0.0098274391   0.0128998268  -0.0182352960  -0.0003039587
        0.0028788117   0.0032013446  -0.0002223744  -0.0000312017   0.0001018880
       -0.0000204512   0.0000013218  -0.0000301646  -0.0000096941  -0.0000057111
        0.0000128117   0.0000023576  -0.0000152326  -0.0000795526   0.0000048933
        0.0000069303   0.0000054963   0.0000044042   0.0000012526  -0.0000001739
        0.0000000025  -0.0000017244   0.0000073970  -0.0000044032   0.0000011929
       -0.0000001523  -0.0000048957   0.0000068462   0.0000056295  -0.0000022962
       -0.0000152436  -0.0000796483   0.0000097427  -0.0000057296   0.0000127271
        0.0000204437   0.0000013475  -0.0000302603   0.0002223753  -0.0000310269
        0.0001019721   0.0003001254   0.0028788931   0.0032017316  -0.0098240682
        0.0128951811  -0.0182349540
       -0.1517685788  -0.0327607586   0.0497216772   0.6556860585  -0.0037281507
        0.0107579546  -0.3360693787  -0.0246927822   0.0310627460  -0.0417428994
        0.0417542494  -0.0660384511   0.0060513673   0.0017761264  -0.0016863202
       -0.0010907085   0.0016100692  -0.0016557503  -0.0008143644   0.0004544875
        0.0000725659   0.0009036320  -0.0006547555   0.0000452221  -0.0011730689
       -0.0008927886   0.0000373581   0.0002118545   0.0012729220   0.0001627345
        0.0002418269  -0.0006504354   0.0000329191   0.0004947184  -0.0001549601
       -0.0000780910  -0.0003284708   0.0000090583   0.0001420843   0.0001557519
        0.0000580668   0.0000285573  -0.0000556617   0.0000369047   0.0000187619
        0.0000564065   0.0000102285   0.0000196544  -0.0000911611  -0.0000094677
       -0.0000246005   0.0001178015  -0.0000753207  -0.0000452814   0.0002946900
        0.0009070141   0.0003011384   0.0001619171  -0.0014643982  -0.0001733380
       -0.0009786050   0.0010855857   0.0002345025   0.0009787004   0.0005178647
       -0.0003046244   0.0001161404   0.0004260165   0.0000072535  -0.0007635013
       -0.0010226565   0.0019823163  -0.0452203209  -0.0126450682   0.0220815052
        0.0586793378  -0.0153877352   0.0245776408  -0.0184561520  -0.0141941924
        0.0218013281  -0.1063787189   0.0591615054  -0.0921132568  -0.0178653728
       -0.0016455524   0.0019063878  -0.0002882683   0.0000733867   0.0000455108
       -0.0000200991  -0.0000106311  -0.0000255497   0.0000057858  -0.0000282611
       -0.0000090292   0.0000230843   0.0000090520  -0.0001085929  -0.0000093777
       -0.0000016748   0.0000071164   0.0000023951  -0.0000030482   0.0000057140
       -0.0000016219  -0.0000084370   0.0000045119  -0.0000062177   0.0000031290
       -0.0000087296  -0.0000157260  -0.0000085579  -0.0000038051   0.0000106653
       -0.0000299334  -0.0001013680   0.0000270467   0.0000208783   0.0000548769
        0.0000037027   0.0000092259  -0.0000251898  -0.0004170950  -0.0005133770
       -0.0002303912  -0.0001874406  -0.0005290578   0.0004156204  -0.0004800737
        0.0019162294  -0.0028952889
       -0.0752675115  -0.1113940330   0.0998107652  -0.0037281507   0.2719232359
       -0.2473267890   0.0204503241  -0.0598906118   0.0210686754   0.0110231178
        0.0071044474  -0.0090104795   0.0033225293   0.0038556767   0.0044389134
       -0.0008574771   0.0004967345  -0.0009649114  -0.0004484786   0.0001831238
        0.0000635949   0.0003788470  -0.0003101339   0.0001133365  -0.0004867741
       -0.0003916142  -0.0000517710   0.0000219429   0.0005554728   0.0000639352
        0.0001211457  -0.0001006949  -0.0002192476   0.0001925029  -0.0000589701
        0.0000499045  -0.0001188327  -0.0000147391  -0.0001313773   0.0000175333
        0.0000552224   0.0000296840  -0.0000369535  -0.0000038292   0.0000189018
        0.0000244699  -0.0000079582  -0.0000221758  -0.0000101788  -0.0000224968
       -0.0000138000   0.0000543250  -0.0000372781  -0.0000146981   0.0000839996
        0.0005667338  -0.0000714983   0.0001480257  -0.0004783139  -0.0000613426
       -0.0003734185   0.0003106414   0.0000050753   0.0002639609   0.0001856220
        0.0000220898  -0.0000143450  -0.0001611912  -0.0001547666   0.0008605811
       -0.0003435287   0.0004572881  -0.0155713537  -0.0063735598   0.0027266373
        0.0154023497  -0.0191254799   0.0312698139  -0.0010173614   0.0002389323
        0.0008900893   0.0585627075  -0.0911052993   0.0906877496  -0.0140417146
       -0.0000795563   0.0012872135   0.0000733437  -0.0000704499  -0.0000389019
        0.0000056880   0.0000209645  -0.0000045953  -0.0000040146   0.0000083299
       -0.0000459193  -0.0000233306   0.0000381154   0.0001092541  -0.0000027809
       -0.0000025851  -0.0000001293  -0.0000067805  -0.0000079381  -0.0000012682
       -0.0000056823   0.0000062316  -0.0000032467   0.0000000897   0.0000037699
        0.0000013338   0.0000002785   0.0000080721  -0.0000030085   0.0000001252
        0.0000190570   0.0000895047  -0.0000196535  -0.0000016872  -0.0000035274
       -0.0000038538   0.0000090834   0.0000157313  -0.0001999924  -0.0000111603
       -0.0000642344  -0.0003490683   0.0000238416  -0.0004095472   0.0015798194
        0.0043798008   0.0053977434
        0.1178182796   0.1005421710  -0.2038744685   0.0107579546  -0.2473267890
        0.5058499405  -0.0345093512   0.0229917261  -0.0802426294  -0.0192361282
       -0.0115139882   0.0175515106  -0.0035633038   0.0052468922  -0.0008678073
       -0.0012087124  -0.0003549916   0.0010062587   0.0003285888  -0.0004621555
       -0.0000115767  -0.0003489216   0.0003560866  -0.0000816237   0.0004894638
        0.0002851499  -0.0000581418  -0.0001929549  -0.0004617165  -0.0001069403
       -0.0001870212   0.0005441622   0.0001506847  -0.0002495731   0.0001347368
        0.0000219444   0.0001107646   0.0000039419  -0.0000374263  -0.0000443830
       -0.0000772730  -0.0000235879   0.0000179396  -0.0000181636  -0.0000171661
       -0.0000214605  -0.0000157654  -0.0000065531   0.0000248220   0.0000146089
        0.0000179354  -0.0000330288   0.0000658437   0.0000327302  -0.0000355809
       -0.0002788054  -0.0002066177   0.0000148270   0.0005475402   0.0000903170
        0.0003648883  -0.0003618667  -0.0000894012  -0.0003331845  -0.0002863898
        0.0000548134  -0.0001618725  -0.0001932420   0.0000919429   0.0007688042
        0.0000633863  -0.0008260247   0.0246383707   0.0020059096  -0.0100749072
       -0.0245555133   0.0312574204  -0.0473130445   0.0015462476   0.0007416390
       -0.0005315867  -0.0926780235   0.0900769041  -0.1788865758   0.0225787972
        0.0014050039  -0.0014072291  -0.0000483019   0.0000769943  -0.0000466676
       -0.0000113952  -0.0000211869   0.0000228995   0.0000145775  -0.0000116818
        0.0000356671  -0.0000048123   0.0000110008  -0.0000080771   0.0000012396
        0.0000143885  -0.0000025842   0.0000061850   0.0000038530   0.0000042358
        0.0000090424   0.0000021907   0.0000021828   0.0000077611  -0.0000098203
       -0.0000047516  -0.0000076752  -0.0000000410  -0.0000091303   0.0000338711
        0.0000395206   0.0000585052   0.0000231451   0.0000168738  -0.0000140428
        0.0000074038   0.0000354173  -0.0000029169  -0.0002077669  -0.0002219386
        0.0000543913   0.0004840560  -0.0003680020   0.0003894952  -0.0024080646
        0.0055004554  -0.0006839761
       -0.0387735770  -0.0453667464   0.0712853433  -0.3360693787   0.0204503241
       -0.0345093512   0.6618086616   0.0136514850  -0.0161289517  -0.1278851449
        0.0335831539  -0.0510599189  -0.0366074096   0.0148636493  -0.0191764777
       -0.0022402617  -0.0043501017   0.0021070971   0.0012586854  -0.0006949123
       -0.0002582048  -0.0012751206   0.0008962447  -0.0002297405   0.0019256596
        0.0016391941   0.0001931782  -0.0006628072  -0.0024739688  -0.0002250721
       -0.0013101191   0.0021131934   0.0007562513  -0.0005746583   0.0002101736
       -0.0001065473   0.0006152294   0.0000207427   0.0001738062  -0.0001949390
       -0.0001321983  -0.0000734357   0.0001558010  -0.0000176156  -0.0000440523
       -0.0000944495   0.0000092281   0.0000134213   0.0001177014   0.0000543511
        0.0000333842  -0.0002535287   0.0000908644   0.0000496882  -0.0002880869
       -0.0014731103   0.0000780536  -0.0004024298   0.0022776204   0.0002979132
        0.0015636620  -0.0016346873  -0.0000521031  -0.0012205721  -0.0005821732
        0.0000844649  -0.0005438770  -0.0011083849  -0.0005675301   0.0010180781
        0.0034092815  -0.0028673185   0.0519106455   0.0092101732  -0.0205464607
       -0.0452151325   0.0155584189  -0.0246495859  -0.0005604082  -0.0015890091
        0.0024310203  -0.0183376106   0.0010196258  -0.0027220998  -0.1069927393
       -0.0574154923   0.0939803458   0.0003924231   0.0001370963   0.0000665355
        0.0000165497   0.0000640597  -0.0000180346  -0.0000013999   0.0000505452
        0.0000591357  -0.0000908111   0.0000796327  -0.0001509448   0.0000100285
       -0.0000033880   0.0000103910  -0.0000110149   0.0000022714  -0.0000212604
       -0.0000191663  -0.0000066778   0.0000002925  -0.0000253673   0.0000065657
        0.0000102227   0.0000062283  -0.0000056820  -0.0000151903  -0.0000290363
       -0.0000377449  -0.0001392143  -0.0000114558  -0.0000390967  -0.0000058454
        0.0000096720  -0.0000606010  -0.0000529112  -0.0003679170  -0.0014958793
       -0.0004972386  -0.0006477075  -0.0015876794   0.0028399408  -0.0001028984
        0.0006772539  -0.0003529962
       -0.0118652932   0.0081674313  -0.0110410392  -0.0246927822  -0.0598906118
        0.0229917261   0.0136514850   0.2610371845  -0.2342919804   0.0518246816
       -0.1062614651   0.0892709601   0.0195959853   0.0015747058   0.0014099020
       -0.0010386092   0.0028825073  -0.0015624960  -0.0008880189   0.0000839043
        0.0000263141   0.0010440914  -0.0009844300  -0.0000019250  -0.0016206340
       -0.0014922096  -0.0000189523   0.0004809031   0.0021120378   0.0001872264
        0.0005965210  -0.0008566368  -0.0002775725   0.0006366766  -0.0000676943
        0.0000085355  -0.0004103703   0.0000274501   0.0000866072   0.0001320431
        0.0002226080   0.0001097232  -0.0000582454   0.0000554470   0.0000780167
        0.0000882320   0.0000050359   0.0000054074  -0.0000759514  -0.0000366712
       -0.0000652425   0.0000909597  -0.0002496632  -0.0001221951   0.0008155318
        0.0011716193   0.0000082067   0.0005184422  -0.0024425158  -0.0002983136
       -0.0018543596   0.0015738651   0.0000445129   0.0010993278   0.0011361912
       -0.0002388690  -0.0026009999  -0.0008882870  -0.0003951680  -0.0018137960
       -0.0047531182   0.0031414045  -0.0091987188  -0.0138355003   0.0277583593
        0.0126328571  -0.0063654527   0.0020021507  -0.0018015563   0.0041584373
        0.0052971384   0.0140223081   0.0000008108   0.0013972830  -0.0572189707
       -0.0885227853   0.0899587938  -0.0000454558  -0.0003241737   0.0002700018
        0.0000241795   0.0000687753  -0.0000423695  -0.0000587753   0.0000491441
       -0.0000148412  -0.0000626505   0.0000279878  -0.0000724559   0.0000100149
       -0.0000330158  -0.0000146578  -0.0000136870  -0.0000176747  -0.0000081304
       -0.0000178415   0.0000030580   0.0000052038  -0.0000205925   0.0000289019
        0.0000101724   0.0000011700   0.0000418089   0.0000199792  -0.0000493925
       -0.0000147818  -0.0000005853  -0.0000874390  -0.0000413832   0.0000923297
        0.0000101348  -0.0000669475   0.0000271685  -0.0006805942  -0.0007061926
       -0.0005912824  -0.0014563530   0.0036782761   0.0053509218   0.0003555422
       -0.0002559772  -0.0004999692
        0.0211774435  -0.0105095997   0.0176512456   0.0310627460   0.0210686754
       -0.0802426294  -0.0161289517  -0.2342919804   0.4874775766  -0.1015937850
        0.0921374477  -0.1862348004  -0.0121139999   0.0012721850  -0.0004802343
        0.0015167737  -0.0021816215   0.0016097468   0.0006080980  -0.0003778605
       -0.0001611188  -0.0004012625   0.0005714506  -0.0000296753   0.0008706405
        0.0006971399   0.0000245898  -0.0001959614  -0.0010858781  -0.0001595381
       -0.0002896715   0.0004903709   0.0001016490  -0.0003045198  -0.0000443127
        0.0000167438   0.0002219516   0.0000137258  -0.0000710771  -0.0000730017
       -0.0001078898  -0.0000507621   0.0000278990  -0.0000286448  -0.0000239772
       -0.0000397075  -0.0000172605  -0.0000144822   0.0000449084   0.0000145981
        0.0000322715  -0.0000493454   0.0001208759   0.0000465818  -0.0001408178
       -0.0001670981  -0.0001022008  -0.0001298479   0.0010027626   0.0001464785
        0.0007432607  -0.0007300584  -0.0000544534  -0.0005753230  -0.0004115427
        0.0002290064   0.0001393016  -0.0001177887  -0.0004457103   0.0019333594
        0.0010095439  -0.0019883630   0.0205664216   0.0277674404  -0.0444961255
       -0.0220925953   0.0027240505  -0.0100890608   0.0028971469   0.0055460505
       -0.0006146313  -0.0225983665   0.0014426921  -0.0014490350   0.0939482911
        0.0897421765  -0.1801803990   0.0002243670   0.0003472377  -0.0000860092
       -0.0000073323  -0.0000335367   0.0000088698   0.0000588666  -0.0000320836
        0.0000182104   0.0000547379  -0.0000132997   0.0000641033  -0.0000094197
        0.0000207333   0.0000236191   0.0000012536   0.0000043145   0.0000114746
        0.0000055754   0.0000054788   0.0000067694   0.0000104379  -0.0000105081
        0.0000029097  -0.0000026512  -0.0000112901  -0.0000081474   0.0000480034
        0.0000451023   0.0000606221   0.0000078778   0.0000328084  -0.0000501480
       -0.0000394544   0.0000587011   0.0000014872  -0.0011434358  -0.0014329009
       -0.0003156949   0.0023325913   0.0054999097  -0.0007540252  -0.0005725025
       -0.0000303170   0.0005683433
        0.0103019571   0.0000018104   0.0000046630  -0.0417428994   0.0110231178
       -0.0192361282  -0.1278851449   0.0518246816  -0.1015937850   0.5969404766
        0.0000859248   0.0000541843  -0.2126293029  -0.0000287144  -0.0000247070
       -0.0272788525   0.0222363260  -0.0103112188  -0.0036024979  -0.0020667080
        0.0000441732   0.0028934373  -0.0024283079   0.0006268325  -0.0048452148
       -0.0048861443  -0.0002623219   0.0006077379   0.0069207743   0.0007914495
        0.0021943200  -0.0015023025  -0.0003185368   0.0017773416   0.0000001733
        0.0000000818  -0.0013949072  -0.0000002462  -0.0000002222   0.0006150161
        0.0004091771   0.0002242699  -0.0003283906   0.0001178593   0.0001115709
        0.0002385945   0.0000000596   0.0000000135  -0.0003283604  -0.0001180336
       -0.0001115356   0.0006152489  -0.0004089459  -0.0002242564   0.0021937456
        0.0015048798   0.0003180999   0.0006110300  -0.0069202362  -0.0007915897
       -0.0048470578   0.0048839850   0.0002617194   0.0028925263   0.0024292258
       -0.0006261200  -0.0036024149   0.0020660801  -0.0000445473  -0.0272638950
       -0.0222467201   0.0103027163  -0.1279054567  -0.0518599490   0.1015824885
       -0.0417519802  -0.0110359665   0.0192220069   0.0007647558   0.0000001402
        0.0000001362  -0.0059723626   0.0008338380   0.0003257536   0.0062151902
       -0.0049228801   0.0102091457   0.0009079194  -0.0001879790  -0.0002053541
        0.0000886742  -0.0002930571  -0.0000290936   0.0000692071  -0.0001386031
       -0.0001589578   0.0000758507   0.0000607116  -0.0001179863  -0.0000323821
       -0.0000419048  -0.0000165728   0.0000166051  -0.0000177091   0.0000326715
        0.0000218300   0.0000000288   0.0000000132   0.0000166272   0.0000177344
       -0.0000326340  -0.0000323847   0.0000419319   0.0000165906   0.0000759351
       -0.0000605534   0.0001182543   0.0000691210   0.0001386404   0.0001588977
        0.0000885139   0.0002931046   0.0000291486   0.0009084040   0.0001895168
        0.0002054940   0.0062156821   0.0049236512  -0.0102053911  -0.0059722429
       -0.0008384118  -0.0003294163
        0.0000021256  -0.0220206799   0.0247593801   0.0417542494   0.0071044474
       -0.0115139882   0.0335831539  -0.1062614651   0.0921374477   0.0000859248
        0.3040799692  -0.2166297451  -0.0000282696  -0.0641829504   0.0038861204
        0.0243489949  -0.0003232702  -0.0011550513   0.0017776144  -0.0014563558
       -0.0002967094   0.0003570569   0.0002107098   0.0008209171  -0.0001194611
       -0.0000918020   0.0000089313   0.0012138562   0.0002779655   0.0002196237
        0.0019032054  -0.0043936523  -0.0002043467   0.0000003746  -0.0001707464
        0.0000288740  -0.0000002162  -0.0000193722  -0.0001632195  -0.0000237056
        0.0000286157  -0.0000053787  -0.0000120011  -0.0000144353   0.0000070377
        0.0000000308   0.0000050233   0.0000013063   0.0000118607  -0.0000144500
        0.0000070079   0.0000239543   0.0000284315  -0.0000054724  -0.0019005661
       -0.0043936992  -0.0002049549  -0.0012138902   0.0002749427   0.0002192930
        0.0001176962  -0.0000900617   0.0000090360  -0.0003562993   0.0002112470
        0.0008207021  -0.0017785372  -0.0014566427  -0.0002975263  -0.0243592585
       -0.0003409076  -0.0011572043  -0.0336195217  -0.1062897275   0.0921608654
       -0.0417662602   0.0070872405  -0.0115208469   0.0000000733  -0.0000946134
        0.0003707360  -0.0003301338   0.0063852650   0.0031115237   0.0055599042
       -0.0070488330   0.0121588606   0.0018518624  -0.0028259162  -0.0013964424
       -0.0000237884   0.0000126326   0.0000073830   0.0000453431  -0.0000266907
       -0.0001849387   0.0002546872  -0.0003395306   0.0001366307   0.0000185670
       -0.0000003737   0.0000176890  -0.0000021138  -0.0000056121   0.0000021740
        0.0000000070   0.0000057471  -0.0000027852   0.0000021224  -0.0000056172
        0.0000021580  -0.0000185679  -0.0000003722   0.0000177003  -0.0002545276
       -0.0003396291   0.0001365925  -0.0000452931  -0.0000266856  -0.0001849421
        0.0000237978   0.0000127634   0.0000073901  -0.0018499161  -0.0028271072
       -0.0013976110  -0.0055595011  -0.0070488328   0.0121541805   0.0003253665
        0.0063850315   0.0031116020
        0.0000047685   0.0249071808  -0.0444791457  -0.0660384511  -0.0090104795
        0.0175515106  -0.0510599189   0.0892709601  -0.1862348004   0.0000541843
       -0.2166297451   0.4505982837  -0.0000253466   0.0020467817  -0.0486811068
        0.0006041867   0.0005830255   0.0029833492   0.0002612315  -0.0010943298
       -0.0014562485  -0.0003043455   0.0006227490  -0.0005784293   0.0003743468
        0.0001193588   0.0005387647   0.0001250187  -0.0001541081   0.0000722913
       -0.0010843176  -0.0008235613   0.0038804912   0.0000002541   0.0008369325
       -0.0007639477  -0.0000002380   0.0001675879   0.0011590472   0.0001727161
       -0.0000799438  -0.0000712998   0.0001405506   0.0001398443  -0.0000365033
        0.0000000264   0.0000548090   0.0001326451  -0.0001407170   0.0001397446
       -0.0000365312  -0.0001724823  -0.0000801576  -0.0000713703   0.0010838226
       -0.0008229860   0.0038806231  -0.0001247410  -0.0001555863   0.0000720546
       -0.0003757128   0.0001203112   0.0005388200   0.0003050871   0.0006236311
       -0.0005784837  -0.0002614359  -0.0010945784  -0.0014563743  -0.0006118432
        0.0005783721   0.0029864485   0.0510485047   0.0892735499  -0.1861889209
        0.0660245450  -0.0089935954   0.0175770635   0.0000002541  -0.0002942725
       -0.0008045270  -0.0001562497   0.0025664431   0.0031479216  -0.0094069362
        0.0124020715  -0.0185096735  -0.0002351603   0.0001412991   0.0011065447
       -0.0000018501  -0.0000277155  -0.0000978228   0.0000193190  -0.0000167497
        0.0002024880   0.0000745279  -0.0001506134  -0.0011244421  -0.0000003335
       -0.0000419669   0.0000084438   0.0000333760   0.0000244372  -0.0000189310
        0.0000000130  -0.0000492419   0.0000370919  -0.0000333807   0.0000244315
       -0.0000189416   0.0000003234  -0.0000419588   0.0000084932  -0.0000742071
       -0.0001506054  -0.0011244579  -0.0000193060  -0.0000167491   0.0002025238
        0.0000018993  -0.0000276262  -0.0000978172   0.0002349187   0.0001408562
        0.0011066927   0.0094103972   0.0124060946  -0.0185096756   0.0001527019
        0.0025660987   0.0031478583
       -0.0048274747  -0.0000007128  -0.0000007241   0.0060513673   0.0033225293
       -0.0035633038  -0.0366074096   0.0195959853  -0.0121139999  -0.2126293029
       -0.0000282696  -0.0000253466   0.5521889343  -0.0000008236   0.0000579294
       -0.1178831580   0.0708020539   0.0111737710   0.0167186493   0.0008685533
        0.0009410726  -0.0054444801   0.0001821055  -0.0022034454   0.0083438948
        0.0094068772   0.0006398877  -0.0086479820  -0.0140940132  -0.0013991618
       -0.0315852857   0.0316232918   0.0005381422   0.0020880049  -0.0000028083
        0.0000003659   0.0017767981   0.0000004505   0.0000003748  -0.0005740316
       -0.0006342184  -0.0003082972   0.0004944235  -0.0001900076  -0.0002509729
       -0.0003977013  -0.0000001239  -0.0000001117   0.0004944617   0.0001903090
        0.0002509489  -0.0005744546   0.0006339551   0.0003081858  -0.0315580636
       -0.0316248383  -0.0005469549  -0.0086535915   0.0140763213   0.0013978410
        0.0083433563  -0.0093956610  -0.0006389486  -0.0054466175  -0.0001846525
        0.0022012203   0.0167174998  -0.0008333568  -0.0009363104  -0.1178212270
       -0.0707808941  -0.0111891316  -0.0366046035  -0.0196093313   0.0121015042
        0.0060516741  -0.0033233217   0.0035634425   0.0003147294   0.0000003593
        0.0000002945  -0.0002986655  -0.0006627054  -0.0003893243   0.0010922691
       -0.0013945613   0.0008324080  -0.0002229096  -0.0006863839   0.0011034739
        0.0001761608  -0.0009155545   0.0000150711   0.0000116555  -0.0000442554
        0.0004485008  -0.0009748011   0.0012575540  -0.0002955103  -0.0000022140
        0.0000798882   0.0000610508   0.0000379741   0.0000669212  -0.0000021303
        0.0000327601  -0.0000000053  -0.0000000630   0.0000379371  -0.0000669277
        0.0000020209  -0.0000022848  -0.0000799161  -0.0000610910  -0.0009743313
       -0.0012580387   0.0002952337   0.0000117219   0.0000442653  -0.0004480709
        0.0001760376   0.0009160439  -0.0000150035  -0.0002223052   0.0006859877
       -0.0011024800   0.0010914792   0.0013952549  -0.0008316749  -0.0002988940
        0.0006626745   0.0003893172
       -0.0000007760  -0.0003064263   0.0002179802   0.0017761264   0.0038556767
        0.0052468922   0.0148636493   0.0015747058   0.0012721850  -0.0000287144
       -0.0641829504   0.0020467817  -0.0000008236   0.5337148068  -0.0015747514
        0.0724529758  -0.1656679909  -0.0014812770  -0.0038869587  -0.0696037314
       -0.0033432134  -0.0041262612   0.0003555910   0.0003885304  -0.0107985382
       -0.0187465141  -0.0004743259   0.0006648529   0.0337280052  -0.0002641185
        0.0339055374  -0.0262943340   0.0017580404  -0.0000028702   0.0166807235
       -0.0000682291   0.0000002511  -0.0001663980  -0.0008317743  -0.0002096202
       -0.0000682502   0.0000434606   0.0001556976  -0.0000578964  -0.0001357227
       -0.0000000681   0.0001188850   0.0002038434  -0.0001555757  -0.0000578459
       -0.0001356213   0.0002095171  -0.0000679379   0.0000435154  -0.0339068623
       -0.0263208980   0.0017489656  -0.0006822985   0.0337335881  -0.0002625214
        0.0108103326  -0.0187461319  -0.0004747587   0.0041228385   0.0003565578
        0.0003901669   0.0039227168  -0.0696012836  -0.0033450874  -0.0724322389
       -0.1657220791  -0.0015051101  -0.0148774631   0.0015622401   0.0012710266
       -0.0017766726   0.0038540616   0.0052475842   0.0000003310  -0.0011775060
       -0.0007581254   0.0008106580  -0.0001772549   0.0000587618   0.0004248680
       -0.0016684256  -0.0012855506   0.0013513704   0.0011846531  -0.0009693717
        0.0005733254  -0.0010143761   0.0000751493  -0.0000737005   0.0000714155
       -0.0003136806  -0.0001755561   0.0001772210  -0.0001972077  -0.0000691929
        0.0000385395   0.0000182933  -0.0000121986   0.0000252938  -0.0000073333
        0.0000000145  -0.0000203946   0.0000184095   0.0000122052   0.0000252481
       -0.0000073302   0.0000692338   0.0000385123   0.0000182582   0.0001751717
        0.0001768280  -0.0001966644   0.0000737340   0.0000714539  -0.0003137733
       -0.0005728606  -0.0010142397   0.0000749266  -0.0013517442   0.0011844410