$hessian                                                                        
        0.6749509668   0.0000543683  -0.0000008159  -0.1548387954   0.0000005437
        0.1418420301  -0.0362261810  -0.0000013426   0.0251749884   0.0055391408
        0.0000006053  -0.0000023246  -0.0012052047  -0.0000000480  -0.0000000007
        0.0003362733  -0.0002630453  -0.0000000502  -0.0001263354  -0.0000214499
        0.0000000108   0.0000690691  -0.0000250544  -0.0000000008   0.0000011788
       -0.0000037371   0.0000000098  -0.0000198210   0.0000023304   0.0000000082
        0.0000742302   0.0000320170  -0.0000000027   0.0000616982   0.0000000088
        0.0000000145  -0.0000117942  -0.0000000046   0.0000000102   0.0000001102
        0.0000000123  -0.0000327864  -0.0000024343   0.0000000011   0.0000062931
       -0.0000012507  -0.0000000082  -0.0000000014  -0.0000024342  -0.0000000024
       -0.0000062934   0.0000001071  -0.0000000063   0.0000327834   0.0000742401
       -0.0000320087  -0.0000000005  -0.0000198228  -0.0000023312  -0.0000000060
        0.0000011809   0.0000037345  -0.0000000082   0.0000690439   0.0000250591
       -0.0000000078  -0.0001262513   0.0000214554  -0.0000000078   0.0003362569
        0.0002629857   0.0000000562  -0.0362332090  -0.0000050734  -0.0251709660
       -0.1548516866  -0.0000214064  -0.1418494157  -0.2989912193  -0.0000267479
        0.0000081379   0.0066577047  -0.0000002982  -0.0125820425  -0.0059276399
       -0.0000010964   0.0002497011  -0.0001852021   0.0001362085   0.0000000213
       -0.0000064044   0.0000313449   0.0000000070   0.0000173675  -0.0000081278
        0.0000000092   0.0000044073   0.0000111888   0.0000000024   0.0000064562
        0.0000000033   0.0000007676   0.0000011504   0.0000000009   0.0000076447
        0.0000072405  -0.0000000003  -0.0000000002   0.0000011500  -0.0000000052
       -0.0000076446   0.0000064538   0.0000000001  -0.0000007660   0.0000044089
       -0.0000111887  -0.0000000064   0.0000173671   0.0000081291  -0.0000000065
       -0.0000064021  -0.0000313324  -0.0000000069  -0.0001852456  -0.0001361355
        0.0000000010  -0.0059276405  -0.0000011639  -0.0002492391   0.0066577719
        0.0000016177   0.0125799035
        0.0000543683   0.1158258879   0.0000411814  -0.0000057626  -0.0479229496
       -0.0000032297   0.0000033465   0.0012547029   0.0000042642   0.0000010037
       -0.0061438614  -0.0000046405  -0.0000000680  -0.0002203492   0.0000000049
        0.0000640976  -0.0000043745   0.0000000122  -0.0000643514   0.0000042443
        0.0000000034   0.0000066598  -0.0000031269   0.0000000033  -0.0000059032
       -0.0000026148   0.0000000030   0.0000032625   0.0000031774  -0.0000000028
        0.0000073519  -0.0000149845   0.0000000021   0.0000000111   0.0000116230
        0.0000000019  -0.0000000353  -0.0000025163  -0.0000000026   0.0000000005
        0.0000061288  -0.0000000172  -0.0000000032  -0.0000097942   0.0000000008
        0.0000000011  -0.0000067290  -0.0000000063  -0.0000000085  -0.0000097938
       -0.0000000033  -0.0000000028   0.0000061240   0.0000000124  -0.0000072999
       -0.0000150132   0.0000000069  -0.0000033018   0.0000031566  -0.0000000067
        0.0000059026  -0.0000026158   0.0000000016  -0.0000066245  -0.0000031430
       -0.0000000053   0.0000642513   0.0000042675   0.0000000022  -0.0000639576
       -0.0000042934   0.0000000109  -0.0000097930   0.0012546307  -0.0000002047
       -0.0000155039  -0.0479230721  -0.0000314005  -0.0000264171  -0.0340616642
       -0.0000007595   0.0000014250   0.0008150235  -0.0000032000  -0.0000011627
        0.0081512863  -0.0000004713  -0.0000042154   0.0000181879   0.0000000059
       -0.0000037669   0.0000113239   0.0000000080   0.0000007709  -0.0000046248
        0.0000000061   0.0000007999   0.0000045239   0.0000000003   0.0000000029
       -0.0000022223   0.0000000016   0.0000000017  -0.0000030145  -0.0000000018
        0.0000000009  -0.0000040192  -0.0000000044   0.0000000013  -0.0000030172
       -0.0000000047   0.0000000025  -0.0000022251  -0.0000000053  -0.0000007871
        0.0000045229  -0.0000000041  -0.0000007763  -0.0000046165  -0.0000000030
        0.0000037647   0.0000113185  -0.0000000009   0.0000041823   0.0000181455
        0.0000000032  -0.0000011002   0.0081513224  -0.0000005425  -0.0000003678
        0.0008150374  -0.0000010196
       -0.0000008159   0.0000411814   0.6497370276   0.0624987227  -0.0000096837
       -0.2720454627   0.0851662257   0.0000092559   0.0280732346  -0.0000023015
       -0.0000045342  -0.0681724309   0.0000000079  -0.0000000190  -0.0002775129
       -0.0000000377  -0.0000000472   0.0001529016   0.0000000255  -0.0000000774
        0.0000690093   0.0000000134   0.0000000152   0.0000264166   0.0000000197
       -0.0000000014  -0.0000195540  -0.0000000029  -0.0000000185  -0.0000209894
        0.0000000009   0.0000000185   0.0000847817  -0.0000000012  -0.0000000157
        0.0000080130  -0.0000000102  -0.0000000020  -0.0000152372   0.0000033142
        0.0000000108  -0.0000225501   0.0000089467   0.0000000162  -0.0000024754
        0.0000000014   0.0000000062  -0.0000038245  -0.0000089492  -0.0000000174
       -0.0000024780  -0.0000033114   0.0000000052  -0.0000225413   0.0000000084
        0.0000000129   0.0000856578  -0.0000000062  -0.0000000254  -0.0000193245
       -0.0000000169   0.0000000093  -0.0000202607  -0.0000000071   0.0000000070
        0.0000276554  -0.0000000345  -0.0000000607   0.0000685535   0.0000000110
       -0.0000000501   0.0001530229  -0.0851622164  -0.0000051009   0.0280802444
       -0.0625061015  -0.0000247670  -0.2720325221   0.0000081128  -0.0000008203
       -0.0440947610   0.0115903064  -0.0000012444  -0.0264098026  -0.0003458333
       -0.0000008454   0.0014353869   0.0000000735  -0.0000000102   0.0000418187
        0.0000000068  -0.0000000043   0.0000158241   0.0000000069  -0.0000000010
        0.0000055520   0.0000000015  -0.0000000011  -0.0000022299   0.0000038061
        0.0000000194   0.0000130669   0.0000022277   0.0000000207   0.0000035430
        0.0000000030   0.0000000008   0.0000010847  -0.0000022251  -0.0000000156
        0.0000035396  -0.0000038049  -0.0000000244   0.0000130577  -0.0000000015
        0.0000000008  -0.0000029753  -0.0000000092  -0.0000000013   0.0000050645
       -0.0000000080  -0.0000000037   0.0000157350  -0.0000000466  -0.0000000121
        0.0000411585   0.0003463054  -0.0000001619   0.0014353719  -0.0115924063
       -0.0000030139  -0.0264097894
       -0.1548387954  -0.0000057626   0.0624987227   0.6571979952   0.0000479553
        0.0084402443  -0.3332553312  -0.0000200260   0.0401849194  -0.0359379935
       -0.0000092561  -0.0855097501   0.0006701014  -0.0000008843  -0.0025298995
       -0.0005105331   0.0001025552   0.0001421984  -0.0001024086  -0.0001585221
        0.0001897435   0.0000989835  -0.0000093170  -0.0000059446   0.0000184290
        0.0000064526  -0.0000309115  -0.0000291941  -0.0000094459  -0.0000157337
        0.0000926678   0.0000193041   0.0002127805   0.0000161231  -0.0000000148
        0.0000231586  -0.0000364494   0.0000000091  -0.0000605745   0.0000046003
        0.0000000030  -0.0000246427  -0.0000018775  -0.0000000004  -0.0000022936
       -0.0000024339   0.0000000061   0.0000089707   0.0000004506   0.0000000035
        0.0000030113   0.0000257596  -0.0000000046   0.0000289994   0.0000926530
       -0.0000193412   0.0002125259  -0.0000292294   0.0000094085  -0.0000159352
        0.0000183742  -0.0000064475  -0.0000307062   0.0000989306   0.0000093658
       -0.0000064183  -0.0001024518   0.0001583316   0.0001902404  -0.0005107798
       -0.0001026069   0.0001429509  -0.0492069409  -0.0000011529   0.0300900466
        0.0603822942   0.0000069279   0.0299798735  -0.0187291930   0.0000001517
        0.0261464261  -0.1069750904  -0.0000152937  -0.1096767181  -0.0176297121
       -0.0000018058   0.0024754583  -0.0000927093   0.0001708100  -0.0001468296
       -0.0000095282   0.0000077352   0.0000113223   0.0000161500  -0.0000075376
       -0.0000079858   0.0000223222   0.0000074662   0.0000073075   0.0000000449
       -0.0000000027   0.0000126512  -0.0000016106  -0.0000000004  -0.0000042633
       -0.0000086915  -0.0000000003  -0.0000017926  -0.0000030312   0.0000000025
       -0.0000018005  -0.0000199140   0.0000000033  -0.0000145301   0.0000223150
       -0.0000074706   0.0000068143   0.0000161329   0.0000075368  -0.0000078868
       -0.0000095372  -0.0000077338   0.0000113137  -0.0000928008  -0.0001707830
       -0.0001468267  -0.0001848410   0.0000003275   0.0006719583  -0.0004732497
       -0.0000009456  -0.0034501946
        0.0000005437  -0.0479229496  -0.0000096837   0.0000479553   0.1164794361
        0.0000408808  -0.0000279359  -0.0463901312  -0.0000010829  -0.0000047861
        0.0002028884  -0.0000040243  -0.0000001088   0.0076584901  -0.0000008275
       -0.0014187444  -0.0001145589  -0.0001139317  -0.0001518820  -0.0001040304
        0.0000777243   0.0000315914  -0.0000182657  -0.0000088868  -0.0000105191
       -0.0000161708   0.0000163807  -0.0001045830  -0.0000127158  -0.0000056951
       -0.0001534168   0.0003092665   0.0000435730   0.0000000034   0.0000441401
       -0.0000006561  -0.0000000012  -0.0000069033  -0.0000000539  -0.0000000032
        0.0000009040   0.0000000090  -0.0000000049  -0.0000143205   0.0000000106
       -0.0000000035  -0.0000097928   0.0000000146   0.0000000008  -0.0000091181
        0.0000000189   0.0000000002   0.0000023470   0.0000000093   0.0001534248
        0.0003092494  -0.0000441616   0.0001045759  -0.0000127158   0.0000063738
        0.0000105254  -0.0000161728  -0.0000159535  -0.0000315567  -0.0000182713
        0.0000093008   0.0001518254  -0.0001039510  -0.0000786546   0.0014185318
       -0.0001145360   0.0001142009  -0.0000009604  -0.0058103288   0.0000013624
        0.0000023754   0.0012365237  -0.0000030493  -0.0000017170   0.0005832505
        0.0000024200  -0.0000149347  -0.0347315122  -0.0000248874   0.0000006858
        0.0006990511  -0.0000000111   0.0001177467  -0.0000258859  -0.0000238265
       -0.0000030527   0.0000183525  -0.0000201158  -0.0000003046  -0.0000007458
       -0.0000024362  -0.0000228331   0.0000334530   0.0000033186  -0.0000000039
       -0.0000042953   0.0000000066  -0.0000000087  -0.0000072342   0.0000000091
       -0.0000000040  -0.0000080154   0.0000000144   0.0000000017  -0.0000052012
        0.0000000159   0.0000000047  -0.0000030475   0.0000000111   0.0000228366
        0.0000334382  -0.0000035237   0.0000003033  -0.0000007464   0.0000025299
        0.0000030572   0.0000183457   0.0000205083  -0.0001176448  -0.0000260729
        0.0000239156   0.0000000677  -0.0002049111   0.0000001196  -0.0000010475
        0.0080834643  -0.0000012666
        0.1418420301  -0.0000032297  -0.2720454627   0.0084402443   0.0000408808
        0.6673947906  -0.0388625734  -0.0000073922  -0.0949057426  -0.0259737270
        0.0000006019   0.0275401817  -0.0022257134  -0.0000011659  -0.0039384320
       -0.0003317325   0.0000130885   0.0000115487  -0.0000620904  -0.0000935665
       -0.0001447562   0.0000173854   0.0000445688  -0.0000108537   0.0000268947
       -0.0000098947  -0.0000174582  -0.0000143946   0.0000057744  -0.0000101791
       -0.0000193610   0.0000745678   0.0002423725   0.0000216620   0.0000000063
        0.0000013423  -0.0000243426  -0.0000000064  -0.0000941983  -0.0000256428
        0.0000000131  -0.0000126570  -0.0000023203   0.0000000119  -0.0000000470
        0.0000062936  -0.0000000040  -0.0000024792  -0.0000029871  -0.0000000157
       -0.0000055173   0.0000110022   0.0000000038   0.0000037543  -0.0000194013
       -0.0000746682   0.0002432104  -0.0000144212  -0.0000057636  -0.0000085886
        0.0000269097   0.0000099014  -0.0000180675   0.0000173874  -0.0000445647
       -0.0000095799  -0.0000620206   0.0000936565  -0.0001453490  -0.0003322086
       -0.0000130274   0.0000120116   0.0312351301   0.0000020301  -0.0139867592
       -0.0299880379  -0.0000077395  -0.0680648811   0.0019095898   0.0000000214
       -0.0011174252  -0.1098097660  -0.0000248101  -0.2353832611   0.0266228292
        0.0000019316  -0.0020920767  -0.0001077002   0.0001250701   0.0000068623
        0.0000016593  -0.0000040683   0.0000068462   0.0000207651  -0.0000137300
        0.0000036687   0.0000062453  -0.0000008679   0.0000336276   0.0000050131
        0.0000000144  -0.0000025629   0.0000001164   0.0000000102   0.0000056014
        0.0000069619  -0.0000000037   0.0000015545   0.0000025375  -0.0000000127
       -0.0000028634  -0.0000046313  -0.0000000146   0.0000072456   0.0000062405
        0.0000008568   0.0000325579   0.0000207698   0.0000137301   0.0000032674
        0.0000016644   0.0000040750   0.0000067618  -0.0001076500  -0.0001250014
        0.0000063051   0.0006445559   0.0000000056   0.0006210600  -0.0029031658
       -0.0000012731  -0.0041653725
       -0.0362261810   0.0000033465   0.0851662257  -0.3332553312  -0.0000279359
       -0.0388625734   0.6602374266   0.0000397104  -0.0146209906  -0.1426668297
       -0.0000101324  -0.0603853854  -0.0263966001  -0.0000033519  -0.0245721429
       -0.0012603740  -0.0017388856  -0.0005645369   0.0000553268  -0.0000196990
       -0.0006802964   0.0001460936  -0.0001151124  -0.0000353050  -0.0000108397
       -0.0000817678  -0.0000452829  -0.0000476612  -0.0000746135  -0.0000125847
       -0.0005751908   0.0003526879   0.0011845883   0.0002385066  -0.0000000549
        0.0000329063   0.0001041032  -0.0000000001  -0.0004009610  -0.0001263449
       -0.0000000047   0.0000796272   0.0000046018   0.0000000142  -0.0000255788
        0.0000001072   0.0000000028   0.0000033771   0.0000257605  -0.0000000130
       -0.0000109351   0.0000170104  -0.0000000070  -0.0000851757  -0.0005754018
       -0.0003528204   0.0011844040  -0.0000476948   0.0000746116  -0.0000125914
       -0.0000108305   0.0000817835  -0.0000451929   0.0001462155   0.0001150847
       -0.0000351821   0.0000552303   0.0000198424  -0.0006792705  -0.0012610799
        0.0017390471  -0.0005615029   0.0581403080   0.0000025132  -0.0280098104
       -0.0492107949  -0.0000057730  -0.0312328907  -0.0005006222  -0.0000004084
        0.0028995117  -0.0179526010  -0.0000014741  -0.0027361018  -0.1079894394
        0.0000037124   0.1101620090  -0.0000117831   0.0006613597  -0.0000128271
        0.0000108698   0.0000465737   0.0000441715  -0.0000178362   0.0000525419
        0.0000111275  -0.0000732990   0.0000723855   0.0001092803   0.0000059193
        0.0000000116   0.0000167077  -0.0000325325   0.0000000219  -0.0000231827
       -0.0000302018  -0.0000000052  -0.0000037112  -0.0000270935  -0.0000000198
        0.0000163798  -0.0000001587  -0.0000000284  -0.0000113875  -0.0000733165
       -0.0000724006   0.0001073054  -0.0000178285  -0.0000525480   0.0000111241
        0.0000108584  -0.0000465921   0.0000441116  -0.0000115690  -0.0006609661
       -0.0000130254  -0.0006641035  -0.0000004256   0.0032763535  -0.0001247985
       -0.0000002112  -0.0006707854
       -0.0000013426   0.0012547029   0.0000092559  -0.0000200260  -0.0463901312
       -0.0000073922   0.0000397104   0.1149780087   0.0000375126  -0.0000150617
       -0.0473574946  -0.0000186703  -0.0000027966   0.0021504113  -0.0000009841
        0.0002844194  -0.0008682729  -0.0011929648   0.0000467547  -0.0001509040
        0.0002126205   0.0001587498   0.0000509368   0.0000111194  -0.0000339103
       -0.0000343724  -0.0000536854  -0.0000081029  -0.0000109869   0.0000742877
       -0.0002209077   0.0000290757  -0.0000464203   0.0000000288   0.0001473528
       -0.0000007031   0.0000000406   0.0000202149  -0.0000000465   0.0000000191
        0.0000124499   0.0000000063  -0.0000000065   0.0000009270   0.0000000014
       -0.0000000120   0.0000061237   0.0000000093   0.0000000004   0.0000023209
        0.0000000184   0.0000000189   0.0000125418   0.0000000104   0.0002206666
        0.0000290378   0.0000457825   0.0000081075  -0.0000109328  -0.0000734433
        0.0000338759  -0.0000343687   0.0000542043  -0.0001586451   0.0000509875
       -0.0000104375  -0.0000464580  -0.0001508670  -0.0002128888  -0.0002843794
       -0.0008673915   0.0011922345   0.0000066081   0.0018818205  -0.0000075593
       -0.0000057716  -0.0058103912  -0.0000032368  -0.0000006252   0.0079333723
       -0.0000006454  -0.0000037686   0.0009678412  -0.0000004801   0.0000029803
       -0.0345183325  -0.0000070083   0.0006596588  -0.0005129845   0.0001891008
        0.0000154420   0.0000082611   0.0000236132   0.0000368555   0.0000005056
       -0.0000003545   0.0000038399   0.0000212150  -0.0000062825  -0.0000000082
        0.0000048579   0.0000000012  -0.0000000045   0.0000091565   0.0000000074
       -0.0000000022   0.0000093564   0.0000000103   0.0000000027   0.0000057181
        0.0000000111   0.0000000021  -0.0000027055   0.0000000112  -0.0000038289
        0.0000211981   0.0000058992  -0.0000368286   0.0000005205   0.0000004477
       -0.0000154264   0.0000082939  -0.0000232026  -0.0006594028  -0.0005129652
       -0.0001889755  -0.0000004103   0.0078529322  -0.0000007706  -0.0000000558
       -0.0002370399  -0.0000000131
        0.0251749884   0.0000042642   0.0280732346   0.0401849194  -0.0000010829
       -0.0949057426  -0.0146209906   0.0000375126   0.6496220047  -0.1301716248
       -0.0000240949  -0.2573642054  -0.0111310660  -0.0000007650  -0.0008266359
        0.0016943073  -0.0012098634  -0.0003470099   0.0001027011  -0.0001043918
       -0.0001728552   0.0002026350  -0.0000457661   0.0000215686  -0.0000375295
        0.0000132022   0.0000211959  -0.0000114824  -0.0000524846   0.0000263855
       -0.0001288283  -0.0000472232  -0.0000298286   0.0001161340  -0.0000000047
       -0.0000084293  -0.0000422235   0.0000000111   0.0000243704   0.0000795894
        0.0000000073  -0.0000666986  -0.0000246524   0.0000000149  -0.0000126486
       -0.0000327836   0.0000000236  -0.0000225476  -0.0000289863  -0.0000000223
        0.0000037591   0.0000852299  -0.0000000356   0.0000762374  -0.0001288971
        0.0000471780  -0.0000293240  -0.0000114897   0.0000524991   0.0000273694
       -0.0000375101  -0.0000132120   0.0000206247   0.0002026372   0.0000457279
        0.0000227824   0.0001026488   0.0001044158  -0.0001730057   0.0016939981
        0.0012098979  -0.0003464773   0.0280019784  -0.0000026804  -0.0658643876
       -0.0300877904  -0.0000027680  -0.0139828485   0.0034139921  -0.0000004359
       -0.0041322717  -0.0265699840  -0.0000025762  -0.0021969552   0.1099702172
       -0.0000067516  -0.2338047492  -0.0001865726   0.0008893665   0.0000559883
       -0.0000115603  -0.0000587373  -0.0000017457   0.0000576092  -0.0000490484
       -0.0000022791   0.0000944604  -0.0000199909  -0.0000095918  -0.0000317362
        0.0000000287   0.0000350222   0.0000175885   0.0000000243   0.0000165030
        0.0000056066  -0.0000000101   0.0000063081   0.0000301095  -0.0000000341
       -0.0000039586   0.0000113109  -0.0000000334  -0.0000244501   0.0000944601
        0.0000199799  -0.0000103060   0.0000576111   0.0000490414  -0.0000026620
       -0.0000115563   0.0000587317  -0.0000018907  -0.0001862803  -0.0008888609
        0.0000557282   0.0027769404  -0.0000009646  -0.0043684710  -0.0006781285
       -0.0000000889   0.0006028934
        0.0055391408   0.0000010037  -0.0000023015  -0.0359379935  -0.0000047861
       -0.0259737270  -0.1426668297  -0.0000150617  -0.1301716248   0.6200494995
        0.0000168270   0.0000022139  -0.2192360564  -0.0000010469   0.0000041929
       -0.0255375566   0.0130818053   0.0000014370  -0.0001862154  -0.0014263973
       -0.0000001587  -0.0008965131   0.0002290409   0.0000000189   0.0002913881
        0.0000985261  -0.0000000088  -0.0006333990   0.0000002285  -0.0000000508
        0.0007861841   0.0017986731   0.0000002227  -0.0006934469  -0.0000000517
       -0.0000000856  -0.0000369704   0.0000000348  -0.0000001131   0.0001040868
       -0.0000000550  -0.0000422116  -0.0000364453  -0.0000000022  -0.0000243428
       -0.0000117942   0.0000000780   0.0000000096  -0.0000364467  -0.0000000115
        0.0000243419   0.0001041033  -0.0000000236   0.0000422224   0.0007862158
       -0.0017986629   0.0000002232  -0.0006334278  -0.0000001594   0.0000000193
        0.0002913820  -0.0000984988  -0.0000000242  -0.0008964300  -0.0002289797
        0.0000000212  -0.0001858154   0.0014267190   0.0000000326  -0.0255358011
       -0.0130796074  -0.0000003589  -0.1426545060   0.0000031006   0.1301639322
       -0.0359309553  -0.0000007828   0.0259777060   0.0007537512   0.0000002053
       -0.0000000526  -0.0061034725  -0.0000012308  -0.0002601490   0.0065888463
        0.0000010313   0.0117647187   0.0008120473   0.0000142299   0.0000000421
        0.0000588842  -0.0003537919   0.0000000066   0.0000506965  -0.0000828709
       -0.0000000137   0.0001571186  -0.0000092934   0.0000000158  -0.0000560620
       -0.0000000102   0.0000658205   0.0000276341  -0.0000000093  -0.0000136203
       -0.0000304003  -0.0000000269   0.0000000050   0.0000276377   0.0000000062
        0.0000136253  -0.0000560466  -0.0000000172  -0.0000658255   0.0001571071
        0.0000092627   0.0000000297   0.0000506944   0.0000828548   0.0000000027
        0.0000588947   0.0003537670   0.0000000215   0.0008119451  -0.0000143487
       -0.0000000032   0.0065887815  -0.0000005709  -0.0117668262  -0.0061034549
       -0.0000010972   0.0002606163
        0.0000006053  -0.0061438614  -0.0000045342  -0.0000092561   0.0002028884
        0.0000006019  -0.0000101324  -0.0473574946  -0.0000240949   0.0000168270
        0.1573320689   0.0000384764  -0.0000021749  -0.0602298089  -0.0000006142
        0.0251086220  -0.0002946187  -0.0000006258   0.0025640069  -0.0011993548
       -0.0000000181   0.0002225762   0.0002341414  -0.0000000364  -0.0000151454
        0.0000476103  -0.0000000072   0.0012390207   0.0001555996  -0.0000000007
        0.0017861463  -0.0043146459  -0.0000000135  -0.0000000198  -0.0001560230
        0.0000000084   0.0000000192   0.0000263099   0.0000000034   0.0000000046
        0.0000202159   0.0000000024  -0.0000000043  -0.0000069096   0.0000000004
       -0.0000000039  -0.0000025402   0.0000000011  -0.0000000003  -0.0000069062
        0.0000000045   0.0000000033   0.0000202140   0.0000000064  -0.0017860910
       -0.0043143866   0.0000000569  -0.0012389367   0.0001556325  -0.0000000298
        0.0000151731   0.0000476463   0.0000000049  -0.0002224247   0.0002341819
       -0.0000000403  -0.0025638872  -0.0011982739   0.0000000761  -0.0251072978
       -0.0002940956   0.0000007549  -0.0000005870  -0.0473572807  -0.0000085952
        0.0000035358   0.0002030521   0.0000035542   0.0000000852   0.0000070969
       -0.0000000578  -0.0000010339   0.0080859273  -0.0000004982  -0.0000004007
        0.0011598005  -0.0000012448   0.0004631175  -0.0017159876   0.0000001650
       -0.0000335576  -0.0000189245   0.0000000006   0.0000012924  -0.0000400722
        0.0000000047   0.0002558639  -0.0003615645  -0.0000000042  -0.0000000033
       -0.0000110292  -0.0000000033  -0.0000000041  -0.0000029444   0.0000000029
       -0.0000000017  -0.0000019330   0.0000000040   0.0000000003  -0.0000029410
        0.0000000044   0.0000000053  -0.0000110246   0.0000000001  -0.0002558609
       -0.0003615368  -0.0000000010  -0.0000012820  -0.0000400723   0.0000000146
        0.0000335628  -0.0000189368   0.0000000041  -0.0004625260  -0.0017149193
        0.0000002085   0.0000012739   0.0011597927  -0.0000030255  -0.0000011099
        0.0080859080  -0.0000005157
       -0.0000023246  -0.0000046405  -0.0681724309  -0.0855097501  -0.0000040243
        0.0275401817  -0.0603853854  -0.0000186703  -0.2573642054   0.0000022139
        0.0000384764   0.6222852226   0.0000043435  -0.0000002500  -0.0559387989
        0.0000005489  -0.0000002717   0.0019887210  -0.0000000258  -0.0000000580
       -0.0022180445  -0.0000000525   0.0000000065  -0.0001937711   0.0000000243
        0.0000000212  -0.0003886978   0.0000000285  -0.0000000443  -0.0002828183
       -0.0000001032  -0.0000000160   0.0065940884  -0.0000000180  -0.0000000108
        0.0002864113   0.0000001034  -0.0000000051  -0.0021944861  -0.0004010897
        0.0000001000   0.0000246009  -0.0000606418   0.0000001068  -0.0000938965
       -0.0000000088   0.0000000026  -0.0000148832   0.0000606553  -0.0000000499
       -0.0000938782   0.0004010946  -0.0000000904   0.0000246011  -0.0000000987
        0.0000000577   0.0065938641   0.0000000608   0.0000000326  -0.0002805223
        0.0000000242  -0.0000000183  -0.0003891722  -0.0000000379  -0.0000000501
       -0.0001940693  -0.0000000172   0.0000000454  -0.0022116596   0.0000005407
        0.0000000441   0.0020046688   0.0603779227  -0.0000132424  -0.2573754109
        0.0855136855   0.0000078696   0.0275331373  -0.0000000398  -0.0000000239
       -0.0006303409   0.0000401616  -0.0000006880   0.0014554313  -0.0112279316
       -0.0000036577  -0.0265643490   0.0000000946  -0.0000001335   0.0007722207
        0.0000000095   0.0000000161   0.0003215810   0.0000000000   0.0000000054
        0.0000532798  -0.0000000029   0.0000000087   0.0005354208  -0.0000168941
        0.0000001124   0.0000151470  -0.0000359050   0.0000001261  -0.0000023630
        0.0000000020  -0.0000000052   0.0000027294   0.0000358981  -0.0000001185
       -0.0000023624   0.0000168944  -0.0000001265   0.0000151630   0.0000000043
        0.0000000048   0.0005245638   0.0000000049   0.0000000017   0.0000525654
       -0.0000000025  -0.0000000046   0.0003210582  -0.0000001019  -0.0000000912
        0.0007704002   0.0112258011  -0.0000004910  -0.0265643166  -0.0000396853
       -0.0000002558   0.0014554192
       -0.0012052047  -0.0000000680   0.0000000079   0.0006701014  -0.0000001088
       -0.0022257134  -0.0263966001  -0.0000027966  -0.0111310660  -0.2192360564
       -0.0000021749   0.0000043435   0.5967494037   0.0000107471  -0.0000088924
       -0.1388578582   0.1112206259   0.0000001114   0.0105803074   0.0004108484
       -0.0000001346   0.0025251939  -0.0062211614   0.0000000507  -0.0030026581
       -0.0007461732   0.0000000454  -0.0059862197   0.0005928822   0.0000001104
       -0.0301718590   0.0242683058   0.0000002668   0.0048098306  -0.0000009024
        0.0000000648  -0.0006934446   0.0000000117   0.0000000320   0.0002385093
       -0.0000000333   0.0001161606   0.0000161162  -0.0000000008   0.0000216703
        0.0000616979  -0.0000000235  -0.0000000004   0.0000161219   0.0000000044
       -0.0000216627   0.0002385043   0.0000000346  -0.0001161307  -0.0301743344
       -0.0242661604   0.0000002362  -0.0059862058  -0.0005931180  -0.0000000012
       -0.0030032565   0.0007465264  -0.0000000148   0.0025264342   0.0062215376
       -0.0000000043   0.0105798065  -0.0004135826  -0.0000001755  -0.1388666814
       -0.1112266060   0.0000021879  -0.0263949756   0.0000008294   0.0111329707
        0.0006703603   0.0000002882   0.0022254659   0.0004439841  -0.0000000285
       -0.0000000121  -0.0002304317   0.0000000160   0.0001535457   0.0008607075
        0.0000001421   0.0012109296   0.0000322723  -0.0011077618  -0.0000000584
        0.0002404174  -0.0009324971   0.0000000063   0.0000389304  -0.0001434357
       -0.0000000008  -0.0010338634   0.0013778976   0.0000000340  -0.0000285709
        0.0000000077  -0.0000077101   0.0000238906  -0.0000000038   0.0000332015
        0.0000419101   0.0000000036   0.0000000043   0.0000238938  -0.0000000019
       -0.0000331932  -0.0000285665   0.0000000091   0.0000077062  -0.0010338888
       -0.0013778349  -0.0000000130   0.0000389554   0.0001434550   0.0000000062
        0.0002404458   0.0009324541   0.0000000439   0.0000324861   0.0011080602
        0.0000000769   0.0008607669  -0.0000001165  -0.0012109576  -0.0002303720
       -0.0000000971  -0.0001535382
       -0.0000000480  -0.0002203492  -0.0000000190  -0.0000008843   0.0076584901
       -0.0000011659  -0.0000033519   0.0021504113  -0.0000007650  -0.0000010469
       -0.0602298089  -0.0000002500   0.0000107471   0.6150074673   0.0000011884
        0.0885117245  -0.2167721913  -0.0000009997   0.0047737295  -0.0744318486
        0.0000005181  -0.0256136500   0.0113229645   0.0000004076   0.0179080613
        0.0069630522  -0.0000002895   0.0004010202  -0.0128098895   0.0000001027
        0.0491497079   0.0265370685  -0.0000005630  -0.0000009953  -0.0492093812
        0.0000000200   0.0000000454  -0.0001560425   0.0000000141   0.0000000420
        0.0001473140  -0.0000000034   0.0000000166   0.0000441690  -0.0000000058
       -0.0000000062   0.0000116270   0.0000000191  -0.0000000185   0.0000441421
       -0.0000000082   0.0000000331   0.0001473446   0.0000000220  -0.0491478170
        0.0265397777   0.0000005957  -0.0004012446  -0.0128099856  -0.0000001216
       -0.0179078505   0.0069636966   0.0000000011   0.0256141339   0.0113218733
        0.0000000062  -0.0047767642  -0.0744325505  -0.0000000607  -0.0885163553
       -0.2167692586   0.0000011524   0.0000005259   0.0021501005   0.0000003873
       -0.0000003950   0.0076584348  -0.0000006187   0.0000002034  -0.0018147867
        0.0000001381  -0.0000001247  -0.0001140818  -0.0000000151   0.0000001411
       -0.0025716644   0.0000002112   0.0012951060   0.0011995075  -0.0000000286
        0.0004549036  -0.0010848919  -0.0000000098   0.0000268315   0.0001814902
       -0.0000000474  -0.0002622571  -0.0000551633  -0.0000000320  -0.0000000015
       -0.0000303137  -0.0000000266   0.0000000032  -0.0000247381  -0.0000000045
        0.0000000015  -0.0000120755  -0.0000000050  -0.0000000004  -0.0000247389
       -0.0000000074   0.0000000014  -0.0000303106  -0.0000000209   0.0002623085
       -0.0000551132   0.0000000015  -0.0000268277   0.0001814974   0.0000000202
       -0.0004549545  -0.0010849025   0.0000000150  -0.0012951031   0.0011993764