44
 energy: -64.792270595752 gnorm: 0.000020812069 xtb: 6.7.1 (edcfbbe)
C           -5.68276658844348        0.00105860328425       -0.00167686232875
C           -4.98439043174078       -0.65637580980215       -1.00278333343176
C           -3.60305365250959       -0.66352494225384       -1.00005691375167
C           -2.88621998761681        0.00069803340062        0.00005334222731
C           -1.42397050517985        0.00039594418391        0.00080353380433
C           -0.71394110132926       -1.23877439856463        0.02786434374293
C           -1.37699588856686       -2.46478168840850        0.13116209207429
C           -0.68503547245147       -3.67528706585230        0.08057060753548
C            0.68283651245354       -3.67569427018429       -0.07915431235639
C            1.37553867504421       -2.46561279770122       -0.12971706054893
C            0.71324711421560       -1.23920161460991       -0.02624167390342
C            1.42396089411612       -0.00043895601844        0.00087440083637
C            2.88621076698753       -0.00074463490884        0.00011692348359
C            3.60410418259093       -0.66566007748362        0.99899063954894
C            4.98545629270353       -0.65892412339492        0.99992894450741
C            5.68276414954270       -0.00120445479692       -0.00173042436512
C            4.98436700427083        0.65675366660924       -1.00247823285706
C            3.60303090963799        0.66395389146035       -0.99968750142842
C            0.71392715156142        1.23871767904509        0.02848729301014
C            1.37697078655639        2.46468061238778        0.13239088968023
C            0.68500759485552        3.67520597465477        0.08231916855476
C           -0.68285312598543        3.67568345183339       -0.07750369179203
C           -1.37554924982741        2.46562248161588       -0.12866872390021
C           -0.71325768518062        1.23916916952162       -0.02570217243142
C           -3.60409127236364        0.66511043105235        0.99927707276189
C           -4.98544292514095        0.65832239486292        1.00027099033265
H           -6.76288922909838        0.00120780410060       -0.00233822922189
H           -5.52079034087321       -1.16452895019965       -1.79155005500743
H           -3.06217818090936       -1.16118537123348       -1.79249640848018
H           -2.44892340378159       -2.47925903694574        0.25630895488467
H           -1.23141663414877       -4.60405299250287        0.15454086017952
H            1.22864920114417       -4.60478956453210       -0.15318789302604
H            2.44743806516956       -2.48075663762343       -0.25499366942263
H            3.06412489555858       -1.16353636596510        1.79190619442540
H            5.52272060761441       -1.16762081970294        1.78775769109583
H            6.76288671044647       -0.00140839608963       -0.00244752991537
H            5.52074863364175        1.16527518727907       -1.79101994607236
H            3.06214644703435        1.16202727038856       -1.79185968581333
H            2.44889062853735        2.47910305105228        0.25761454037492
H            1.23137853606374        4.60393979965517        0.15676710968444
H           -1.22866280556695        4.60481204209016       -0.15114273609758
H           -2.44744018820781        2.48081553804706       -0.25401396836088
H           -3.06408788143590        1.16262190582203        1.79240664277335
H           -5.52269419335322        1.16661308965119        1.78837009159903
