44
 energy: -64.862166665473 gnorm: 0.000059392783 xtb: 6.7.1 (edcfbbe)
C           -5.67699660502461        0.00023211897553       -0.00485154569419
C           -4.98076401165865        0.31706950103740       -1.15973689761685
C           -3.59706077548177        0.31894414717263       -1.15873785045167
C           -2.89335785355227       -0.00015949195120       -0.00151844369428
C           -1.41254782440774       -0.00000962098693       -0.00012067832405
C           -0.71478594241658       -1.21571282091204       -0.00715046600359
C           -1.39045548383406       -2.46469307844595       -0.03575727012492
C           -0.70364604344260       -3.63957277476920       -0.02817665438888
C            0.70572796781809       -3.63926794717431        0.01156001306232
C            1.39182887617841       -2.46402696323448        0.02443645738740
C            0.71539085653004       -1.21534742604546        0.00172399970498
C            1.41256128671479        0.00069228312484       -0.00005899085689
C            2.89340882223213        0.00103480975820       -0.00124295022046
C            3.59959118234717        0.31162363232713        1.15675620429309
C            4.98330420868076        0.31004076190853        1.15461334481712
C            5.67703171381714        0.00196987324198       -0.00414233694598
C            4.98111452770647       -0.30661584253203       -1.16144785992647
C            3.59741043714873       -0.30914934631531       -1.16069141402782
C            0.71481559664513        1.21640484465325       -0.00120434759438
C            1.39059374246373        2.46544950362716       -0.02350442424742
C            0.70388165944027        3.64032695804204       -0.00997516442577
C           -0.70548864410373        3.63988323956129        0.02980335146694
C           -1.39168125234090        2.46464170531656        0.03672000109050
C           -0.71535492393689        1.21602729768081        0.00762321960869
C           -3.59987314392078       -0.31910554827458        1.15400633699777
C           -4.98358970944451       -0.31684838407875        1.15166290435823
H           -6.75738076602166        0.00040856729452       -0.00611093988496
H           -5.51735226146762        0.56448404141030       -2.06457114394482
H           -3.05139524649969        0.56522109751813       -2.05890759984101
H           -2.47027847021361       -2.46431921949515       -0.06449758764508
H           -1.23250066240700       -4.58159965971896       -0.04996281553091
H            1.23512513091766       -4.58107855143584        0.02901401450924
H            2.47165631486427       -2.46306120836896        0.05308068594340
H            3.05592856431950        0.55115244997623        2.05995014354525
H            5.52188763317604        0.55077278024219        2.06005648441381
H            6.75741541737153        0.00235621416317       -0.00525821512525
H            5.51796273220033       -0.54699568374327       -2.06801571108856
H            3.05201270415519       -0.54903443400563       -2.06274324141086
H            2.47041434057793        2.46508966563108       -0.05225458091973
H            1.23279287883331        4.58241913844684       -0.02696902565619
H           -1.23483482503491        4.58161959530486        0.05217273083671
H           -2.47150529008718        2.46367868948124        0.06549338672080
H           -3.05646985638659       -0.56547929692098        2.05551741937453
H           -5.52242852850301       -0.56410789513689        2.05519925924149
