$hessian                                                                        
        0.3929917507  -0.5479311484  -0.2126960767  -0.3902210982   0.5172006324
        0.2003150174  -0.0035749529   0.0314120263   0.0126155639  -0.0052209734
       -0.0023912167  -0.0025018289  -0.0010168520   0.0020832847   0.0011857397
        0.0013033387  -0.0012981146  -0.0004153723  -0.0000090352   0.0002855217
        0.0002627341  -0.0001302740  -0.0000170277  -0.0002520471  -0.0000295281
       -0.0000378822   0.0000077518   0.0000716060   0.0000239385   0.0000359408
        0.0000473165  -0.0000549995   0.0000059030  -0.0000695287  -0.0000808481
       -0.0000198221   0.0003358354   0.0000464063   0.0001066750  -0.0003834878
       -0.0000511832  -0.0001046089   0.0000890443  -0.0001413435   0.0000032027
        0.0000261046   0.0000425972  -0.0000270104   0.0000190094  -0.0000302957
        0.0000171173  -0.0000165866   0.0000007302   0.0000021489   0.0000133554
       -0.0000058120   0.0000029713  -0.0000265680   0.0000163388  -0.0000122458
        0.0000663021   0.0001909107   0.0000211241  -0.0000127651  -0.0000440578
        0.0000279736   0.0000083571   0.0000354271  -0.0000077347  -0.0000114035
        0.0000000761  -0.0000019978   0.0000115983   0.0000242786   0.0000116111
       -0.0000441177  -0.0000302822  -0.0000020658  -0.0000526491   0.0000652342
        0.0000146747   0.0000290382  -0.0000544284   0.0000586528   0.0000609813
        0.0014552850   0.0011440151   0.0057232217  -0.0016694231  -0.0000600578
        0.0002418246   0.0003726328   0.0001929210  -0.0002295978   0.0004967565
        0.0002310842  -0.0000156010   0.0000076430  -0.0000179692  -0.0000630172
        0.0000860077   0.0000001412   0.0000092381  -0.0000388272  -0.0000525711
       -0.0000463768   0.0000674916   0.0000849606  -0.0000326617   0.0000003108
        0.0000793204  -0.0000066461   0.0000525831  -0.0000850522   0.0000041442
        0.0000145193  -0.0000124673  -0.0000308553   0.0000247376  -0.0000008247
       -0.0000198605  -0.0000044453   0.0000115905   0.0000006462   0.0000006353
       -0.0000037538  -0.0000141887   0.0000131889  -0.0000066412  -0.0000209316
        0.0000065782   0.0000026183  -0.0000092886  -0.0000051069   0.0000039050
        0.0000001251   0.0000026197  -0.0000158434  -0.0000045911  -0.0000065831
        0.0000089769  -0.0000122146  -0.0000127157   0.0000014430  -0.0000121745
       -0.0000069419  -0.0000077326  -0.0000017477   0.0000003185   0.0000016440
        0.0000019657  -0.0000017271  -0.0000178376   0.0000058683   0.0000549954
       -0.0000321017  -0.0000258215   0.0000296482   0.0000188650   0.0003047228
       -0.0001989444  -0.0001226241
       -0.5479311484   0.8137211207   0.3091974963   0.5170643845  -0.7867242512
       -0.2925533832   0.0314742804  -0.0283068224  -0.0169307301   0.0034276018
        0.0064323676   0.0033400600   0.0020410677  -0.0020599050   0.0002038872
       -0.0012840857   0.0022792994   0.0009518617   0.0000737083  -0.0002770141
       -0.0006672645   0.0001817989  -0.0000446701   0.0003644050   0.0000573691
        0.0000411890  -0.0000223772  -0.0001565327  -0.0000184514  -0.0000693354
       -0.0000323958   0.0000782426  -0.0000000262   0.0000756623   0.0001308979
        0.0000271870  -0.0004781206  -0.0000723159  -0.0001674480   0.0005319322
        0.0001753307   0.0001421104  -0.0000880235   0.0001384695   0.0000258328
       -0.0000418064  -0.0000351332   0.0000356424  -0.0000234263   0.0000287944
       -0.0000127642   0.0000217260   0.0000079064  -0.0000049197  -0.0000152808
       -0.0000031375   0.0000035360   0.0000240146  -0.0000111810   0.0000120806
       -0.0001246340  -0.0003518693  -0.0000295479   0.0000044087   0.0000837519
       -0.0000483874  -0.0000214628  -0.0000521550   0.0000156575   0.0000126169
        0.0000137047   0.0000049244  -0.0000190544  -0.0000372350  -0.0000068859
        0.0000723573   0.0000549748   0.0000222185   0.0000738422  -0.0001109536
       -0.0000276570   0.0000168116   0.0000255520  -0.0001015860   0.0015227330
       -0.0029388922  -0.0003846504  -0.0075373398  -0.0016572022  -0.0029858445
       -0.0001488655   0.0002807697  -0.0001470370   0.0000812843  -0.0002766265
       -0.0000821653   0.0000408915  -0.0000209129   0.0000286537   0.0000822878
       -0.0000516557   0.0000241189  -0.0000032370   0.0000681089   0.0000743196
        0.0000757023  -0.0000925174  -0.0001494767   0.0000499435   0.0000096620
       -0.0001150432  -0.0000176856  -0.0000975670   0.0001165013  -0.0000154555
       -0.0000024491   0.0000265282   0.0000424869  -0.0000284923   0.0000054971
        0.0000236178  -0.0000006672  -0.0000157848  -0.0000025652   0.0000041898
        0.0000013347   0.0000163036  -0.0000147811   0.0000082917   0.0000271277
       -0.0000059104  -0.0000036307   0.0000167549   0.0000084079  -0.0000088979
        0.0000009604  -0.0000104936   0.0000165211   0.0000109123   0.0000150114
       -0.0000249911   0.0000247128   0.0000247572  -0.0000045596   0.0000215572
        0.0000116915   0.0000121527   0.0000047963  -0.0000032527  -0.0000046709
        0.0000372209   0.0000241590   0.0000433414  -0.0000215433  -0.0000962538
        0.0000200391   0.0003827927  -0.0004647202  -0.0000903210   0.0003469952
        0.0002091297  -0.0000648133
       -0.2126960767   0.3091974963   0.1367903903   0.2003169483  -0.2926331613
       -0.1467674631   0.0126602328  -0.0169428528   0.0094425212   0.0005188449
        0.0022430277   0.0026017758   0.0011384119   0.0001796296  -0.0013375377
       -0.0003623018   0.0009100964   0.0003662483  -0.0000630708  -0.0003129026
        0.0001569213   0.0000352849   0.0000734890   0.0001513363   0.0000056191
        0.0000500895   0.0000041899  -0.0000592077  -0.0000234842  -0.0000316550
       -0.0000202900   0.0000324242   0.0000054363   0.0000474910   0.0000565780
        0.0000190497  -0.0002308600  -0.0000393821  -0.0000879682   0.0002596838
        0.0000359363   0.0000944778  -0.0000586454   0.0000966837  -0.0000105317
       -0.0000103042  -0.0000263983   0.0000242267  -0.0000078324   0.0000214072
       -0.0000087074   0.0000072076   0.0000020453   0.0000020267  -0.0000089570
        0.0000050870   0.0000006304   0.0000237397  -0.0000112245   0.0000110494
       -0.0000375429  -0.0001273530  -0.0000253811   0.0000017045   0.0000313947
       -0.0000263704  -0.0000100548  -0.0000196755  -0.0000014472   0.0000064942
        0.0000008338   0.0000064625  -0.0000106978  -0.0000095223  -0.0000091227
        0.0000225008   0.0000230641   0.0000048865   0.0000320539  -0.0000641424
       -0.0000055457  -0.0000219761   0.0000403747  -0.0000251019   0.0011489134
       -0.0002904228  -0.0016588385  -0.0031061549  -0.0018905096  -0.0002493575
       -0.0001126651  -0.0000166584   0.0003779013   0.0000242625  -0.0000090443
       -0.0000876387   0.0000285692  -0.0000132935   0.0000088254   0.0000350592
       -0.0001161804  -0.0000224693   0.0000063932   0.0000401043   0.0000369326
        0.0000344785  -0.0000461549  -0.0000192660   0.0000170523   0.0000023944
       -0.0000259266  -0.0000073718  -0.0000423187   0.0000290141  -0.0000027911
       -0.0000048072   0.0000079645   0.0000226773  -0.0000135575   0.0000005949
        0.0000060169   0.0000019501  -0.0000119885  -0.0000024960  -0.0000051296
        0.0000044350   0.0000084967  -0.0000094506   0.0000054593   0.0000114744
       -0.0000034905  -0.0000009761   0.0000031074   0.0000021270  -0.0000020694
        0.0000017996  -0.0000006405   0.0000121337   0.0000022809   0.0000002625
       -0.0000040718   0.0000092208   0.0000091898  -0.0000017993   0.0000127786
        0.0000058590   0.0000089344   0.0000051923  -0.0000056868   0.0000036287
        0.0000138166   0.0000126040   0.0000106785  -0.0000137761  -0.0000429151
       -0.0000089819   0.0002118358  -0.0001970640  -0.0001428676   0.0001634292
       -0.0001567251   0.0003849518
       -0.3902210982   0.5170643845   0.2003169483   0.5378761387  -0.6320358055
       -0.2405243569  -0.1197476751   0.0891522162   0.0337797294   0.0115085606
        0.0055113929   0.0052228144   0.0034664681  -0.0049531098  -0.0034429883
       -0.0029293465   0.0020178757   0.0004676124   0.0000165872  -0.0006256646
       -0.0002980585   0.0002258448   0.0000424648   0.0004731678   0.0000517267
        0.0000573489  -0.0000213114  -0.0001360056  -0.0000503205  -0.0000856443
       -0.0000250069   0.0000672964  -0.0000041590   0.0000897768   0.0001317951
        0.0000359107  -0.0004907313  -0.0000684602  -0.0001706353   0.0005655441
        0.0001195732   0.0001655514  -0.0001182098   0.0001956252  -0.0000005463
       -0.0000319411  -0.0000494607   0.0000404313  -0.0000240539   0.0000380494
       -0.0000183066   0.0000226165   0.0000068983  -0.0000041971  -0.0000204845
        0.0000057215  -0.0000002447   0.0000410101  -0.0000258742   0.0000191916
       -0.0001066552  -0.0003197830  -0.0000385296   0.0000159672   0.0000756522
       -0.0000441763  -0.0000145124  -0.0000541267   0.0000116224   0.0000167569
        0.0000029948   0.0000007191  -0.0000164143  -0.0000377206  -0.0000149862
        0.0000707382   0.0000516809   0.0000115097   0.0001076710  -0.0001173734
       -0.0000070046  -0.0000215905   0.0000559643  -0.0000624296  -0.0054923326
       -0.0023366244  -0.0040205284  -0.0348414396   0.0278636701   0.0080835648
       -0.0001811956  -0.0018707538  -0.0005701298   0.0003851727  -0.0009707431
       -0.0004755791   0.0001128911  -0.0000877713   0.0000198313   0.0001413079
       -0.0001866763  -0.0000089789  -0.0000186163   0.0000662893   0.0001105546
        0.0000779466  -0.0001084861  -0.0001365720   0.0000541925   0.0000073638
       -0.0001155637  -0.0000334428  -0.0000618771   0.0000970982  -0.0000127268
       -0.0000120527   0.0000223109   0.0000466945  -0.0000352066   0.0000019223
        0.0000296550   0.0000000828  -0.0000168842  -0.0000001681  -0.0000004480
        0.0000058172   0.0000213795  -0.0000193024   0.0000108942   0.0000322203
       -0.0000082933  -0.0000041521   0.0000169323   0.0000079026  -0.0000080765
        0.0000033270  -0.0000041261   0.0000184498   0.0000114975   0.0000100429
       -0.0000184465   0.0000249973   0.0000209715  -0.0000046257   0.0000241087
        0.0000107867   0.0000113668   0.0000091784  -0.0000022743  -0.0000020935
        0.0000199918   0.0000242860   0.0000369715  -0.0000384573  -0.0000510355
        0.0000155912  -0.0007623888   0.0010178407   0.0003261231   0.0001975934
        0.0004671995   0.0008135011
        0.5172006324  -0.7867242512  -0.2926331613  -0.6320358055   1.0172239372
        0.3672901805   0.0890003675  -0.1873194658  -0.0529757528   0.0060186508
       -0.0418387013  -0.0203916435  -0.0066802923   0.0015742931  -0.0047465528
        0.0019132043  -0.0041729314  -0.0018116032  -0.0002680207   0.0003293221
        0.0016929578  -0.0003863063   0.0001599170  -0.0006245491  -0.0000830060
       -0.0000332634   0.0000432518   0.0002286628   0.0000470188   0.0001137747
        0.0000365744  -0.0001235568  -0.0000095462  -0.0001100058  -0.0002078447
       -0.0000471364   0.0007225055   0.0001145933   0.0002511944  -0.0008175473
       -0.0002423585  -0.0002219574   0.0001430090  -0.0002369669  -0.0000267483
        0.0000586892   0.0000576922  -0.0000572755   0.0000325510  -0.0000459973
        0.0000193965  -0.0000334047  -0.0000139915   0.0000062587   0.0000282057
       -0.0000039466  -0.0000030204  -0.0000462262   0.0000298790  -0.0000254412
        0.0001809405   0.0005237768   0.0000472169  -0.0000149215  -0.0001241932
        0.0000732253   0.0000241217   0.0000770227  -0.0000211616  -0.0000245658
       -0.0000139462  -0.0000049286   0.0000274933   0.0000581318   0.0000192701
       -0.0001143621  -0.0000874416  -0.0000289456  -0.0001359741   0.0001778874
        0.0000344171  -0.0000195990  -0.0000436550   0.0001459923  -0.0005772191
        0.0082966801  -0.0000891129   0.0277276090  -0.0074747884   0.0017280338
        0.0006198073   0.0000630891   0.0016584863   0.0005231508  -0.0006112958
       -0.0003387879  -0.0000711775   0.0000779621  -0.0000289385  -0.0001787978
        0.0000700378  -0.0001043147   0.0000183352  -0.0000809948  -0.0000682365
       -0.0001064180   0.0001556018   0.0002833916  -0.0000803350  -0.0000163344
        0.0001791104   0.0000456881   0.0000814993  -0.0001600921   0.0000210196
        0.0000088892  -0.0000374427  -0.0000688671   0.0000467938  -0.0000086396
       -0.0000368039  -0.0000013571   0.0000234062   0.0000030773  -0.0000057167
       -0.0000058802  -0.0000284173   0.0000253109  -0.0000160561  -0.0000461467
        0.0000099072   0.0000049244  -0.0000287144  -0.0000140636   0.0000148892
       -0.0000036453   0.0000132812  -0.0000243011  -0.0000194310  -0.0000189444
        0.0000370856  -0.0000403306  -0.0000356401   0.0000092834  -0.0000377248
       -0.0000179006  -0.0000181975  -0.0000117067   0.0000055047   0.0000058433
       -0.0000563070  -0.0000382765  -0.0000621071   0.0000581407   0.0001197766
       -0.0000195541  -0.0003781955   0.0003913243  -0.0000320877  -0.0020921609
       -0.0001913056   0.0009615826
        0.2003150174  -0.2925533832  -0.1467674631  -0.2405243569   0.3672901805
        0.2230330427   0.0337235111  -0.0528970072  -0.0742746308   0.0055119727
       -0.0204128591  -0.0103364116  -0.0043367565  -0.0043955178   0.0050443674
        0.0003534802  -0.0017249791  -0.0007763650   0.0003174864   0.0010526688
       -0.0011806876  -0.0000024815  -0.0003026319  -0.0003686610   0.0000031311
       -0.0000761345   0.0000256803   0.0000822484   0.0000396911   0.0000455178
        0.0000320987  -0.0000570560  -0.0000115539  -0.0000699112  -0.0000912340
       -0.0000290426   0.0003295462   0.0000581068   0.0001209524  -0.0003833719
       -0.0000677121  -0.0001236441   0.0000827773  -0.0001408654   0.0000088314
        0.0000189758   0.0000338591  -0.0000300626   0.0000134911  -0.0000260265
        0.0000110312  -0.0000156821  -0.0000003033  -0.0000019017   0.0000132714
       -0.0000088545   0.0000015085  -0.0000298059   0.0000173346  -0.0000159660
        0.0000684041   0.0002098206   0.0000325144  -0.0000060384  -0.0000491655
        0.0000346992   0.0000139009   0.0000337673  -0.0000022824  -0.0000111947
       -0.0000055146  -0.0000036446   0.0000115223   0.0000186933   0.0000091504
       -0.0000402941  -0.0000337662  -0.0000075968  -0.0000536271   0.0000949423
        0.0000171937   0.0000204936  -0.0000684701   0.0000500862  -0.0030070610
       -0.0006471202   0.0075142760   0.0077685038   0.0019048130   0.0017296799
        0.0007969034   0.0010902455  -0.0019393852   0.0002967572  -0.0005938913
       -0.0000161370  -0.0000644613   0.0000561126  -0.0000205553  -0.0001036550
        0.0003915049   0.0000856973   0.0000070419  -0.0000474453  -0.0000250835
       -0.0000516301   0.0000598479  -0.0000135419  -0.0000336079   0.0000021639
        0.0000595096  -0.0000003084   0.0000548613  -0.0000519087   0.0000022710
        0.0000122841  -0.0000105684  -0.0000345069   0.0000220893  -0.0000013905
       -0.0000115873  -0.0000030854   0.0000142488   0.0000019482   0.0000032939
       -0.0000055576  -0.0000119766   0.0000119452  -0.0000076740  -0.0000186942
        0.0000055365   0.0000010624  -0.0000086531  -0.0000044562   0.0000044048
       -0.0000023328   0.0000021661  -0.0000150536  -0.0000065291  -0.0000037665
        0.0000105254  -0.0000160262  -0.0000140530   0.0000028282  -0.0000175691
       -0.0000083184  -0.0000099445  -0.0000073419   0.0000050052  -0.0000021218
       -0.0000214246  -0.0000161609  -0.0000191577   0.0000269000   0.0000704417
        0.0000049431  -0.0004052936   0.0002769224   0.0003042491  -0.0005154747
        0.0014314800  -0.0020980065
       -0.0035749529   0.0314742804   0.0126602328  -0.1197476751   0.0890003675
        0.0337235111   0.6171916919  -0.0554101642   0.0679427455  -0.1340103187
       -0.0539886083  -0.0442665187   0.0503440097  -0.0200563301  -0.0011791791
       -0.0411474681  -0.0260083118  -0.0203901691  -0.0002273504   0.0006054752
        0.0006593718   0.0000507909  -0.0002079650  -0.0005112795  -0.0000282337
       -0.0000087758   0.0000547354   0.0001375293  -0.0000125793  -0.0000454067
        0.0000709223  -0.0001018023  -0.0000070149  -0.0000523047  -0.0001135489
       -0.0000223684   0.0003066370   0.0000485723   0.0001154352  -0.0003072841
       -0.0000975650  -0.0000811302   0.0000479700  -0.0000814111  -0.0000142322
        0.0000450253   0.0000202283  -0.0000277163   0.0000033412  -0.0000204424
        0.0000116906  -0.0000192918   0.0000001031   0.0000039578   0.0000071031
       -0.0000015349   0.0000020011  -0.0000153258   0.0000085250  -0.0000095277
        0.0000718088   0.0002085130   0.0000137259  -0.0000012530  -0.0000517692
        0.0000265697   0.0000136601   0.0000295906  -0.0000086108  -0.0000093666
       -0.0000120644  -0.0000058507   0.0000118108   0.0000215641   0.0000033516
       -0.0000416986  -0.0000343995  -0.0000111996   0.0000368510   0.0000643603
        0.0000581747  -0.0000745941   0.0000485344   0.0000585065  -0.0405548262
        0.0721714977   0.0296036387  -0.2967857689  -0.0212965483  -0.0603298302
       -0.0155750515  -0.0215471826  -0.0144583273  -0.0004503106   0.0036771768
        0.0002518580   0.0003576263  -0.0000132095  -0.0000052822   0.0002120658
       -0.0000124906  -0.0001796056   0.0001083360  -0.0000073132   0.0001855316
        0.0000873623  -0.0000284403   0.0000363607  -0.0000018644  -0.0000195818
        0.0000478279  -0.0000854518   0.0000859649  -0.0000052556   0.0000014606
       -0.0000108636  -0.0000204538  -0.0000209266   0.0000172274  -0.0000048803
       -0.0000056707  -0.0000051834   0.0000179125   0.0000003995  -0.0000036818
        0.0000035169  -0.0000129559   0.0000095490  -0.0000016842  -0.0000178588
        0.0000045320   0.0000045184  -0.0000131961  -0.0000053148   0.0000071392
        0.0000007773   0.0000082608  -0.0000129356  -0.0000053913  -0.0000108778
        0.0000116311  -0.0000128330  -0.0000146449   0.0000008593  -0.0000132124
       -0.0000080889  -0.0000079239  -0.0000015775   0.0000039286   0.0000035783
       -0.0000386374  -0.0000103753  -0.0000234343  -0.0000692729   0.0001019705
        0.0000508109  -0.0005021800   0.0035857186   0.0002046571  -0.0156830759
       -0.0019948713  -0.0041340335
        0.0314120263  -0.0283068224  -0.0169428528   0.0891522162  -0.1873194658
       -0.0528970072  -0.0554101642   0.5379162683   0.2088451939  -0.0993136115
       -0.1944908135  -0.0953934634   0.0286792863  -0.0542291889  -0.0237405156
       -0.0264363477  -0.0064799138  -0.0049948649   0.0002097406  -0.0015122170
       -0.0009763266   0.0003911315  -0.0000522704   0.0005274451   0.0001022414
       -0.0000712582  -0.0000659296  -0.0001394626   0.0000161511  -0.0000663900
       -0.0000122464   0.0000431947  -0.0000001170   0.0000248969   0.0001252126
        0.0000210399  -0.0003874520  -0.0000444749  -0.0001224578   0.0004104082
        0.0001233615   0.0001092938  -0.0000723151   0.0001160197   0.0000111796
       -0.0000345658  -0.0000255306   0.0000319117  -0.0000085080   0.0000206486
       -0.0000067136   0.0000172820   0.0000082011  -0.0000026033  -0.0000193917
        0.0000048062   0.0000014614   0.0000253963  -0.0000163354   0.0000163890
       -0.0000861342  -0.0002517154  -0.0000251647   0.0000029214   0.0000634767
       -0.0000368299  -0.0000170205  -0.0000366165   0.0000101430   0.0000083467
        0.0000098808   0.0000036549  -0.0000171161  -0.0000232115  -0.0000088610
        0.0000505456   0.0000449201   0.0000141443   0.0000697154  -0.0000994864
       -0.0000137071   0.0000508095  -0.0000151301  -0.0001014699   0.0232777920
        0.0129651372   0.0102270603   0.0237165688  -0.0751029795  -0.0099954749
       -0.0019914101  -0.0000946277  -0.0010614697   0.0034920481  -0.0017828607
       -0.0045560439  -0.0001033000   0.0001086430   0.0000484471   0.0003959654
        0.0000781160  -0.0000519409   0.0000736433   0.0000518448   0.0002675739
        0.0000682892   0.0000223629  -0.0001330621   0.0000311295   0.0000607730
       -0.0000273506   0.0000306519  -0.0000621320   0.0000240023  -0.0000211659
        0.0000201371   0.0000314510   0.0000286828  -0.0000241608   0.0000069201
        0.0000113139   0.0000008635  -0.0000167924  -0.0000030162   0.0000043232
       -0.0000005085   0.0000119024  -0.0000110564   0.0000060261   0.0000218091
       -0.0000028309  -0.0000015550   0.0000111284   0.0000083055  -0.0000072654
       -0.0000004131  -0.0000076947   0.0000151629   0.0000064200   0.0000089353
       -0.0000160062   0.0000147023   0.0000186484  -0.0000030954   0.0000143427
        0.0000104096   0.0000095090   0.0000031403  -0.0000035259  -0.0000031797
        0.0000356954   0.0000185114   0.0000200984   0.0000202206  -0.0000612855
       -0.0000077659   0.0036536128  -0.0017144361  -0.0043325319  -0.0214523823
       -0.0000271112  -0.0046387909
        0.0126155639  -0.0169307301   0.0094425212   0.0337797294  -0.0529757528
       -0.0742746308   0.0679427455   0.2088451939   0.2396764979  -0.0681510746
       -0.0870143567  -0.1061025325   0.0241671000  -0.0332143899  -0.0106349385
       -0.0204290233  -0.0051694970  -0.0129831183   0.0001168391  -0.0004517488
       -0.0006339711   0.0002304024  -0.0000856815   0.0001998813   0.0000334277
       -0.0000300558  -0.0000242951  -0.0000832011   0.0000043469  -0.0000443709
        0.0000192562   0.0000029437  -0.0000047178  -0.0000078395   0.0000342073
        0.0000000171  -0.0001145746  -0.0000078915  -0.0000349889   0.0001239465
        0.0000523767   0.0000266585  -0.0000186473   0.0000230665   0.0000102304
       -0.0000110758  -0.0000057925   0.0000083748  -0.0000053883   0.0000054606
       -0.0000007002   0.0000043603   0.0000050637  -0.0000016268  -0.0000064361
       -0.0000003964   0.0000018250   0.0000052699  -0.0000030010   0.0000035176
       -0.0000285320  -0.0000800115  -0.0000051951   0.0000003316   0.0000207351
       -0.0000118504  -0.0000045147  -0.0000100647   0.0000041010   0.0000024593
        0.0000028275   0.0000012810  -0.0000063217  -0.0000088520  -0.0000030130
        0.0000180941   0.0000156237   0.0000064959   0.0000496406  -0.0000249948
        0.0000200695   0.0000192930  -0.0000697848  -0.0000160500   0.0039357643
        0.0197842826   0.0131264649  -0.0362591969  -0.0186343317  -0.0647717671
       -0.0041100038  -0.0045092503  -0.0024113811   0.0002542583  -0.0044898395
        0.0059020249  -0.0000066765   0.0000429344   0.0000496785   0.0002123946
        0.0000966321  -0.0000537214   0.0000394477   0.0000157991   0.0001531174
        0.0000339897   0.0000037862  -0.0000902250   0.0000239376   0.0000275686
       -0.0000098426  -0.0000074543  -0.0000143398   0.0000256913  -0.0000131545
        0.0000145120   0.0000143232   0.0000089699  -0.0000073446   0.0000050423
        0.0000052277  -0.0000017114  -0.0000034725  -0.0000011079   0.0000031637
       -0.0000014150   0.0000037877  -0.0000033783   0.0000016806   0.0000075188
        0.0000000817  -0.0000004019   0.0000043594   0.0000038444  -0.0000030594
       -0.0000006709  -0.0000023096   0.0000032373   0.0000021344   0.0000035183
       -0.0000063759   0.0000048504   0.0000069248  -0.0000011473   0.0000044145
        0.0000034242   0.0000034432   0.0000005898  -0.0000008030  -0.0000017213
        0.0000111705   0.0000109764   0.0000110565  -0.0000676480   0.0000378013
        0.0000271495   0.0002281909  -0.0044685125   0.0058182578  -0.0145769239
       -0.0008522730  -0.0024121087
       -0.0052209734   0.0034276018   0.0005188449   0.0115085606   0.0060186508
        0.0055119727  -0.1340103187  -0.0993136115  -0.0681510746   0.6560513299
       -0.0550566237   0.0731099774  -0.1654380322   0.1428119142   0.0521068376
       -0.0407307897   0.0226274456   0.0040969915  -0.0048429531  -0.0003237861
       -0.0026751503   0.0003497578  -0.0002143116   0.0000421894   0.0000522414
        0.0000926285   0.0000016442  -0.0000469003  -0.0000249828  -0.0000761573
        0.0000117891   0.0000056641   0.0000037785   0.0000537547  -0.0000004924
        0.0000143661  -0.0000488363   0.0000008119  -0.0000229813   0.0000807715
        0.0000071843   0.0000485311  -0.0000224064   0.0000330353  -0.0000059844
        0.0000180158  -0.0000123352   0.0000019654  -0.0000123828   0.0000094934
       -0.0000054665  -0.0000023071  -0.0000011895  -0.0000007378  -0.0000008045
        0.0000043195  -0.0000037073   0.0000060760  -0.0000047976   0.0000018435
       -0.0000033341  -0.0000300633  -0.0000182037   0.0000045063   0.0000072933
        0.0000026212  -0.0000055769  -0.0000097606  -0.0000024199   0.0000030440
        0.0000017802  -0.0000007427   0.0000001994  -0.0000073702   0.0000030773
        0.0000013198   0.0000012719  -0.0000007132   0.0000101004  -0.0000205235
        0.0000170132   0.0000408443  -0.0000070392   0.0000307866   0.0031426172
        0.0023522686   0.0028502273  -0.0272539616  -0.0227379312  -0.0177561788
       -0.2944246321   0.0084889222  -0.0442253848   0.0063230133  -0.0094885350
       -0.0038703229  -0.0009285294   0.0011926397   0.0004103322   0.0001599780
       -0.0001537744  -0.0000448314  -0.0000000530   0.0000433710   0.0001945972
        0.0001088846  -0.0001111765  -0.0000972046   0.0000263701   0.0000041638
       -0.0000340526  -0.0001112891  -0.0000425744   0.0000691615  -0.0000137840
       -0.0000065454   0.0000028758   0.0000073656   0.0000016711  -0.0000016979
        0.0000122499  -0.0000048887   0.0000014628   0.0000033356  -0.0000045254
        0.0000014953   0.0000018137  -0.0000017012   0.0000002671   0.0000013088
       -0.0000012775  -0.0000038321   0.0000011695  -0.0000009815  -0.0000007787
        0.0000002147   0.0000026679  -0.0000017970  -0.0000007464   0.0000007608
        0.0000012406   0.0000019534  -0.0000004534   0.0000005447   0.0000028872
       -0.0000005703   0.0000006210   0.0000038920  -0.0000012292   0.0000024648
        0.0000163702   0.0000096240   0.0000098874  -0.0000719025   0.0000160292
       -0.0000288242   0.0008199548  -0.0000756609   0.0002290807  -0.0056351758
        0.0004974990  -0.0022584550
       -0.0023912167   0.0064323676   0.0022430277   0.0055113929  -0.0418387013
       -0.0204128591  -0.0539886083  -0.1944908135  -0.0870143567  -0.0550566237
        0.5354359675   0.2093768815   0.0755826277  -0.2370348964  -0.0859270780
        0.0741867291   0.0171391266   0.0233221127  -0.0002424415   0.0036257763
       -0.0012423606  -0.0002461730  -0.0004259364  -0.0007673581  -0.0000313851
       -0.0000186577   0.0001121150   0.0000646927   0.0000448779   0.0000788388
       -0.0000607117   0.0000429257   0.0000225186  -0.0000206772  -0.0000307489
       -0.0000074287   0.0001373464  -0.0000076378   0.0000398426  -0.0001501430
       -0.0000455045  -0.0000417806   0.0000304684  -0.0000459223   0.0000001713
       -0.0000001781   0.0000099166  -0.0000052375   0.0000057522  -0.0000062769
        0.0000030201  -0.0000045938   0.0000012121   0.0000013431   0.0000082741
       -0.0000090353   0.0000050082  -0.0000073317   0.0000089518  -0.0000091116
        0.0000317867   0.0000807091   0.0000126349   0.0000028418  -0.0000206146
        0.0000025509   0.0000148075   0.0000149248  -0.0000042686   0.0000038117
       -0.0000055848  -0.0000040042   0.0000123398   0.0000107968  -0.0000008961
       -0.0000079980  -0.0000129777  -0.0000027301  -0.0000712649   0.0000423119
       -0.0000247164  -0.0000072895   0.0000076180   0.0000068380   0.0030999682
       -0.0503242525  -0.0229682013  -0.0663592173   0.0229363749  -0.0019283610
        0.0088221838  -0.0421869896  -0.0023082050   0.0113046709  -0.0214582745
       -0.0095158820  -0.0001352654   0.0001487964  -0.0002150619  -0.0007898741
        0.0003237232   0.0000591875  -0.0001601063  -0.0001696902  -0.0001034675
       -0.0001393518   0.0000135953   0.0000600860  -0.0000320775  -0.0000361222
       -0.0000017934   0.0001428857   0.0001281038  -0.0000639431   0.0000198304
       -0.0000084333  -0.0000133052  -0.0000012132   0.0000144587   0.0000010887
       -0.0000054849   0.0000044729   0.0000037361  -0.0000003694   0.0000053729
        0.0000025669  -0.0000026416   0.0000043751   0.0000011471  -0.0000065630
        0.0000004632   0.0000036417  -0.0000010092  -0.0000054131   0.0000040970
        0.0000056709   0.0000006231  -0.0000006436   0.0000056048  -0.0000058949
        0.0000028290   0.0000021206  -0.0000078782  -0.0000024601   0.0000006446
       -0.0000035328  -0.0000065256   0.0000025223   0.0000029174  -0.0000032769
        0.0000150970  -0.0000116245  -0.0000153543   0.0000416408  -0.0000112274
       -0.0000593093  -0.0001130841  -0.0004664500  -0.0001998379   0.0009771826
        0.0022083321  -0.0024954691
       -0.0025018289   0.0033400600   0.0026017758   0.0052228144  -0.0203916435
       -0.0103364116  -0.0442665187  -0.0953934634  -0.1061025325   0.0731099774
        0.2093768815   0.2374197483   0.0166500815  -0.0729635279  -0.0805726039
        0.0315924874   0.0129719958   0.0129708814  -0.0022643608  -0.0014859160
        0.0056630887  -0.0007481140   0.0008048511   0.0001258376  -0.0000168820
        0.0000719074   0.0000240095   0.0000227375   0.0000077665   0.0000347365
       -0.0000243419   0.0000316526   0.0000209994   0.0000045807  -0.0000098398
        0.0000003226   0.0000525858  -0.0000120175   0.0000095839  -0.0000497284
       -0.0000283854  -0.0000047609   0.0000054283  -0.0000055113  -0.0000055141
        0.0000033315  -0.0000000310  -0.0000007190   0.0000001731   0.0000008625
       -0.0000007945  -0.0000023539  -0.0000004194   0.0000012222   0.0000036831
       -0.0000017239   0.0000009216   0.0000000514   0.0000015714  -0.0000025725