$hessian                                                                        
        0.4234381317   0.1080270155   0.2435018310  -0.1223002397   0.0272465619
       -0.0797118345   0.0332452403   0.0398945969   0.0125569828  -0.0328582147
        0.0094518001  -0.0307195142   0.0000776948  -0.0006944688   0.0019518678
       -0.0003728680   0.0004113951  -0.0003926270   0.0000872836  -0.0003004797
        0.0001719259  -0.0002206395   0.0001155339   0.0000228750   0.0001254940
        0.0001407801  -0.0001869107   0.0001821605  -0.0001703933   0.0001888072
       -0.0000220669   0.0004075553   0.0001199828  -0.0004960573  -0.0000101143
        0.0000179951  -0.0004431921  -0.0003995766   0.0001533316   0.0002913248
        0.0000982863   0.0001923555   0.0000011737  -0.0002589539  -0.0001411462
        0.0001000649   0.0000466306  -0.0000408126  -0.0000273123  -0.0000162581
        0.0000126980   0.0000131232  -0.0000230845  -0.0000068017  -0.0000216389
        0.0000210676   0.0000026504   0.0000061412  -0.0000102422  -0.0000001666
        0.0000049799   0.0000276342   0.0000041856  -0.0000032502  -0.0000258163
       -0.0000113974  -0.0000032284   0.0000000925   0.0000043302   0.0000127162
       -0.0000079107   0.0000057675  -0.0000229765   0.0000081056  -0.0000070293
       -0.0000094495   0.0000057772   0.0000021321   0.0000027892  -0.0000074819
       -0.0000010092  -0.0000031259  -0.0000018475   0.0000002666   0.0000003043
        0.0000047585   0.0000013410   0.0000034215  -0.0000034056  -0.0000007601
       -0.0000027771  -0.0000016292  -0.0000004380  -0.0000034209   0.0000035204
        0.0000000893   0.0000079478   0.0000064394   0.0000009851  -0.0000073015
        0.0000009193   0.0000022152  -0.0000031307   0.0000005174   0.0000000284
       -0.0002774901   0.0000946631   0.0000653942   0.0002679866   0.0002592641
        0.0001045366  -0.0124475636  -0.0678947874   0.0129630356  -0.2084075787
       -0.0420579787  -0.1316771190  -0.0632997107  -0.0767827822   0.0029031762
       -0.0119430947   0.0126591804  -0.0168190518   0.0034643574  -0.0035649720
       -0.0026429331  -0.0000017466   0.0000053236  -0.0000206685  -0.0000046816
        0.0000056948   0.0000039972  -0.0000026284  -0.0000113072  -0.0000279801
        0.0000188090   0.0000038729   0.0000097492  -0.0000196315   0.0000437221
       -0.0000694212  -0.0001299333  -0.0001366339  -0.0000783595  -0.0000017399
       -0.0000159344   0.0000261111   0.0000012002   0.0000005511  -0.0000007572
       -0.0000018393   0.0000003373   0.0000001722  -0.0000018243   0.0000007680
        0.0000008527  -0.0000017370   0.0000004637   0.0000004307  -0.0000019245
        0.0000000618  -0.0000000207  -0.0000028047  -0.0000001108  -0.0000006412
       -0.0000010307  -0.0000008223  -0.0000005609   0.0000017358  -0.0000037419
       -0.0000038177  -0.0000139580   0.0000177210   0.0000269763   0.0036189417
       -0.0030773761  -0.0027731004  -0.0115912147  -0.0035325023  -0.0096841972
        0.1080270155   0.6325783399  -0.1097448496   0.0826960492  -0.1766541622
        0.1287304501  -0.0016635406  -0.0478192820   0.0199456440   0.0096754789
        0.0040747046   0.0052808062  -0.0008292050  -0.0024833912  -0.0001645588
       -0.0000018967   0.0000898326  -0.0004322035   0.0000137770   0.0000898389
       -0.0000389939   0.0001248891   0.0000138252  -0.0001097240  -0.0001024867
        0.0000291290   0.0000292636  -0.0000327187   0.0000249715   0.0000042017
        0.0000793770  -0.0003070771   0.0000503986   0.0003326918   0.0002555672
        0.0004949119  -0.0000851012  -0.0000862067  -0.0000698956  -0.0000449964
       -0.0000265934  -0.0000580207   0.0000159136   0.0000466009   0.0000480358
        0.0000945233   0.0000714051   0.0000326928  -0.0000097966  -0.0000092751
       -0.0000023401  -0.0000153940  -0.0000110995  -0.0000006887  -0.0000000074
        0.0000203228   0.0000048824  -0.0000221665   0.0000113042   0.0000011517
        0.0000135663   0.0000053677   0.0000082062  -0.0000109341  -0.0000269191
       -0.0000084791   0.0000004237   0.0000075842  -0.0000062258  -0.0000041696
       -0.0000287371  -0.0000050740   0.0000099250  -0.0000061912  -0.0000222519
       -0.0000072336   0.0000001975   0.0000003199   0.0000042614  -0.0000116659
       -0.0000044183  -0.0000035889   0.0000100464   0.0000007070  -0.0000083876
        0.0000025801  -0.0000000954   0.0000068163  -0.0000014733  -0.0000005746
       -0.0000095071  -0.0000010791  -0.0000001797  -0.0000087554   0.0000015056
        0.0000009491   0.0000147907   0.0000073326   0.0000024167  -0.0000091057
        0.0000058526   0.0000011535   0.0000005153  -0.0000050761  -0.0000013226
       -0.0000019167   0.0001071439   0.0000460275  -0.0000169912  -0.0000117060
       -0.0000164059  -0.0261639752  -0.0177306291  -0.0175737420  -0.0976121536
       -0.1189073541  -0.0617329735  -0.0767809968  -0.2749856932   0.0268200293
       -0.0040500876   0.0056144441  -0.0060751336  -0.0032870133  -0.0045321720
        0.0021561596   0.0000420399   0.0000011822  -0.0000832902  -0.0000086926
        0.0000000425   0.0000084013   0.0000286959  -0.0000099296  -0.0000074122
        0.0000202788  -0.0000383404  -0.0000246640   0.0000489008  -0.0001711196
        0.0000185770  -0.0001150858  -0.0000993993   0.0000268954  -0.0000090460
        0.0000073849   0.0000099866   0.0000027411  -0.0000015349   0.0000025397
       -0.0000055005   0.0000033044  -0.0000002067  -0.0000026318  -0.0000019537
       -0.0000011498   0.0000038012   0.0000005142  -0.0000008425   0.0000014262
       -0.0000003031  -0.0000000124  -0.0000020440   0.0000027876   0.0000014558
       -0.0000025688  -0.0000018110   0.0000017072   0.0000139942  -0.0000089300
       -0.0000026241  -0.0000022240   0.0000686706   0.0000667447  -0.0033775525
       -0.0046341834   0.0018376236   0.0130355800   0.0054615058   0.0105560144
        0.2435018310  -0.1097448496   0.3841068608  -0.1028241752   0.0766882804
       -0.1733495878   0.0302818368   0.0573977747   0.0046711644  -0.0286419517
        0.0046557716  -0.0367474390   0.0007144683   0.0002606169   0.0018198216
       -0.0003665700   0.0004035555  -0.0001726978   0.0000842143  -0.0003802016
        0.0002184669  -0.0002923263   0.0001214105   0.0000822170   0.0001807467
        0.0001275664  -0.0002054132   0.0002183936  -0.0001881247   0.0002164808
       -0.0000468919   0.0006483376   0.0000625527  -0.0006464073  -0.0001417665
       -0.0001632271  -0.0004524718  -0.0004371431   0.0002047918   0.0003170959
        0.0000939285   0.0002417966   0.0000092092  -0.0002729898  -0.0001679343
        0.0000603782   0.0000195171  -0.0000616359  -0.0000192178  -0.0000155374
        0.0000144491   0.0000153753  -0.0000142412  -0.0000032718  -0.0000207379
        0.0000118844  -0.0000018207   0.0000157703  -0.0000117723   0.0000028435
       -0.0000012163   0.0000251641  -0.0000001734  -0.0000053401  -0.0000190397
       -0.0000096138   0.0000026787   0.0000051663   0.0000104333   0.0000135542
       -0.0000046611   0.0000050845  -0.0000254291   0.0000163527   0.0000054827
       -0.0000036174   0.0000032212   0.0000011490  -0.0000022936  -0.0000025678
        0.0000010533  -0.0000014030  -0.0000034441   0.0000005970   0.0000023278
       -0.0000014763   0.0000004522   0.0000010100   0.0000005208   0.0000000086
        0.0000009495  -0.0000015697  -0.0000003415   0.0000000588   0.0000036904
       -0.0000001177   0.0000006833   0.0000030114   0.0000000433  -0.0000012808
       -0.0000025685   0.0000020026  -0.0000060614   0.0000025375   0.0000005232
       -0.0002958688   0.0000531433   0.0000571007   0.0002953829   0.0002949586
        0.0001295084  -0.0024749895  -0.0557647785   0.0203737328  -0.1093511268
       -0.0094437288  -0.1448226864   0.0031363347   0.0267491275  -0.0412238363
       -0.0102957067   0.0098931855  -0.0122671748  -0.0030151846   0.0017705333
        0.0047639886  -0.0000247241  -0.0000000738   0.0000165689  -0.0000015688
        0.0000036959   0.0000032144  -0.0000178736  -0.0000103320  -0.0000278533
        0.0000016578   0.0000275908   0.0000188802  -0.0000419105   0.0001566252
       -0.0000583018  -0.0001179986  -0.0001418590  -0.0000642963  -0.0000063928
       -0.0000235540   0.0000209665   0.0000001674   0.0000026905  -0.0000012713
        0.0000011952   0.0000000432   0.0000000455  -0.0000009781   0.0000024277
        0.0000012976  -0.0000020082   0.0000006687   0.0000007664  -0.0000019047
        0.0000003036  -0.0000001602  -0.0000011970  -0.0000007173  -0.0000013082
        0.0000005048   0.0000004842  -0.0000014834  -0.0000040676   0.0000017272
       -0.0000020584  -0.0000126517  -0.0000073275  -0.0000019052  -0.0028501776
        0.0023643872   0.0047151982  -0.0169821033  -0.0051755761  -0.0124139334
       -0.1223002397   0.0826960492  -0.1028241752   0.4360910744   0.1063944573
        0.2548488077  -0.0955567571  -0.1072939868  -0.0043434042  -0.0124303361
       -0.0250397153  -0.0001196748  -0.0004319321  -0.0030547594  -0.0045784383
       -0.0003766188  -0.0001730817  -0.0001956752   0.0000081188  -0.0001674035
        0.0002099725  -0.0000819228   0.0000727766   0.0000542393   0.0000678905
        0.0000898300  -0.0001250656   0.0001358933  -0.0001365516   0.0001038953
       -0.0000771945   0.0002353571   0.0002181286  -0.0008951448  -0.0006802870
       -0.0010592788   0.0004163203   0.0000302854   0.0000227084  -0.0002012666
       -0.0002129422  -0.0000147521   0.0003329849   0.0001288829   0.0000273977
       -0.0002764355   0.0000205638   0.0000056548   0.0000802673   0.0000350263
        0.0000201810  -0.0000934302   0.0000639478   0.0000032148   0.0000815294
       -0.0000466760  -0.0000039248  -0.0000883388   0.0000459071   0.0000092212
       -0.0000009958  -0.0001135604  -0.0000202102   0.0000245554   0.0000907054
        0.0000115785  -0.0000187089  -0.0000207524  -0.0000020871  -0.0000357736
        0.0000059216  -0.0000003443   0.0001199557  -0.0001081105  -0.0000353262
        0.0000164274  -0.0000201524  -0.0000026108   0.0000079106   0.0000175811
        0.0000020025   0.0000055319   0.0000166339   0.0000018069  -0.0000145188
        0.0000019521  -0.0000003636  -0.0000031331  -0.0000007623  -0.0000004607
       -0.0000061476   0.0000096428   0.0000022800  -0.0000046584  -0.0000181851
       -0.0000025938  -0.0000010647  -0.0000136776  -0.0000012989   0.0000108108
        0.0000084296   0.0000033020   0.0000192105  -0.0000129434  -0.0000025351
       -0.0002104973  -0.0000319078   0.0001067014  -0.0000977687   0.0000379130
        0.0001251573  -0.0005572334   0.0070177304   0.0010557194  -0.0264086735
        0.0033910775  -0.0273533469   0.0036844128  -0.0051328101   0.0053788780
       -0.1849521103  -0.0675584218  -0.1134464518   0.0038698385   0.0121272480
       -0.0021138398   0.0000219582   0.0000245078  -0.0000587604  -0.0000079499
        0.0000229274  -0.0000114946  -0.0000083650   0.0000092260  -0.0000285260
       -0.0000046199   0.0000147494   0.0000069733   0.0000199223  -0.0000207612
       -0.0001039858  -0.0000912649  -0.0001065249  -0.0000458445   0.0000141791
        0.0000138742  -0.0000137093  -0.0000032941   0.0000010577   0.0000028607
       -0.0000052981  -0.0000001469  -0.0000015477   0.0000011432  -0.0000087934
       -0.0000029845   0.0000064355  -0.0000022626  -0.0000012743   0.0000055244
       -0.0000019534   0.0000001256   0.0000044415   0.0000042397   0.0000024884
       -0.0000023094  -0.0000005101   0.0000021448  -0.0000061794  -0.0000023195
       -0.0000162827  -0.0000116526   0.0000526809   0.0000142314   0.0003681939
        0.0002382518   0.0004882332  -0.0001526962  -0.0029394744  -0.0061976369
        0.0272465619  -0.1766541622   0.0766882804   0.1063944573   0.6147450499
       -0.1028054247  -0.0524325505  -0.3108684068   0.0576575769  -0.0648939572
       -0.0197564275  -0.0559196897  -0.0002319030   0.0048572305   0.0025935587
       -0.0001064650   0.0002963346   0.0003671025  -0.0000031863  -0.0002720319
        0.0001687024  -0.0003703104   0.0000682179   0.0001403370   0.0002181845
        0.0001485225  -0.0002493371   0.0002339832  -0.0001599606   0.0000765032
       -0.0002113166   0.0008298679   0.0002823237  -0.0017849415  -0.0011200376
       -0.0005672907  -0.0002838314  -0.0006003597   0.0002681580   0.0003152340
        0.0001043091   0.0003319146   0.0002156480  -0.0002850073  -0.0002238598
       -0.0002084757  -0.0000678582  -0.0000819284   0.0000593898   0.0000160861
        0.0000237064  -0.0000266126   0.0000408693   0.0000058808   0.0000127328
       -0.0000431782  -0.0000125562  -0.0000022579   0.0000006460   0.0000043946
       -0.0000500069  -0.0000629117  -0.0000202188   0.0000030274   0.0000947860
        0.0000088663   0.0000031509  -0.0000168892   0.0000191087  -0.0000225945
        0.0000378180   0.0000051405   0.0000452752  -0.0000298145   0.0000150138
        0.0000241368  -0.0000228346  -0.0000038382   0.0000011115   0.0000288521
        0.0000063983   0.0000112769   0.0000093185   0.0000014509  -0.0000080885
       -0.0000022963  -0.0000008980  -0.0000070053   0.0000035522   0.0000001430
       -0.0000006809   0.0000097463   0.0000030728   0.0000085963  -0.0000190481
       -0.0000027955  -0.0000233299  -0.0000224034  -0.0000031367   0.0000332936
        0.0000023269   0.0000039803   0.0000099382  -0.0000015014  -0.0000001001
       -0.0004707062  -0.0000206338  -0.0000213175   0.0003216781   0.0004396286
        0.0001555510   0.0056734038  -0.0505037264   0.0232761512   0.0443456787
        0.0519953601   0.0214843407   0.0118897882  -0.0206128417   0.0192432949
       -0.0678963111  -0.0730910514  -0.0473788872  -0.0046085052  -0.0200056360
        0.0045211516   0.0000224663   0.0000099672   0.0000138510   0.0000199506
        0.0000351378  -0.0000447192  -0.0000616554   0.0000370530  -0.0000395977
       -0.0000220026   0.0000359602   0.0000544175  -0.0000506345  -0.0000272777
       -0.0002809288  -0.0001776766  -0.0001648541  -0.0001196095  -0.0000143919
       -0.0000314509   0.0000018380  -0.0000037529   0.0000101729   0.0000020297
        0.0000002974  -0.0000025810  -0.0000026722   0.0000036165  -0.0000071522
       -0.0000033351   0.0000039700  -0.0000019403  -0.0000016057   0.0000050368
       -0.0000012577  -0.0000001568   0.0000069285   0.0000011112   0.0000014906
        0.0000018525   0.0000013824   0.0000007250  -0.0000286075   0.0000139798
        0.0000187578  -0.0000407702   0.0000146810  -0.0000229249   0.0002072021
       -0.0003371797   0.0005113429  -0.0032953399   0.0009247439  -0.0001497274
       -0.0797118345   0.1287304501  -0.1733495878   0.2548488077  -0.1028054247
        0.3958678610  -0.0266789275   0.0083193468  -0.0727530805   0.0160622586
       -0.0172812676   0.0215962800  -0.0063585664   0.0007837320   0.0001815821
        0.0007372085  -0.0000337307   0.0005985802  -0.0001326198   0.0003639339
       -0.0001159788   0.0003166093  -0.0001646196  -0.0001264148  -0.0001765329
       -0.0000769995   0.0001829018  -0.0000752273   0.0000208499  -0.0001150225
        0.0000341186  -0.0004413332  -0.0003308848  -0.0005664796  -0.0013344216
        0.0002934084   0.0004915320   0.0000236186  -0.0001469103  -0.0003204765
       -0.0001525436  -0.0002260105   0.0002152400   0.0002410242   0.0001355209
       -0.0001637715   0.0000377812   0.0000759973   0.0000417722   0.0000194386
       -0.0000059777  -0.0000670939   0.0000395248   0.0000135696   0.0000704012
       -0.0000202663  -0.0000030469  -0.0000778321   0.0000417982   0.0000072421
        0.0000165264  -0.0000803087  -0.0000084866   0.0000166440   0.0000474022
        0.0000111906  -0.0000085140  -0.0000149884  -0.0000116583  -0.0000408160
       -0.0000085056  -0.0000157905   0.0001037235  -0.0000852577  -0.0000229487
        0.0000079154  -0.0000107673  -0.0000017628   0.0000028472   0.0000061232
       -0.0000002955   0.0000023552   0.0000109926   0.0000010805  -0.0000096478
        0.0000009771  -0.0000002118  -0.0000020068  -0.0000006137  -0.0000002659
       -0.0000042672   0.0000050365   0.0000010796  -0.0000060508  -0.0000091638
       -0.0000008231   0.0000044837  -0.0000045643   0.0000002505  -0.0000046599
        0.0000068085   0.0000000889   0.0000122921  -0.0000105671  -0.0000022139
       -0.0000105382   0.0000235798  -0.0001095414  -0.0003308599  -0.0000828703
       -0.0000638771   0.0013483288   0.0259278297  -0.0132365071  -0.0444763833
       -0.0180314168  -0.0330416750  -0.0016176772   0.0036688633  -0.0025214307
       -0.1131645014  -0.0476835483  -0.1216224909   0.0051980425   0.0196842228
       -0.0032299589   0.0000033161   0.0000067327  -0.0000280581  -0.0000240060
        0.0000115065   0.0000050146   0.0000178847   0.0000115759   0.0000209787
       -0.0000467217   0.0000044072  -0.0000105476   0.0000667752  -0.0001887171
        0.0001098194   0.0000328291   0.0000144223   0.0000742958   0.0000098909
        0.0000276676  -0.0000216900  -0.0000013965  -0.0000009312   0.0000019888
       -0.0000038749   0.0000017060  -0.0000009929  -0.0000003852  -0.0000047036
       -0.0000016559   0.0000051006  -0.0000015056  -0.0000007736   0.0000039278
       -0.0000012412  -0.0000000098   0.0000019460   0.0000035756   0.0000016247
       -0.0000023851  -0.0000008420   0.0000014588  -0.0000029664  -0.0000163564
        0.0000102026   0.0000008859   0.0000491718   0.0000459166   0.0004818114
        0.0002768655   0.0000116663  -0.0060684541   0.0001365108   0.0018769807
        0.0332452403  -0.0016635406   0.0302818368  -0.0955567571  -0.0524325505
       -0.0266789275   0.4143123233   0.0980860974   0.2424545831  -0.1946450703
       -0.0766897688  -0.1017187313  -0.0140798563  -0.0234701183  -0.0064797329
       -0.0010632421   0.0017497133  -0.0008795839   0.0001022456   0.0001343505
       -0.0001174195  -0.0002683847   0.0002814624  -0.0001489416   0.0001520309
        0.0001354810  -0.0002394292   0.0001081845  -0.0001687505   0.0001998059
       -0.0005125753   0.0004121741   0.0005225126   0.0014645517  -0.0015555634
        0.0000524294   0.0008598787   0.0000752934  -0.0004707153  -0.0003210753
       -0.0000606670  -0.0002877953  -0.0000933284   0.0003251626   0.0002391016
        0.0001410703   0.0001904908   0.0000930010  -0.0000843243  -0.0000988498
       -0.0000328680   0.0000244241  -0.0000004335  -0.0000041686   0.0000323720
        0.0000319487   0.0000128769  -0.0000535515   0.0000342986  -0.0000001688
        0.0000775846   0.0000023023   0.0000074572   0.0000019155  -0.0000578919
        0.0000022192  -0.0000020778  -0.0000006084  -0.0000174468  -0.0000454854
       -0.0000404453   0.0000007401   0.0000212649  -0.0000327325  -0.0000204344
       -0.0000119901   0.0000159191   0.0000002307  -0.0000074783  -0.0000199682
       -0.0000047164  -0.0000048536  -0.0000159895  -0.0000033895   0.0000094343
        0.0000028321   0.0000001288   0.0000009186  -0.0000014921   0.0000007108
        0.0000048388  -0.0000087180  -0.0000019671  -0.0000055052   0.0000157134
        0.0000029711   0.0000213505   0.0000163927   0.0000024816  -0.0000485412
        0.0000002838  -0.0000037161  -0.0000067101  -0.0000036025  -0.0000004179
        0.0003951815  -0.0001644746  -0.0000736613  -0.0011014473  -0.0003517547
       -0.0000430309  -0.0234360234   0.0379624831  -0.0386085047  -0.0248336330
       -0.0281403603  -0.0079699722   0.0023808237   0.0008596235  -0.0049159880
       -0.0086450275  -0.0223878842   0.0004211871  -0.0908808218   0.0662298036
       -0.0810700293   0.0001257382   0.0000838201  -0.0001213714   0.0000308645
       -0.0000099725   0.0000009619   0.0000287804   0.0000087729  -0.0000421828
        0.0000971513   0.0000084355   0.0000014316   0.0004255136   0.0001951040
       -0.0001537725  -0.0003158761   0.0002810008   0.0001221961  -0.0000309195
        0.0000052008   0.0000075838   0.0000034158   0.0000237620   0.0000002123
        0.0000036364   0.0000009722   0.0000021810  -0.0000030077   0.0000072584
        0.0000028749  -0.0000055232   0.0000017587   0.0000014215  -0.0000044986
        0.0000005215   0.0000008742  -0.0000033851  -0.0000025433  -0.0000001816
        0.0000014243   0.0000003368   0.0000003043  -0.0000726584  -0.0000115212
       -0.0000321658  -0.0000205954   0.0000776558   0.0001170508   0.0022296317
        0.0005216170  -0.0047573176  -0.0001375662  -0.0003878410   0.0003473821
        0.0398945969  -0.0478192820   0.0573977747  -0.1072939868  -0.3108684068
        0.0083193468   0.0980860974   0.6333568688  -0.1203049040  -0.0324143677
       -0.1018857178  -0.0060284755  -0.0324707895  -0.0284971307  -0.0151386415
       -0.0026682022  -0.0008926068  -0.0023957852  -0.0003413850   0.0010476586
       -0.0004493223   0.0006435702  -0.0000200239  -0.0001626117  -0.0002443197
       -0.0004629708   0.0005762918  -0.0005557256   0.0006491832  -0.0004478683
        0.0006517713  -0.0024560469  -0.0006706857   0.0023739087  -0.0041901332
       -0.0007208119   0.0006364856   0.0004508243  -0.0004794646  -0.0000786901
        0.0000729254  -0.0002692521  -0.0005314733   0.0002108181   0.0002175956
        0.0005406345   0.0000892634   0.0000550917  -0.0001580214  -0.0000948203
       -0.0000402494   0.0001373640  -0.0001075915  -0.0000165062  -0.0001211205
        0.0001010049   0.0000192205   0.0001081865  -0.0000537117  -0.0000114763
        0.0000423652   0.0001946760   0.0000404045  -0.0000484971  -0.0001984686
       -0.0000263668   0.0000259172   0.0000493242  -0.0000062791   0.0000457649
       -0.0000562286   0.0000004692  -0.0001850668   0.0001616907   0.0000308401
       -0.0000388372   0.0000406749   0.0000052589  -0.0000133692  -0.0000469039
       -0.0000084139  -0.0000138956  -0.0000278694  -0.0000042258   0.0000206828
        0.0000011610   0.0000008461   0.0000126073  -0.0000016938   0.0000007872
        0.0000025301  -0.0000213429  -0.0000049351  -0.0000029532   0.0000374440
        0.0000062102   0.0000237134   0.0000340580   0.0000048190  -0.0000406798
       -0.0000099222  -0.0000057719  -0.0000330962   0.0000149980   0.0000030873
        0.0006314316  -0.0004247176  -0.0002097783  -0.0024553514  -0.0011489070
        0.0000547478   0.0039981351   0.0456348473  -0.0149258135  -0.0294285149
       -0.0344428726  -0.0158714314   0.0004116741  -0.0009606031   0.0041705081
       -0.0058651074  -0.0124884312  -0.0003609326   0.0658266783  -0.1333274597
        0.1045044236   0.0000104934   0.0000357372  -0.0001664305  -0.0000057890
       -0.0000173589  -0.0000062456   0.0000369503   0.0000053060   0.0000260705
        0.0000008010  -0.0000323991  -0.0000896436   0.0006231088  -0.0008747459
       -0.0004467785  -0.0000363970   0.0003060109   0.0001695070  -0.0000334794
        0.0000042643   0.0000129271   0.0000156709   0.0000158483  -0.0000051153
        0.0000066010   0.0000025116   0.0000037841  -0.0000056339   0.0000164692
        0.0000057983  -0.0000111287   0.0000044736   0.0000026902  -0.0000108493
        0.0000029269   0.0000006011  -0.0000105385  -0.0000060125  -0.0000028134
        0.0000020574   0.0000003517  -0.0000019729  -0.0001427194  -0.0000273214
       -0.0000674908  -0.0000213525   0.0001225620   0.0001061932   0.0010448082
       -0.0011893010   0.0041473232  -0.0005732673  -0.0000128809  -0.0005361243
        0.0125569828   0.0199456440   0.0046711644  -0.0043434042   0.0576575769
       -0.0727530805   0.2424545831  -0.1203049040   0.3897852309  -0.1238464084
       -0.0528263933  -0.1403473836  -0.0002431348  -0.0054727193   0.0026870928
        0.0009912236  -0.0001584354  -0.0001641736  -0.0000673438   0.0005845092
       -0.0003234360   0.0001317960  -0.0000817406  -0.0001282244  -0.0001309475
       -0.0000029667   0.0000421976  -0.0003229542   0.0001482878  -0.0003480427
       -0.0001904527  -0.0008566639  -0.0000077584   0.0009448669   0.0014536914
        0.0009716329   0.0002999268  -0.0000350957  -0.0001359781  -0.0001860823
        0.0000604766  -0.0000665320   0.0000249999   0.0001515854   0.0001049759
       -0.0000432241   0.0000204599   0.0000282334   0.0000006096  -0.0000285596
       -0.0000165494   0.0000060546   0.0000283547   0.0000080144   0.0000182278
       -0.0000127307  -0.0000037984  -0.0000112179   0.0000172021   0.0000050204
        0.0000020933  -0.0000299751  -0.0000064010  -0.0000087380   0.0000193696
        0.0000071480   0.0000122893   0.0000001390   0.0000036070  -0.0000356174
       -0.0000034780  -0.0000053643   0.0000256726  -0.0000017973   0.0000167791
        0.0000133147  -0.0000074251  -0.0000028825  -0.0000078344   0.0000090641
        0.0000020239   0.0000053439  -0.0000011970  -0.0000001908   0.0000013030
       -0.0000052145  -0.0000012499  -0.0000044484   0.0000035812   0.0000010064
        0.0000032385   0.0000017536   0.0000009289   0.0000016021  -0.0000030723
       -0.0000001252  -0.0000061858  -0.0000066657  -0.0000010236   0.0000017423
        0.0000015725  -0.0000011560  -0.0000004740  -0.0000026010  -0.0000003462
        0.0001999780   0.0000781582   0.0000025542   0.0001883068   0.0000448558
       -0.0000545628  -0.0244712693   0.0177912610  -0.0302933181  -0.0063684928
       -0.0136162395  -0.0050985378  -0.0048784225   0.0041882672   0.0011913372
       -0.0064947445  -0.0159978388   0.0012478740  -0.0816183580   0.1046625147
       -0.1527575831  -0.0000239106  -0.0000466213   0.0000704151  -0.0000022305
       -0.0000031591   0.0000046386   0.0000101224   0.0000245154   0.0000712480
        0.0000072698  -0.0000128228   0.0000425013   0.0005423788  -0.0010178313
       -0.0001851189  -0.0002798342   0.0001944680   0.0001298967  -0.0000187043
        0.0000009999  -0.0000239179  -0.0000044856   0.0000098084   0.0000006338
        0.0000018441   0.0000005796  -0.0000006339   0.0000010429  -0.0000005909
       -0.0000002869   0.0000007267  -0.0000001262  -0.0000001085   0.0000012321
       -0.0000005792   0.0000000999   0.0000033646  -0.0000000163   0.0000005563
        0.0000012366   0.0000013750   0.0000002437   0.0000182619   0.0000321520
        0.0000161249  -0.0000020450   0.0000339543   0.0000467492  -0.0050515516
        0.0038123356   0.0010862604   0.0001908809  -0.0004410526   0.0004815754
       -0.0328582147   0.0096754789  -0.0286419517  -0.0124303361  -0.0648939572
        0.0160622586  -0.1946450703  -0.0324143677  -0.1238464084   0.4532104068
        0.0771710396   0.2350114743  -0.0886729219  -0.0467552753  -0.0014218853
        0.0096374404   0.0143925089   0.0009507268  -0.0027942107   0.0036276636
       -0.0004683161   0.0001201611  -0.0001086822  -0.0009436719  -0.0001770479
       -0.0000784447   0.0001396407  -0.0002866453  -0.0002647191  -0.0007153568
       -0.0014714712   0.0025581173  -0.0008829264  -0.0156144110  -0.0293552033
        0.0000334756  -0.0009337292  -0.0019873419   0.0002335609  -0.0001316993
       -0.0001660968  -0.0003825304   0.0007055785   0.0000401528  -0.0001713720
       -0.0006146280  -0.0002215793   0.0000761529   0.0001871864   0.0001194463
        0.0000544506  -0.0001210440   0.0000985715   0.0000222640   0.0001014941
       -0.0000882963  -0.0000259384  -0.0000718845   0.0000315938   0.0000117371
       -0.0000749398  -0.0001737577  -0.0000452610   0.0000354479   0.0002056479
        0.0000384045  -0.0000074070  -0.0000486184   0.0000073997  -0.0000674134
        0.0000683463  -0.0000216280   0.0002350788  -0.0001366010   0.0000105289
        0.0000395081  -0.0000421346  -0.0000051414   0.0000136948   0.0000461215
        0.0000121319   0.0000216853   0.0000254834   0.0000065167  -0.0000205742
        0.0000076310   0.0000020801  -0.0000073707  -0.0000003472  -0.0000011810
       -0.0000078608   0.0000210897   0.0000041617   0.0000078424  -0.0000417536
       -0.0000093107  -0.0000285230  -0.0000398886  -0.0000088123   0.0000535361
        0.0000129486   0.0000027758   0.0000402361  -0.0000130605  -0.0000025924
       -0.0010321735  -0.0008225319  -0.0012224907  -0.0041235547  -0.0006309558
        0.0006970068  -0.1204158337   0.0286104433  -0.0786100909   0.0308928006
        0.0376488671   0.0156321342  -0.0001273978   0.0002938362  -0.0006239290
        0.0039409643  -0.0027264067  -0.0030528762  -0.0112176928  -0.0028681957
       -0.0104461717  -0.0000316545  -0.0000905454   0.0003780949  -0.0001951173
        0.0002247324  -0.0001263156   0.0000003275   0.0001504936   0.0001702467
       -0.0001872181   0.0000629005   0.0000597865  -0.0005279533   0.0012055154
        0.0011252936  -0.0012195514  -0.0004271582   0.0012637629   0.0001152238
       -0.0000039244  -0.0000453515  -0.0000062580   0.0000124688  -0.0000048635
       -0.0000024427  -0.0000032105  -0.0000006981   0.0000070051  -0.0000148451
       -0.0000028341   0.0000108557  -0.0000046900  -0.0000008946   0.0000110411
       -0.0000014611  -0.0000014695   0.0000128759   0.0000073134  -0.0000005508
       -0.0000017174   0.0000037831  -0.0000025801  -0.0003004196  -0.0000226765
       -0.0000061258  -0.0000222983   0.0000589115   0.0001269311  -0.0126681615
        0.0117563442  -0.0172290406   0.0037164568  -0.0036907246  -0.0031624308
        0.0094518001   0.0040747046   0.0046557716  -0.0250397153  -0.0197564275
       -0.0172812676  -0.0766897688  -0.1018857178  -0.0528263933   0.0771710396
        0.5822521748  -0.1008821410  -0.0444619182  -0.2214307224   0.0212106107
        0.0064254073  -0.0337933235   0.0112976065   0.0007932077  -0.0003180253
       -0.0011295551   0.0009250310  -0.0011959388   0.0013835294  -0.0005776146
       -0.0001853088   0.0004874472  -0.0001700580   0.0002414974  -0.0003902591
       -0.0019542996  -0.0005138476  -0.0007570426  -0.0246725983  -0.0137681641
       -0.0071644347   0.0036836493  -0.0006344897   0.0010292726  -0.0002735050
       -0.0008171803   0.0007802756   0.0026134682   0.0000109783  -0.0004764323