$hessian                                                                        
        0.5138982757  -0.0157314990   0.0164677974  -0.0710794967  -0.0145444767
        0.0261758659   0.0028619625   0.0014166370  -0.0021378125  -0.0182423839
       -0.0166045652   0.0196752777  -0.0017971503  -0.0000831126   0.0010651072
        0.0009686174  -0.0002037892  -0.0003791065  -0.0002180968  -0.0006827700
       -0.0000157388  -0.0010450952  -0.0005789310  -0.0008534266  -0.0033951654
        0.0012209530   0.0007799460   0.0001083386  -0.0000907913   0.0001009945
        0.0000942558   0.0001426520  -0.0000282339   0.0000203314   0.0000033823
       -0.0000033095   0.0000031953   0.0000132340   0.0000068261  -0.0000061045
       -0.0000152842  -0.0000075122   0.0000138020   0.0000142186  -0.0000084624
        0.0000074362   0.0000093106   0.0000251340  -0.0000346549   0.0016866708
        0.0002088385   0.0003762465   0.0000807274  -0.0000367679  -0.0000401609
        0.0001681075  -0.0000432406   0.0000967454  -0.0005673641   0.0002208166
        0.0001946741   0.0000218940   0.0000193782  -0.0003342998  -0.0002232697
        0.0000007552   0.0001057345   0.0001137804   0.0001190637  -0.0000241287
        0.0000191782   0.0000008221   0.0000881378   0.0000143399  -0.0000107293
       -0.0001383467   0.0000126505   0.0000011513   0.0002833101  -0.0000308948
        0.0000089235  -0.0001839830   0.0000267088  -0.0000023395   0.0000718121
       -0.0000023690  -0.0000082809  -0.0001057979  -0.0000691938   0.0000163469
       -0.0000077937   0.0004915906  -0.0004994598  -0.0010339410   0.0001516413
       -0.0015722602  -0.0019094111   0.0007382730   0.0001417301   0.0046244187
        0.0014244578  -0.0043267896  -0.0699781209  -0.0727848799  -0.0265417625
       -0.1810101118   0.0280169841  -0.1165237600  -0.1712454543   0.0854742656
        0.0887337763   0.0001471878   0.0003795515   0.0002177236   0.0002487994
       -0.0002286490  -0.0000746447   0.0004397305  -0.0005676499  -0.0008347295
       -0.0006048210  -0.0001872901   0.0007145864   0.0000251331  -0.0000117711
        0.0000915148  -0.0000386435  -0.0000509750   0.0001141642  -0.0002892763
       -0.0000284549  -0.0000719834  -0.0000074071  -0.0000145027   0.0000029814
       -0.0000036326  -0.0000043949  -0.0000003004  -0.0000034951  -0.0000054253
        0.0000022221  -0.0000000876   0.0000000035   0.0000014747  -0.0000070102
        0.0000074823  -0.0000193983  -0.0000052864   0.0000820214   0.0000182008
        0.0000307959   0.0000722032   0.0000603039  -0.0000023938   0.0000639089
       -0.0001165631  -0.0000034829  -0.0000087998   0.0000081372  -0.0000326037
       -0.0000182494  -0.0000109729  -0.0000307530   0.0000334316   0.0000101720
       -0.0000002024   0.0000471709   0.0000056590   0.0000183391   0.0000426827
       -0.0000082776  -0.0018684869   0.0013492391  -0.0008798286
       -0.0157314990   0.4927785852   0.0434817143  -0.0164044816  -0.0867249547
        0.0474833364   0.0017802599   0.0029694964  -0.0046571691  -0.0095195127
       -0.0020161678   0.0053472962   0.0021865866  -0.0013582285  -0.0000456303
       -0.0008683104  -0.0001890318  -0.0005377129   0.0001266475   0.0003518167
        0.0000821704   0.0000519308  -0.0001893737  -0.0002258818  -0.0004521226
        0.0010750228   0.0003652506   0.0001851418  -0.0000826513   0.0000324529
        0.0000310698   0.0000556918  -0.0000062441  -0.0000025248   0.0000213607
       -0.0000477874   0.0000092942  -0.0000009709  -0.0000228001   0.0000002904
       -0.0000021940  -0.0000148511   0.0000055436  -0.0000051052   0.0000110823
       -0.0000034203  -0.0000069976   0.0000398334   0.0024168035  -0.0017626625
        0.0007664556  -0.0000277816  -0.0011314819  -0.0004461123  -0.0003554436
       -0.0000236322   0.0000537280   0.0000144093  -0.0000513637  -0.0006564589
       -0.0004900108  -0.0004603669  -0.0000636202   0.0009778339  -0.0000721323
       -0.0000232887  -0.0007781815   0.0001154291  -0.0000315948   0.0003606491
        0.0002541593   0.0000569974  -0.0002388426   0.0002255436   0.0000831050
        0.0003186391  -0.0000479927  -0.0000151618  -0.0002560835   0.0000405778
        0.0000146220   0.0001553401  -0.0000185857  -0.0000117898  -0.0003028295
       -0.0001543695  -0.0000822136   0.0002706835  -0.0003679805  -0.0000689849
       -0.0005309821   0.0003879220   0.0002369830   0.0012226667  -0.0001059648
        0.0005572725  -0.0022024980  -0.0003410551   0.0003780137  -0.0034622626
       -0.0238657880   0.0178814272  -0.0730065908  -0.2331844474  -0.0695859501
        0.0277527903  -0.0489339346   0.0219877613   0.0858337387  -0.0987552999
       -0.0596043491   0.0000352514   0.0002968186  -0.0000849492   0.0005368800
        0.0007496253  -0.0009359317  -0.0002757956  -0.0002231798  -0.0018602702
        0.0005068159   0.0001964137   0.0000501191   0.0000143784   0.0000184524
        0.0000093018   0.0000414808   0.0000621770   0.0000825892  -0.0000480030
        0.0000095358  -0.0000203710  -0.0000018862   0.0000069406   0.0000084380
       -0.0000082490  -0.0000086326  -0.0000202455  -0.0000011216  -0.0000036366
       -0.0000120466  -0.0000093047  -0.0000175564  -0.0000024723   0.0000017387
       -0.0000015152  -0.0000200066   0.0000954121  -0.0002274771  -0.0000384785
       -0.0000009573   0.0000264284   0.0000002052  -0.0000076850   0.0000638436
        0.0001109934   0.0000125080   0.0000064981   0.0000092821  -0.0000098897
       -0.0000109729   0.0000068185  -0.0000038456   0.0000122749  -0.0000053278
        0.0000196632   0.0000083774   0.0000031074   0.0000158273   0.0000128158
       -0.0000229785   0.0000198406   0.0005998967   0.0000303222
        0.0164677974   0.0434817143   0.4588172404   0.0246093771   0.0401837082
       -0.1142681380   0.0083788375   0.0114575407  -0.0257207601   0.0088388488
        0.0037186105  -0.0038189951  -0.0003092479   0.0006357313  -0.0001859918
       -0.0000346405   0.0001904194   0.0001247933   0.0000705319   0.0001357851
        0.0001073521   0.0004272727  -0.0000063347   0.0003324186  -0.0005187917
       -0.0011590987  -0.0013338785   0.0000628837   0.0003707023  -0.0001407749
        0.0000081491   0.0000228799   0.0002827598   0.0000296239   0.0000607072
       -0.0000290270   0.0000122822   0.0000308877   0.0000362002  -0.0000016501
       -0.0000033922  -0.0000121983  -0.0000131236  -0.0000064533   0.0000087197
       -0.0000326905  -0.0000494578  -0.0000745211  -0.0005466224  -0.0010849678
       -0.0015790506  -0.0002977124   0.0004230430   0.0003126203   0.0001522548
        0.0000690820  -0.0000024553   0.0000541758   0.0002722886   0.0003109523
        0.0003228599   0.0003466137  -0.0000307320  -0.0008695899  -0.0000268216
        0.0001301367   0.0005242263  -0.0000124332  -0.0000086159  -0.0002301514
       -0.0002259155  -0.0000410648   0.0001299619  -0.0001456653  -0.0000399459
       -0.0001348364   0.0000225164   0.0000110529   0.0000372867   0.0000007602
       -0.0000135233  -0.0000123853   0.0000008136   0.0000092560   0.0001482721
        0.0000997625   0.0000521230  -0.0001663610   0.0002724337   0.0000322073
        0.0002511211   0.0001263867  -0.0000444557  -0.0016926304  -0.0010438085
       -0.0013655543   0.0015609719  -0.0004161382   0.0004445516  -0.0011838528
        0.0085256680  -0.0023775147  -0.0270551291  -0.0701749747  -0.0656389693
       -0.1174427541   0.0223952301  -0.1377843587   0.0898884954  -0.0601597866
       -0.1022062154   0.0003060029   0.0004083983   0.0009344147   0.0001903100
        0.0013567779   0.0011992545  -0.0008940158  -0.0014088876  -0.0051509650
        0.0004050727   0.0002577413  -0.0001621607  -0.0000146062   0.0000116428
       -0.0001161377  -0.0000066159   0.0000115127  -0.0000270255  -0.0000042304
       -0.0000163984   0.0000379372   0.0000022464  -0.0000085323   0.0000106296
        0.0000060297   0.0000088351   0.0000082525  -0.0000034113  -0.0000058611
        0.0000088151  -0.0000001737  -0.0000038889   0.0000047651  -0.0000066493
       -0.0000181684   0.0000292432  -0.0000228623  -0.0000401749   0.0000582779
        0.0000144420  -0.0000279740  -0.0000814859   0.0000226568  -0.0000320525
        0.0000050252  -0.0000044872   0.0000301710   0.0000008036   0.0000162716
        0.0000210377   0.0000033385   0.0000105623  -0.0000045689  -0.0000064060
       -0.0000110992  -0.0000074620   0.0000007852   0.0000075913   0.0000482576
       -0.0000480388  -0.0014460953   0.0010915574  -0.0010049661
       -0.0710794967  -0.0164044816   0.0246093771   0.4756361854  -0.0262057759
       -0.0035162659  -0.0602197862  -0.0079422459  -0.0168445653  -0.1880537088
       -0.0049071329  -0.0069004537  -0.0253969693   0.0102631285  -0.0018539506
        0.0023161277   0.0034638181  -0.0003692219  -0.0008044482  -0.0014963245
        0.0000631340  -0.0001407491  -0.0015479026  -0.0000098451  -0.0194819478
       -0.0119012949  -0.0005949708  -0.0006192056   0.0036717549   0.0000429602
       -0.0002404588  -0.0001424282   0.0000969732   0.0000546811   0.0001543945
        0.0000463049   0.0000108399   0.0000107644  -0.0000162274   0.0000078683
        0.0000055701   0.0000046411   0.0000100053   0.0000054725   0.0000310519
        0.0000142816   0.0001390700  -0.0000690663   0.0080826332  -0.0095787547
       -0.0005981790  -0.0017777648  -0.0026937761  -0.0000650325  -0.0002199104
       -0.0000085306   0.0000049188  -0.0046424158   0.0000240193   0.0001994724
        0.0001642767   0.0018765126  -0.0000582948  -0.0006669531  -0.0003659832
        0.0000045359   0.0008726353  -0.0001982262   0.0000584889  -0.0004392883
       -0.0004099037  -0.0000916212   0.0002980330  -0.0003957800  -0.0001541632
       -0.0003989810   0.0000707681   0.0000036855   0.0001885339  -0.0000328660
        0.0000017516  -0.0001080186   0.0000224744  -0.0000030130   0.0003921924
        0.0002792521   0.0001354712  -0.0003188638   0.0005219252   0.0001229861
        0.0003405355  -0.0003648614  -0.0001990745   0.0012069197   0.0004528003
       -0.0001509194  -0.0146768506   0.0256300188   0.0007478858  -0.0877009042
        0.0504150390   0.0013521806  -0.0031581000  -0.0064584169   0.0075395349
        0.0050720256   0.0098944097  -0.0137373875  -0.0080840587  -0.0105861664
        0.0172714868  -0.0083072072  -0.0111105931  -0.0250379069   0.0012479759
        0.0037161022   0.0072266895   0.0019752207   0.0048622368   0.0103496000
        0.0005457181  -0.0011280267   0.0002331245  -0.0004758309  -0.0001157137
        0.0000442615   0.0002267172  -0.0000427805   0.0000193675  -0.0004112934
        0.0001807030  -0.0000287449  -0.0000097366  -0.0000328645  -0.0000066961
        0.0000106527   0.0000082796   0.0000164354   0.0000127679   0.0000152613
        0.0000002980   0.0000103970   0.0000022934  -0.0000159607  -0.0000077013
       -0.0000389990   0.0000096601   0.0001770300  -0.0008682813  -0.0000073352
       -0.0000025184  -0.0000048347   0.0000374549  -0.0003568186   0.0001273740
       -0.0000662463  -0.0000236654   0.0000276035  -0.0000057869   0.0000265680
        0.0000228578   0.0000021876   0.0000218082  -0.0000505716  -0.0000060655
       -0.0000054938  -0.0000375911  -0.0000117307   0.0001092647  -0.0000447225
       -0.0000049961  -0.0012027496  -0.0007480737   0.0001478016
       -0.0145444767  -0.0867249547   0.0401837082  -0.0262057759   0.4498980802
       -0.0103680056  -0.0078169130  -0.0711726444  -0.0324268927   0.0019023467
       -0.0639642265   0.0010751700   0.0218729377   0.0019430848   0.0012226157
        0.0044940227  -0.0028738766   0.0004701291  -0.0004314781  -0.0020053298
        0.0001368468  -0.0028427026  -0.0032939357   0.0002280322  -0.0228213906
       -0.0041480780  -0.0011192096   0.0011360216   0.0041803959  -0.0002150063
       -0.0001064790  -0.0001895038   0.0000286402   0.0001211478   0.0001728488
        0.0000855892   0.0000464802   0.0000060583  -0.0001225988   0.0000461332
        0.0000621785   0.0000182625   0.0000395536  -0.0000022107   0.0001176349
        0.0001200407   0.0001381495  -0.0001223158   0.0028063245  -0.0330249716
       -0.0003763236  -0.0048578249  -0.0003069927   0.0001663599   0.0011001844
       -0.0005223753   0.0000241490  -0.0014434382   0.0033958777  -0.0000915794
        0.0023885157   0.0018482800   0.0002520990  -0.0052696231   0.0008030281
        0.0000573178   0.0047929475  -0.0006773023  -0.0000269318  -0.0023131149
       -0.0016759120  -0.0003281435   0.0016965442  -0.0016033264  -0.0005159073
       -0.0022566251   0.0003595149   0.0000085518   0.0018564351  -0.0002558558
        0.0000190637  -0.0011649217   0.0001694555  -0.0000132667   0.0020200893
        0.0010655470   0.0004890050  -0.0017802956   0.0022319213   0.0003524350
        0.0037556173  -0.0033212881  -0.0002094015  -0.0058628938  -0.0019998378
       -0.0000558988   0.0178180409  -0.0041945745  -0.0001783930   0.0415528880
       -0.1562116303  -0.0013609131  -0.0091600320  -0.0168443387   0.0188534624
       -0.0009626060  -0.0042285643   0.0070318357   0.0026356904   0.0049452873
       -0.0066417348  -0.0012916301  -0.0013194175  -0.0021864498  -0.0037421357
       -0.0151769230  -0.0246903299   0.0020777929   0.0052043581   0.0104570877
        0.0005748970   0.0003425585  -0.0000135468   0.0013747217  -0.0002145654
       -0.0000627397  -0.0000176454  -0.0000376753  -0.0000649351  -0.0011859553
       -0.0001715422  -0.0000185052  -0.0000213135  -0.0000047097   0.0000076811
        0.0000007492  -0.0000066595  -0.0000027511   0.0000558466   0.0000719492
       -0.0000057372  -0.0000060530  -0.0000117560  -0.0000069760  -0.0000336802
        0.0000045184   0.0000425221   0.0003866623  -0.0008704371   0.0000406655
       -0.0000131472   0.0001683846  -0.0000780352  -0.0000578882   0.0001602146
        0.0000152357  -0.0000094118   0.0000372383  -0.0000496747   0.0000292686
        0.0000026615  -0.0000362459   0.0000239725  -0.0000903058   0.0000496872
       -0.0000116941  -0.0000022144   0.0000633498  -0.0000813379  -0.0000424708
       -0.0000423845  -0.0004133892  -0.0000211842  -0.0000663039
        0.0261758659   0.0474833364  -0.1142681380  -0.0035162659  -0.0103680056
        0.3938167207  -0.0222667228  -0.0447432678  -0.1339970933  -0.0032194249
        0.0009335499  -0.0491413691  -0.0013713996   0.0010506594  -0.0019538028
        0.0003128098   0.0006554835   0.0061300980  -0.0001408319  -0.0003611396
       -0.0005261240   0.0000033637   0.0004290330   0.0053401366   0.0000060343
       -0.0015393913   0.0046235614  -0.0005526827   0.0006186581  -0.0030223891
       -0.0000647985  -0.0001194375  -0.0013939594  -0.0001208479  -0.0002292705
        0.0001367560  -0.0000251733  -0.0000343894  -0.0001396623   0.0000065608
        0.0000063554  -0.0000315920   0.0000361505   0.0000235655  -0.0000588632
        0.0001374465   0.0002777071   0.0000538735  -0.0001513747  -0.0003908706
        0.0061271795  -0.0004043907   0.0006368055   0.0028105340   0.0003728746
        0.0000102715  -0.0004145702  -0.0005167632   0.0004821233   0.0063521985
        0.0007524426   0.0007482478   0.0004288043  -0.0015677590   0.0002775823
        0.0001573226   0.0013190718  -0.0002284602   0.0000073935  -0.0006017664
       -0.0005452008  -0.0001831020   0.0003916435  -0.0004832366  -0.0002001488
       -0.0004026226   0.0000757631   0.0000145716   0.0000830318  -0.0000141844
        0.0000075277  -0.0000352697   0.0000102316  -0.0000028087   0.0004957519
        0.0003456905   0.0001915847  -0.0004347061   0.0006854050   0.0002077674
        0.0010249122  -0.0010188645  -0.0004135828  -0.0015177387  -0.0004369422
       -0.0032999406   0.0016284046   0.0006700240  -0.0015374419  -0.0002988759
        0.0017953813  -0.0481179279   0.0000331455  -0.0001643126   0.0021276948
        0.0039476517   0.0126855202  -0.0170144462   0.0073143902   0.0080067252
       -0.0122466074  -0.0037386404  -0.0045353977  -0.0083074095  -0.0006160480
       -0.0046569449  -0.0054599331  -0.0028122036  -0.0080584921  -0.0232799349
       -0.0000334556  -0.0001243043  -0.0027096426  -0.0000243789   0.0000158800
        0.0002972755   0.0000305179  -0.0000563538  -0.0013255729   0.0000902414
        0.0000357287   0.0001612771  -0.0000294721  -0.0000338530  -0.0000150241
       -0.0000231312  -0.0000361404   0.0000045066   0.0000132036   0.0000147394
       -0.0000007417   0.0000150789   0.0000183261  -0.0000019990   0.0000245332
        0.0000296492  -0.0000152780  -0.0000176884   0.0000612931   0.0001024895
        0.0000198695  -0.0000121532  -0.0004477814   0.0000339795  -0.0000455122
       -0.0007371389  -0.0000174570   0.0000224795   0.0000319971   0.0000347185
        0.0000239695   0.0000110259   0.0000237738  -0.0000466607  -0.0000141329
       -0.0000223093  -0.0000056399  -0.0000331557   0.0000403397   0.0000176573
        0.0002525100   0.0001763912   0.0001405833   0.0009165080
        0.0028619625   0.0017802599   0.0083788375  -0.0602197862  -0.0078169130
       -0.0222667228   0.5269299310  -0.0104489384  -0.0073319172  -0.0170599865
       -0.0132895682  -0.0237419579  -0.0016478642   0.0001692711  -0.0011569291
        0.0010501075   0.0000290058   0.0008181978  -0.0002710407  -0.0007955511
        0.0000472220  -0.0009955595  -0.0002881678   0.0009784130  -0.0031782191
        0.0008186468  -0.0005550954  -0.0001564071  -0.0000688749  -0.0001373076
        0.0000723108   0.0001443882  -0.0001347425  -0.0000180690  -0.0000134148
       -0.0000030883   0.0000161077   0.0000166295   0.0000063276  -0.0000018199
       -0.0000069588   0.0000236547   0.0000106625   0.0000239069  -0.0000131842
        0.0000507752   0.0000207885  -0.0000066493   0.0000769504   0.0008818171
        0.0002774932  -0.0000354120   0.0003590898  -0.0000224362   0.0003136793
        0.0001875963   0.0000461795  -0.0001371593  -0.0006489328  -0.0004350191
        0.0004955487   0.0002706882   0.0000699170  -0.0010185385  -0.0000118892
        0.0000438852   0.0008709505  -0.0000215055  -0.0002156380  -0.0004402236
       -0.0002593772  -0.0000581669   0.0003787335  -0.0003051266  -0.0000595511
       -0.0005803419   0.0000863649   0.0000084525   0.0006213897  -0.0000723252
       -0.0000122186  -0.0003959317   0.0000531334   0.0000047670   0.0004106956
        0.0001607672   0.0000990266  -0.0003499366   0.0003584570   0.0000118476
        0.0007238505  -0.0002264533   0.0007374816  -0.0011621613   0.0001422115
        0.0007832376  -0.0012419498   0.0005516281  -0.0002844923   0.0034909836
        0.0042179164   0.0069239845   0.0009454145   0.0003908803   0.0002073337
       -0.0002827784  -0.0001983605   0.0011434146  -0.0004149865  -0.0001536696
        0.0007591968  -0.2803005886   0.0059461427  -0.0472524986  -0.0689219453
        0.0753243238   0.0014014863  -0.0980343647  -0.0578620707   0.0812598624
       -0.0006187365  -0.0003218531  -0.0009292221   0.0000405041  -0.0000240302
       -0.0001483747  -0.0000182640  -0.0000497377  -0.0001572812  -0.0002222227
       -0.0000101186   0.0000965640  -0.0000043789   0.0000086055   0.0000154380
       -0.0000007645  -0.0000034689   0.0000016069  -0.0000056786  -0.0000077281
        0.0000005638  -0.0000050912  -0.0000038998   0.0000002195  -0.0000306040
       -0.0000256461   0.0000027263  -0.0000090306   0.0000752351  -0.0000365745
        0.0000244361   0.0000466809  -0.0000718989  -0.0000125592   0.0000364120
        0.0001610901  -0.0000301610   0.0000193426  -0.0000138486  -0.0000167571
        0.0000001306  -0.0000089915  -0.0000117597   0.0000043117   0.0000156612
       -0.0000117651   0.0000222935   0.0000199654   0.0000139240   0.0000384872
       -0.0000002376  -0.0015360744   0.0007491675   0.0007099901
        0.0014166370   0.0029694964   0.0114575407  -0.0079422459  -0.0711726444
       -0.0447432678  -0.0104489384   0.5048440313  -0.0349080795  -0.0077122869
       -0.0001123930  -0.0048377167   0.0013891465  -0.0013173026  -0.0002617535
       -0.0007652134  -0.0000300549   0.0003191351  -0.0000050133   0.0001885277
       -0.0000429896   0.0001410754  -0.0001271400   0.0001452333  -0.0003817722
        0.0004656552   0.0002502136  -0.0001040429  -0.0000633837  -0.0000228355
        0.0000447794   0.0000498239  -0.0002085824  -0.0000101635  -0.0000244086
       -0.0000228890   0.0000073258   0.0000002361  -0.0000526451   0.0000030132
        0.0000020564   0.0000229152   0.0000199936   0.0000095440   0.0000232026
        0.0000158652   0.0000658049   0.0000251831   0.0021643765  -0.0015992449
        0.0000224220   0.0000149483  -0.0008296898   0.0004672653  -0.0002812356
       -0.0000503365  -0.0000640329   0.0000472195   0.0001206098   0.0011223405
       -0.0003310176  -0.0002655057   0.0000026294   0.0005740009  -0.0000331919
        0.0000201006  -0.0004910084   0.0000674225   0.0000558167   0.0002306628
        0.0000955330  -0.0000021689  -0.0001540412   0.0001010978   0.0000143865
        0.0002501384  -0.0000363199  -0.0000144431  -0.0003041902   0.0000446097
        0.0000159847   0.0001924980  -0.0000208634  -0.0000092652  -0.0001744341
       -0.0000463128  -0.0000143307   0.0001584897  -0.0001878168   0.0000042004
       -0.0005302074   0.0003018248  -0.0002187637   0.0008935974  -0.0001106806
       -0.0009642463  -0.0016280127  -0.0004859404  -0.0005486019   0.0002879715
       -0.0231336749  -0.0211744853  -0.0000477114   0.0011988764   0.0013364804
       -0.0002223923  -0.0008114467   0.0019446301  -0.0002375534  -0.0002325259
        0.0010977975   0.0056086350  -0.0428455663   0.0028136368   0.0757171095
       -0.2599582148  -0.0008771675  -0.0584604826  -0.1071039214   0.0875896072
        0.0007381494  -0.0000174333   0.0003088858   0.0000071536   0.0000183317
        0.0000344138   0.0000199191   0.0000408303  -0.0000356663  -0.0000226883
        0.0000044678  -0.0000098047   0.0000054645   0.0000116720   0.0000198082
       -0.0000108832  -0.0000153824  -0.0000111370   0.0000040181   0.0000022365
       -0.0000068626  -0.0000109372  -0.0000219265   0.0000033339  -0.0000055446
       -0.0000225205   0.0000075638   0.0000683841  -0.0001838506   0.0000047025
        0.0000122266   0.0000137244  -0.0000115337   0.0000306326   0.0000303939
       -0.0001920261   0.0000074649   0.0000083662   0.0000172044   0.0000059703
       -0.0000023008   0.0000083570   0.0000039680  -0.0000084171  -0.0000050542
        0.0000085989   0.0000105975  -0.0000114708   0.0000569583  -0.0000010680
        0.0000553715   0.0001356249   0.0002057088   0.0000614571
       -0.0021378125  -0.0046571691  -0.0257207601  -0.0168445653  -0.0324268927
       -0.1339970933  -0.0073319172  -0.0349080795   0.4324677918  -0.0134577273
       -0.0041643099  -0.0080745887   0.0011198282  -0.0010324538   0.0000363753
       -0.0006553708  -0.0003452595   0.0003196051  -0.0000621136   0.0002013393
        0.0000630403  -0.0002555583  -0.0001355668   0.0003299422   0.0001809268
        0.0015123702  -0.0010074603   0.0000632546  -0.0004638082  -0.0002118154
        0.0000208273   0.0000390474   0.0003045440   0.0000285992   0.0000486726
       -0.0001037718   0.0000088680  -0.0000016786   0.0000096045  -0.0000030602
       -0.0000077119  -0.0000253323  -0.0000179014  -0.0000379220   0.0000177991
       -0.0000382761  -0.0000831445   0.0000122742   0.0008928288   0.0012952549
       -0.0013813045   0.0003907350  -0.0005391027   0.0003186080  -0.0001601227
       -0.0000636916   0.0000251018   0.0002537107  -0.0008009451   0.0002507177
       -0.0006542760  -0.0006658381  -0.0000980473   0.0013987704  -0.0000060756
        0.0001491013  -0.0009343435   0.0000709208  -0.0000306984   0.0003736798
        0.0003975877   0.0000894117  -0.0001866930   0.0002468483   0.0001039774
        0.0001072774  -0.0000283038  -0.0000090342   0.0001678367  -0.0000164794
        0.0000013642  -0.0001289731   0.0000146700   0.0000049280  -0.0002335724
       -0.0002025763  -0.0000838636   0.0002489798  -0.0004889440  -0.0000968337
       -0.0006251306   0.0003166244   0.0001588373   0.0019478952   0.0016715463
       -0.0012165362  -0.0029488558   0.0002487610   0.0003998909   0.0034401896
       -0.0129062499  -0.0047152523  -0.0009790504  -0.0021142380   0.0011729082
        0.0009206310   0.0009016355  -0.0030406113   0.0002014503   0.0006730923
       -0.0023517684  -0.0474495706   0.0028916111  -0.0498318421   0.0009581304
       -0.0005518336  -0.0408020877   0.0815748702   0.0872637678  -0.1621832145
       -0.0001521004  -0.0002490704  -0.0003011014   0.0000116653  -0.0000218564
       -0.0000764768   0.0000169997  -0.0000150460  -0.0000540703  -0.0000236970
        0.0000132661  -0.0000043139  -0.0000019522   0.0000066375   0.0000367669
        0.0000023648   0.0000066599   0.0000042515   0.0000047796   0.0000078345
        0.0000087631  -0.0000029967  -0.0000015405   0.0000086553   0.0000160773
        0.0000489339   0.0000052631   0.0000329483   0.0000277011   0.0000251686
       -0.0000228629   0.0000428342  -0.0000778599  -0.0000424761   0.0000530444
        0.0000346029   0.0000074486  -0.0000289291  -0.0000080467  -0.0000377541
       -0.0000345960  -0.0000031759  -0.0000245241   0.0000375822   0.0000085750
        0.0000292836   0.0000294576   0.0000052799  -0.0000723119  -0.0000656865
       -0.0000399842   0.0010647095  -0.0010027012  -0.0008262039
       -0.0182423839  -0.0095195127   0.0088388488  -0.1880537088   0.0019023467
       -0.0032194249  -0.0170599865  -0.0077122869  -0.0134577273   0.5873442710
       -0.0070039256   0.0168152724  -0.1399838030   0.1288664771  -0.0067003765
       -0.0446106003   0.0208749788  -0.0019175240   0.0060038549   0.0093110392
       -0.0001563029  -0.0267949488  -0.0261242349  -0.0000093965  -0.1465335931
       -0.1133025848   0.0009609701   0.0145616441   0.0049352225   0.0001517183
       -0.0016053031   0.0023522549  -0.0001150328   0.0001406409   0.0001382233
       -0.0000195901   0.0001886686  -0.0000685625   0.0000720577   0.0000253176
        0.0000474124  -0.0000096791   0.0001855897  -0.0000683692  -0.0000854970
        0.0001597668   0.0001531650   0.0000281568  -0.0008569647  -0.0027522847
        0.0002544470  -0.0014121139   0.0002584620   0.0000552224   0.0007633546
       -0.0004712590   0.0000017886   0.0002112649   0.0001574317  -0.0000142377
       -0.0032576555  -0.0032949396  -0.0001949281   0.0058275063   0.0019681179
       -0.0000528643  -0.0048628402   0.0006760842  -0.0000179166   0.0024005251
        0.0018065958   0.0003879538  -0.0016993497   0.0016888828   0.0005518818
        0.0021772863  -0.0003927723  -0.0000539966  -0.0015945955   0.0002192320
        0.0000217299   0.0009847551  -0.0001451240  -0.0000059938  -0.0019977455
       -0.0011328833  -0.0005395637   0.0017362746  -0.0023913367  -0.0003813163
       -0.0010270673   0.0013770441   0.0003912465   0.0024918997   0.0008052416
       -0.0000511752  -0.0024728630   0.0003678844  -0.0005477246  -0.0159300184
        0.0085969068  -0.0012000035  -0.0004408872  -0.0006365374   0.0005458654
       -0.0001947320   0.0003817785  -0.0005986514  -0.0013499024  -0.0003541189
        0.0004217844  -0.0014481111  -0.0000792882  -0.0013465850   0.0004722477
        0.0001032638   0.0006281103   0.0001070901   0.0002719345   0.0005380163
        0.0070035978  -0.0116998601   0.0005862284  -0.0058178044   0.0002219545
       -0.0003517238   0.0007457417   0.0001748845   0.0000587894  -0.0057161008
       -0.0002051923  -0.0002033863  -0.0000593155   0.0000104946  -0.0000423457
        0.0000034940   0.0000189606  -0.0000010753  -0.0000594027   0.0000103335
        0.0000006549   0.0000058291   0.0000242464   0.0000044616  -0.0000490273
        0.0000298708   0.0000318920   0.0001049817  -0.0001651797   0.0000422243
       -0.0000175870  -0.0000290482  -0.0000401336  -0.0000428818   0.0000046371
        0.0000614784   0.0000218012  -0.0000756085   0.0000284498  -0.0000683315
       -0.0000542061   0.0000193586  -0.0000450246   0.0001139772  -0.0000191095
        0.0000712897   0.0000241020  -0.0000332274  -0.0000215765  -0.0000504964
        0.0000195853  -0.0004124675  -0.0001638294  -0.0001316837
       -0.0166045652  -0.0020161678   0.0037186105  -0.0049071329  -0.0639642265
        0.0009335499  -0.0132895682  -0.0001123930  -0.0041643099  -0.0070039256
        0.6441012836  -0.0192178678   0.0605519682  -0.2590642906   0.0086500339
        0.0793269015   0.0182684830   0.0015689721  -0.0000110045  -0.0491642073
        0.0015904889  -0.0548526462   0.0196935315  -0.0022236220  -0.0763409509
       -0.2054404330   0.0027277511   0.0004148054  -0.0678485165   0.0025638527
        0.0043204585  -0.0016866838   0.0002925906  -0.0007197919  -0.0007555029
        0.0001185380  -0.0003174031   0.0002488528  -0.0001357274   0.0000696160
        0.0000692179  -0.0000113927  -0.0003155482   0.0002518842   0.0001455610
       -0.0007480812  -0.0008985163  -0.0000831664  -0.0027958150   0.0004985373
       -0.0002843870  -0.0030521773   0.0018473235  -0.0001524841   0.0025232000
        0.0003078824  -0.0000089749   0.0012539961  -0.0003339245  -0.0001870893
       -0.0037121346  -0.0047370875  -0.0002465523   0.0078761875   0.0030608119
       -0.0000118464  -0.0069770013   0.0011837758  -0.0000493088   0.0037207188
        0.0022847617   0.0004823402  -0.0029044374   0.0025570716   0.0007981410
        0.0042320237  -0.0006905125  -0.0001012291  -0.0042209385   0.0005347638
        0.0000879349   0.0027135337  -0.0003537766  -0.0000424298  -0.0033228640
       -0.0015580819  -0.0007389720   0.0028313608  -0.0032331019  -0.0004944028
       -0.0010398438   0.0011307412   0.0004325500   0.0021719226   0.0013794503
        0.0000368131  -0.0003280546  -0.0064146206  -0.0000851028   0.0263078284
       -0.0006100716   0.0015761272  -0.0008071860  -0.0011963222   0.0011474874