 Entering Gaussian System
 *********************************************
 Gaussian 98:
 frequency output generated by the xtb code
 *********************************************
                         Standard orientation:
 --------------------------------------------------------------------
  Center     Atomic     Atomic              Coordinates (Angstroms)
  Number     Number      Type              X           Y           Z
 --------------------------------------------------------------------
    1          6             0       -1.317087    2.656151   -1.545821
    2          6             0       -1.609169    2.085312   -0.138601
    3          6             0       -1.096521    3.004708    1.001453
    4          6             0       -3.124474    2.031785   -0.035533
    5          6             0       -3.840394    3.221613   -0.028246
    6          6             0       -5.222056    3.242272    0.029570
    7          6             0       -5.915958    2.045891    0.078786
    8          6             0       -5.227439    0.850457    0.074043
    9          6             0       -3.830917    0.830249    0.017007
   10          7             0       -3.148604   -0.374582    0.016562
   11          6             0       -3.910867   -1.580153    0.037485
   12          6             0       -4.272574   -2.187470   -1.158488
   13          6             0       -5.031277   -3.345126   -1.140619
   14          6             0       -5.429564   -3.896883    0.066033
   15          6             0       -5.068275   -3.291156    1.258678
   16          6             0       -4.309639   -2.133661    1.248348
   17          6             0       -1.767043   -0.434098    0.026173
   18          6             0       -1.175796   -1.718432    0.108224
   19          6             0        0.172762   -1.871319    0.122635
   20          6             0        1.019802   -0.747588    0.047365
   21          6             0        2.414559   -0.919489    0.051545
   22          6             0        3.278116    0.148499   -0.015914
   23          6             0        4.732073   -0.035095    0.006964
   24          6             0        5.551467    0.858677    0.701306
   25          6             0        6.918905    0.689917    0.733576
   26          6             0        7.502224   -0.386933    0.060646
   27          6             0        8.900485   -0.563056    0.087903
   28          7             0       10.040515   -0.703755    0.110590
   29          6             0        6.694272   -1.287363   -0.638948
   30          6             0        5.327961   -1.108244   -0.660555
   31          6             0        2.714073    1.438342   -0.101132
   32          6             0        1.363016    1.629613   -0.114752
   33          6             0        0.442629    0.552587   -0.034697
   34          6             0       -0.973369    0.704126   -0.037067
   35          1             0       -1.660112    3.685097   -1.619856
   36          1             0       -1.855571    2.067000   -2.287664
   37          1             0       -0.262373    2.618924   -1.796639
   38          1             0       -1.913960    3.255139    1.675056
   39          1             0       -0.333716    2.509053    1.595395
   40          1             0       -0.688014    3.934812    0.613105
   41          1             0       -3.306490    4.159261   -0.066814
   42          1             0       -5.750804    4.183772    0.032704
   43          1             0       -6.995419    2.040059    0.121957
   44          1             0       -5.774641   -0.078738    0.113257
   45          1             0       -3.957958   -1.747456   -2.093606
   46          1             0       -5.312802   -3.815551   -2.071082
   47          1             0       -6.022795   -4.799070    0.077244
   48          1             0       -5.378765   -3.719658    2.200119
   49          1             0       -4.024142   -1.651846    2.172225
   50          1             0       -1.815566   -2.585318    0.162635
   51          1             0        0.610667   -2.856836    0.188236
   52          1             0        2.799022   -1.925948    0.140633
   53          1             0        5.106455    1.682239    1.239357
   54          1             0        7.546566    1.381037    1.277592
   55          1             0        7.149876   -2.115906   -1.161936
   56          1             0        4.710619   -1.796929   -1.217650
   57          1             0        3.369524    2.293335   -0.184401
   58          1             0        1.008783    2.641575   -0.188058
 --------------------------------------------------------------------
     1 basis functions        1 primitive gaussians
     1 alpha electrons        1 beta electrons
 
 Harmonic frequencies (cm**-1), IR intensities (km*mol⁻¹),
 Raman scattering activities (A**4/amu), Raman depolarization ratios,
 reduced masses (AMU), force constants (mDyne/A) and normal coordinates:
                      1                      2                      3
                        a                      a                      a 
 Frequencies --    19.3046                27.1482                30.8754
 Red. masses --    11.4707                10.2181                10.5383
 Frc consts  --     0.0000                 0.0000                 0.0000
 IR Inten    --     0.7112                 0.3882                 0.4390
 Raman Activ --     0.0000                 0.0000                 0.0000
 Depolar     --     0.0000                 0.0000                 0.0000
 Atom AN      X      Y      Z        X      Y      Z        X      Y      Z
   1   6     0.09  -0.01   0.08     0.12   0.07   0.08     0.01   0.15   0.12
   2   6     0.01  -0.00   0.07     0.01  -0.01   0.03    -0.03   0.04   0.07
   3   6    -0.06   0.01   0.09    -0.07  -0.07   0.12    -0.07  -0.04   0.15
   4   6    -0.00   0.00  -0.03     0.01  -0.01  -0.07    -0.03   0.01   0.02
   5   6    -0.00   0.00  -0.09     0.01  -0.01  -0.11    -0.04   0.00   0.06
   6   6    -0.00   0.00  -0.20     0.00  -0.01  -0.17    -0.05  -0.02  -0.00
   7   6    -0.01   0.00  -0.24     0.00  -0.01  -0.18    -0.03  -0.03  -0.11
   8   6    -0.01   0.00  -0.17     0.00  -0.01  -0.14    -0.02  -0.02  -0.14
   9   6    -0.00   0.00  -0.06     0.00  -0.01  -0.10    -0.02   0.00  -0.06
  10   7    -0.00   0.00   0.02     0.00  -0.01  -0.09    -0.00   0.01  -0.09
  11   6    -0.00   0.00  -0.02    -0.01  -0.00   0.01     0.03  -0.01   0.00
  12   6     0.15  -0.06  -0.03    -0.29   0.08   0.05     0.21  -0.22   0.05
  13   6     0.15  -0.06  -0.07    -0.31   0.10   0.14     0.26  -0.25   0.15
  14   6    -0.00  -0.00  -0.09    -0.06   0.03   0.20     0.13  -0.07   0.19
  15   6    -0.15   0.06  -0.08     0.22  -0.05   0.16    -0.06   0.14   0.13
  16   6    -0.15   0.06  -0.04     0.24  -0.06   0.06    -0.11   0.18   0.04
  17   6    -0.00   0.00   0.10     0.00  -0.01  -0.08     0.00   0.03  -0.08
  18   6    -0.01   0.00   0.17    -0.00  -0.02  -0.18     0.01   0.03  -0.14
  19   6    -0.01   0.00   0.21    -0.00  -0.03  -0.18     0.01   0.04  -0.18
  20   6    -0.01  -0.00   0.20     0.00  -0.02  -0.06     0.00   0.05  -0.12
  21   6    -0.01  -0.01   0.19     0.00  -0.02  -0.04     0.00   0.06  -0.15
  22   6    -0.00  -0.01   0.16     0.00  -0.02   0.08    -0.00   0.07  -0.07
  23   6    -0.00  -0.02   0.09     0.00  -0.01   0.07    -0.01   0.05  -0.07
  24   6     0.05  -0.03   0.04     0.00  -0.08   0.15     0.00  -0.03   0.03
  25   6     0.05  -0.02  -0.07     0.01  -0.06   0.11    -0.01  -0.09   0.07
  26   6     0.01   0.00  -0.14     0.01   0.02  -0.01    -0.02  -0.06   0.01
  27   6     0.01   0.03  -0.28     0.02   0.05  -0.07    -0.04  -0.15   0.07
  28   7     0.02   0.05  -0.43     0.02   0.08  -0.13    -0.05  -0.26   0.15
  29   6    -0.04   0.01  -0.09     0.01   0.07  -0.08    -0.03   0.04  -0.11
  30   6    -0.05  -0.00   0.03     0.01   0.06  -0.04    -0.02   0.09  -0.15
  31   6     0.00  -0.01   0.19     0.01  -0.01   0.20    -0.01   0.07   0.05
  32   6     0.00  -0.00   0.20     0.01  -0.01   0.18    -0.01   0.07   0.07
  33   6    -0.00  -0.00   0.17     0.00  -0.01   0.04    -0.01   0.05  -0.02
  34   6    -0.00  -0.00   0.12     0.00  -0.01   0.00    -0.01   0.04  -0.02
  35   1     0.03  -0.00   0.02     0.04   0.02   0.03     0.01   0.05   0.06
  36   1     0.04  -0.00   0.02     0.04   0.04   0.00     0.00   0.06   0.02
  37   1     0.03  -0.01   0.04     0.04   0.02   0.04     0.00   0.04   0.04
  38   1    -0.03   0.00   0.01    -0.04  -0.02   0.02    -0.02  -0.03   0.05
  39   1    -0.03   0.00   0.04    -0.04  -0.03   0.05    -0.02  -0.02   0.04
  40   1    -0.01   0.00   0.03    -0.01  -0.02   0.06    -0.02  -0.00   0.07
  41   1     0.00   0.00  -0.02     0.00  -0.00  -0.02    -0.02   0.00   0.04
  42   1    -0.00   0.00  -0.07     0.00  -0.00  -0.06    -0.02  -0.01   0.01
  43   1    -0.00   0.00  -0.10     0.00  -0.00  -0.06    -0.01  -0.01  -0.05
  44   1    -0.00   0.00  -0.06     0.00  -0.00  -0.04    -0.00  -0.01  -0.07
  45   1     0.08  -0.03  -0.00    -0.14   0.04   0.00     0.09  -0.10   0.01
  46   1     0.08  -0.03  -0.02    -0.15   0.05   0.05     0.12  -0.12   0.05
  47   1    -0.00  -0.00  -0.04    -0.02   0.01   0.08     0.05  -0.03   0.07
  48   1    -0.08   0.03  -0.03     0.12  -0.03   0.06    -0.05   0.08   0.05
  49   1    -0.08   0.03  -0.01     0.13  -0.04   0.01    -0.07   0.10  -0.00
  50   1    -0.00   0.00   0.05    -0.00  -0.01  -0.08     0.01   0.01  -0.05
  51   1    -0.00   0.00   0.07    -0.00  -0.01  -0.08     0.01   0.01  -0.07
  52   1    -0.00  -0.00   0.05    -0.00  -0.01  -0.04     0.00   0.02  -0.07
  53   1     0.02  -0.01   0.03     0.00  -0.04   0.07     0.00  -0.02   0.02
  54   1     0.03  -0.01  -0.03     0.00  -0.03   0.05    -0.00  -0.05   0.04
  55   1    -0.02   0.01  -0.04     0.00   0.04  -0.05    -0.01   0.02  -0.05
  56   1    -0.02  -0.00   0.02     0.00   0.03  -0.03    -0.01   0.05  -0.07
  57   1     0.00  -0.00   0.06     0.00   0.00   0.09    -0.01   0.02   0.04
  58   1     0.00  -0.00   0.06     0.00   0.00   0.08    -0.01   0.02   0.05
                      4                      5                      6
                        a                      a                      a 
 Frequencies --    35.0206                53.1165                56.5663
 Red. masses --    11.4337                10.9966                10.3284
 Frc consts  --     0.0000                 0.0000                 0.0000
 IR Inten    --     1.0766                 0.9079                 1.0043
 Raman Activ --     0.0000                 0.0000                 0.0000
 Depolar     --     0.0000                 0.0000                 0.0000
 Atom AN      X      Y      Z        X      Y      Z        X      Y      Z
   1   6    -0.03   0.01  -0.02    -0.06   0.07  -0.03     0.01   0.07   0.13
   2   6    -0.05   0.05  -0.00    -0.02   0.04  -0.04     0.00  -0.02   0.09
   3   6    -0.09   0.10  -0.03     0.03   0.01  -0.04    -0.03  -0.08   0.16
   4   6    -0.05   0.02  -0.03    -0.01   0.05   0.01     0.00  -0.05   0.05
   5   6    -0.09  -0.00  -0.09    -0.00   0.05   0.15    -0.02  -0.07   0.11
   6   6    -0.09  -0.04  -0.11    -0.00   0.06   0.20    -0.02  -0.09   0.03
   7   6    -0.06  -0.06  -0.04    -0.01   0.06   0.10    -0.00  -0.11  -0.11
   8   6    -0.02  -0.04   0.02    -0.02   0.05  -0.05     0.01  -0.09  -0.16
   9   6    -0.02  -0.00   0.02    -0.02   0.05  -0.09     0.02  -0.07  -0.07
  10   7     0.01   0.02   0.07    -0.04   0.05  -0.24     0.05  -0.07  -0.10
  11   6     0.05  -0.01   0.02    -0.01   0.03  -0.13     0.02  -0.05  -0.05
  12   6    -0.05   0.11  -0.01    -0.02  -0.07  -0.07    -0.07  -0.04  -0.03
  13   6     0.03   0.06  -0.07     0.11  -0.15   0.04    -0.22   0.06   0.01
  14   6     0.21  -0.11  -0.09     0.24  -0.13   0.10    -0.26   0.14   0.04
  15   6     0.29  -0.22  -0.05     0.23  -0.02   0.04    -0.14   0.11   0.01
  16   6     0.21  -0.17  -0.00     0.11   0.07  -0.07     0.00   0.02  -0.03
  17   6     0.01   0.05   0.08    -0.04   0.04  -0.16     0.04  -0.03  -0.03
  18   6     0.03   0.07   0.11    -0.05   0.03  -0.16     0.07  -0.02  -0.04
  19   6     0.03   0.09   0.12    -0.06   0.02  -0.04     0.07   0.01   0.01
  20   6     0.01   0.11   0.09    -0.04   0.01   0.03     0.05   0.02   0.03
  21   6     0.01   0.13   0.06    -0.05  -0.01   0.14     0.05   0.05   0.03
  22   6    -0.00   0.13   0.01    -0.03  -0.02   0.14     0.04   0.07  -0.02
  23   6    -0.01   0.10  -0.04    -0.03  -0.05   0.16     0.04   0.08  -0.06
  24   6     0.06   0.07  -0.08     0.01   0.04  -0.00     0.09   0.23  -0.30
  25   6     0.05  -0.03  -0.08     0.02   0.04  -0.07     0.09   0.21  -0.30
  26   6    -0.03  -0.10  -0.03    -0.02  -0.05   0.04     0.05   0.03  -0.04
  27   6    -0.05  -0.26   0.01    -0.02  -0.00  -0.11     0.03  -0.05   0.03
  28   7    -0.08  -0.46   0.05    -0.01   0.05  -0.28     0.02  -0.16   0.11
  29   6    -0.10  -0.05  -0.03    -0.07  -0.16   0.24     0.01  -0.11   0.18
  30   6    -0.08   0.05  -0.03    -0.07  -0.16   0.30     0.01  -0.07   0.16
  31   6    -0.02   0.12   0.02    -0.01  -0.02   0.04     0.01   0.05  -0.01
  32   6    -0.02   0.11   0.05    -0.00  -0.00  -0.04     0.00   0.03   0.04
  33   6    -0.01   0.10   0.07    -0.03   0.02  -0.03     0.02   0.01   0.04
  34   6    -0.02   0.07   0.06    -0.02   0.03  -0.09     0.02  -0.02   0.03
  35   1    -0.02  -0.00  -0.02    -0.03   0.02  -0.00     0.01   0.02   0.06
  36   1     0.01  -0.01  -0.00    -0.01   0.02  -0.01    -0.00   0.04   0.03
  37   1    -0.01   0.01   0.01    -0.02   0.03  -0.01     0.00   0.02   0.03
  38   1    -0.03   0.04  -0.02     0.02  -0.01   0.00    -0.01  -0.06   0.06
  39   1    -0.03   0.04   0.00     0.02   0.00  -0.03     0.01  -0.02   0.03
  40   1    -0.03   0.03  -0.02    -0.00   0.01  -0.01    -0.03  -0.01   0.07
  41   1    -0.03   0.00  -0.04     0.00   0.02   0.06    -0.01  -0.02   0.06
  42   1    -0.03  -0.02  -0.05     0.00   0.02   0.09    -0.01  -0.03   0.02
  43   1    -0.02  -0.02  -0.01    -0.00   0.02   0.04    -0.00  -0.04  -0.05
  44   1     0.00  -0.02   0.02    -0.01   0.01  -0.04     0.01  -0.03  -0.08
  45   1    -0.05   0.07   0.00    -0.03  -0.03  -0.03    -0.02  -0.03  -0.01
  46   1    -0.01   0.04  -0.03     0.03  -0.07   0.02    -0.09   0.02   0.01
  47   1     0.08  -0.05  -0.04     0.10  -0.06   0.05    -0.11   0.07   0.02
  48   1     0.12  -0.10  -0.02     0.10   0.00   0.02    -0.05   0.05   0.01
  49   1     0.08  -0.07   0.01     0.03   0.04  -0.03     0.02   0.00  -0.01
  50   1     0.01   0.02   0.04    -0.02   0.01  -0.07     0.02  -0.01  -0.02
  51   1     0.02   0.03   0.04    -0.02   0.00  -0.00     0.03   0.00   0.00
  52   1     0.01   0.04   0.02    -0.02  -0.00   0.06     0.02   0.02   0.01
  53   1     0.03   0.03  -0.03     0.01   0.03  -0.03     0.04   0.11  -0.14
  54   1     0.03  -0.02  -0.03     0.01   0.04  -0.06     0.03   0.10  -0.14
  55   1    -0.05  -0.03  -0.00    -0.03  -0.07   0.10    -0.01  -0.07   0.11
  56   1    -0.04   0.02  -0.01    -0.03  -0.07   0.13    -0.00  -0.05   0.09
  57   1    -0.01   0.04   0.00     0.00  -0.01   0.00    -0.01   0.02  -0.01
  58   1    -0.01   0.03   0.02     0.00  -0.00  -0.03    -0.00   0.01   0.02
                      7                      8                      9
                        a                      a                      a 
 Frequencies --    64.3606                78.5307               100.1681
 Red. masses --    10.8928                10.3917                11.1385
 Frc consts  --     0.0000                 0.0000                 0.0000
 IR Inten    --     1.0371                 1.0194                 2.4494
 Raman Activ --     0.0000                 0.0000                 0.0000
 Depolar     --     0.0000                 0.0000                 0.0000
 Atom AN      X      Y      Z        X      Y      Z        X      Y      Z
   1   6    -0.09  -0.08  -0.16     0.07   0.01  -0.02    -0.16   0.12   0.06
   2   6    -0.02  -0.01  -0.12    -0.02   0.01  -0.04    -0.04   0.04   0.06
   3   6    -0.00   0.06  -0.20    -0.09   0.02  -0.01     0.01   0.02   0.05
   4   6    -0.02  -0.06  -0.05    -0.02  -0.01  -0.08    -0.04  -0.00   0.11
   5   6    -0.05  -0.08   0.04    -0.04  -0.02  -0.26    -0.09  -0.03   0.13
   6   6    -0.04  -0.11   0.17    -0.04  -0.03  -0.18    -0.10  -0.09  -0.04
   7   6    -0.01  -0.13   0.20    -0.02  -0.03   0.14    -0.07  -0.12  -0.23
   8   6     0.02  -0.11   0.09     0.00  -0.02   0.30    -0.02  -0.09  -0.17
   9   6     0.02  -0.08  -0.03    -0.00  -0.01   0.15    -0.01  -0.03   0.03
  10   7     0.06  -0.06  -0.15     0.01  -0.00   0.22     0.04   0.00   0.16
  11   6     0.05  -0.05  -0.08     0.01  -0.01   0.13     0.06  -0.01   0.10
  12   6    -0.00  -0.09  -0.05     0.11   0.03   0.08     0.05   0.06   0.06
  13   6    -0.14   0.00   0.01     0.09   0.04  -0.02    -0.00   0.10  -0.00
  14   6    -0.23   0.13   0.04    -0.03   0.02  -0.07    -0.05   0.06  -0.03
  15   6    -0.15   0.14   0.01    -0.13  -0.02  -0.02    -0.02  -0.02  -0.00
  16   6    -0.01   0.05  -0.05    -0.10  -0.03   0.08     0.03  -0.06   0.07
  17   6     0.05  -0.02  -0.10     0.01   0.00  -0.02     0.04   0.04   0.07
  18   6     0.08   0.00  -0.06     0.02  -0.00  -0.22     0.05   0.05   0.09
  19   6     0.08   0.04   0.03     0.02  -0.00  -0.34     0.05   0.07  -0.01
  20   6     0.06   0.07   0.06     0.01   0.02  -0.19     0.02   0.08  -0.12
  21   6     0.06   0.10   0.14     0.01   0.03  -0.14     0.02   0.06  -0.12
  22   6     0.04   0.11   0.15     0.01   0.04   0.05     0.03   0.05  -0.13
  23   6     0.04   0.10   0.14     0.01   0.02   0.09     0.02  -0.03   0.02
  24   6     0.08  -0.02   0.23     0.05   0.07  -0.02     0.01  -0.10   0.13
  25   6     0.08  -0.07   0.18     0.05   0.06  -0.05    -0.00  -0.16   0.22
  26   6     0.02  -0.01   0.02     0.02  -0.02   0.06     0.00  -0.14   0.19
  27   6     0.01  -0.10  -0.07     0.02  -0.02  -0.04     0.02  -0.04  -0.00
  28   7    -0.00  -0.24  -0.20     0.02  -0.04  -0.17     0.05   0.13  -0.33
  29   6    -0.02   0.11  -0.08    -0.02  -0.10   0.20     0.01  -0.13   0.18
  30   6    -0.02   0.16  -0.02    -0.01  -0.08   0.20     0.01  -0.08   0.10
  31   6     0.02   0.10   0.07     0.00   0.04   0.17     0.04   0.05  -0.23
  32   6     0.01   0.06  -0.03     0.00   0.03   0.12     0.04   0.06  -0.24
  33   6     0.03   0.05  -0.02    -0.00   0.02  -0.04     0.02   0.07  -0.14
  34   6     0.02   0.01  -0.08    -0.00   0.01  -0.03     0.01   0.06  -0.02
  35   1    -0.07  -0.04  -0.07     0.03   0.01  -0.01    -0.05   0.03   0.04
  36   1    -0.00  -0.06  -0.04     0.03   0.01  -0.01    -0.06   0.04   0.02
  37   1    -0.02   0.01  -0.04     0.03  -0.01   0.02    -0.05   0.04  -0.01
  38   1     0.00   0.04  -0.06    -0.05   0.05  -0.04     0.02  -0.04   0.06
  39   1    -0.00   0.03  -0.05    -0.07  -0.01   0.04     0.05   0.02  -0.03
  40   1     0.00   0.01  -0.08     0.02  -0.01   0.00    -0.05   0.03   0.02
  41   1    -0.02  -0.02  -0.00    -0.02  -0.01  -0.13    -0.04  -0.00   0.07
  42   1    -0.02  -0.04   0.07    -0.02  -0.01  -0.10    -0.04  -0.03  -0.01
  43   1    -0.00  -0.05   0.09    -0.00  -0.01   0.07    -0.02  -0.05  -0.12
  44   1     0.01  -0.04   0.03     0.01  -0.01   0.15     0.00  -0.03  -0.08
  45   1     0.01  -0.05  -0.02     0.06   0.01   0.03     0.02   0.03   0.03
  46   1    -0.06  -0.00   0.01     0.05   0.02  -0.02    -0.01   0.05  -0.01
  47   1    -0.10   0.06   0.03    -0.02   0.01  -0.04    -0.03   0.03  -0.03
  48   1    -0.06   0.07   0.01    -0.06  -0.01  -0.02    -0.01  -0.02  -0.01
  49   1     0.01   0.02  -0.02    -0.05  -0.02   0.03     0.01  -0.03   0.03
  50   1     0.03  -0.00  -0.03     0.01  -0.00  -0.08     0.02   0.02   0.05
  51   1     0.03   0.02   0.02     0.01  -0.00  -0.15     0.02   0.02   0.00
  52   1     0.02   0.03   0.05    -0.00   0.00  -0.07     0.00   0.02  -0.02
  53   1     0.03  -0.02   0.10     0.02   0.04  -0.03     0.00  -0.03   0.03
  54   1     0.03  -0.05   0.07     0.02   0.03  -0.04    -0.00  -0.06   0.08
  55   1    -0.02   0.05  -0.06    -0.01  -0.05   0.08     0.00  -0.04   0.06
  56   1    -0.02   0.08  -0.03    -0.01  -0.04   0.08     0.01  -0.02   0.02
  57   1     0.00   0.03   0.02    -0.00   0.02   0.09     0.01   0.01  -0.08
  58   1    -0.00   0.01  -0.04     0.00   0.01   0.07     0.01   0.02  -0.08
                     10                     11                     12
                        a                      a                      a 
 Frequencies --   112.9176               122.1231               149.4721
 Red. masses --    10.3796                 9.3984                10.3499
 Frc consts  --     0.0000                 0.0000                 0.0000
 IR Inten    --     3.9623                 1.0523                 4.9869
 Raman Activ --     0.0000                 0.0000                 0.0000
 Depolar     --     0.0000                 0.0000                 0.0000
 Atom AN      X      Y      Z        X      Y      Z        X      Y      Z
   1   6    -0.06  -0.09  -0.04     0.16   0.31   0.07    -0.17   0.13  -0.01
   2   6    -0.06   0.07   0.01    -0.01   0.02  -0.08    -0.02   0.02  -0.01
   3   6    -0.09   0.25  -0.13    -0.18  -0.20   0.18     0.12  -0.04  -0.02
   4   6    -0.07   0.02   0.01    -0.02  -0.01  -0.21    -0.01   0.01   0.09
   5   6    -0.14  -0.02   0.04    -0.05  -0.03  -0.24    -0.04  -0.01   0.05
   6   6    -0.14  -0.09   0.06    -0.04  -0.05  -0.04    -0.05  -0.04  -0.07
   7   6    -0.09  -0.12   0.05    -0.01  -0.05   0.25    -0.03  -0.05  -0.13
   8   6    -0.03  -0.08  -0.01     0.01  -0.04   0.21    -0.01  -0.03  -0.01
   9   6    -0.03  -0.01  -0.03     0.00  -0.02  -0.05    -0.00  -0.00   0.09
  10   7     0.02   0.03  -0.09     0.02  -0.01  -0.12     0.01   0.01   0.15
  11   6     0.05   0.01  -0.06     0.03  -0.01  -0.07     0.02   0.00   0.11
  12   6     0.03  -0.01  -0.04     0.01  -0.04  -0.05     0.05   0.05   0.07
  13   6    -0.00   0.01   0.00    -0.02  -0.03  -0.00     0.04   0.06  -0.00
  14   6    -0.01   0.06   0.02    -0.03   0.03   0.02    -0.00   0.02  -0.03
  15   6     0.02   0.08   0.00     0.01   0.05  -0.00    -0.03  -0.03   0.00
  16   6     0.05   0.05  -0.04     0.04   0.02  -0.05    -0.01  -0.04   0.07
  17   6     0.02   0.07   0.02     0.02   0.02  -0.06     0.01   0.01  -0.09
  18   6     0.01   0.07  -0.01     0.02   0.03   0.14     0.00   0.00  -0.22
  19   6     0.00   0.06  -0.02     0.02   0.05   0.23    -0.00   0.00  -0.09
  20   6    -0.00   0.06   0.03     0.01   0.05   0.07    -0.00   0.01   0.06
  21   6    -0.01   0.00  -0.07     0.00   0.04   0.07    -0.01   0.01   0.31
  22   6     0.04  -0.04  -0.04     0.01   0.03  -0.05     0.01  -0.00   0.25
  23   6     0.03  -0.12  -0.10    -0.00  -0.02  -0.05     0.01  -0.03   0.16
  24   6     0.06  -0.14  -0.10     0.01  -0.07  -0.02     0.11  -0.04   0.05
  25   6     0.05  -0.18  -0.09     0.00  -0.13   0.01     0.11  -0.07  -0.15
  26   6     0.04  -0.20  -0.07    -0.02  -0.13   0.00     0.01  -0.07  -0.25
  27   6     0.06  -0.02   0.02    -0.01  -0.03   0.01     0.01  -0.04  -0.11
  28   7     0.11   0.38   0.21     0.02   0.22   0.05     0.03   0.16   0.34
  29   6     0.02  -0.19  -0.05    -0.03  -0.10  -0.02    -0.09  -0.02  -0.20
  30   6     0.02  -0.15  -0.07    -0.03  -0.05  -0.04    -0.09   0.00   0.02
  31   6     0.06  -0.01   0.13     0.01   0.03  -0.09     0.02  -0.01   0.02
  32   6     0.06   0.05   0.22     0.01   0.04  -0.06     0.02  -0.01  -0.16
  33   6     0.01   0.08   0.15     0.01   0.04  -0.06     0.00   0.01  -0.11
  34   6     0.00   0.09   0.12     0.00   0.02  -0.14     0.00   0.01  -0.13
  35   1    -0.16  -0.08  -0.09     0.16   0.13   0.11     0.07   0.08   0.07
  36   1     0.12  -0.15  -0.01    -0.02   0.21  -0.02    -0.17   0.14   0.01
  37   1     0.01   0.11   0.06     0.04  -0.00   0.01    -0.07  -0.07  -0.08
  38   1    -0.04   0.14  -0.08    -0.06  -0.17   0.08     0.04   0.05  -0.02
  39   1    -0.06   0.08   0.02    -0.01  -0.06   0.00    -0.00  -0.05   0.01
  40   1     0.02   0.03  -0.08    -0.11   0.00   0.13     0.10  -0.04  -0.01
  41   1    -0.06   0.00   0.01    -0.02  -0.01  -0.11    -0.02   0.00   0.02
  42   1    -0.05  -0.03   0.03    -0.02  -0.02  -0.01    -0.02  -0.01  -0.04
  43   1    -0.03  -0.05   0.02     0.00  -0.02   0.14    -0.01  -0.02  -0.07
  44   1     0.00  -0.03  -0.01     0.01  -0.01   0.12     0.00  -0.01  -0.01
  45   1     0.01  -0.01  -0.02     0.00  -0.02  -0.02     0.02   0.03   0.03
  46   1    -0.01  -0.00   0.01    -0.01  -0.01   0.00     0.02   0.03  -0.01
  47   1    -0.01   0.02   0.02    -0.02   0.01   0.02    -0.00   0.01  -0.02
  48   1     0.00   0.03   0.01     0.00   0.02   0.00    -0.02  -0.02  -0.01
  49   1     0.02   0.02  -0.02     0.02   0.01  -0.02    -0.01  -0.02   0.03
  50   1     0.00   0.02  -0.02     0.01   0.01   0.07    -0.00  -0.00  -0.10
  51   1     0.00   0.02  -0.02     0.01   0.02   0.11    -0.00   0.00  -0.03
  52   1    -0.02  -0.01  -0.05     0.00   0.01   0.05    -0.00   0.01   0.13
  53   1     0.02  -0.04  -0.03     0.01  -0.02  -0.01     0.06  -0.01   0.04
  54   1     0.02  -0.05  -0.03     0.01  -0.05   0.01     0.06  -0.03  -0.06
  55   1    -0.00  -0.06  -0.01    -0.02  -0.03  -0.01    -0.05  -0.00  -0.09
  56   1     0.00  -0.04  -0.02    -0.01  -0.01  -0.02    -0.05   0.01   0.02
  57   1     0.02  -0.01   0.05     0.01   0.01  -0.03     0.01  -0.01  -0.01
  58   1     0.03   0.02   0.09     0.00   0.01  -0.01     0.01  -0.01  -0.10
                     13                     14                     15
                        a                      a                      a 
 Frequencies --   152.7878               158.4879               176.6341
 Red. masses --    10.0802                 4.0702                10.6388
 Frc consts  --     0.0000                 0.0000                 0.0000
 IR Inten    --     1.8955                 0.9785                 0.5684
 Raman Activ --     0.0000                 0.0000                 0.0000
 Depolar     --     0.0000                 0.0000                 0.0000
 Atom AN      X      Y      Z        X      Y      Z        X      Y      Z
   1   6    -0.07   0.15   0.02    -0.07   0.17   0.04     0.02  -0.02   0.10
   2   6    -0.09   0.05  -0.04    -0.02   0.05  -0.00     0.03   0.04   0.12
   3   6    -0.16   0.01   0.02     0.14   0.01  -0.04     0.02   0.12   0.07
   4   6    -0.11   0.03  -0.06    -0.03   0.02   0.05     0.02   0.02   0.09
   5   6    -0.15   0.01  -0.03    -0.10  -0.01  -0.01    -0.06  -0.03  -0.07
   6   6    -0.16  -0.03   0.01    -0.10  -0.07  -0.02    -0.07  -0.12  -0.18
   7   6    -0.14  -0.04   0.02    -0.07  -0.08   0.02    -0.01  -0.15  -0.00
   8   6    -0.10  -0.02   0.02    -0.02  -0.05   0.02     0.07  -0.10   0.17
   9   6    -0.09   0.03  -0.01    -0.02   0.01   0.01     0.07   0.00   0.10
  10   7    -0.06   0.06   0.04    -0.01   0.02  -0.08     0.11   0.04  -0.07
  11   6    -0.05   0.05   0.03     0.00   0.01  -0.06     0.14   0.04  -0.07
  12   6    -0.03   0.06   0.02    -0.01  -0.01  -0.04     0.14   0.03  -0.06
  13   6     0.02   0.03  -0.00    -0.02  -0.01   0.00     0.07   0.07  -0.01
  14   6     0.04  -0.01  -0.01     0.01   0.02   0.02     0.02   0.17   0.02
  15   6    -0.00   0.00   0.00     0.03   0.04   0.00     0.08   0.16   0.01
  16   6    -0.05   0.03   0.02     0.03   0.04  -0.04     0.16   0.09  -0.04
  17   6    -0.05   0.06  -0.01    -0.01   0.03  -0.00     0.07   0.02  -0.04
  18   6    -0.08   0.06   0.03    -0.03   0.03   0.14     0.01  -0.02  -0.24
  19   6    -0.08   0.01   0.02    -0.03  -0.00   0.11    -0.01  -0.05  -0.05
  20   6    -0.03  -0.03  -0.02    -0.02  -0.02  -0.02    -0.02  -0.04   0.16
  21   6    -0.03  -0.12   0.03    -0.02  -0.06  -0.09    -0.03  -0.09   0.21
  22   6     0.06  -0.18   0.06     0.01  -0.07  -0.06    -0.05  -0.11  -0.05
  23   6     0.10  -0.14   0.08     0.02  -0.05  -0.03    -0.07  -0.09  -0.05
  24   6     0.07  -0.07   0.04    -0.03  -0.02  -0.01    -0.19  -0.03  -0.01
  25   6     0.10   0.11  -0.03    -0.02   0.06   0.03    -0.18   0.07   0.04
  26   6     0.21   0.19  -0.07     0.06   0.09   0.05    -0.12   0.12   0.03
  27   6     0.20   0.09  -0.03     0.06   0.05   0.03    -0.13   0.09   0.02
  28   7     0.17  -0.29   0.04     0.04  -0.14  -0.08    -0.17  -0.11  -0.06
  29   6     0.25   0.13  -0.05     0.11   0.05   0.04    -0.02   0.05  -0.00
  30   6     0.22  -0.05   0.04     0.10  -0.03  -0.00    -0.03  -0.07  -0.04
  31   6     0.08  -0.17   0.00     0.01  -0.06   0.03     0.02  -0.10  -0.25
  32   6     0.08  -0.09  -0.07     0.02  -0.04   0.05     0.04  -0.04  -0.04
  33   6    -0.01  -0.01  -0.07    -0.01  -0.01  -0.02     0.03  -0.01   0.14
  34   6    -0.03   0.05  -0.07    -0.01   0.03  -0.06     0.05   0.04   0.14
  35   1    -0.14   0.00  -0.01     0.13   0.11   0.09    -0.02  -0.02   0.01
  36   1     0.09  -0.02  -0.02    -0.15   0.17   0.01     0.03  -0.04   0.04
  37   1    -0.00   0.17   0.06    -0.04  -0.09  -0.05     0.01   0.02   0.03
  38   1    -0.02  -0.14   0.09    -0.02   0.39  -0.23     0.01   0.02   0.03
  39   1     0.07   0.06  -0.09    -0.26  -0.19   0.22     0.03   0.06   0.01
  40   1    -0.19   0.08   0.03     0.45  -0.19  -0.04    -0.03   0.04   0.00
  41   1    -0.05   0.01  -0.00    -0.04   0.00  -0.02    -0.04   0.00  -0.03
  42   1    -0.05  -0.01   0.01    -0.04  -0.02  -0.02    -0.04  -0.04  -0.11
  43   1    -0.04  -0.02   0.01    -0.02  -0.04   0.01    -0.00  -0.06  -0.00
  44   1    -0.02  -0.01   0.01     0.01  -0.02   0.00     0.04  -0.04   0.08
  45   1    -0.01   0.03   0.01    -0.01  -0.01  -0.02     0.05  -0.00  -0.02
  46   1     0.01   0.01  -0.00    -0.01  -0.01   0.00     0.01   0.01   0.00
  47   1     0.03  -0.01  -0.01     0.00   0.01   0.01    -0.02   0.06   0.01
  48   1     0.00  -0.01  -0.00     0.01   0.02   0.00     0.02   0.06   0.00
  49   1    -0.02   0.01   0.01     0.01   0.02  -0.02     0.06   0.03  -0.02
  50   1    -0.03   0.02   0.02    -0.01   0.01   0.07    -0.01  -0.00  -0.15
  51   1    -0.04  -0.00   0.02    -0.02  -0.00   0.06    -0.01  -0.02  -0.04
  52   1    -0.03  -0.04   0.01    -0.01  -0.02  -0.04    -0.01  -0.02   0.10
  53   1     0.00  -0.04   0.02    -0.02  -0.01  -0.01    -0.08  -0.02  -0.01
  54   1     0.01   0.05  -0.01    -0.02   0.03   0.01    -0.07   0.03   0.02
  55   1     0.09   0.06  -0.03     0.05   0.02   0.02     0.02   0.03   0.00
  56   1     0.08  -0.04   0.02     0.04  -0.02  -0.00     0.00  -0.03  -0.01
  57   1     0.03  -0.06   0.00     0.01  -0.02   0.02     0.02  -0.05  -0.15
  58   1     0.04  -0.02  -0.03     0.01  -0.01   0.04     0.01  -0.01  -0.02
                     16                     17                     18
                        a                      a                      a 
 Frequencies --   178.8051               193.3698               216.1088
 Red. masses --     9.7357                 4.4525                10.0472
 Frc consts  --     0.0000                 0.0000                 0.0000
 IR Inten    --     1.5361                 0.4848                 0.5339
 Raman Activ --     0.0000                 0.0000                 0.0000
 Depolar     --     0.0000                 0.0000                 0.0000
 Atom AN      X      Y      Z        X      Y      Z        X      Y      Z
   1   6     0.09   0.19  -0.05    -0.03   0.17   0.10     0.21   0.06  -0.06
   2   6     0.06   0.02  -0.13     0.02   0.00   0.03     0.00   0.02  -0.11
   3   6     0.04  -0.06  -0.05     0.08  -0.10   0.09    -0.11   0.01  -0.06
   4   6     0.06  -0.00  -0.12     0.02  -0.02   0.03    -0.01   0.01  -0.22
   5   6     0.01  -0.03   0.04     0.06   0.00  -0.04    -0.03  -0.00  -0.02
   6   6     0.02  -0.09   0.17     0.06   0.06  -0.13    -0.02  -0.02   0.31
   7   6     0.04  -0.11   0.01     0.03   0.09  -0.03    -0.02  -0.03   0.07
   8   6     0.08  -0.08  -0.14    -0.00   0.06   0.10    -0.01  -0.02  -0.29
   9   6     0.08  -0.02  -0.10    -0.00  -0.00   0.06    -0.01   0.00  -0.18
  10   7     0.10   0.01   0.10    -0.04  -0.04   0.01    -0.01   0.00   0.17
  11   6     0.13   0.01   0.10    -0.07  -0.04   0.01    -0.02   0.01   0.20
  12   6     0.16   0.06   0.06    -0.08  -0.05   0.01     0.03   0.09   0.15
  13   6     0.07   0.13  -0.01    -0.05  -0.08   0.01     0.05   0.08   0.00
  14   6    -0.01   0.13  -0.03    -0.03  -0.11   0.00     0.01  -0.02  -0.06
  15   6     0.04   0.03   0.01    -0.06  -0.08  -0.00    -0.07  -0.09   0.00
  16   6     0.12  -0.02   0.08    -0.09  -0.06  -0.00    -0.08  -0.07   0.15
  17   6     0.07   0.01   0.02    -0.02  -0.02  -0.08    -0.01   0.01  -0.04
  18   6     0.01  -0.00   0.20     0.01  -0.01  -0.09    -0.01  -0.00  -0.24
  19   6     0.00  -0.05   0.04     0.01   0.02   0.05    -0.01  -0.00  -0.06
  20   6    -0.02  -0.05  -0.14     0.02   0.02   0.08    -0.00   0.01   0.20
  21   6    -0.04  -0.08  -0.13     0.03   0.05   0.16     0.00   0.00   0.26
  22   6    -0.06  -0.06   0.08     0.01   0.05  -0.02     0.00  -0.02  -0.05
  23   6    -0.10  -0.05   0.10     0.02   0.06  -0.03     0.01   0.00  -0.14
  24   6    -0.13   0.00   0.05     0.04   0.03  -0.02    -0.03   0.02  -0.11
  25   6    -0.13   0.08  -0.07     0.03  -0.03   0.03    -0.04  -0.01   0.05
  26   6    -0.16   0.09  -0.10     0.01  -0.05   0.04     0.01  -0.03   0.12
  27   6    -0.17   0.06  -0.06     0.01  -0.04   0.03     0.01  -0.02   0.10
  28   7    -0.20  -0.03   0.09     0.03   0.04  -0.03     0.02   0.01  -0.11
  29   6    -0.14   0.02  -0.03    -0.00  -0.01   0.00     0.06   0.00   0.02
  30   6    -0.14  -0.05   0.06     0.00   0.05  -0.03     0.06   0.01  -0.11
  31   6    -0.00  -0.03   0.19    -0.01   0.03  -0.16     0.00  -0.02  -0.14
  32   6     0.01  -0.02   0.01    -0.01  -0.00  -0.08     0.00  -0.00   0.09
  33   6     0.02  -0.03  -0.15    -0.00  -0.00  -0.05    -0.00   0.00   0.13
  34   6     0.05   0.01  -0.17    -0.01  -0.02  -0.08    -0.01   0.01  -0.01
  35   1    -0.15  -0.01  -0.04    -0.39  -0.09  -0.06     0.11   0.04  -0.00
  36   1     0.19  -0.04  -0.06     0.32  -0.19  -0.02     0.05   0.06  -0.04
  37   1     0.05   0.25   0.07     0.04   0.45   0.17     0.06  -0.03   0.01
  38   1     0.00  -0.01  -0.03    -0.00   0.12  -0.06    -0.06   0.06  -0.07
  39   1    -0.01  -0.04  -0.00    -0.11  -0.13   0.12    -0.09  -0.02   0.04
  40   1     0.04  -0.02   0.01     0.20  -0.11   0.03     0.04  -0.02  -0.01
  41   1    -0.01  -0.00   0.03     0.03  -0.00  -0.01    -0.01   0.00  -0.00
  42   1    -0.00  -0.03   0.10     0.03   0.02  -0.07    -0.00  -0.00   0.19
  43   1     0.01  -0.04   0.01     0.01   0.03  -0.01    -0.00  -0.01   0.05
  44   1     0.03  -0.03  -0.06    -0.01   0.02   0.05    -0.00  -0.01  -0.13
  45   1     0.06   0.03   0.03    -0.03  -0.02   0.00     0.02   0.05   0.06
  46   1     0.02   0.05  -0.01    -0.01  -0.02   0.00     0.03   0.04  -0.02
  47   1    -0.03   0.06  -0.02     0.00  -0.04   0.00     0.01  -0.01  -0.04
  48   1    -0.00  -0.00  -0.01    -0.01  -0.02   0.00    -0.03  -0.05  -0.01
  49   1     0.04  -0.02   0.03    -0.03  -0.02   0.00    -0.04  -0.04   0.06
  50   1    -0.00   0.01   0.12     0.01  -0.01  -0.04    -0.00  -0.01  -0.14
  51   1     0.00  -0.01   0.04     0.00   0.01   0.03    -0.01  -0.00  -0.05
  52   1    -0.01  -0.02  -0.05     0.01   0.02   0.09     0.00   0.01   0.11
  53   1    -0.04  -0.01   0.02     0.01   0.02  -0.01    -0.02   0.01  -0.05
  54   1    -0.03   0.03  -0.04     0.01  -0.02   0.02    -0.03  -0.00   0.03
  55   1    -0.03   0.01  -0.01    -0.01  -0.00   0.00     0.03   0.00   0.02
  56   1    -0.05  -0.02   0.03    -0.00   0.02  -0.01     0.03   0.00  -0.05
  57   1     0.01  -0.01   0.11    -0.01   0.01  -0.07    -0.00  -0.01  -0.09
  58   1     0.01  -0.01   0.02    -0.00  -0.00  -0.00     0.00   0.00   0.04
                     19                     20                     21
                        a                      a                      a 
 Frequencies --   229.6981               248.7327               252.7375
 Red. masses --    10.5385                10.3868                 9.6547
 Frc consts  --     0.0000                 0.0000                 0.0000
 IR Inten    --     0.1927                 1.0096                 0.8602
 Raman Activ --     0.0000                 0.0000                 0.0000
 Depolar     --     0.0000                 0.0000                 0.0000
 Atom AN      X      Y      Z        X      Y      Z        X      Y      Z
   1   6    -0.07  -0.20  -0.04    -0.25   0.08  -0.08     0.01  -0.27   0.02
   2   6    -0.04  -0.14  -0.01    -0.06  -0.02  -0.08    -0.09  -0.09   0.06
   3   6    -0.02  -0.28   0.08    -0.01  -0.09  -0.05    -0.18  -0.17   0.16
   4   6    -0.05   0.00  -0.01    -0.05   0.00   0.05    -0.10  -0.01  -0.07
   5   6    -0.09  -0.02  -0.00     0.03   0.05   0.06    -0.00   0.05  -0.09
   6   6    -0.10  -0.09   0.00     0.03   0.12  -0.06     0.01   0.14   0.08
   7   6    -0.07  -0.10   0.00    -0.01   0.14  -0.07    -0.04   0.16   0.08
   8   6    -0.03  -0.07   0.01    -0.07   0.09   0.07    -0.12   0.10  -0.10
   9   6    -0.03   0.02   0.00    -0.06   0.01   0.06    -0.11   0.01  -0.09
  10   7     0.03   0.08   0.00    -0.02   0.03   0.01    -0.04   0.04  -0.01
  11   6    -0.04   0.19  -0.00     0.13  -0.06   0.03     0.12  -0.03  -0.01
  12   6    -0.06   0.30  -0.04     0.28  -0.11   0.02     0.25  -0.09  -0.01
  13   6     0.10   0.21  -0.03     0.08   0.02  -0.01     0.08   0.03  -0.01
  14   6     0.28   0.14   0.00    -0.16   0.17  -0.01    -0.12   0.18  -0.00
  15   6     0.09   0.22   0.02     0.08  -0.01   0.01     0.10   0.03   0.01
  16   6    -0.06   0.30   0.02     0.27  -0.14   0.03     0.25  -0.08   0.01
  17   6     0.00  -0.10  -0.02    -0.03   0.00  -0.12    -0.04  -0.01   0.09
  18   6    -0.01  -0.11   0.01    -0.05  -0.01  -0.07    -0.02  -0.01   0.04
  19   6     0.00  -0.11   0.03    -0.05  -0.04   0.09    -0.02   0.03  -0.07
  20   6     0.02  -0.11  -0.00    -0.03  -0.05   0.10    -0.02   0.03  -0.07
  21   6     0.05  -0.01   0.02    -0.02  -0.06   0.06    -0.02   0.05  -0.01
  22   6    -0.00   0.04   0.03    -0.02  -0.05   0.05    -0.01   0.04  -0.05
  23   6     0.02   0.12  -0.03     0.00   0.03  -0.15     0.00  -0.01   0.11
  24   6     0.08   0.10  -0.06    -0.01   0.07  -0.19     0.05  -0.06   0.13
  25   6     0.07  -0.03   0.01    -0.02   0.01   0.01     0.06  -0.03  -0.00
  26   6     0.02  -0.10   0.09     0.02  -0.08   0.18     0.06   0.04  -0.13
  27   6     0.02  -0.10   0.07     0.03  -0.08   0.18     0.06   0.04  -0.13
  28   7     0.05   0.08  -0.06     0.05   0.05  -0.15     0.06  -0.04   0.11
  29   6    -0.02  -0.01   0.02     0.06   0.00   0.03    -0.00   0.01  -0.02
  30   6    -0.01   0.12  -0.06     0.07   0.07  -0.18    -0.01  -0.04   0.14
  31   6    -0.07   0.01   0.04    -0.05  -0.05   0.26    -0.03   0.03  -0.23
  32   6    -0.07  -0.08  -0.01    -0.04  -0.06   0.12    -0.04   0.02  -0.10
  33   6    -0.01  -0.12  -0.05    -0.04  -0.06  -0.01    -0.03   0.02  -0.00
  34   6    -0.00  -0.13  -0.06    -0.03  -0.02  -0.15    -0.04  -0.03   0.10
  35   1    -0.07  -0.08  -0.04    -0.08   0.02   0.01    -0.01  -0.09  -0.06
  36   1     0.01  -0.11   0.00    -0.09   0.03  -0.01     0.03  -0.13   0.03
  37   1    -0.02  -0.02  -0.00    -0.08   0.04  -0.06     0.01  -0.07   0.03
  38   1    -0.01  -0.07   0.01     0.01  -0.08   0.03    -0.09   0.05  -0.04
  39   1    -0.04  -0.12   0.03     0.03  -0.01  -0.06    -0.16  -0.12   0.13
  40   1     0.04  -0.08   0.06    -0.05   0.00  -0.00     0.09  -0.10   0.08
  41   1    -0.04   0.00   0.00     0.03   0.00   0.03     0.02   0.00  -0.04
  42   1    -0.04  -0.03   0.00     0.02   0.04  -0.04     0.02   0.05   0.06
  43   1    -0.02  -0.04   0.00    -0.00   0.05  -0.05    -0.01   0.06   0.06
  44   1    -0.00  -0.02   0.00    -0.03   0.03   0.03    -0.05   0.04  -0.04
  45   1    -0.03   0.11  -0.00     0.12  -0.05   0.01     0.10  -0.04  -0.00
  46   1     0.03   0.05  -0.00     0.02   0.01  -0.00     0.02   0.01  -0.00
  47   1     0.14   0.00   0.00    -0.13   0.10  -0.01    -0.11   0.10  -0.00
  48   1     0.03   0.05   0.00     0.02  -0.01  -0.00     0.03   0.01   0.00
  49   1    -0.03   0.11  -0.00     0.11  -0.06   0.01     0.11  -0.04  -0.00
  50   1    -0.00  -0.03   0.01    -0.01  -0.00  -0.02     0.01  -0.01   0.01
  51   1    -0.00  -0.03   0.02    -0.02  -0.01   0.06    -0.00   0.01  -0.04
  52   1     0.03   0.00   0.01    -0.01  -0.02  -0.01    -0.01   0.02   0.03
  53   1     0.04   0.05  -0.03    -0.00   0.03  -0.08     0.02  -0.02   0.06
  54   1     0.03  -0.02   0.01    -0.02   0.01   0.01     0.02  -0.01  -0.00
  55   1    -0.02  -0.01   0.00     0.03  -0.00   0.02    -0.01   0.00  -0.02
  56   1    -0.01   0.05  -0.03     0.03   0.03  -0.08    -0.01  -0.02   0.06
  57   1    -0.03   0.02   0.03    -0.02  -0.01   0.11    -0.01   0.01  -0.10
  58   1    -0.04  -0.03  -0.00    -0.02  -0.02   0.01    -0.02   0.01  -0.00
                     22                     23                     24
                        a                      a                      a 
 Frequencies --   283.9002               311.2463               328.1391
 Red. masses --    10.5045                 9.4859                10.9781
 Frc consts  --     0.0000                 0.0000                 0.0000
 IR Inten    --     0.5560                 0.4287                 3.1186
 Raman Activ --     0.0000                 0.0000                 0.0000
 Depolar     --     0.0000                 0.0000                 0.0000
 Atom AN      X      Y      Z        X      Y      Z        X      Y      Z
   1   6    -0.19  -0.14  -0.12     0.45  -0.23  -0.03     0.09   0.14  -0.02
   2   6    -0.06  -0.09  -0.07     0.05   0.03  -0.01     0.03   0.00  -0.07
   3   6    -0.04  -0.27   0.05     0.34  -0.18   0.02     0.03   0.08  -0.12
   4   6    -0.02  -0.07   0.02    -0.00   0.13   0.04     0.06  -0.00   0.00
   5   6     0.06  -0.02   0.06    -0.15   0.05   0.14     0.05  -0.01   0.12
   6   6     0.07   0.03  -0.02    -0.19  -0.07  -0.02     0.05  -0.05  -0.02
   7   6     0.04   0.05  -0.05    -0.15  -0.10  -0.08     0.06  -0.06  -0.09
   8   6    -0.02   0.00   0.04    -0.02  -0.02   0.10     0.08  -0.04   0.09
   9   6    -0.02  -0.05   0.04    -0.02   0.10   0.08     0.07  -0.00   0.04
  10   7     0.03  -0.02   0.01    -0.09   0.07  -0.01    -0.01  -0.03  -0.03
  11   6    -0.01   0.01   0.06    -0.03   0.01   0.01    -0.01   0.01   0.05
  12   6    -0.07   0.08   0.04     0.05  -0.07   0.02     0.06   0.05   0.02
  13   6    -0.01   0.05  -0.00     0.01  -0.05   0.01     0.06   0.06  -0.02
  14   6     0.08  -0.04  -0.01    -0.11  -0.00  -0.00     0.02   0.09  -0.02
  15   6    -0.04  -0.00   0.00     0.01  -0.06  -0.01     0.03   0.02   0.01
  16   6    -0.09   0.04   0.04     0.04  -0.08  -0.00     0.04   0.01   0.06
  17   6     0.05  -0.01  -0.16    -0.08   0.05  -0.10    -0.05  -0.10  -0.13
  18   6     0.09   0.02  -0.11    -0.09   0.07  -0.04    -0.07  -0.12  -0.12
  19   6     0.10   0.16   0.13    -0.09   0.13   0.08    -0.06  -0.10   0.16
  20   6     0.04   0.20   0.12    -0.07   0.11  -0.02    -0.10  -0.06   0.12
  21   6     0.01   0.11  -0.00    -0.08   0.05   0.01    -0.08   0.11  -0.12
  22   6     0.04   0.05  -0.10    -0.02   0.00   0.03    -0.12   0.16  -0.21
  23   6    -0.01  -0.18  -0.12    -0.01  -0.01  -0.01    -0.08   0.07  -0.07
  24   6    -0.14  -0.19   0.02    -0.00   0.00  -0.04     0.01  -0.11   0.09
  25   6    -0.14   0.01   0.02    -0.00   0.01  -0.01     0.03  -0.12   0.06
  26   6    -0.04   0.13  -0.08     0.02  -0.01   0.03     0.15   0.06  -0.14
  27   6    -0.04   0.18  -0.07     0.02  -0.01   0.04     0.19   0.10  -0.19
  28   7    -0.09  -0.10   0.04     0.03   0.00  -0.02     0.18  -0.09   0.11
  29   6     0.07  -0.05   0.03     0.02   0.01  -0.01     0.03  -0.01   0.08
  30   6     0.05  -0.23   0.01     0.01   0.01  -0.03     0.00  -0.04   0.16
  31   6     0.11   0.11   0.12     0.02   0.02   0.06    -0.24   0.13  -0.07
  32   6     0.11   0.18   0.15     0.03   0.07  -0.05    -0.26  -0.02   0.12
  33   6     0.06   0.19   0.03    -0.04   0.10  -0.11    -0.15  -0.09   0.11
  34   6     0.04  -0.00  -0.14    -0.05   0.02  -0.07    -0.11  -0.06  -0.04
  35   1    -0.05  -0.04  -0.05     0.16  -0.06  -0.10     0.02   0.04   0.03
  36   1    -0.08  -0.06  -0.00     0.18  -0.10  -0.02     0.04   0.06  -0.04
  37   1    -0.06  -0.05  -0.06     0.15  -0.11   0.08     0.03   0.06   0.01
  38   1    -0.02  -0.09   0.01     0.14  -0.07   0.06     0.02   0.00  -0.02
  39   1    -0.03  -0.12   0.01     0.12  -0.09  -0.06     0.04   0.06  -0.04
  40   1     0.01  -0.07   0.06     0.09  -0.04   0.03    -0.03   0.03  -0.05
  41   1     0.04  -0.02   0.03    -0.07   0.03   0.06     0.01   0.00   0.06
  42   1     0.03   0.01  -0.02    -0.07  -0.03  -0.03     0.01  -0.02  -0.02
  43   1     0.01   0.03  -0.04    -0.04  -0.05  -0.06     0.02  -0.02  -0.06
  44   1    -0.02   0.01   0.02     0.03  -0.02   0.04     0.03  -0.01   0.04
  45   1    -0.03   0.04   0.02     0.03  -0.03   0.00     0.03   0.02   0.02
  46   1    -0.00   0.02  -0.01     0.01  -0.02   0.00     0.02   0.02  -0.01
  47   1     0.05  -0.03  -0.01    -0.06   0.02  -0.00    -0.00   0.03  -0.01
  48   1    -0.02  -0.01  -0.00     0.01  -0.02  -0.00     0.00  -0.01  -0.00
  49   1    -0.05   0.01   0.02     0.02  -0.04   0.00     0.02  -0.00   0.02
  50   1     0.04  -0.01  -0.05    -0.02   0.02   0.00    -0.02  -0.03  -0.06
  51   1     0.05   0.06   0.07    -0.02   0.04   0.06    -0.01  -0.02   0.07
  52   1    -0.01   0.03  -0.02    -0.04   0.01   0.01     0.00   0.04  -0.05
  53   1    -0.08  -0.09   0.02     0.00   0.00  -0.02     0.02  -0.04   0.05
  54   1    -0.06   0.01   0.02    -0.01   0.01  -0.00    -0.01  -0.04   0.05
  55   1     0.06  -0.01   0.03     0.01   0.01  -0.00    -0.02  -0.02   0.03
  56   1     0.03  -0.10   0.02     0.01   0.00  -0.01     0.01  -0.05   0.07
  57   1     0.04   0.02   0.05     0.01   0.00   0.04    -0.10   0.06  -0.01
  58   1     0.04   0.06   0.05     0.04   0.03  -0.01    -0.10  -0.01   0.06
                     25                     26                     27
                        a                      a                      a 
 Frequencies --   347.6662               348.3980               359.7833
 Red. masses --     9.7428                 9.6937                10.9396
 Frc consts  --     0.0000                 0.0000                 0.0000
 IR Inten    --     2.1959                 0.4045                 1.7561
 Raman Activ --     0.0000                 0.0000                 0.0000
 Depolar     --     0.0000                 0.0000                 0.0000
 Atom AN      X      Y      Z        X      Y      Z        X      Y      Z
   1   6     0.19   0.09  -0.12     0.16  -0.14   0.09     0.02  -0.10  -0.01
   2   6    -0.05  -0.06  -0.22    -0.03   0.02   0.11     0.02   0.04   0.05
   3   6    -0.25  -0.05  -0.14    -0.36   0.27   0.06    -0.18   0.09   0.12
   4   6    -0.04  -0.07  -0.04    -0.03  -0.02   0.07     0.10  -0.10   0.03
   5   6     0.03  -0.03   0.37     0.00   0.00   0.14     0.19  -0.08   0.01
   6   6     0.02   0.04   0.02     0.00   0.05   0.01     0.21  -0.10   0.01
   7   6    -0.04   0.06  -0.27    -0.01   0.06  -0.07     0.20  -0.09  -0.02
   8   6    -0.07   0.03   0.25    -0.04   0.03   0.06     0.13  -0.12  -0.01
   9   6    -0.06  -0.04   0.18    -0.03  -0.02   0.07     0.10  -0.08   0.04
  10   7    -0.01  -0.01   0.10     0.02  -0.01  -0.07     0.04  -0.06   0.05
  11   6     0.01  -0.01  -0.11     0.01  -0.01   0.08     0.03  -0.03  -0.04
  12   6    -0.02  -0.01  -0.10     0.01   0.02   0.07    -0.01   0.02  -0.05
  13   6    -0.02  -0.02   0.00    -0.00   0.04  -0.00    -0.01   0.02  -0.01
  14   6     0.03   0.02   0.04     0.01  -0.02  -0.03     0.06   0.02   0.01
  15   6     0.03   0.07   0.01    -0.02  -0.04  -0.01     0.01   0.05   0.01
  16   6     0.03   0.05  -0.09    -0.04  -0.01   0.06    -0.00   0.05  -0.02
  17   6     0.01  -0.01   0.14     0.03  -0.00  -0.32    -0.01   0.03   0.04
  18   6     0.03   0.00   0.17     0.05   0.00  -0.18    -0.11   0.03   0.05
  19   6     0.04  -0.02  -0.22     0.04  -0.02   0.33    -0.13   0.09  -0.06
  20   6     0.04  -0.01  -0.07     0.07  -0.07  -0.07    -0.20   0.13  -0.11
  21   6     0.04  -0.00   0.17     0.08  -0.07  -0.09    -0.23   0.06   0.15
  22   6     0.04  -0.01  -0.01     0.05  -0.04  -0.03    -0.15  -0.02   0.15
  23   6     0.03  -0.00   0.00     0.04   0.03   0.03    -0.12  -0.12   0.02
  24   6     0.01   0.03  -0.01     0.02   0.04   0.05    -0.04  -0.03  -0.20
  25   6    -0.00  -0.00   0.03     0.02   0.04  -0.02    -0.04  -0.06  -0.01
  26   6    -0.03   0.00   0.00    -0.05  -0.01  -0.00     0.11  -0.04   0.08
  27   6    -0.04   0.00   0.00    -0.06  -0.02  -0.01     0.14  -0.04   0.15
  28   7    -0.04   0.01  -0.00    -0.07   0.02   0.00     0.17  -0.01  -0.07
  29   6    -0.00   0.01  -0.03    -0.04  -0.02   0.02     0.08   0.12  -0.11
  30   6    -0.00  -0.02   0.01    -0.01   0.04  -0.01     0.02  -0.05   0.00
  31   6     0.04  -0.02  -0.14     0.05  -0.05   0.04    -0.10   0.02   0.09
  32   6     0.04  -0.00   0.14     0.05  -0.07  -0.13    -0.09   0.12  -0.14
  33   6     0.03  -0.01   0.04     0.06  -0.08  -0.27    -0.11   0.14  -0.20
  34   6     0.01  -0.02  -0.09     0.05   0.00  -0.09    -0.07   0.07  -0.02
  35   1     0.09   0.04  -0.01     0.10  -0.03  -0.02     0.01  -0.03  -0.05
  36   1     0.07   0.08  -0.09     0.05  -0.04   0.03     0.00  -0.06   0.03
  37   1     0.07   0.00   0.03     0.05  -0.10   0.06     0.00  -0.04  -0.01
  38   1    -0.10  -0.01  -0.08    -0.16   0.13  -0.07    -0.09   0.05  -0.02
  39   1    -0.11  -0.02   0.00    -0.15   0.11   0.11    -0.09   0.02   0.09
  40   1    -0.04  -0.02  -0.02    -0.06   0.04  -0.01    -0.01   0.01   0.05
  41   1     0.02  -0.01   0.16     0.01  -0.00   0.04     0.06  -0.03  -0.01
  42   1     0.02   0.02  -0.02     0.01   0.02  -0.01     0.06  -0.03   0.00
  43   1    -0.02   0.03  -0.19    -0.01   0.02  -0.06     0.06  -0.01  -0.01
  44   1    -0.03   0.02   0.11    -0.02   0.02   0.01     0.03  -0.03  -0.01
  45   1    -0.02  -0.01  -0.04     0.01   0.02   0.03    -0.01   0.01  -0.01
  46   1    -0.02  -0.02   0.01    -0.00   0.03  -0.01    -0.02   0.00   0.00
  47   1     0.01   0.00   0.02     0.01  -0.01  -0.02     0.03  -0.00   0.01
  48   1     0.01   0.03   0.01    -0.01  -0.02  -0.01    -0.00   0.02   0.00
  49   1     0.02   0.03  -0.04    -0.03  -0.01   0.03    -0.00   0.03  -0.01
  50   1     0.01  -0.00   0.08     0.01   0.01  -0.03    -0.04   0.01   0.04
  51   1     0.01  -0.01  -0.13    -0.00  -0.00   0.24    -0.01   0.04  -0.00
  52   1     0.01   0.00   0.11     0.03  -0.02  -0.01    -0.09   0.01   0.07
  53   1    -0.00   0.01  -0.01     0.01   0.01   0.02    -0.00   0.02  -0.09
  54   1     0.00  -0.01   0.01     0.02   0.01  -0.02    -0.05  -0.00   0.02
  55   1     0.00   0.01  -0.01    -0.01  -0.01   0.01     0.02   0.06  -0.07
  56   1    -0.01  -0.01   0.01    -0.02   0.03  -0.01     0.03  -0.04   0.00
  57   1     0.01  -0.01  -0.08     0.01  -0.01   0.07    -0.01  -0.00   0.05
  58   1     0.01   0.00   0.09     0.00  -0.02   0.02    -0.01   0.04  -0.03
                     28                     29                     30
                        a                      a                      a 
 Frequencies --   368.7292               369.1450               387.0620
 Red. masses --     9.0468                 8.9698                10.0596
 Frc consts  --     0.0000                 0.0000                 0.0000
 IR Inten    --     0.2691                 0.2703                 2.1193
 Raman Activ --     0.0000                 0.0000                 0.0000
 Depolar     --     0.0000                 0.0000                 0.0000
 Atom AN      X      Y      Z        X      Y      Z        X      Y      Z
   1   6     0.01  -0.00  -0.01     0.01   0.01  -0.00    -0.15  -0.07  -0.24
   2   6     0.00   0.00  -0.01     0.00  -0.00  -0.01     0.06   0.14  -0.09
   3   6    -0.03  -0.00   0.01    -0.00  -0.00  -0.01    -0.13  -0.10   0.19
   4   6     0.02  -0.02  -0.01     0.01  -0.02   0.01     0.08   0.16  -0.08
   5   6     0.04  -0.02   0.02     0.02  -0.02  -0.01    -0.00   0.13   0.16
   6   6     0.04  -0.02   0.01     0.03  -0.02   0.01    -0.01  -0.04  -0.06
   7   6     0.04  -0.02  -0.02     0.02  -0.01  -0.00     0.11  -0.12  -0.06
   8   6     0.02  -0.02   0.01     0.00  -0.02   0.00     0.22  -0.03   0.13
   9   6     0.01  -0.02   0.00     0.00  -0.02   0.03     0.18   0.11  -0.12
  10   7     0.00  -0.01   0.03    -0.00  -0.01   0.02     0.06   0.06  -0.26
  11   6     0.00  -0.00  -0.02     0.00  -0.00  -0.02     0.00   0.03   0.13
  12   6    -0.20   0.13  -0.03     0.29  -0.19  -0.01     0.00  -0.02   0.16
  13   6     0.20  -0.13   0.00    -0.29   0.19  -0.01    -0.02  -0.01   0.02
  14   6     0.01   0.01   0.01     0.02   0.01   0.01    -0.07  -0.10  -0.05
  15   6    -0.19   0.14  -0.00     0.30  -0.17   0.01    -0.05  -0.11  -0.04
  16   6     0.21  -0.12  -0.01    -0.29   0.21  -0.02    -0.07  -0.07   0.08
  17   6    -0.01   0.01   0.05    -0.01  -0.00   0.02     0.04   0.11  -0.07
  18   6    -0.03   0.00   0.01    -0.02  -0.00   0.01    -0.05   0.10   0.05
  19   6    -0.03   0.02  -0.02    -0.02   0.01  -0.04    -0.08  -0.01  -0.03
  20   6    -0.04   0.03   0.01    -0.03   0.02  -0.00    -0.04  -0.04   0.01
  21   6    -0.05   0.01   0.03    -0.03   0.02   0.04    -0.04  -0.10  -0.10
  22   6    -0.04   0.00   0.03    -0.02   0.01   0.01    -0.03  -0.09  -0.04
  23   6    -0.02  -0.02   0.00    -0.02  -0.01  -0.00    -0.01   0.05   0.10
  24   6    -0.04  -0.21   0.27    -0.03  -0.15   0.19     0.04   0.07   0.05
  25   6     0.03   0.18  -0.28     0.02   0.12  -0.19     0.05   0.02  -0.03
  26   6     0.03  -0.01   0.01     0.02  -0.00   0.01     0.01  -0.03   0.01
  27   6     0.04  -0.01   0.02     0.03  -0.00   0.01     0.01  -0.08  -0.00
  28   7     0.05  -0.00  -0.01     0.03  -0.01  -0.01     0.02   0.03  -0.00
  29   6    -0.01  -0.17   0.27    -0.01  -0.12   0.19    -0.04   0.03  -0.01
  30   6     0.03   0.20  -0.30     0.02   0.13  -0.20    -0.03   0.10   0.04
  31   6    -0.02   0.01  -0.00    -0.02   0.01  -0.02    -0.00  -0.10  -0.16
  32   6    -0.02   0.02  -0.05    -0.02   0.02  -0.00     0.01  -0.02   0.12
  33   6    -0.02   0.03  -0.01    -0.02   0.02   0.00     0.01   0.00   0.18
  34   6    -0.02   0.01   0.01    -0.01   0.00  -0.00     0.03   0.11   0.00
  35   1     0.00  -0.00  -0.01     0.00   0.00   0.00    -0.05  -0.03  -0.11
  36   1     0.01  -0.00  -0.00     0.01   0.00  -0.00    -0.09  -0.07   0.00
  37   1     0.00   0.00  -0.00     0.00   0.00   0.00    -0.06  -0.03  -0.13
  38   1    -0.02   0.01  -0.01    -0.00  -0.00  -0.00    -0.08  -0.07   0.02
  39   1    -0.02  -0.01   0.01    -0.00  -0.00  -0.00    -0.09  -0.09   0.07
  40   1     0.00  -0.00   0.01    -0.00  -0.00  -0.00     0.01  -0.01   0.15
  41   1     0.01  -0.01   0.01     0.01  -0.01  -0.01    -0.02   0.05   0.10
  42   1     0.01  -0.01   0.00     0.01  -0.00   0.00    -0.04  -0.03  -0.03
  43   1     0.01  -0.00  -0.01     0.01   0.00  -0.01     0.03  -0.07  -0.03
  44   1     0.01  -0.01   0.01    -0.00  -0.00  -0.01     0.10  -0.02   0.09
  45   1    -0.13   0.08  -0.01     0.18  -0.12  -0.00     0.01  -0.00   0.05
  46   1     0.12  -0.09   0.01    -0.19   0.12  -0.00     0.01   0.03  -0.01
  47   1     0.00   0.00   0.00     0.01   0.00   0.00    -0.02  -0.03  -0.03
  48   1    -0.12   0.09  -0.00     0.18  -0.11   0.01    -0.02  -0.04  -0.02
  49   1     0.13  -0.08  -0.00    -0.18   0.13  -0.01    -0.04  -0.05   0.05
  50   1    -0.01   0.00  -0.01    -0.01  -0.00   0.01    -0.04   0.05   0.02
  51   1    -0.00   0.01  -0.02    -0.00   0.00  -0.02    -0.04  -0.01  -0.02
  52   1    -0.01   0.00   0.00    -0.01   0.01   0.02    -0.02  -0.03  -0.04
  53   1    -0.02  -0.12   0.16    -0.02  -0.09   0.11     0.03   0.03   0.01
  54   1     0.01   0.12  -0.18     0.01   0.08  -0.12     0.03   0.01  -0.03
  55   1    -0.02  -0.11   0.17    -0.01  -0.08   0.12    -0.03   0.01  -0.02
  56   1     0.02   0.12  -0.18     0.02   0.08  -0.12    -0.02   0.04   0.00
  57   1     0.00  -0.00   0.00    -0.00   0.00  -0.01     0.01  -0.04  -0.09
  58   1    -0.00   0.01  -0.02    -0.00   0.01  -0.00    -0.01  -0.01   0.03
                     31                     32                     33
                        a                      a                      a 
 Frequencies --   390.7227               407.5599               422.8142
 Red. masses --    10.7276                10.7289                10.1656
 Frc consts  --     0.0000                 0.0000                 0.0000
 IR Inten    --     1.5522                 6.0728                 1.2873
 Raman Activ --     0.0000                 0.0000                 0.0000
 Depolar     --     0.0000                 0.0000                 0.0000
 Atom AN      X      Y      Z        X      Y      Z        X      Y      Z
   1   6     0.05   0.06   0.09    -0.01  -0.04   0.13     0.07   0.06   0.04
   2   6    -0.02  -0.11   0.00    -0.02  -0.03   0.10    -0.06  -0.04  -0.03
   3   6     0.10  -0.04  -0.13     0.07   0.10  -0.03    -0.07  -0.02  -0.06
   4   6    -0.01  -0.27  -0.01    -0.03   0.02   0.06    -0.07   0.08  -0.16
   5   6     0.16  -0.23   0.06    -0.04   0.03   0.07    -0.08   0.10   0.17
   6   6     0.17  -0.08  -0.08    -0.05   0.04  -0.14    -0.10   0.11  -0.05
   7   6    -0.02   0.03   0.01    -0.03   0.03   0.09    -0.00   0.05  -0.06
   8   6    -0.20  -0.08   0.07    -0.01   0.03   0.03     0.06   0.07   0.14
   9   6    -0.19  -0.17  -0.11    -0.02   0.00  -0.22     0.05   0.01  -0.19
  10   7    -0.09  -0.06  -0.24    -0.01  -0.02  -0.43     0.06  -0.04  -0.16
  11   6     0.01  -0.05   0.13    -0.02   0.01   0.18     0.01  -0.00   0.05
  12   6     0.04   0.09   0.07     0.02   0.05   0.16     0.02  -0.00   0.05
  13   6     0.06   0.11  -0.05     0.05   0.05  -0.03    -0.01   0.03  -0.01
  14   6     0.09   0.09  -0.05     0.00   0.02  -0.07     0.01  -0.00  -0.02
  15   6    -0.00   0.03   0.02    -0.03  -0.04  -0.02    -0.00  -0.02  -0.01
  16   6     0.00   0.03   0.15    -0.01  -0.03   0.17    -0.03   0.01   0.05
  17   6    -0.08   0.06  -0.07     0.00  -0.08  -0.07     0.06  -0.16   0.20
  18   6    -0.12   0.08  -0.02     0.05  -0.06   0.24     0.14  -0.18  -0.06
  19   6    -0.12   0.14   0.04     0.07  -0.05  -0.20     0.16  -0.05   0.01
  20   6    -0.06   0.10   0.03     0.03  -0.03  -0.25     0.00   0.07   0.18
  21   6    -0.08  -0.05  -0.18     0.04   0.09   0.31    -0.02   0.07  -0.17
  22   6     0.00  -0.10  -0.00     0.01   0.09   0.04    -0.01   0.05   0.18
  23   6     0.01   0.02   0.15    -0.00  -0.05  -0.08    -0.04  -0.15   0.07
  24   6     0.05   0.09   0.04    -0.04  -0.08  -0.03    -0.04  -0.07  -0.05
  25   6     0.06   0.05  -0.04    -0.04  -0.01  -0.00    -0.04   0.03  -0.07
  26   6    -0.02  -0.04   0.03     0.01   0.02  -0.00     0.01  -0.01   0.04
  27   6    -0.03  -0.11   0.05     0.01   0.07   0.02     0.01  -0.02   0.14
  28   7    -0.01   0.05  -0.02     0.00  -0.03  -0.01     0.01   0.01  -0.06
  29   6    -0.04   0.06  -0.05     0.04  -0.04   0.02     0.04   0.04  -0.08
  30   6    -0.02   0.08   0.04     0.02  -0.06  -0.07     0.01  -0.09  -0.02
  31   6     0.09  -0.08  -0.12    -0.03   0.08  -0.02    -0.03   0.06   0.16
  32   6     0.11   0.07   0.03    -0.04   0.01   0.14    -0.04   0.00  -0.38
  33   6     0.02   0.13   0.17    -0.01  -0.04  -0.16    -0.05   0.04   0.10
  34   6     0.00   0.00   0.07    -0.02  -0.07  -0.07    -0.05  -0.06   0.20
  35   1     0.03   0.02   0.07     0.01  -0.01   0.04     0.01   0.02   0.05
  36   1     0.03   0.06  -0.02    -0.00  -0.00   0.03     0.04   0.04  -0.02
  37   1     0.02   0.02   0.06     0.00  -0.02   0.04     0.02   0.04   0.02
  38   1     0.06   0.01  -0.01     0.04   0.03   0.01    -0.02   0.04  -0.04
  39   1     0.05   0.00  -0.06     0.05   0.07  -0.02    -0.05  -0.02   0.01
  40   1     0.02  -0.02  -0.08    -0.02   0.03  -0.06     0.03  -0.03  -0.03
  41   1     0.08  -0.08   0.05    -0.01   0.01   0.05    -0.02   0.03   0.13
  42   1     0.09  -0.00  -0.04    -0.02   0.01  -0.08    -0.04   0.02  -0.01
  43   1    -0.01   0.07   0.02    -0.01   0.00   0.07    -0.00  -0.01  -0.01
  44   1    -0.09  -0.01   0.05    -0.01   0.01   0.04     0.01   0.03   0.12
  45   1     0.03   0.06   0.05     0.02   0.05   0.07     0.02   0.01   0.02
  46   1     0.01   0.04  -0.02     0.04   0.04  -0.02    -0.00   0.02  -0.01
  47   1     0.03   0.02  -0.03    -0.00   0.01  -0.04     0.01  -0.00  -0.01
  48   1    -0.02  -0.01  -0.01    -0.03  -0.04  -0.02    -0.01  -0.01  -0.01
  49   1    -0.01   0.01   0.05    -0.02  -0.04   0.07    -0.02  -0.00   0.02
  50   1    -0.02   0.01  -0.02     0.02  -0.02   0.17     0.06  -0.07  -0.12
  51   1    -0.03   0.04   0.01     0.03  -0.01  -0.04     0.08  -0.00  -0.07
  52   1    -0.05  -0.03  -0.09     0.03   0.04   0.19    -0.01   0.01  -0.16
  53   1     0.03   0.04  -0.00    -0.03  -0.04  -0.00    -0.02  -0.01  -0.04
  54   1     0.03   0.02  -0.04    -0.03   0.00   0.01    -0.02   0.04  -0.04
  55   1    -0.02   0.03  -0.04     0.02  -0.01   0.02     0.03   0.03  -0.05
  56   1    -0.02   0.05   0.00     0.02  -0.03  -0.02     0.02  -0.03  -0.03
  57   1     0.05  -0.05  -0.07    -0.02   0.03  -0.01    -0.02   0.02   0.05
  58   1     0.07   0.03  -0.01    -0.02   0.00   0.09    -0.01  -0.00  -0.20
                     34                     35                     36
                        a                      a                      a 
 Frequencies --   440.7353               476.4069               479.7248
 Red. masses --    10.5812                10.5995                10.6870
 Frc consts  --     0.0000                 0.0000                 0.0000
 IR Inten    --     0.1560                 1.1947                 1.5617
 Raman Activ --     0.0000                 0.0000                 0.0000
 Depolar     --     0.0000                 0.0000                 0.0000
 Atom AN      X      Y      Z        X      Y      Z        X      Y      Z
   1   6    -0.02   0.02   0.07    -0.03   0.03  -0.03    -0.05  -0.01   0.11
   2   6    -0.10  -0.06   0.00     0.09  -0.04  -0.02    -0.09  -0.08   0.03
   3   6     0.02  -0.02  -0.11    -0.07   0.03   0.01    -0.07  -0.01  -0.08
   4   6    -0.07   0.10   0.09     0.11   0.00   0.02    -0.02   0.08  -0.05
   5   6    -0.09   0.12  -0.10     0.09  -0.03  -0.04     0.04   0.11   0.05
   6   6    -0.09   0.12   0.06     0.09  -0.15   0.04     0.04  -0.02  -0.05
   7   6     0.05   0.04   0.01     0.00  -0.11  -0.02     0.16  -0.08   0.01
   8   6     0.10   0.06  -0.09     0.01  -0.07  -0.01     0.15  -0.06   0.02
   9   6     0.10   0.01   0.16     0.00   0.10   0.08     0.11   0.03  -0.12
  10   7     0.08  -0.05   0.08    -0.15   0.08  -0.02    -0.04  -0.03   0.07
  11   6     0.01  -0.01  -0.02    -0.35   0.22  -0.01    -0.24   0.12  -0.02
  12   6    -0.01   0.01  -0.02    -0.02   0.02  -0.00    -0.00   0.02  -0.04
  13   6    -0.01  -0.00   0.00     0.15  -0.09  -0.00     0.10  -0.05  -0.01
  14   6     0.01  -0.01   0.01    -0.20   0.15  -0.01    -0.10   0.12   0.00
  15   6    -0.01   0.01   0.01     0.15  -0.09   0.01     0.10  -0.05   0.03
  16   6     0.01  -0.00  -0.02    -0.02   0.02   0.01    -0.02   0.02   0.00
  17   6     0.08  -0.22  -0.20    -0.13  -0.02  -0.03    -0.07  -0.19   0.05
  18   6     0.11  -0.22   0.01    -0.10   0.00   0.00    -0.03  -0.17  -0.01
  19   6     0.13  -0.01   0.08    -0.08  -0.01   0.01     0.01   0.14   0.01
  20   6    -0.07   0.11  -0.12     0.05  -0.07   0.00    -0.08   0.20  -0.03
  21   6    -0.11   0.01  -0.07     0.10   0.18  -0.04    -0.08  -0.06   0.04
  22   6    -0.04  -0.07  -0.04     0.12   0.18   0.01     0.08  -0.19  -0.02
  23   6    -0.06  -0.13   0.25     0.10  -0.16   0.11     0.14   0.14  -0.11
  24   6    -0.01  -0.02   0.06     0.04  -0.08   0.06     0.10   0.14  -0.01
  25   6     0.02   0.09  -0.16     0.05   0.10  -0.09     0.08  -0.02   0.16
  26   6     0.02  -0.05   0.06    -0.06   0.01   0.01    -0.06   0.01  -0.01
  27   6     0.01  -0.18   0.20    -0.12  -0.04   0.22    -0.09   0.07  -0.24
  28   7     0.05   0.06  -0.08    -0.12   0.04  -0.08    -0.13  -0.01   0.08
  29   6    -0.00   0.12  -0.13     0.08   0.01  -0.15     0.01  -0.11   0.10
  30   6    -0.02   0.02   0.06     0.06  -0.16   0.01     0.06   0.08  -0.07
  31   6    -0.00  -0.06  -0.23     0.08   0.19  -0.04     0.05  -0.21   0.04
  32   6     0.01   0.09   0.27     0.02  -0.05   0.01     0.07   0.05  -0.01
  33   6    -0.07   0.12   0.07     0.03  -0.09   0.04    -0.11   0.17  -0.08
  34   6    -0.08  -0.08  -0.08     0.01  -0.08   0.01    -0.14  -0.10   0.03
  35   1     0.01   0.01   0.04    -0.03   0.00   0.02    -0.01   0.00   0.06
  36   1     0.01   0.03  -0.01    -0.02   0.01   0.00    -0.01   0.03   0.00
  37   1     0.00   0.00   0.05    -0.02   0.03  -0.04    -0.01   0.00   0.04
  38   1     0.03  -0.01  -0.00    -0.05   0.00  -0.03    -0.01   0.03  -0.02
  39   1     0.03   0.02  -0.05    -0.03   0.03   0.04    -0.01   0.02  -0.01
  40   1    -0.03  -0.01  -0.06    -0.03   0.01   0.01    -0.02  -0.02  -0.06
  41   1    -0.02   0.03  -0.08    -0.00   0.00  -0.03     0.01   0.04   0.05
  42   1    -0.05   0.02   0.02     0.02  -0.05   0.01    -0.02  -0.02  -0.01
  43   1     0.01  -0.02  -0.02     0.00  -0.01  -0.03     0.05  -0.04   0.03
  44   1     0.02   0.02  -0.08     0.03  -0.03  -0.03     0.05  -0.02   0.04
  45   1    -0.01   0.00  -0.01     0.07  -0.04   0.00     0.05  -0.02  -0.01
  46   1    -0.01  -0.00   0.00     0.14  -0.09   0.00     0.08  -0.06   0.01
  47   1     0.01  -0.00   0.00    -0.09   0.06  -0.00    -0.05   0.05   0.00
  48   1    -0.01   0.01   0.00     0.14  -0.09   0.00     0.09  -0.06   0.01
  49   1     0.01   0.00  -0.01     0.07  -0.04   0.00     0.05  -0.01  -0.01
  50   1     0.05  -0.07   0.07    -0.03  -0.00   0.01     0.03  -0.08  -0.01
  51   1     0.10   0.03   0.09    -0.04  -0.01   0.01     0.06   0.06   0.00
  52   1    -0.06  -0.00   0.02     0.07   0.06  -0.02    -0.09  -0.04   0.03
  53   1     0.01   0.02  -0.01    -0.01  -0.02  -0.01     0.03   0.03   0.01
  54   1     0.01   0.07  -0.11     0.03   0.05  -0.07     0.05  -0.05   0.08
  55   1    -0.01   0.07  -0.10     0.06   0.04  -0.07     0.01  -0.05   0.07
  56   1    -0.00   0.03  -0.02     0.02  -0.03  -0.01    -0.01   0.03   0.01
  57   1     0.02  -0.03  -0.11    -0.02   0.08  -0.02     0.04  -0.08   0.03
  58   1     0.04   0.04   0.12    -0.04  -0.03  -0.01     0.09   0.04   0.01
                     37                     38                     39
                        a                      a                      a 
 Frequencies --   484.0562               505.1707               519.1366
 Red. masses --    10.5737                11.3096                11.0459
 Frc consts  --     0.0000                 0.0000                 0.0000
 IR Inten    --     0.2444                 0.1977                 5.0417
 Raman Activ --     0.0000                 0.0000                 0.0000
 Depolar     --     0.0000                 0.0000                 0.0000
 Atom AN      X      Y      Z        X      Y      Z        X      Y      Z
   1   6     0.08   0.04  -0.05     0.04   0.00  -0.09     0.02   0.01  -0.04
   2   6    -0.04  -0.01  -0.08    -0.03   0.16  -0.01     0.07   0.03  -0.00
   3   6    -0.10  -0.06  -0.03     0.08   0.03   0.09     0.03   0.03   0.04
   4   6    -0.00   0.01   0.23    -0.01  -0.02   0.01     0.05  -0.06   0.00
   5   6    -0.01   0.02  -0.22     0.03  -0.01   0.00     0.02  -0.10   0.01
   6   6     0.01   0.02   0.19     0.04   0.00  -0.01     0.01  -0.05  -0.01
   7   6     0.02  -0.00  -0.07     0.06  -0.00   0.01    -0.09   0.01   0.01
   8   6     0.02  -0.00  -0.08     0.01  -0.03  -0.01    -0.08   0.02  -0.00
   9   6     0.04   0.01   0.53     0.00  -0.06  -0.01    -0.05  -0.00  -0.01
  10   7     0.01  -0.02  -0.43    -0.07  -0.10   0.02    -0.04   0.00   0.01
  11   6    -0.01   0.01   0.09     0.07  -0.15   0.00    -0.24   0.14  -0.01
  12   6    -0.02   0.00   0.11     0.03   0.00  -0.06    -0.06   0.04  -0.01
  13   6     0.01  -0.00  -0.04    -0.04   0.06  -0.05     0.12  -0.07  -0.00
  14   6    -0.00   0.01  -0.05     0.14   0.04   0.00    -0.15   0.12  -0.00
  15   6    -0.00  -0.00  -0.04    -0.04   0.06   0.05     0.12  -0.07   0.01
  16   6     0.01   0.01   0.11     0.03   0.00   0.05    -0.06   0.04   0.00
  17   6     0.00  -0.02   0.02    -0.11   0.04  -0.02     0.01   0.03  -0.02
  18   6     0.02  -0.01   0.10     0.15   0.17  -0.01     0.29   0.16   0.00
  19   6     0.02   0.02  -0.11     0.15   0.13  -0.01     0.30   0.16  -0.02
  20   6    -0.01   0.04   0.10     0.08   0.11  -0.01     0.23   0.09  -0.01
  21   6    -0.01  -0.03  -0.03     0.09   0.04   0.00     0.14  -0.25   0.00
  22   6     0.01  -0.04   0.10     0.14  -0.02  -0.00    -0.11  -0.13   0.03
  23   6     0.02   0.04  -0.07     0.21  -0.06   0.03    -0.17   0.03   0.01
  24   6     0.02   0.03  -0.04     0.12  -0.01   0.09    -0.15  -0.02  -0.02
  25   6     0.00  -0.04   0.07     0.12   0.07   0.00    -0.14  -0.08  -0.07
  26   6    -0.01  -0.00   0.00    -0.09   0.01  -0.03     0.07  -0.03  -0.02
  27   6    -0.00   0.07  -0.10    -0.19   0.01   0.10     0.16   0.00   0.03
  28   7    -0.02  -0.02   0.04    -0.22   0.03  -0.04     0.19  -0.03  -0.01
  29   6    -0.00  -0.05   0.06     0.13  -0.09  -0.11    -0.09   0.06   0.02
  30   6     0.01   0.02  -0.05     0.14  -0.12  -0.01    -0.11   0.07   0.05
  31   6    -0.01  -0.05   0.06    -0.27  -0.18  -0.01    -0.21  -0.17   0.00
  32   6    -0.00  -0.01  -0.16    -0.28  -0.16   0.03    -0.16   0.07   0.00
  33   6    -0.03   0.04   0.11    -0.28  -0.07   0.01     0.00   0.01   0.02
  34   6    -0.03  -0.00  -0.01    -0.24   0.09  -0.01     0.02   0.02  -0.01
  35   1     0.03   0.01  -0.02     0.02   0.00  -0.08    -0.00  -0.00  -0.02
  36   1     0.06   0.01  -0.04     0.01  -0.03  -0.00    -0.00  -0.01   0.00
  37   1     0.03   0.02   0.03     0.01  -0.02  -0.01     0.00   0.00  -0.03
  38   1    -0.04  -0.02  -0.02     0.04  -0.01   0.05    -0.00  -0.00   0.01
  39   1    -0.04  -0.02  -0.00     0.02  -0.03  -0.01     0.00   0.01   0.02
  40   1    -0.02  -0.01   0.01     0.03   0.02   0.06     0.01   0.01   0.03
  41   1    -0.01  -0.00  -0.23     0.02  -0.01  -0.00     0.00  -0.03   0.00
  42   1    -0.00   0.00   0.03     0.01  -0.00  -0.01     0.03  -0.00  -0.01
  43   1     0.00  -0.01  -0.14     0.02   0.00   0.01    -0.03   0.02   0.01
  44   1    -0.00  -0.00  -0.21    -0.00  -0.00  -0.00    -0.02   0.01   0.00
  45   1     0.01   0.03   0.05    -0.01   0.04  -0.01     0.04  -0.02   0.00
  46   1     0.02   0.01  -0.02    -0.06   0.03  -0.00     0.11  -0.07   0.00
  47   1    -0.00   0.00  -0.01     0.04   0.01   0.00    -0.05   0.04  -0.00
  48   1    -0.01  -0.02  -0.02    -0.06   0.03   0.00     0.11  -0.08   0.00
  49   1    -0.00  -0.02   0.05    -0.01   0.04   0.00     0.04  -0.02   0.00
  50   1     0.01  -0.01   0.02     0.06   0.03   0.01     0.11   0.02   0.01
  51   1     0.02   0.01  -0.09     0.03   0.03   0.00     0.08   0.04  -0.00
  52   1    -0.02  -0.02  -0.07    -0.02  -0.00   0.00     0.02  -0.08  -0.00
  53   1     0.00   0.01  -0.01     0.01  -0.01   0.01    -0.02   0.00   0.00
  54   1     0.00  -0.03   0.04     0.07   0.01  -0.02    -0.07  -0.01  -0.01
  55   1     0.00  -0.03   0.04     0.08  -0.01  -0.02    -0.07   0.00  -0.01
  56   1     0.00   0.00  -0.01     0.02  -0.02   0.01    -0.02   0.01   0.01
  57   1     0.00  -0.02  -0.01    -0.13  -0.01  -0.00    -0.03  -0.07  -0.01
  58   1     0.01  -0.00  -0.10    -0.05  -0.04   0.01    -0.02   0.03  -0.01
                     40                     41                     42
                        a                      a                      a 
 Frequencies --   530.1434               534.5061               537.6515
 Red. masses --    11.0858                10.3368                10.5837
 Frc consts  --     0.0000                 0.0000                 0.0000
 IR Inten    --     6.5306                 4.1539                 4.4630
 Raman Activ --     0.0000                 0.0000                 0.0000
 Depolar     --     0.0000                 0.0000                 0.0000
 Atom AN      X      Y      Z        X      Y      Z        X      Y      Z
   1   6    -0.01   0.01  -0.02     0.11   0.01  -0.07     0.05   0.03  -0.04
   2   6    -0.01  -0.01  -0.03    -0.01   0.03  -0.05    -0.05  -0.04  -0.08
   3   6     0.00  -0.03  -0.03    -0.12   0.01  -0.00    -0.09  -0.08  -0.10
   4   6    -0.00   0.00   0.02     0.02  -0.00   0.32    -0.01   0.03   0.24
   5   6     0.01   0.01  -0.02    -0.00  -0.01   0.21     0.01   0.06   0.13
   6   6     0.01  -0.00   0.01    -0.02   0.00  -0.32     0.00   0.00  -0.21
   7   6     0.01  -0.01  -0.01     0.01   0.01   0.34     0.06  -0.02   0.23
   8   6     0.00  -0.01   0.00    -0.01   0.01  -0.23     0.02  -0.03  -0.16
   9   6     0.00   0.01   0.04     0.00  -0.01  -0.06     0.01   0.02   0.01
  10   7     0.00   0.01  -0.13     0.00  -0.01   0.15     0.02   0.03  -0.05
  11   6    -0.00   0.01   0.02    -0.02   0.01  -0.03     0.03   0.02   0.01
  12   6    -0.01  -0.01   0.03     0.00   0.02  -0.04    -0.00  -0.01   0.03
  13   6    -0.01  -0.01  -0.02     0.02   0.01   0.02    -0.01  -0.01   0.01
  14   6    -0.01  -0.01  -0.02    -0.01   0.02   0.02    -0.01  -0.03  -0.01
  15   6     0.01   0.01  -0.02     0.00  -0.02   0.03    -0.01   0.00  -0.03
  16   6     0.00   0.02   0.02    -0.01  -0.02  -0.03     0.01   0.00  -0.01
  17   6     0.00   0.02   0.25     0.01  -0.01  -0.16     0.01   0.02   0.24
  18   6     0.01   0.01  -0.07     0.02  -0.00   0.12    -0.04  -0.01  -0.05
  19   6     0.01   0.02   0.04     0.02  -0.04  -0.12    -0.04   0.02   0.02
  20   6     0.02   0.01   0.03    -0.01  -0.00   0.18    -0.01   0.01   0.11
  21   6     0.01  -0.03   0.08    -0.01   0.03  -0.08    -0.00  -0.05   0.02
  22   6    -0.01  -0.04  -0.24     0.00   0.03   0.11    -0.01  -0.04  -0.20
  23   6    -0.01   0.02  -0.14    -0.00  -0.07  -0.02     0.01   0.17  -0.01
  24   6    -0.01  -0.10   0.07     0.02  -0.05  -0.06    -0.03   0.08   0.14
  25   6     0.05   0.20   0.05     0.04   0.09   0.08    -0.06  -0.13  -0.15
  26   6     0.04   0.25  -0.09     0.00   0.06   0.09     0.00  -0.03  -0.24
  27   6    -0.07  -0.64  -0.05    -0.02  -0.18  -0.21     0.02   0.19   0.43
  28   7     0.04   0.20   0.00    -0.00   0.06   0.07     0.00  -0.05  -0.15
  29   6    -0.02   0.23   0.06    -0.01   0.09   0.08     0.02  -0.13  -0.15
  30   6    -0.04  -0.09   0.08    -0.02  -0.05  -0.06     0.03   0.07   0.15
  31   6    -0.02  -0.03   0.08     0.01   0.02  -0.01     0.02  -0.03   0.05
  32   6    -0.01   0.01  -0.00    -0.00  -0.02  -0.08     0.03   0.02  -0.01
  33   6    -0.00  -0.00  -0.20    -0.01  -0.00   0.19     0.02   0.01  -0.12
  34   6     0.00   0.01   0.06    -0.01   0.00  -0.25     0.01  -0.01  -0.04
  35   1    -0.00   0.01   0.01     0.05   0.00  -0.06     0.03   0.01  -0.01
  36   1    -0.00   0.01  -0.01     0.06  -0.01  -0.03     0.04   0.03  -0.05
  37   1    -0.00   0.01   0.00     0.04  -0.02   0.03     0.03   0.00   0.04
  38   1     0.00  -0.02  -0.00    -0.05  -0.00  -0.02    -0.03  -0.03  -0.03
  39   1     0.00  -0.01  -0.01    -0.05   0.00   0.02    -0.03  -0.02  -0.02
  40   1    -0.00  -0.00  -0.00    -0.02   0.01   0.02    -0.03  -0.02  -0.02
  41   1     0.00   0.00  -0.02     0.00  -0.00   0.03     0.00   0.02   0.00
  42   1    -0.00  -0.00  -0.00    -0.01   0.00  -0.20    -0.02  -0.01  -0.14
  43   1     0.00  -0.00  -0.01     0.00   0.00   0.17     0.02  -0.00   0.10
  44   1    -0.00  -0.00  -0.02    -0.01   0.00  -0.12     0.00  -0.01  -0.11
  45   1     0.00  -0.00   0.01     0.00  -0.00  -0.02    -0.00  -0.00   0.01
  46   1     0.00   0.00  -0.01     0.01  -0.01   0.01    -0.00   0.01  -0.00
  47   1    -0.00  -0.00   0.00    -0.00   0.01  -0.00    -0.00  -0.01   0.00
  48   1     0.00  -0.00  -0.01     0.01  -0.01   0.01    -0.00   0.01  -0.01
  49   1    -0.00  -0.00   0.01     0.01  -0.00  -0.02    -0.01  -0.00   0.00
  50   1     0.01  -0.00  -0.11    -0.00   0.01   0.08    -0.01  -0.01  -0.11
  51   1     0.00   0.00  -0.04     0.00  -0.01  -0.07    -0.01  -0.00  -0.06
  52   1    -0.00  -0.00   0.09     0.00   0.00  -0.12    -0.01  -0.01   0.05
  53   1    -0.04  -0.09   0.08    -0.02  -0.01  -0.04     0.03  -0.00   0.11
  54   1    -0.02   0.04   0.08    -0.01   0.05   0.02     0.02  -0.09  -0.01
  55   1     0.02   0.04   0.08     0.02   0.04   0.02    -0.05  -0.08  -0.01
  56   1     0.01  -0.10   0.08     0.02  -0.02  -0.04    -0.04   0.01   0.11
  57   1     0.00  -0.00   0.12    -0.00   0.00  -0.08     0.02  -0.01   0.10
  58   1     0.01   0.01   0.08    -0.01  -0.01  -0.10     0.02   0.01   0.06
                     43                     44                     45
                        a                      a                      a 
 Frequencies --   551.8915               564.2359               588.4344
 Red. masses --     9.7502                10.8454                10.4336
 Frc consts  --     0.0000                 0.0000                 0.0000
 IR Inten    --     5.2165                 1.2584                 1.9954
 Raman Activ --     0.0000                 0.0000                 0.0000
 Depolar     --     0.0000                 0.0000                 0.0000
 Atom AN      X      Y      Z        X      Y      Z        X      Y      Z
   1   6    -0.01  -0.06   0.12     0.01   0.06  -0.24     0.02  -0.02   0.01
   2   6    -0.00  -0.01   0.09     0.18   0.19  -0.03    -0.27   0.18   0.02
   3   6     0.01   0.07   0.04     0.07   0.15   0.23     0.09   0.00   0.03
   4   6    -0.01   0.01  -0.11     0.14  -0.13   0.01    -0.26  -0.06  -0.02
   5   6    -0.01   0.01  -0.06    -0.14  -0.30   0.02     0.00   0.08  -0.03
   6   6    -0.00   0.01   0.09    -0.16   0.07  -0.00     0.04   0.14   0.03
   7   6     0.01  -0.00  -0.11    -0.23   0.14   0.01     0.23   0.01  -0.05
   8   6     0.02   0.00   0.08     0.04   0.26  -0.01    -0.05  -0.17   0.04
   9   6     0.01  -0.00  -0.04     0.09  -0.11  -0.00    -0.05  -0.22  -0.02
  10   7     0.00  -0.01   0.10    -0.01  -0.21  -0.02     0.14  -0.11   0.01
  11   6     0.01  -0.01  -0.02    -0.13  -0.11   0.01    -0.08   0.02   0.01
  12   6     0.01   0.02  -0.03    -0.03   0.01  -0.09    -0.13   0.06  -0.00
  13   6     0.01   0.02   0.02     0.04  -0.02  -0.11     0.11  -0.10  -0.03
  14   6     0.01  -0.00   0.02     0.05   0.17  -0.01    -0.14   0.12  -0.02
  15   6    -0.02  -0.01   0.03     0.05   0.00   0.08     0.14  -0.06  -0.00
  16   6    -0.00  -0.03  -0.03    -0.02   0.03   0.11    -0.11   0.09   0.03
  17   6    -0.00  -0.04  -0.34     0.04  -0.13   0.07     0.16   0.12  -0.00
  18   6    -0.04  -0.02   0.17    -0.01  -0.21   0.00     0.11   0.08   0.02
  19   6    -0.03   0.00  -0.16    -0.00  -0.12   0.01     0.06  -0.26  -0.01
  20   6    -0.01   0.01   0.08    -0.14   0.02   0.02    -0.12  -0.09   0.07
  21   6    -0.01  -0.03  -0.02    -0.13   0.05   0.01    -0.10   0.12  -0.00
  22   6    -0.00  -0.02   0.16    -0.00  -0.04  -0.06     0.01   0.04  -0.07
  23   6     0.03   0.18  -0.24     0.02   0.05  -0.01    -0.01   0.02   0.01
[...]
   2   6    -0.00   0.00   0.00     0.00  -0.00   0.00    -0.00   0.00  -0.00
   3   6    -0.00   0.00  -0.00     0.00  -0.00   0.00     0.00   0.00  -0.00
   4   6    -0.00  -0.00   0.00    -0.01  -0.00   0.00     0.00   0.00   0.00
   5   6    -0.00  -0.00   0.00    -0.08  -0.14   0.01     0.00   0.00  -0.00
   6   6    -0.00   0.00   0.00    -0.07   0.13   0.00     0.00  -0.00  -0.00
   7   6    -0.00   0.00   0.00    -0.15   0.00   0.01     0.00  -0.00  -0.00
   8   6     0.00   0.00  -0.00     0.03   0.04  -0.00    -0.00  -0.00   0.00
   9   6     0.00   0.00  -0.00     0.00   0.00  -0.00    -0.00  -0.00   0.00
  10   7     0.00   0.00   0.00    -0.00  -0.00   0.00    -0.00   0.00   0.00
  11   6    -0.00  -0.00  -0.00    -0.00  -0.00   0.00     0.00  -0.00   0.00
  12   6     0.00   0.00  -0.00    -0.00   0.00  -0.00     0.00   0.00  -0.00
  13   6     0.00   0.00   0.00    -0.00  -0.00  -0.00     0.00   0.00   0.00
  14   6    -0.00  -0.00   0.00     0.00   0.01  -0.00    -0.00  -0.00   0.00
  15   6    -0.00  -0.00   0.00    -0.00  -0.00   0.00     0.00   0.00  -0.00
  16   6    -0.00  -0.00  -0.00    -0.00  -0.00  -0.00    -0.00  -0.00  -0.00
  17   6    -0.00  -0.00   0.00     0.00   0.00  -0.00     0.00   0.00  -0.00
  18   6     0.00   0.00  -0.00     0.00   0.00  -0.00     0.00   0.00  -0.00
  19   6    -0.00   0.00  -0.00    -0.00   0.00  -0.00     0.00  -0.00   0.00
  20   6    -0.00   0.00   0.00    -0.00   0.00  -0.00    -0.00  -0.00   0.00
  21   6    -0.00   0.01  -0.00    -0.00   0.00  -0.00     0.01  -0.01   0.00
  22   6     0.00   0.00  -0.00    -0.00   0.00   0.00     0.00   0.00   0.00
  23   6     0.00   0.00   0.00    -0.00  -0.00  -0.00    -0.01   0.00  -0.00
  24   6    -0.03   0.06   0.04    -0.00   0.00   0.00    -0.03   0.06   0.04
  25   6    -0.10  -0.11  -0.09    -0.00  -0.00  -0.00    -0.10  -0.11  -0.08
  26   6    -0.00  -0.00  -0.00    -0.00   0.00   0.00    -0.01   0.00  -0.00
  27   6     0.00  -0.00  -0.00     0.00  -0.00   0.00    -0.00   0.00  -0.00
  28   7    -0.00   0.00   0.00    -0.00  -0.00   0.00     0.00  -0.00   0.00
  29   6     0.07  -0.13  -0.08    -0.00   0.00   0.00    -0.07   0.13   0.08
  30   6     0.05   0.05   0.04    -0.00  -0.00  -0.00    -0.05  -0.06  -0.05
  31   6     0.02   0.03  -0.00    -0.00  -0.00   0.00     0.02   0.02  -0.00
  32   6     0.00  -0.00   0.00     0.00  -0.00   0.00     0.00  -0.00   0.00
  33   6    -0.00  -0.00   0.00     0.00  -0.00  -0.00     0.00  -0.00   0.00
  34   6     0.00   0.00  -0.00    -0.00  -0.00   0.00    -0.00  -0.00   0.00
  35   1    -0.00  -0.00   0.00    -0.01   0.03  -0.00    -0.00  -0.00   0.00
  36   1    -0.00  -0.00  -0.00    -0.00  -0.00  -0.00    -0.00  -0.00   0.00
  37   1     0.01  -0.00  -0.00    -0.02  -0.00   0.00     0.00  -0.00  -0.00
  38   1     0.00  -0.00  -0.00    -0.01   0.00   0.01    -0.00   0.00  -0.00
  39   1     0.00  -0.00   0.00    -0.01   0.01  -0.01     0.00  -0.00   0.00
  40   1     0.00  -0.00  -0.00     0.00   0.01  -0.00    -0.00  -0.00   0.00
  41   1     0.00   0.00  -0.00     0.29   0.50  -0.02    -0.00  -0.00   0.00
  42   1     0.00  -0.00  -0.00     0.26  -0.46  -0.00    -0.00   0.00   0.00
  43   1     0.00   0.00  -0.00     0.52   0.00  -0.02    -0.00  -0.00   0.00
  44   1    -0.00  -0.00   0.00    -0.10  -0.16   0.01     0.00   0.00  -0.00
  45   1    -0.00  -0.00   0.00    -0.00  -0.00   0.00    -0.00  -0.00   0.00
  46   1    -0.00  -0.00  -0.00     0.00   0.00   0.01    -0.00  -0.00  -0.00
  47   1     0.00   0.00  -0.00    -0.01  -0.02   0.00     0.00   0.00  -0.00
  48   1     0.00   0.00  -0.00     0.01   0.01  -0.02    -0.00  -0.00   0.00
  49   1     0.00   0.00   0.00     0.00   0.00   0.00     0.00   0.00   0.00
  50   1    -0.00  -0.00   0.00    -0.00  -0.00   0.00    -0.00  -0.00   0.00
  51   1     0.00  -0.00   0.00     0.00  -0.00   0.00    -0.00   0.01  -0.00
  52   1     0.02  -0.04   0.00     0.00  -0.00   0.00    -0.02   0.05  -0.00
  53   1     0.12  -0.22  -0.14     0.00  -0.00  -0.00     0.12  -0.22  -0.14
  54   1     0.36   0.40   0.31     0.00   0.00   0.00     0.34   0.38   0.30
  55   1    -0.25   0.45   0.28     0.00  -0.01  -0.00     0.25  -0.47  -0.30
  56   1    -0.18  -0.20  -0.16     0.00   0.00   0.00     0.19   0.21   0.17
  57   1    -0.09  -0.11   0.01     0.00   0.01  -0.00    -0.06  -0.07   0.01
  58   1    -0.00   0.01  -0.00    -0.00   0.00   0.00    -0.00   0.01  -0.00
                    160                    161                    162
                        a                      a                      a 
 Frequencies --  3085.1214              3088.9374              3090.7864
 Red. masses --     1.8346                 1.8838                 1.8735
 Frc consts  --     0.0000                 0.0000                 0.0000
 IR Inten    --    65.0310               114.2928               164.5762
 Raman Activ --     0.0000                 0.0000                 0.0000
 Depolar     --     0.0000                 0.0000                 0.0000
 Atom AN      X      Y      Z        X      Y      Z        X      Y      Z
   1   6     0.00  -0.00   0.00     0.00   0.00   0.00     0.00  -0.01   0.00
   2   6    -0.00  -0.00   0.00    -0.00  -0.00  -0.00     0.00  -0.00   0.00
   3   6    -0.00  -0.00  -0.00    -0.00   0.00  -0.00     0.00  -0.00   0.00
   4   6    -0.00   0.00   0.00    -0.00   0.00  -0.00    -0.01   0.00   0.00
   5   6    -0.00  -0.00   0.00    -0.00  -0.00   0.00    -0.11  -0.18   0.01
   6   6    -0.00   0.00  -0.00    -0.00   0.00   0.00     0.08  -0.14  -0.00
   7   6    -0.01   0.00   0.00    -0.00  -0.00   0.00     0.06   0.00  -0.00
   8   6    -0.00  -0.01   0.00    -0.00  -0.00   0.00    -0.04  -0.07   0.00
   9   6     0.00   0.00   0.00     0.00  -0.00  -0.00     0.00  -0.00  -0.00
  10   7     0.00   0.00  -0.00     0.00   0.00   0.00     0.00  -0.00  -0.00
  11   6    -0.01  -0.01  -0.00    -0.00  -0.00   0.00     0.00   0.00  -0.00
  12   6    -0.04  -0.06   0.14     0.04   0.06  -0.12     0.00   0.00  -0.01
  13   6     0.00   0.01   0.01    -0.04  -0.06  -0.11    -0.00  -0.00  -0.00
  14   6    -0.09  -0.14   0.00    -0.00  -0.00   0.00    -0.00  -0.00   0.00
  15   6    -0.00  -0.00   0.00     0.04   0.05  -0.11    -0.00  -0.00   0.00
  16   6    -0.04  -0.06  -0.13    -0.04  -0.07  -0.14     0.00   0.00   0.01
  17   6     0.00   0.00   0.00    -0.00  -0.00  -0.00    -0.00  -0.00   0.00
  18   6    -0.01  -0.01   0.00     0.00   0.00   0.00    -0.00  -0.00   0.00
  19   6     0.00  -0.00   0.00    -0.00   0.00   0.00    -0.00   0.00  -0.00
  20   6     0.00  -0.00  -0.00    -0.00  -0.00  -0.00     0.00   0.00  -0.00
  21   6    -0.00   0.00  -0.00    -0.00   0.00  -0.00    -0.00   0.00  -0.00
  22   6    -0.00  -0.00   0.00     0.00  -0.00   0.00     0.00   0.00  -0.00
  23   6     0.00  -0.00   0.00     0.00  -0.00  -0.00    -0.00   0.00   0.00
  24   6     0.00  -0.00  -0.00     0.00  -0.00  -0.00    -0.00   0.00   0.00
  25   6     0.00   0.00   0.00     0.00   0.00   0.00     0.00   0.00   0.00
  26   6     0.00   0.00   0.00     0.00   0.00   0.00     0.00  -0.00   0.00
  27   6     0.00  -0.00  -0.00     0.00  -0.00  -0.00    -0.00   0.00  -0.00
  28   7    -0.00   0.00  -0.00     0.00   0.00   0.00     0.00  -0.00   0.00
  29   6     0.00  -0.00  -0.00     0.00  -0.00  -0.00     0.00  -0.00  -0.00
  30   6    -0.00  -0.00  -0.00     0.00   0.00   0.00    -0.00  -0.00  -0.00
  31   6    -0.00  -0.00   0.00    -0.00  -0.00  -0.00    -0.00  -0.00   0.00
  32   6    -0.00   0.00  -0.00     0.00  -0.00   0.00     0.00   0.00  -0.00
  33   6    -0.00   0.00  -0.00    -0.00   0.00   0.00    -0.00  -0.00  -0.00
  34   6     0.00   0.00  -0.00     0.00   0.00   0.00     0.00   0.00  -0.00
  35   1    -0.00   0.00  -0.00    -0.00   0.00  -0.00    -0.01   0.03  -0.00
  36   1    -0.00  -0.00  -0.00    -0.00  -0.00  -0.00    -0.00  -0.00  -0.00
  37   1     0.00  -0.00  -0.00     0.00  -0.00  -0.00     0.00  -0.00  -0.00
  38   1    -0.00   0.00   0.00     0.00   0.00  -0.00    -0.01   0.00   0.01
  39   1     0.00  -0.00   0.00     0.00  -0.00   0.00    -0.01   0.00  -0.00
  40   1     0.00   0.00  -0.00    -0.00  -0.00   0.00     0.01   0.01  -0.01
  41   1     0.01   0.01  -0.00     0.00   0.00  -0.00     0.37   0.64  -0.03
  42   1     0.00  -0.00   0.00     0.00  -0.00  -0.00    -0.25   0.45   0.00
  43   1     0.02  -0.00  -0.00     0.00  -0.00  -0.00    -0.19  -0.00   0.01
  44   1     0.02   0.03  -0.00     0.00   0.00  -0.00     0.14   0.24  -0.01
  45   1     0.16   0.22  -0.48    -0.14  -0.19   0.41    -0.01  -0.01   0.02
  46   1    -0.01  -0.02  -0.05     0.12   0.20   0.39     0.00   0.00   0.01
  47   1     0.31   0.48  -0.01     0.01   0.01  -0.00     0.01   0.01  -0.00
  48   1     0.01   0.01  -0.01    -0.13  -0.18   0.38     0.00   0.00  -0.01
  49   1     0.14   0.23   0.46     0.14   0.24   0.47    -0.01  -0.01  -0.02
  50   1     0.02   0.02  -0.00    -0.00  -0.00  -0.00     0.01   0.02  -0.00
  51   1    -0.01   0.01  -0.00     0.00  -0.00   0.00     0.00  -0.00   0.00
  52   1     0.00  -0.00   0.00     0.00  -0.00   0.00     0.00  -0.00   0.00
  53   1    -0.00   0.00   0.00    -0.00   0.00   0.00     0.00  -0.01  -0.00
  54   1    -0.00  -0.00  -0.00    -0.00  -0.00  -0.00    -0.00  -0.00  -0.00
  55   1    -0.00   0.00   0.00    -0.00   0.00   0.00    -0.00   0.00   0.00
  56   1     0.00   0.00   0.00    -0.00  -0.00  -0.00     0.00   0.00   0.00
  57   1     0.00   0.00  -0.00     0.00   0.00  -0.00     0.00   0.00  -0.00
  58   1     0.00  -0.00   0.00    -0.00   0.00  -0.00     0.00  -0.00  -0.00
                    163                    164                    165
                        a                      a                      a 
 Frequencies --  3091.9711              3094.0121              3096.8210
 Red. masses --     1.8684                 1.8732                 1.9261
 Frc consts  --     0.0000                 0.0000                 0.0000
 IR Inten    --   104.9180                 4.2872                48.0063
 Raman Activ --     0.0000                 0.0000                 0.0000
 Depolar     --     0.0000                 0.0000                 0.0000
 Atom AN      X      Y      Z        X      Y      Z        X      Y      Z
   1   6     0.00  -0.00  -0.00    -0.00   0.00  -0.00     0.00   0.00  -0.00
   2   6     0.00   0.00   0.00     0.00   0.00  -0.00     0.00   0.00  -0.00
   3   6     0.00   0.00   0.00    -0.00   0.00   0.00     0.00   0.00   0.00
   4   6     0.00  -0.00  -0.00     0.00  -0.00  -0.00     0.00  -0.00  -0.00
   5   6     0.00   0.00  -0.00     0.00   0.00  -0.00     0.00   0.00  -0.00
   6   6    -0.00   0.00   0.00    -0.00   0.00   0.00    -0.00   0.00   0.00
   7   6     0.00   0.00  -0.00    -0.00  -0.00   0.00     0.00   0.00  -0.00
   8   6     0.00   0.00  -0.00     0.00   0.00  -0.00     0.01   0.01  -0.00
   9   6    -0.00   0.00  -0.00    -0.00   0.00  -0.00    -0.00   0.00  -0.00
  10   7     0.00  -0.00   0.00     0.00  -0.00   0.00    -0.00  -0.00   0.00
  11   6    -0.00  -0.00  -0.00    -0.00  -0.00   0.00     0.00   0.01   0.00
  12   6    -0.00  -0.00   0.00     0.00   0.00  -0.00     0.03   0.04  -0.07
  13   6     0.00   0.00   0.00    -0.00  -0.00  -0.00    -0.04  -0.06  -0.12
  14   6     0.00   0.00  -0.00    -0.00  -0.00   0.00    -0.10  -0.15   0.00
  15   6     0.00   0.00  -0.00    -0.00  -0.00   0.00    -0.04  -0.05   0.12
  16   6    -0.00  -0.00  -0.00    -0.00  -0.00  -0.00     0.02   0.04   0.07
  17   6    -0.00   0.00  -0.00    -0.00   0.00  -0.00     0.00  -0.00  -0.00
  18   6     0.00   0.00  -0.00     0.00   0.00  -0.00     0.01   0.01  -0.00
  19   6    -0.00  -0.00   0.00     0.00  -0.00   0.00    -0.00   0.00  -0.00
  20   6     0.00  -0.00  -0.00    -0.00  -0.00  -0.00    -0.00  -0.00   0.00
  21   6     0.00  -0.01   0.00     0.00  -0.01   0.00     0.00  -0.00   0.00
  22   6     0.00  -0.00  -0.00     0.00   0.00   0.00    -0.00  -0.00   0.00
  23   6    -0.00  -0.00  -0.00    -0.01   0.00  -0.00     0.00  -0.00   0.00
  24   6     0.06  -0.11  -0.07    -0.08   0.15   0.10     0.00  -0.00  -0.00
  25   6    -0.04  -0.05  -0.04     0.06   0.07   0.05    -0.00  -0.00  -0.00
  26   6     0.00   0.00   0.00     0.01  -0.00  -0.00    -0.00   0.00   0.00
  27   6     0.00  -0.00  -0.00     0.00  -0.00   0.00     0.00  -0.00   0.00
  28   7    -0.00   0.00   0.00    -0.00   0.00  -0.00    -0.00   0.00  -0.00
  29   6     0.05  -0.08  -0.05     0.03  -0.06  -0.04     0.00  -0.00  -0.00
  30   6    -0.11  -0.12  -0.10    -0.08  -0.09  -0.07     0.00   0.00   0.00
  31   6    -0.01  -0.01   0.00     0.01   0.01  -0.00     0.00   0.00  -0.00
  32   6    -0.00   0.00  -0.00     0.00  -0.00   0.00    -0.00  -0.00   0.00
  33   6     0.00   0.00  -0.00    -0.00  -0.00   0.00     0.00  -0.00   0.00
  34   6    -0.00  -0.00   0.00     0.00   0.00  -0.00    -0.00  -0.00   0.00
  35   1     0.00   0.00   0.00     0.00  -0.00   0.00     0.00  -0.00   0.00
  36   1     0.00  -0.00  -0.00     0.00   0.00   0.00     0.00   0.00   0.00
  37   1    -0.00  -0.00   0.00     0.00   0.00  -0.00    -0.00   0.00   0.00
  38   1     0.00  -0.00  -0.00     0.00  -0.00  -0.00     0.00  -0.00  -0.00
  39   1    -0.00   0.00  -0.00     0.00   0.00   0.00    -0.00   0.00  -0.00
  40   1    -0.00  -0.00   0.00    -0.00  -0.00   0.00    -0.00  -0.00   0.00
  41   1    -0.00  -0.00   0.00    -0.00  -0.01   0.00    -0.01  -0.01   0.00
  42   1     0.00  -0.00   0.00     0.00  -0.00  -0.00     0.00  -0.00  -0.00
  43   1    -0.00   0.00   0.00     0.00   0.00  -0.00    -0.00  -0.00   0.00
  44   1    -0.00  -0.00   0.00    -0.00  -0.00   0.00    -0.03  -0.04   0.00
  45   1     0.00   0.00  -0.00    -0.00  -0.00   0.00    -0.08  -0.12   0.25
  46   1    -0.00  -0.00  -0.00     0.00   0.00   0.00     0.12   0.20   0.39
  47   1    -0.00  -0.00   0.00     0.00   0.00  -0.00     0.32   0.49  -0.01
  48   1    -0.00  -0.00   0.00     0.00   0.00  -0.00     0.12   0.17  -0.38
  49   1     0.00   0.00   0.00     0.00   0.00   0.00    -0.08  -0.13  -0.25
  50   1    -0.00  -0.00   0.00    -0.01  -0.02   0.00    -0.03  -0.04   0.00
  51   1    -0.00   0.00  -0.00    -0.00   0.00  -0.00     0.00  -0.01   0.00
  52   1    -0.01   0.04  -0.00    -0.01   0.03  -0.00    -0.00   0.00  -0.00
  53   1    -0.21   0.39   0.25     0.28  -0.53  -0.34    -0.00   0.00   0.00
  54   1     0.14   0.16   0.12    -0.20  -0.22  -0.17     0.00   0.00   0.00
  55   1    -0.15   0.28   0.18    -0.11   0.21   0.13    -0.00   0.00   0.00
  56   1     0.39   0.44   0.35     0.28   0.32   0.26    -0.00  -0.00  -0.00
  57   1     0.03   0.03  -0.00    -0.04  -0.05   0.00    -0.00  -0.00   0.00
  58   1     0.00  -0.00   0.00    -0.00   0.01  -0.00    -0.00   0.00   0.00
                    166                    167                    168
                        a                      a                      a 
 Frequencies --  3100.6369              3102.6142              3151.3911
 Red. masses --     1.8555                 1.8452                 1.8233
 Frc consts  --     0.0000                 0.0000                 0.0000
 IR Inten    --    74.0344                94.3945                22.2023
 Raman Activ --     0.0000                 0.0000                 0.0000
 Depolar     --     0.0000                 0.0000                 0.0000
 Atom AN      X      Y      Z        X      Y      Z        X      Y      Z
   1   6    -0.00  -0.00   0.00     0.00  -0.00   0.00    -0.00   0.00   0.00
   2   6    -0.00   0.00   0.00     0.00  -0.00   0.00    -0.00   0.00   0.00
   3   6    -0.00  -0.00  -0.00    -0.00  -0.00  -0.00    -0.00   0.00   0.00
   4   6    -0.00  -0.00   0.00    -0.00  -0.00   0.00    -0.00  -0.00  -0.00
   5   6    -0.02  -0.03   0.00    -0.00  -0.01   0.00     0.00  -0.00  -0.00
   6   6     0.02  -0.05  -0.00     0.01  -0.01  -0.00     0.00  -0.00   0.00
   7   6     0.09   0.00  -0.00     0.01   0.00  -0.00     0.00  -0.00  -0.00
   8   6     0.13   0.22  -0.01     0.02   0.03  -0.00     0.00   0.00  -0.00
   9   6    -0.00   0.01  -0.00    -0.00   0.00  -0.00     0.00  -0.00   0.00
  10   7     0.00  -0.00   0.00    -0.00   0.00   0.00    -0.00   0.00  -0.00
  11   6    -0.00  -0.00   0.00    -0.00  -0.00   0.00     0.00   0.00   0.00
  12   6    -0.00  -0.00   0.01    -0.00  -0.01   0.01    -0.00  -0.00   0.00
  13   6     0.00   0.00   0.00     0.00   0.00   0.01     0.00   0.00   0.00
  14   6     0.00   0.00   0.00     0.00   0.01  -0.00    -0.00  -0.00  -0.00
  15   6     0.00   0.00  -0.00     0.00   0.00  -0.00     0.00   0.00  -0.00
  16   6    -0.00  -0.00  -0.01    -0.00  -0.01  -0.01    -0.00  -0.00  -0.00
  17   6    -0.00  -0.00  -0.00     0.01   0.00  -0.00     0.00  -0.00   0.00
  18   6    -0.02  -0.03   0.00     0.16   0.21  -0.01     0.00   0.00  -0.00
  19   6     0.00  -0.01   0.00    -0.03   0.06  -0.00    -0.00   0.00  -0.00
  20   6     0.00   0.00  -0.00    -0.00  -0.00   0.00    -0.00   0.00  -0.00
  21   6    -0.00   0.00  -0.00    -0.00   0.01  -0.00    -0.00   0.00  -0.00
  22   6     0.00   0.00  -0.00     0.00  -0.00  -0.00    -0.00   0.00  -0.00
  23   6    -0.00   0.00   0.00    -0.00   0.00  -0.00    -0.00  -0.00  -0.00
  24   6    -0.00   0.00   0.00     0.00  -0.00  -0.00     0.00  -0.00  -0.00
  25   6     0.00   0.00   0.00    -0.00  -0.00  -0.00    -0.00  -0.00  -0.00
  26   6     0.00  -0.00  -0.00     0.00  -0.00  -0.00     0.00   0.00   0.00
  27   6    -0.00   0.00  -0.00    -0.00   0.00  -0.00    -0.00   0.00   0.00
  28   7     0.00  -0.00   0.00     0.00  -0.00   0.00     0.00  -0.00   0.00
  29   6    -0.00   0.00   0.00    -0.00   0.00   0.00    -0.00   0.00   0.00
  30   6     0.00   0.00   0.00     0.00   0.00   0.00     0.00   0.00   0.00
  31   6    -0.00  -0.00   0.00    -0.00  -0.00   0.00    -0.02  -0.02   0.00
  32   6    -0.00   0.00  -0.00    -0.00   0.00  -0.00     0.09  -0.25   0.02
  33   6    -0.00   0.00   0.00    -0.00  -0.00   0.00     0.01  -0.00   0.00
  34   6     0.00   0.00  -0.00    -0.00  -0.00   0.00     0.00  -0.00   0.00
  35   1    -0.00   0.01  -0.00    -0.00   0.01  -0.00     0.00  -0.01   0.00
  36   1    -0.00  -0.00  -0.00    -0.00  -0.00  -0.00    -0.00  -0.00  -0.00
  37   1     0.01  -0.00  -0.00     0.00  -0.00  -0.00     0.02   0.00  -0.00
  38   1    -0.00   0.00   0.00    -0.00   0.00   0.00     0.01  -0.00  -0.01
  39   1     0.00  -0.00   0.00     0.00  -0.00   0.00     0.00  -0.00   0.00
  40   1     0.00   0.00  -0.00     0.00   0.00  -0.00     0.00  -0.00  -0.00
  41   1     0.07   0.11  -0.00     0.02   0.03  -0.00     0.00   0.00  -0.00
  42   1    -0.09   0.16   0.00    -0.02   0.03   0.00    -0.00   0.00   0.00
  43   1    -0.27  -0.00   0.01    -0.05  -0.00   0.00    -0.00  -0.00   0.00
  44   1    -0.44  -0.76   0.03    -0.06  -0.11   0.00    -0.00  -0.00   0.00
  45   1     0.01   0.01  -0.03     0.01   0.02  -0.04     0.00   0.00  -0.00
  46   1    -0.00  -0.01  -0.01    -0.01  -0.01  -0.02    -0.00  -0.00  -0.00
  47   1    -0.01  -0.01   0.00    -0.01  -0.02   0.00     0.00   0.00  -0.00
  48   1    -0.00  -0.00   0.01    -0.00  -0.01   0.01    -0.00  -0.00   0.00
  49   1     0.01   0.01   0.03     0.01   0.02   0.03     0.00   0.00   0.00
  50   1     0.08   0.11  -0.01    -0.55  -0.74   0.05    -0.00  -0.00   0.00
  51   1    -0.01   0.02  -0.00     0.09  -0.19   0.01     0.00  -0.01   0.00
  52   1     0.00  -0.00   0.00     0.01  -0.02   0.00     0.00  -0.00   0.00
  53   1     0.00  -0.00  -0.00    -0.00   0.01   0.01    -0.00   0.00   0.00
  54   1    -0.00  -0.00  -0.00     0.00   0.00   0.00     0.00   0.00   0.00
  55   1     0.00  -0.00  -0.00     0.00  -0.00  -0.00     0.00  -0.00  -0.00
  56   1    -0.00  -0.00  -0.00    -0.00  -0.01  -0.00    -0.00  -0.00  -0.00
  57   1     0.00   0.00  -0.00     0.01   0.01  -0.00     0.05   0.06  -0.01
  58   1     0.00  -0.00   0.00     0.00  -0.01   0.00    -0.34   0.90  -0.06
