$hessian                                                                        
        0.6389445573  -0.0129064939  -0.0355514575  -0.2787120205   0.0808843213
       -0.0740721069  -0.0649718035  -0.0294202716   0.0407260068  -0.0150750653
        0.0220447769  -0.0251644414   0.0345818419  -0.0070526247   0.0044408677
       -0.1006637552   0.0080881674  -0.0022973280  -0.0026051787  -0.0050163065
        0.0066021062  -0.0007872507   0.0011505368  -0.0011243613   0.0005181576
       -0.0004907107   0.0002895347  -0.0005237814   0.0001925384  -0.0002604579
       -0.0005627794  -0.0006586272   0.0006321241  -0.0001374419   0.0010232038
       -0.0008916689  -0.0026143532  -0.0031645126   0.0039079716  -0.0007861611
        0.0002011789  -0.0002435886   0.0008976782   0.0004486194   0.0001998740
       -0.0006318909   0.0003557626  -0.0000381967   0.0000142877   0.0000660089
        0.0000600885  -0.0017126208   0.0005316115   0.0000174558   0.0013848153
       -0.0004573482   0.0001715235   0.0006980430  -0.0010728337  -0.0000530850
       -0.0002958282   0.0006374051  -0.0000107005   0.0004433353  -0.0000980686
        0.0000326258  -0.0001640509   0.0000691020  -0.0000133968   0.0002444774
       -0.0002840164   0.0000495201   0.0006322262  -0.0005037524  -0.0000080967
       -0.0003318782  -0.0003758708  -0.0001777872   0.0010062982  -0.0001742237
        0.0000213665  -0.0005967568  -0.0000502704  -0.0000052769   0.0000103128
        0.0002046552   0.0000373175  -0.0002231285  -0.0001467274  -0.0001294527
        0.0002076576   0.0001807575   0.0001800385  -0.0001849130   0.0001043653
        0.0001346397   0.0001285045  -0.0001628060  -0.0001744368   0.0000303375
        0.0000330118   0.0000256322   0.0000371911  -0.0000321137  -0.0000247189
        0.0000874726   0.0001893584   0.0001835365  -0.0001502332  -0.0001394264
       -0.0001443870   0.0002556495  -0.0001295898  -0.0001696900  -0.0002368180
        0.0000808019   0.0001361558   0.0000538430  -0.0001987649  -0.0000424706
       -0.0007769326   0.0005191473   0.0001584093   0.0006787914   0.0005777492
       -0.0000392352  -0.0012849827  -0.0002607653   0.0000437021   0.0010280583
        0.0003062517   0.0000107372  -0.0003766613  -0.0000905209  -0.0000177838
       -0.1907379776  -0.0750564134   0.1028315467  -0.0061738269   0.0030959366
       -0.0023849838  -0.0024779795  -0.0015552432   0.0029324134  -0.0076548637
        0.0187347150  -0.0207737605  -0.0000671092  -0.0001214964   0.0001345268
       -0.0000033096   0.0000202878  -0.0000035197   0.0000126668   0.0000801368
        0.0000156558   0.0000273526   0.0000292637  -0.0000114331  -0.0000353110
       -0.0000414592  -0.0000324611  -0.0000004485   0.0000173469  -0.0000758182
       -0.0001546757  -0.0002135873   0.0000168041  -0.0000340786   0.0000203548
       -0.0000109278  -0.0000350208   0.0000349247   0.0000124616  -0.0000262472
       -0.0000056322  -0.0000147329  -0.0000119780  -0.0000109888   0.0000107688
        0.0000239453  -0.0000270908   0.0000192659   0.0000006615  -0.0000296140
       -0.0000413732  -0.0000300602  -0.0000177894  -0.0000187407  -0.0000450920
        0.0000190552   0.0000133517  -0.0000451600   0.0000195031  -0.0000236640
       -0.0000315874   0.0000134268   0.0000225374   0.0000042121   0.0000309343
        0.0000444933   0.0000264188  -0.0000091548  -0.0000122427  -0.0000220544
       -0.0000074103  -0.0000170210   0.0000142727  -0.0000226908  -0.0000402562
       -0.0129064939   0.3466363372  -0.2676172259   0.0276301423  -0.0816767923
        0.0381076666   0.0087524433   0.0224736680  -0.0263107541   0.0170420582
       -0.0173239278   0.0117140685  -0.0416754957  -0.0244288420   0.0340514786
        0.0584669630  -0.1684457454   0.1341096719  -0.0014421293   0.0093295747
       -0.0023168134   0.0011082359  -0.0018097059   0.0018877800   0.0004261597
        0.0003839777  -0.0010434042  -0.0002118791  -0.0000907426   0.0002769840
        0.0000523351   0.0000092481  -0.0003662511  -0.0023845598  -0.0004712791
        0.0005255480   0.0000357141  -0.0007144920   0.0004896242   0.0011981270
       -0.0006938691   0.0000619406  -0.0008685575  -0.0000648168  -0.0001473276
        0.0007637784  -0.0006357380   0.0000475537  -0.0001470457   0.0005891757
       -0.0000548480   0.0014812001  -0.0009849179  -0.0000096957  -0.0013656155
        0.0007204686   0.0000540687  -0.0008166320   0.0011722728   0.0000335033
        0.0002470336  -0.0006061791   0.0000135086  -0.0002337888   0.0001704037
       -0.0000239720  -0.0000374431  -0.0003194265   0.0000206457  -0.0000139733
        0.0006466847  -0.0000682156  -0.0007938999   0.0001818052  -0.0000013536
        0.0004786170   0.0006103781   0.0002158487  -0.0010841031  -0.0000906107
       -0.0000023080   0.0007621322   0.0000857233   0.0000022877  -0.0001008456
       -0.0002293805   0.0000014951   0.0001993261   0.0000367906   0.0000090071
       -0.0001194794  -0.0001187844  -0.0001279221   0.0001713297  -0.0001509887
       -0.0001757038  -0.0000899597   0.0002603292   0.0002676816  -0.0000492784
       -0.0002292422  -0.0002390849  -0.0001034215   0.0002204620   0.0002374600
       -0.0000299965  -0.0002707638  -0.0002722505   0.0001329885   0.0001886949
        0.0001882153  -0.0001509283   0.0000940606   0.0001228285   0.0001889837
        0.0000270752  -0.0000151136  -0.0001410801   0.0001981501   0.0000029568
        0.0005806757  -0.0004981952  -0.0002018604  -0.0005090347  -0.0005670256
        0.0000320813   0.0011255922   0.0002802592  -0.0000370808  -0.0007091748
       -0.0004008963  -0.0000076586   0.0003009674   0.0002269910   0.0000164444
       -0.0749948728  -0.0764492993   0.0580554338   0.0180322736  -0.0061383137
        0.0061106703  -0.0019943461   0.0044007661   0.0045581532   0.0034379413
       -0.0055079787   0.0074059718   0.0000982580   0.0001283637   0.0000986922
        0.0000152130  -0.0000497718   0.0000260147   0.0000071965  -0.0000239999
        0.0000489059  -0.0000459960  -0.0000924815   0.0001218817   0.0000532772
        0.0000981403   0.0000658257   0.0000077038  -0.0000096203   0.0000376379
       -0.0000029262  -0.0000015217  -0.0000378233  -0.0000103725  -0.0000576671
        0.0000048610   0.0000283584  -0.0000767103  -0.0000139683   0.0000627547
       -0.0000210295   0.0000059937   0.0000344216  -0.0000044329  -0.0000189245
       -0.0000420477   0.0000114527  -0.0000145698  -0.0000092305   0.0000395099
        0.0000575628   0.0000398742   0.0000279456   0.0000338139   0.0000631512
       -0.0000139496  -0.0000146356   0.0000643286  -0.0000038544   0.0000242986
        0.0000443230  -0.0000190935  -0.0000329567  -0.0000082669  -0.0000401752
       -0.0000563821  -0.0000422969   0.0000081342   0.0000115421   0.0000376249
        0.0000286509   0.0000171104  -0.0000363325   0.0000467678   0.0000533858
       -0.0355514575  -0.2676172259   0.4251561855  -0.0105260234   0.0323243696
       -0.0858595623  -0.0041255113  -0.0222385053   0.0279168198  -0.0181188903
        0.0110230233  -0.0173029945   0.0438819142   0.0306134370  -0.0380992872
       -0.0606208076   0.1402904261  -0.1981388825   0.0029821986  -0.0024055308
        0.0089949979  -0.0011519846   0.0019038313  -0.0019234501  -0.0005246703
       -0.0010306922   0.0005510891   0.0002046786   0.0001426180  -0.0002540750
       -0.0000673596  -0.0004725223   0.0000998347   0.0025022556   0.0007456934
       -0.0006810808   0.0002496335   0.0007358171  -0.0008072585  -0.0015152340
        0.0006323763  -0.0000524575   0.0008849631   0.0000726276   0.0001565137
       -0.0007363804   0.0006298621  -0.0000541008   0.0001991389  -0.0005416884
        0.0000449904  -0.0015096438   0.0009427220   0.0000053494   0.0013419746
       -0.0007428356   0.0001240484   0.0008230856  -0.0012481529  -0.0000538630
       -0.0002732384   0.0006764894  -0.0000114834   0.0002876160  -0.0001819328
        0.0000235783   0.0000253960   0.0003238386  -0.0000166187  -0.0000541579
       -0.0007047411   0.0000693108   0.0008411780  -0.0000957061   0.0000024341
       -0.0005287495  -0.0006634682  -0.0002294144   0.0010987891   0.0001483658
        0.0000035868  -0.0007946763  -0.0000869748  -0.0000015083   0.0001121557
        0.0002460183   0.0000118295  -0.0002104974  -0.0000389128  -0.0000183392
        0.0001362082   0.0001295901   0.0001440241  -0.0001851102   0.0001613869
        0.0001955267   0.0001064757  -0.0002669345  -0.0002775898   0.0000363296
        0.0002352213   0.0002439119   0.0000947393  -0.0002258057  -0.0002435348
        0.0000444351   0.0002882881   0.0002867291  -0.0001429904  -0.0001945537
       -0.0002061112   0.0001722160  -0.0001005653  -0.0001345542  -0.0002142179
       -0.0000181816   0.0000207024   0.0001593786  -0.0002136549  -0.0000114584
       -0.0005756716   0.0004766280   0.0002054383   0.0005310198   0.0005986235
       -0.0000255418  -0.0011422046  -0.0003403119   0.0000368355   0.0006884846
        0.0004631959   0.0000062252  -0.0002614195  -0.0002750963  -0.0000139387
        0.1027411766   0.0579966333  -0.1105471687  -0.0212201970   0.0079354275
       -0.0061723193   0.0032445461   0.0047469561   0.0022655080  -0.0029240556
        0.0048834794  -0.0052207433  -0.0000936304   0.0001006611   0.0000679573
       -0.0000180604   0.0000411791  -0.0000349147  -0.0000033433   0.0001189481
        0.0000297777   0.0000728704   0.0001055353  -0.0001285314  -0.0000560679
       -0.0001055277  -0.0000662123  -0.0000097768   0.0000064097  -0.0000456573
       -0.0000626177  -0.0000251478   0.0000394849   0.0000109412   0.0000601883
       -0.0000116333  -0.0000282706   0.0000849994   0.0000073247  -0.0000689541
        0.0000242127  -0.0000110541  -0.0000354125   0.0000070988   0.0000153677
        0.0000391918  -0.0000137458   0.0000151313   0.0000075238  -0.0000443457
       -0.0000543063  -0.0000405224  -0.0000308010  -0.0000315907  -0.0000660386
        0.0000134184   0.0000177342  -0.0000658669   0.0000074882  -0.0000267265
       -0.0000449501   0.0000243764   0.0000336865   0.0000059666   0.0000464186
        0.0000555829   0.0000435419  -0.0000027291  -0.0000146648  -0.0000395366
       -0.0000305796  -0.0000131495   0.0000381746  -0.0000510101  -0.0000517394
       -0.2787120205   0.0276301423  -0.0105260234   0.6251658887  -0.0229331379
       -0.0206672667  -0.2346418822  -0.0377093156   0.0626256257   0.0264885480
       -0.0498988381   0.0553437380  -0.0461870733  -0.0065479125   0.0117356353
        0.0001991325   0.0569720956  -0.0665365754  -0.0019075816   0.0013165255
       -0.0009071739  -0.0008161464  -0.0004326174   0.0004351088  -0.0005488159
        0.0002628822  -0.0001520833  -0.0000312400   0.0011508493  -0.0012718513
        0.0013796623  -0.0005436308   0.0009783183   0.0020452276  -0.0005946337
        0.0007962016   0.0085241872   0.0075659979  -0.0101122974  -0.0017300499
        0.0012874145   0.0004377150  -0.0003134501  -0.0009277157  -0.0005659279
        0.0001292236   0.0001188724   0.0000547405  -0.0000384638  -0.0013557463
       -0.0000791964   0.0014932578   0.0007738668   0.0000582789  -0.0005908292
       -0.0002859292   0.0004238517  -0.0004668250  -0.0003277677  -0.0000085482
        0.0002603611   0.0003656953   0.0000133055  -0.0002009823  -0.0000448455
       -0.0000024754   0.0000255936   0.0007165960   0.0000187375  -0.0007856957
       -0.0010021396  -0.0001131802  -0.0010061897   0.0028188526  -0.0000146847
        0.0002769324   0.0004006467   0.0004472812  -0.0027027984   0.0014549724
       -0.0000985809   0.0016815573   0.0001798655   0.0000289061   0.0003539074
       -0.0008488260  -0.0005461416   0.0007228129   0.0008487504   0.0008636129
       -0.0007663024  -0.0007432936  -0.0007374268   0.0002848985  -0.0001001074
       -0.0001707412  -0.0006540491  -0.0001725879  -0.0001342773   0.0000017334
        0.0008338764   0.0009629876   0.0001852351  -0.0008213696  -0.0009528940
       -0.0006758164   0.0000419300   0.0001222715   0.0002527461   0.0001547818
        0.0001718547  -0.0009015878   0.0005618230   0.0007324107   0.0008773590
       -0.0006859769  -0.0008566189   0.0001638803   0.0008971351   0.0005644946
        0.0019849206  -0.0021338037  -0.0004571877  -0.0011240395  -0.0007961892
        0.0000140908   0.0032675771  -0.0008666397   0.0000325175  -0.0021161465
       -0.0007206341  -0.0000305076   0.0005348563   0.0005103578   0.0000388666
       -0.0246148713   0.0050205465  -0.0034122739  -0.0508622979   0.0270205787
       -0.0321809497  -0.0249805782  -0.0094708357   0.0133434275   0.0012576364
        0.0011246437  -0.0002300758   0.0002541003  -0.0000514154   0.0001335008
        0.0000010837  -0.0000044949  -0.0000108570   0.0000403060  -0.0001071421
       -0.0000542109  -0.0000281397  -0.0000231044   0.0000193628  -0.0000617702
       -0.0000118056   0.0000162686  -0.0000062137  -0.0000132011   0.0001565521
       -0.0002757043   0.0000588365   0.0001350397  -0.0000066372   0.0000034109
        0.0000085946  -0.0000140675   0.0000488777  -0.0000249970  -0.0000266460
        0.0000166655   0.0000022862  -0.0000074139  -0.0000004018  -0.0000473681
        0.0000212177  -0.0000007504  -0.0000040704   0.0000031106  -0.0000099227
        0.0000002890  -0.0000213180  -0.0000200072  -0.0000193659  -0.0000104847
       -0.0000033214   0.0000137793  -0.0000092076   0.0000027025  -0.0000089944
       -0.0000230074   0.0000184784   0.0000191511   0.0000018903   0.0000109160
        0.0000015117   0.0000265589   0.0000065758   0.0000055478  -0.0000054976
        0.0000076182   0.0000880431  -0.0000335619   0.0000062813   0.0000909182
        0.0808843213  -0.0816767923   0.0323243696  -0.0229331379   0.3427253750
       -0.2700706009  -0.0896749037  -0.0945497669   0.0695468818  -0.0119505081
       -0.0214356194   0.0254758709  -0.0021328275   0.0013241380  -0.0070690982
        0.0188784636  -0.0110840188   0.0121955280  -0.0006349522  -0.0031718362
        0.0035685555  -0.0013782720   0.0010277968  -0.0010513683  -0.0002027188
       -0.0002068062   0.0001915446  -0.0007894089   0.0010844951  -0.0012575570
        0.0011657575  -0.0015444201   0.0016368711   0.0016782012   0.0006682460
        0.0001395722   0.0041562787   0.0019841548   0.0038083749  -0.0019867014
        0.0010522842   0.0003882919   0.0005541827  -0.0002584456  -0.0006055441
       -0.0004524922   0.0002629539  -0.0000348896  -0.0002736384  -0.0008891287
        0.0000821971  -0.0012017301   0.0013532515  -0.0000248009   0.0015527232
       -0.0010700268   0.0002326138   0.0002672705  -0.0014871542  -0.0001235776
       -0.0000682626   0.0011108065   0.0000083283   0.0003178664  -0.0001031347
        0.0000393695  -0.0002836337   0.0007318237   0.0000243182  -0.0001176043
       -0.0010594796  -0.0000977704  -0.0005274811   0.0019811767  -0.0000584674
        0.0001128581   0.0003296177   0.0003733175  -0.0019811457   0.0009499160
       -0.0000434850   0.0013871523   0.0001731817   0.0000106816   0.0002523633
       -0.0006645874  -0.0004131816   0.0004662928   0.0005634357   0.0005816098
       -0.0004703840  -0.0004916339  -0.0005021293   0.0001381621  -0.0000607070
       -0.0001078846  -0.0004445693  -0.0001396297  -0.0001219609  -0.0000229162
        0.0005594277   0.0006524683   0.0001050378  -0.0005628638  -0.0006499152
       -0.0004702935   0.0000542353   0.0001165109   0.0001241463   0.0000924976
        0.0000984689  -0.0005552203   0.0003822496   0.0005048797   0.0005738036
       -0.0004769619  -0.0005736650   0.0001091977   0.0006923005   0.0004194939
        0.0009987607  -0.0016274909  -0.0003779965  -0.0002744208  -0.0002298336
       -0.0000167718   0.0018496247  -0.0011573235   0.0000336913  -0.0007422486
       -0.0007442996   0.0000081023  -0.0000997286   0.0007230386   0.0000483297
       -0.0105549663   0.0029057040  -0.0015168542   0.0279782687  -0.1435571421
        0.1287357773   0.0055053648   0.0032098727  -0.0032798302   0.0013784366
        0.0019566840   0.0066284141  -0.0000191356   0.0000593992  -0.0000028845
       -0.0000119849   0.0000264067  -0.0000314146   0.0000104621  -0.0000083155
        0.0000171849   0.0000314753   0.0000412797  -0.0000554034  -0.0000316258
        0.0000259983  -0.0000064440   0.0000021294   0.0000073692   0.0001082650
       -0.0001312464   0.0000863607   0.0000348436  -0.0000030949   0.0000486713
       -0.0000025266  -0.0000153854   0.0000495274  -0.0000181854  -0.0000137933
        0.0000014043  -0.0000131049   0.0000134537  -0.0000079381  -0.0000447065
        0.0000211573  -0.0000167077   0.0000069436   0.0000025620  -0.0000128083
       -0.0000086969  -0.0000193435  -0.0000162979  -0.0000175319  -0.0000132125
        0.0000059044   0.0000152471  -0.0000116866   0.0000180474  -0.0000193127
       -0.0000219802   0.0000133317   0.0000163381   0.0000026176   0.0000119794
        0.0000115610   0.0000265438   0.0000020550  -0.0000024264   0.0000031508
        0.0000158682   0.0000691758  -0.0000314314  -0.0000010960   0.0000659944
       -0.0740721069   0.0381076666  -0.0858595623  -0.0206672667  -0.2700706009
        0.4367137648   0.1237743190   0.0642616757  -0.1316222452   0.0115523409
        0.0305763134  -0.0367927608   0.0067338208  -0.0069097785   0.0021765374
       -0.0219106968   0.0083430873  -0.0058521686   0.0008899113   0.0033986659
       -0.0043870238   0.0017173627  -0.0012713692   0.0012085350   0.0002937914
        0.0002856249  -0.0001870225   0.0009979767  -0.0014823130   0.0015688382
       -0.0015879810   0.0018117482  -0.0022948974  -0.0017387216  -0.0002668338
        0.0004327166  -0.0071194051   0.0035034984   0.0022628031   0.0037372019
       -0.0009786345   0.0004164448  -0.0010838211  -0.0000119965   0.0004695901
        0.0009712335  -0.0006245645  -0.0000070628  -0.0002777529   0.0012026368
       -0.0000201297   0.0012361670  -0.0012947831  -0.0000514658  -0.0013406483
        0.0012317537  -0.0006081179  -0.0002239518   0.0018328430   0.0001468556
        0.0001582401  -0.0015100078   0.0000243046  -0.0006887023   0.0001081809
       -0.0000604468   0.0005425731  -0.0006709605  -0.0000133272   0.0004240035
        0.0012390403   0.0001215061   0.0007539269  -0.0028360909   0.0000259991
       -0.0001243439  -0.0003927476  -0.0004878175   0.0027161099  -0.0014505240
        0.0000945188  -0.0018730769  -0.0002206414  -0.0000272547  -0.0003526896
        0.0008980069   0.0005622933  -0.0006311422  -0.0007603380  -0.0008037609
        0.0006454383   0.0006800278   0.0006875770  -0.0001952317   0.0000859067
        0.0001521327   0.0006117690   0.0001870145   0.0001540467   0.0000361378
       -0.0007637022  -0.0008974540  -0.0001392518   0.0007674844   0.0008904023
        0.0006478854  -0.0000675070  -0.0001425013  -0.0001736970  -0.0001295693
       -0.0001376767   0.0007660863  -0.0005332657  -0.0006883469  -0.0008001775
        0.0006500581   0.0007857543  -0.0001489393  -0.0009425048  -0.0005715630
       -0.0014929811   0.0022665353   0.0005250861   0.0004908435   0.0003802701
        0.0000094979  -0.0026802353   0.0015178650  -0.0001216026   0.0015629410
        0.0005744132   0.0000447614  -0.0000534257  -0.0006069693  -0.0000312092
        0.0148659124  -0.0031500757   0.0027436169  -0.0318052571   0.1288244357
       -0.1842229187  -0.0044079566  -0.0020932618   0.0034217046  -0.0007360915
        0.0066489725   0.0003919326  -0.0000050478  -0.0000571097  -0.0000226025
        0.0000152406  -0.0000328276   0.0000289726  -0.0000234983   0.0000356182
       -0.0000133648  -0.0000307405  -0.0000501586   0.0000599544   0.0000331556
       -0.0000152887  -0.0000152558   0.0000137747   0.0000134575  -0.0000462719
        0.0001257814  -0.0001232673  -0.0000687950   0.0000066762  -0.0000379334
        0.0000190020   0.0000131221  -0.0000559748   0.0000249331   0.0000208623
       -0.0000034833   0.0000264362  -0.0000160391   0.0000122754   0.0000643008
       -0.0000325325   0.0000177373  -0.0000123552  -0.0000043118   0.0000175671
        0.0000091976   0.0000269061   0.0000226080   0.0000201950   0.0000156835
       -0.0000068173  -0.0000203111   0.0000153957  -0.0000228822   0.0000228460
        0.0000286776  -0.0000226854  -0.0000163185  -0.0000073086  -0.0000188263
       -0.0000098920  -0.0000357624  -0.0000035238   0.0000056155  -0.0000010756
       -0.0000171484  -0.0001001306   0.0000405999   0.0000039786  -0.0000990395
       -0.0649718035   0.0087524433  -0.0041255113  -0.2346418822  -0.0896749037
        0.1237743190   0.6703485481  -0.0330710418  -0.0065868091  -0.0983988511
        0.0611620136  -0.0679909151   0.0021592744   0.0166899450  -0.0192846432
       -0.0003336602  -0.0137664066   0.0157864488  -0.0041670039   0.0050964476
       -0.0046905276   0.0015887618   0.0002999147  -0.0003539024  -0.0002888770
        0.0001316788  -0.0001025532   0.0010026285  -0.0017829128   0.0019737389
       -0.0007603689   0.0011764242  -0.0014977980  -0.0054999009  -0.0030671170
        0.0036028558   0.0024512979  -0.0165447712   0.0190620587   0.0033313476
       -0.0015672889   0.0006376301   0.0000333596   0.0006386438   0.0006465483
        0.0002257401  -0.0001084477  -0.0000800514   0.0000010555   0.0010279960
       -0.0000354136   0.0002892359  -0.0010437151   0.0001661839  -0.0015102584
        0.0003713073   0.0000927930   0.0001739205   0.0011156453   0.0000917182
       -0.0000164843  -0.0010100680  -0.0000840104  -0.0002438543   0.0000638719
       -0.0000278708   0.0003437555  -0.0006995903  -0.0000374526   0.0004862527
        0.0010632552   0.0001533704   0.0010861030  -0.0029038890   0.0000560267
       -0.0003287525  -0.0006076678  -0.0005613594   0.0030808082  -0.0014017624
        0.0000935635  -0.0021028644  -0.0002453378  -0.0000297237  -0.0003264391
        0.0009893958   0.0005979372  -0.0007437012  -0.0008240579  -0.0008512012
        0.0007478327   0.0007589647   0.0007649657  -0.0002668359   0.0001415916
        0.0002168256   0.0006859842   0.0001283598   0.0000891184   0.0000266433
       -0.0007534117  -0.0008871947  -0.0001427021   0.0007534418   0.0008769501
        0.0007033539   0.0000050909  -0.0000808841  -0.0002325549  -0.0001967230
       -0.0002143206   0.0008760436  -0.0005853306  -0.0007668020  -0.0009081076
        0.0006771060   0.0008328474  -0.0001065403  -0.0010313397  -0.0006095865
       -0.0018103389   0.0024106659   0.0005610848   0.0008274293   0.0006709009
        0.0000076804  -0.0031978424   0.0012811410  -0.0000371379   0.0018027586
        0.0009303032  -0.0000261255  -0.0002631378  -0.0008250150  -0.0000369018
       -0.0050413279   0.0018084201  -0.0010279271   0.0024001965   0.0010439920
       -0.0004224472  -0.2686029977   0.0628741273  -0.0605050006   0.0004118621
       -0.0004560018   0.0003014759   0.0000425521  -0.0000303125  -0.0000234998
        0.0000482137   0.0000123885  -0.0000461223   0.0000537215  -0.0000528476
        0.0000795773   0.0000184427  -0.0000319554   0.0000421819   0.0000965541
        0.0001008868   0.0000250472  -0.0000066024   0.0000174255  -0.0001258041
       -0.0004075431   0.0000915533   0.0006786219  -0.0000078968   0.0000529239
        0.0000368108   0.0000124498  -0.0000203275   0.0000325699  -0.0000102132
        0.0000149913   0.0000185444  -0.0000311531   0.0000170180   0.0000648345
       -0.0000278001   0.0000156956  -0.0000068217  -0.0000028043   0.0000077469
       -0.0000011933   0.0000202976   0.0000166768   0.0000149636   0.0000036607
       -0.0000075464  -0.0000198655   0.0000022968  -0.0000229143   0.0000186060
        0.0000210838  -0.0000170683  -0.0000158872  -0.0000061054  -0.0000098893
       -0.0000022870  -0.0000321661  -0.0000011015   0.0000017888  -0.0000133789
       -0.0000238444  -0.0001021909   0.0000492840  -0.0000257873  -0.0001019439
       -0.0294202716   0.0224736680  -0.0222385053  -0.0377093156  -0.0945497669
        0.0642616757  -0.0330710418   0.3230509459  -0.2546442780   0.0275713944
       -0.1467160781   0.1219280040   0.0391157231  -0.0107837181   0.0088107910
       -0.0071614413  -0.0186170725   0.0196092794   0.0029549192   0.0052431519
       -0.0012144528   0.0016808872  -0.0009301551   0.0014820092   0.0008706415
        0.0000206727  -0.0004916885  -0.0000995802  -0.0013772884   0.0015405032
       -0.0007796255   0.0010085311  -0.0004440799  -0.0054142741   0.0010654299
        0.0014446298  -0.0126625666  -0.0206073922   0.0239703066   0.0048124115
       -0.0021679408  -0.0007259481  -0.0009339663   0.0006427152   0.0004015067
        0.0009919262  -0.0008424826   0.0000658074  -0.0002161857   0.0017043963
        0.0000156988   0.0011776524  -0.0017447799  -0.0000139275  -0.0013127149
        0.0012791911  -0.0006261191  -0.0004835451   0.0019529327   0.0001572034
        0.0001204469  -0.0014034495   0.0000410892  -0.0004313658   0.0002263379
       -0.0000528571   0.0002041682  -0.0009104974   0.0000052806   0.0006348642
        0.0016376087   0.0000635055   0.0002863306  -0.0028082161   0.0000087931
        0.0001582682   0.0001049415  -0.0002976847   0.0018581338  -0.0016419082
        0.0000876537  -0.0011524868  -0.0001238333  -0.0000187953  -0.0004580451
        0.0006910789   0.0005619061  -0.0005027850  -0.0007543599  -0.0008057708
        0.0005715218   0.0006135984   0.0006121512  -0.0000718973  -0.0000447397
        0.0000017199   0.0005655079   0.0003996021   0.0003693886   0.0000184427
       -0.0009819403  -0.0011261630  -0.0002124180   0.0009741440   0.0011186529
        0.0006498645  -0.0002855587  -0.0003619795  -0.0000794033   0.0000235935
        0.0000171014   0.0006779701  -0.0004812393  -0.0006156457  -0.0006752173
        0.0006704852   0.0007885586  -0.0002867928  -0.0007682462  -0.0005790201
       -0.0013038516   0.0019076752   0.0003420805   0.0003681398   0.0000888051
        0.0000101301  -0.0020875179   0.0015311495  -0.0001206284   0.0013313320
        0.0003542748   0.0000465858  -0.0000977635  -0.0003768932  -0.0000416066
        0.0019032341   0.0038482947   0.0031012437  -0.0147117775  -0.0084289414
        0.0120678002   0.0627387268  -0.0540363721   0.0218396573  -0.0003149454
       -0.0003081808   0.0000252650  -0.0001627571   0.0000563411  -0.0001106617
        0.0000254211  -0.0000613527  -0.0000225112   0.0000117395  -0.0000742654
       -0.0000238101   0.0000929126   0.0000333573  -0.0000188468   0.0000627999
        0.0001687644   0.0000363668   0.0000201567   0.0000399861  -0.0000866090
        0.0001380254   0.0002018860  -0.0000775000  -0.0000223580  -0.0000547793
        0.0000044990   0.0000219073  -0.0001268099   0.0000140366   0.0000938582
       -0.0000437452   0.0000121628   0.0000272883  -0.0000089438   0.0000426825
       -0.0000513062   0.0000050664  -0.0000153548  -0.0000097235   0.0000324895
        0.0000353494   0.0000443238   0.0000347393   0.0000384448   0.0000427643
       -0.0000020660  -0.0000250431   0.0000430639  -0.0000148613   0.0000247722
        0.0000472631  -0.0000327741  -0.0000358163  -0.0000090467  -0.0000343995
       -0.0000357686  -0.0000567327  -0.0000043057   0.0000120085   0.0000250497
        0.0000066344  -0.0000866656   0.0000036394   0.0000568644  -0.0000585638
        0.0407260068  -0.0263107541   0.0279168198   0.0626256257   0.0695468818
       -0.1316222452  -0.0065868091  -0.2546442780   0.4184731284  -0.0293113138
        0.1198749256  -0.1873514438  -0.0459129892   0.0107032355  -0.0079276979
        0.0084919247   0.0202575637  -0.0274655426  -0.0022089085  -0.0009425876
        0.0062794964  -0.0019971414   0.0013904621  -0.0009328979  -0.0006304028
       -0.0002997217  -0.0000432012  -0.0006468146   0.0017554436  -0.0022042259
        0.0013312689  -0.0005487910   0.0023540834   0.0063136946   0.0022682558
        0.0001407268   0.0150021786   0.0216324116  -0.0303408969  -0.0062191340
        0.0018501004  -0.0001662410   0.0017909429  -0.0002529201  -0.0005153353
       -0.0017849144   0.0014363923  -0.0000563795   0.0005893315  -0.0024954184
        0.0001031497  -0.0020009442   0.0026648610  -0.0000230370   0.0023390729
       -0.0026343505  -0.0000213571   0.0007973974  -0.0027177998  -0.0001849083
       -0.0002662791   0.0018721769  -0.0000393482   0.0005662266  -0.0002716311
        0.0000669157  -0.0003010771   0.0011880305   0.0000109015  -0.0006674281
       -0.0020779406  -0.0000897444  -0.0003032580   0.0034184086  -0.0000290767
       -0.0002008329  -0.0000549188   0.0004045640  -0.0023962995   0.0019302218
       -0.0001036257   0.0015276629   0.0001683376   0.0000267689   0.0005272737
       -0.0008904189  -0.0006936271   0.0006848214   0.0009549332   0.0009960473
       -0.0007573314  -0.0007858925  -0.0007846237   0.0001427830   0.0000159982
       -0.0000475603  -0.0007210731  -0.0004400649  -0.0004067461  -0.0000038872
        0.0011702170   0.0013364196   0.0002640207  -0.0011596523  -0.0013315871
       -0.0008077741   0.0002950176   0.0003950786   0.0001393893   0.0000152294
        0.0000248706  -0.0008931597   0.0006034056   0.0007857258   0.0008718238
       -0.0008314680  -0.0009849530   0.0003231624   0.0009723015   0.0007078832
        0.0016032700  -0.0023417111  -0.0004394828  -0.0004617886  -0.0001808824
       -0.0000119518   0.0026314671  -0.0018330541   0.0000862876  -0.0017040179
       -0.0003198892  -0.0000305226  -0.0000642187   0.0003843813   0.0000572750
       -0.0012729047   0.0031000822   0.0031369048   0.0174900151   0.0102078146
       -0.0142932045  -0.0598591561   0.0215548402  -0.0545339166   0.0003183168
        0.0002275508  -0.0002070685   0.0001821468   0.0000068949   0.0001838040
       -0.0000430209  -0.0000203212  -0.0000496616  -0.0000401331  -0.0001451103
       -0.0001669140  -0.0001037037  -0.0000084801   0.0000576220  -0.0000511665
       -0.0000613089  -0.0000721270  -0.0000088569  -0.0000088326   0.0001296487