$hessian                                                                        
        0.4965788572   0.0399959131   0.0000238690  -0.0932547767   0.0563428576
        0.0000382319   0.0065199307  -0.0108976925  -0.0000075880  -0.0162364571
        0.0150449062  -0.0098883039  -0.0005949851   0.0009114120   0.0011835657
       -0.0004094753  -0.0006087960  -0.0001701957   0.0000713375  -0.0001542492
       -0.0000135357  -0.0005517073  -0.0008073495  -0.0001377078   0.0001580839
        0.0008834244  -0.0024016202  -0.0002652472  -0.0000191492   0.0000000648
        0.0002081340  -0.0000826635  -0.0000000536  -0.0000370546   0.0000674536
       -0.0000000281   0.0000192662  -0.0000267862   0.0000000486  -0.0000399712
       -0.0000151959  -0.0000000088   0.0000738936   0.0000086038   0.0000000067
       -0.0000411282  -0.0000281750  -0.0000000153   0.0000352383   0.0000172482
        0.0000000692  -0.0000065594  -0.0000079039  -0.0000000340  -0.0000028932
        0.0000014229   0.0000000129  -0.0000035529   0.0000049498  -0.0000000013
        0.0000017603  -0.0000003810  -0.0000000115   0.0000019567  -0.0000039361
        0.0000000412   0.0000075122  -0.0000010502   0.0000000382  -0.0000219798
       -0.0000126998  -0.0000000287   0.0000381272   0.0000042130  -0.0000000202
       -0.0000039147   0.0000020794  -0.0000000266   0.0000062034  -0.0000003939
       -0.0000000106  -0.0000017128  -0.0000007481  -0.0000000138   0.0000018984
       -0.0000004145  -0.0000000469   0.0000023857   0.0000008642  -0.0000000075
        0.0000032900   0.0000019015  -0.0000000406  -0.0000378949   0.0000087815
        0.0000000124   0.0000337743   0.0000132682   0.0000000091  -0.0000192119
       -0.0000145404   0.0000000465   0.0001567006   0.0008802362   0.0024031721
       -0.0005519792  -0.0008079171   0.0001365220   0.0000714906  -0.0001539034
        0.0000135529  -0.0004097252  -0.0006087044   0.0001695479  -0.0005950464
        0.0009114837  -0.0011823612  -0.0162383909   0.0150327138   0.0099084383
       -0.1238496575   0.0013249603  -0.1141990275  -0.1238736725   0.0011641108
        0.1142108902  -0.1268053314  -0.1147099594  -0.0000850489   0.0006348453
       -0.0005506614   0.0001492826   0.0006352271  -0.0005509580  -0.0001500597
       -0.0010227586  -0.0034919398  -0.0000025341  -0.0000776107   0.0001938801
        0.0003308258  -0.0000107931   0.0000247002   0.0000346635   0.0000087108
        0.0001451441   0.0000079451  -0.0000980964   0.0001304738  -0.0001131524
       -0.0000212624  -0.0000123385   0.0000000554  -0.0000198166  -0.0000058838
        0.0000000540   0.0000033929   0.0000048441  -0.0000000066   0.0000019436
       -0.0000043335   0.0000000400  -0.0000001579  -0.0000016817   0.0000000403
        0.0000005022  -0.0000011008   0.0000000103   0.0000029284   0.0000000280
        0.0000000136   0.0000025337  -0.0000030977  -0.0000000040   0.0000024298
       -0.0000001395  -0.0000000229   0.0000000699   0.0000011469  -0.0000000230
       -0.0000007400   0.0000003123  -0.0000000166   0.0000010548  -0.0000011122
       -0.0000000085  -0.0000097527  -0.0000015464  -0.0000000198   0.0000075128
       -0.0000307857   0.0000000038  -0.0000980660   0.0001304400   0.0001134170
        0.0000087358   0.0001449700  -0.0000077402  -0.0000108038   0.0000247441
       -0.0000345777  -0.0000775442   0.0001947007  -0.0003305894
        0.0399959131   0.4583904270  -0.0000469490   0.0491396770  -0.1352981451
       -0.0000497938   0.0109009487  -0.0303452675  -0.0000217967   0.0068838182
       -0.0024579183   0.0060910450  -0.0000191763   0.0001171472  -0.0008422498
        0.0001966490   0.0001237514   0.0000770598   0.0001279718   0.0000477278
       -0.0000574840   0.0001765082   0.0001040591   0.0003571212  -0.0009015185
       -0.0005998343  -0.0002783577  -0.0000286659  -0.0002028882  -0.0000023161
        0.0000958344   0.0001321452   0.0000000811  -0.0000240517   0.0000296246
        0.0000000354   0.0000260940   0.0000060734  -0.0000000004  -0.0000143464
       -0.0000064377  -0.0000000008   0.0000338004   0.0000081685   0.0000000092
       -0.0000149843  -0.0000122187  -0.0000000138   0.0000138996   0.0000113273
       -0.0000000005  -0.0000027503  -0.0000061246  -0.0000000497  -0.0000058871
        0.0000022199   0.0000000036  -0.0000020115   0.0000014486  -0.0000000312
       -0.0000000161  -0.0000013575  -0.0000000559  -0.0000023562  -0.0000021275
        0.0000000107   0.0000020137   0.0000021663  -0.0000000307  -0.0000052179
       -0.0000034277  -0.0000000080   0.0000167156  -0.0000042289   0.0000000284
       -0.0000016529   0.0000016550   0.0000000239  -0.0000053571  -0.0000017573
       -0.0000000001  -0.0000012398  -0.0000006098   0.0000000249  -0.0000022655
       -0.0000004453   0.0000000460  -0.0000008940   0.0000001785   0.0000000048
        0.0000003705   0.0000002387   0.0000000319  -0.0000197841   0.0000021130
       -0.0000000043   0.0000166777   0.0000046901  -0.0000000065  -0.0000615745
       -0.0000331568  -0.0000001014  -0.0009010058  -0.0005997936   0.0002836447
        0.0001759438   0.0001034120  -0.0003573291   0.0001279989   0.0000472799
        0.0000578102   0.0001963532   0.0001228240  -0.0000779440  -0.0000199924
        0.0001183218   0.0008443438   0.0068599707  -0.0024248422  -0.0060888264
        0.0007426598  -0.0425556196   0.0032299660   0.0005812703  -0.0425457339
       -0.0030020011  -0.1142037708  -0.1981406059  -0.0001143113   0.0009771352
        0.0008591272   0.0002988268   0.0009775968   0.0008588162  -0.0002977362
       -0.0024573738  -0.0054003789  -0.0000041808   0.0002649022  -0.0002044446
        0.0000880383   0.0000126694  -0.0000383492  -0.0000149898  -0.0000070938
       -0.0000191499  -0.0000222715  -0.0000389689   0.0000433798   0.0000032538
       -0.0000188784  -0.0000210988   0.0000000616   0.0000027993   0.0000013096
       -0.0000000158  -0.0000012776   0.0000008695  -0.0000000157  -0.0000009490
       -0.0000016552  -0.0000000066  -0.0000009324   0.0000002977  -0.0000000121
       -0.0000000013  -0.0000000345  -0.0000000178  -0.0000001268  -0.0000016258
       -0.0000000051  -0.0000036869  -0.0000013459   0.0000000163  -0.0000027669
       -0.0000002112   0.0000000164  -0.0000010379  -0.0000006505   0.0000000230
       -0.0000004666  -0.0000001720   0.0000000210   0.0000001046   0.0000004524
        0.0000000085   0.0000010882  -0.0000006998   0.0000000268  -0.0000054933
        0.0000078599   0.0000000017  -0.0000391623   0.0000434991  -0.0000029601
       -0.0000071721  -0.0000187008   0.0000222509   0.0000127082  -0.0000385153
        0.0000149595   0.0002638149  -0.0002030376  -0.0000869213
        0.0000238690  -0.0000469490   0.5282047061   0.0000336455  -0.0000490726
       -0.0622090925   0.0000080615  -0.0000227178   0.0012127450  -0.0172012176
        0.0174699363  -0.0035061306  -0.0005394933   0.0007007445  -0.0010955890
       -0.0001880903  -0.0005815449   0.0006388214  -0.0000631112   0.0000554250
       -0.0002800148  -0.0005093603  -0.0010599396   0.0003462779   0.0004347064
        0.0006255822  -0.0044054813  -0.0000007195  -0.0000020879   0.0029240651
        0.0000002337   0.0000001526  -0.0000127668  -0.0000001097   0.0000000293
        0.0000378818   0.0000000412  -0.0000000437   0.0000040752  -0.0000001133
       -0.0000000226   0.0000005157   0.0000001256  -0.0000000652  -0.0000067274
       -0.0000000209  -0.0000000199   0.0000064206  -0.0000000274  -0.0000000117
       -0.0000057440  -0.0000000088   0.0000000332   0.0000016737  -0.0000000338
        0.0000000747   0.0000013166  -0.0000000350  -0.0000000231   0.0000005541
       -0.0000000290   0.0000000093   0.0000000654   0.0000000225  -0.0000000459
       -0.0000000812   0.0000000815   0.0000000171   0.0000001023   0.0000000171
        0.0000000316   0.0000014174  -0.0000000059  -0.0000000972  -0.0000051899
       -0.0000001612  -0.0000000566   0.0000015353   0.0000001456  -0.0000000362
        0.0000010259   0.0000000540   0.0000001160   0.0000000179  -0.0000002197
       -0.0000001464  -0.0000006458   0.0000001327  -0.0000000194  -0.0000005467
       -0.0000000338   0.0000001525  -0.0000002733   0.0000000030   0.0000000715
        0.0000061678   0.0000001459   0.0000000237  -0.0000046944  -0.0000001695
        0.0000000950   0.0000172068  -0.0004343875  -0.0006205056  -0.0044053861
        0.0005097952   0.0010595819   0.0003474854   0.0000632007  -0.0000550970
       -0.0002803070   0.0001884304   0.0005808468   0.0006392658   0.0005392824
       -0.0006985679  -0.0010951038   0.0172090322  -0.0174673421  -0.0035366860
       -0.1142302345   0.0037811351  -0.2035943081   0.1142412536  -0.0035530710
       -0.2035828144  -0.0000847607  -0.0001142186  -0.0447626825   0.0003175787
       -0.0005229852   0.0001431502  -0.0003161902   0.0005239721   0.0001434318
       -0.0000017740  -0.0000043461   0.0005113750  -0.0007771843   0.0011130755
       -0.0009825836   0.0000123132  -0.0000780721  -0.0000121561  -0.0000416958
        0.0001778728   0.0000013207  -0.0001575662   0.0000713809  -0.0001822949
       -0.0000000302  -0.0000000640  -0.0000151613  -0.0000000023  -0.0000000035
       -0.0000064881   0.0000000075  -0.0000000078  -0.0000010463   0.0000000053
       -0.0000000161  -0.0000001814   0.0000000021  -0.0000000065  -0.0000002189
       -0.0000000090  -0.0000000009  -0.0000004842   0.0000000016  -0.0000000014
       -0.0000004695  -0.0000000088   0.0000000051  -0.0000016397   0.0000000090
       -0.0000000210  -0.0000009842   0.0000000248   0.0000000203  -0.0000009698
       -0.0000000078   0.0000000127  -0.0000009792   0.0000000129  -0.0000000150
       -0.0000006846   0.0000000111  -0.0000000074  -0.0000000786   0.0000000279
       -0.0000000453  -0.0000182664   0.0001575069  -0.0000711891  -0.0001824602
        0.0000416457  -0.0001777789   0.0000011248  -0.0000122557   0.0000779259
       -0.0000120794   0.0007776406  -0.0011120617  -0.0009842539
       -0.0932547767   0.0491396770   0.0000336455   0.4582929609  -0.0000002798
       -0.0000016840  -0.0932442126  -0.0491339892  -0.0000362211  -0.1025183693
        0.0000362467  -0.0554161835   0.0089114093   0.0000008136   0.0040277916
       -0.0012296838  -0.0000025233   0.0028600535   0.0001143629   0.0000002381
       -0.0011579018  -0.0045104924  -0.0000014728   0.0022695455  -0.0207866387
        0.0000136558  -0.0234493762   0.0037358615   0.0000002750   0.0000003037
       -0.0002557127   0.0000000355  -0.0000000030   0.0002872002   0.0001221339
       -0.0000000022  -0.0000177920   0.0000457255   0.0000000178   0.0001767266
        0.0000000039  -0.0000000011  -0.0001703270   0.0000000066  -0.0000000032
        0.0001084876   0.0000558112   0.0000000077  -0.0000844928  -0.0000281364
        0.0000000478   0.0000193470   0.0000257541   0.0000000578   0.0000162554
       -0.0000108867   0.0000000337   0.0000128289  -0.0000042911   0.0000001176
        0.0000014562  -0.0000044494   0.0000000902  -0.0000005285   0.0000047268
       -0.0000000238  -0.0000082916   0.0000039516   0.0000000615   0.0000477252
        0.0000000011   0.0000000031  -0.0000844942   0.0000281408  -0.0000000539
        0.0000193428  -0.0000257533  -0.0000000568   0.0000162493   0.0000108881
       -0.0000000350   0.0000128226   0.0000042913  -0.0000001161   0.0000014505
        0.0000044493  -0.0000000908  -0.0000005342  -0.0000047277   0.0000000203
       -0.0000082946  -0.0000039522  -0.0000000615   0.0001084827  -0.0000558105
        0.0000000014  -0.0000177981  -0.0000457113  -0.0000000183   0.0002871845
       -0.0001221536   0.0000000293  -0.0207893953  -0.0000158913   0.0234474869
       -0.0045102215   0.0000006611  -0.0022699620   0.0001142436  -0.0000002197
        0.0011579292  -0.0012291626   0.0000019625  -0.0028599339   0.0089108584
        0.0000001668  -0.0040243575  -0.1025277153  -0.0000413659   0.0554200227
       -0.0128339562   0.0150989184  -0.0029653889  -0.0128358872   0.0150967003
        0.0029857674   0.0084459834  -0.0116956424  -0.0000077145  -0.0128325580
       -0.0150956589  -0.0029864042  -0.0128337185  -0.0151012623   0.0029642144
        0.0084460544   0.0116985853   0.0000084093  -0.0002934037  -0.0000006833
        0.0007147835   0.0001956900  -0.0000007226   0.0009246438   0.0000897821
        0.0000002356   0.0001587809  -0.0007322323   0.0000004300  -0.0010502855
       -0.0000509260  -0.0000008743   0.0000000240   0.0000094439   0.0000042255
        0.0000000823   0.0000039742  -0.0000020248   0.0000000362   0.0000042006
        0.0000039347   0.0000000468   0.0000079244   0.0000033515   0.0000000743
        0.0000096010   0.0000005390   0.0000000693   0.0000048742  -0.0000018372
        0.0000000315   0.0000039693   0.0000020284  -0.0000000379   0.0000041925
       -0.0000039321  -0.0000000481   0.0000079163  -0.0000033531  -0.0000000752
        0.0000095962  -0.0000005423  -0.0000000692   0.0000048726   0.0000018358
       -0.0000000317   0.0000094380  -0.0000042159  -0.0000000838  -0.0000509413
        0.0000009051  -0.0000000255  -0.0007322900  -0.0000004260   0.0010502174
        0.0000898001  -0.0000001780  -0.0001587860   0.0001957193   0.0000007741
       -0.0009245443  -0.0002934415   0.0000008875  -0.0007148669
        0.0563428576  -0.1352981451  -0.0000490726  -0.0000002798   0.4260405589
       -0.0000467346  -0.0563373542  -0.1353049750  -0.0000537233   0.0000397608
       -0.0544494574   0.0000642803   0.0000080031  -0.0005870351   0.0000204545
       -0.0000033926   0.0067004207   0.0000061242   0.0000006040  -0.0000203050
        0.0000002759  -0.0000016339   0.0064659179   0.0000033302   0.0000011670
        0.0016515128  -0.0000001207   0.0000002921  -0.0034194893  -0.0000020199
       -0.0000000122   0.0001344852   0.0000001199  -0.0000836651   0.0000938498
       -0.0000001272   0.0000019385  -0.0000167327  -0.0000000741   0.0000000037
       -0.0000373789   0.0000000167  -0.0000000153  -0.0000009133   0.0000000194
       -0.0000049164  -0.0000157823   0.0000000117   0.0000063378   0.0000266291
        0.0000000154   0.0000009046  -0.0000101145  -0.0000000231  -0.0000141154
        0.0000039549  -0.0000000349  -0.0000031981   0.0000081153  -0.0000000268
        0.0000035657  -0.0000036270  -0.0000000155  -0.0000045536  -0.0000035957
        0.0000000066   0.0000055890   0.0000045672   0.0000000004   0.0000000050
       -0.0000262646  -0.0000000146  -0.0000063556   0.0000266303   0.0000000143
       -0.0000008991  -0.0000101214  -0.0000000214   0.0000141189   0.0000039596
       -0.0000000262   0.0000031973   0.0000081153  -0.0000000193  -0.0000035636
       -0.0000036294  -0.0000000136   0.0000045552  -0.0000035941   0.0000000035
       -0.0000055939   0.0000045677  -0.0000000028   0.0000049326  -0.0000157883
        0.0000000125  -0.0000019406  -0.0000167210  -0.0000000716   0.0000837138
        0.0000938439  -0.0000001156  -0.0000028056   0.0016515369   0.0000014939
        0.0000008171   0.0064659270   0.0000030686  -0.0000006672  -0.0000203073
        0.0000006561   0.0000026619   0.0067004129   0.0000059817  -0.0000071531
       -0.0005870005   0.0000201028  -0.0000448451  -0.0544494535   0.0000702010
        0.0036668221  -0.0028147179   0.0018787491   0.0036462974  -0.0027843463
       -0.0018795748   0.0127270396  -0.0254590741  -0.0000173811  -0.0036469417
       -0.0027859612  -0.0018801016  -0.0036676948  -0.0028162231   0.0018786395
       -0.0127240045  -0.0254588055  -0.0000184172   0.0000009342  -0.0028334532
       -0.0000022084   0.0000004404   0.0001727707   0.0000008466   0.0000001533
       -0.0015483111  -0.0000011144  -0.0000001254  -0.0005230893  -0.0000004431
       -0.0000275899  -0.0000874027   0.0000000341  -0.0000083114  -0.0000079253
        0.0000000089   0.0000019373   0.0000024139  -0.0000000077  -0.0000000135
       -0.0000065906   0.0000000132  -0.0000014220  -0.0000004807   0.0000000080
        0.0000008679  -0.0000001257   0.0000000017   0.0000015522  -0.0000005175
        0.0000000089  -0.0000019371   0.0000024139  -0.0000000057   0.0000000141
       -0.0000065921   0.0000000155   0.0000014227  -0.0000004810   0.0000000106
       -0.0000008667  -0.0000001264   0.0000000035  -0.0000015510  -0.0000005170
        0.0000000095   0.0000083087  -0.0000079292   0.0000000106   0.0000275820
       -0.0000874086   0.0000000392   0.0000001329  -0.0005230825  -0.0000004035
       -0.0000000027  -0.0015483150  -0.0000011596  -0.0000004646   0.0001727633
        0.0000007633  -0.0000006453  -0.0028334596  -0.0000022769
        0.0000382319  -0.0000497938  -0.0622090925  -0.0000016840  -0.0000467346
        0.4987172956  -0.0000408234  -0.0000538799  -0.0622091960  -0.0576717053
        0.0000624739  -0.1487701796  -0.0109807130   0.0000226931  -0.0322917929
        0.0035737018   0.0000065399  -0.0026740234  -0.0003621054  -0.0000002984
       -0.0002652573   0.0010215650   0.0000046067   0.0006413175  -0.0096657828
       -0.0000014315   0.0020510968   0.0000003089  -0.0000002445  -0.0037324003
       -0.0000000097   0.0000002191  -0.0001133667  -0.0000000188  -0.0000000591
       -0.0000711253   0.0000000491  -0.0000000975   0.0000009527   0.0000000150
        0.0000000603  -0.0000005817  -0.0000000146  -0.0000000522   0.0000400868
       -0.0000000127  -0.0000000244  -0.0000553501  -0.0000000378  -0.0000000443
        0.0000245259   0.0000000025  -0.0000000064   0.0000032012  -0.0000000763
        0.0000000088  -0.0000023442  -0.0000000941   0.0000000080  -0.0000016667
        0.0000000037  -0.0000000380  -0.0000005219  -0.0000000778  -0.0000000018
       -0.0000006809   0.0000000212   0.0000000620  -0.0000007494   0.0000000019
       -0.0000000141  -0.0000302970   0.0000000335  -0.0000000424   0.0000245269
       -0.0000000031  -0.0000000084   0.0000032109   0.0000000736   0.0000000081
       -0.0000024272   0.0000000946   0.0000000091  -0.0000017250   0.0000000008
       -0.0000000373  -0.0000005261   0.0000000797  -0.0000000013  -0.0000006162
       -0.0000000227   0.0000000607  -0.0000006823   0.0000000259  -0.0000000316
       -0.0000553464  -0.0000000556  -0.0000001083   0.0000009701   0.0000000538
       -0.0000000723  -0.0000711073   0.0096638987  -0.0000007452   0.0020538427
       -0.0010220032   0.0000046159   0.0006410531   0.0003621380  -0.0000002857
       -0.0002651295  -0.0035735779   0.0000062577  -0.0026745597   0.0109841003
        0.0000241106  -0.0322912145   0.0576755468   0.0000690251  -0.1487608552
       -0.0147065184   0.0196085639  -0.0019826437   0.0147107072  -0.0196085659
       -0.0020113167   0.0000093865  -0.0000187085   0.0000442079  -0.0147097586
       -0.0196110174  -0.0020127374   0.0147037146   0.0196083484  -0.0019811012
       -0.0000085977  -0.0000176028   0.0000441615  -0.0010490690  -0.0000029407
        0.0007935693  -0.0005815449   0.0000005211  -0.0010055447   0.0000654057
       -0.0000009714   0.0001632282   0.0003542270  -0.0000003185   0.0001128553
        0.0000000111  -0.0000001386   0.0000296217  -0.0000000188  -0.0000000641
        0.0000101328  -0.0000000331  -0.0000000256   0.0000106646  -0.0000000633
       -0.0000000215   0.0000031431  -0.0000000779   0.0000000191   0.0000014390
       -0.0000000489   0.0000000323   0.0000015454  -0.0000000278   0.0000000102
        0.0000043515   0.0000000355  -0.0000000254   0.0000107176   0.0000000636
       -0.0000000221   0.0000031582   0.0000000762   0.0000000187   0.0000014471
        0.0000000482   0.0000000322   0.0000015465   0.0000000286   0.0000000104
        0.0000043746   0.0000000200  -0.0000000636   0.0000101336  -0.0000000162
       -0.0000001390   0.0000296246  -0.0003542897  -0.0000003656   0.0001129262
       -0.0000654127  -0.0000009257   0.0001632083   0.0005816417   0.0000005433
       -0.0010055727   0.0010489826  -0.0000028894   0.0007935945
        0.0065199307   0.0109009487   0.0000080615  -0.0932442126  -0.0563373542
       -0.0000408234   0.4965830879  -0.0399941146  -0.0000265002  -0.0162338360
       -0.0150322984  -0.0099087763  -0.0005950142  -0.0009114397   0.0011823327
       -0.0004097514   0.0006086094  -0.0001696276   0.0000714997   0.0001539285
       -0.0000135475  -0.0005519355   0.0008077661  -0.0001365655   0.0001568473
       -0.0008801401  -0.0024026876  -0.0002652538   0.0000190931  -0.0000003300
        0.0002081457   0.0000826913   0.0000000644  -0.0000192100   0.0000145490
       -0.0000000529   0.0000337752  -0.0000132675  -0.0000000108  -0.0000399707
        0.0000152018   0.0000000090   0.0000738933  -0.0000086087  -0.0000000095
       -0.0000378940  -0.0000087769  -0.0000000108   0.0000381275  -0.0000042168
        0.0000000177  -0.0000039134  -0.0000020787   0.0000000274   0.0000062051
        0.0000003935   0.0000000130  -0.0000017098   0.0000007475   0.0000000149
        0.0000019004   0.0000004133   0.0000000470   0.0000023877  -0.0000008652
        0.0000000043   0.0000032907  -0.0000019031   0.0000000386  -0.0000219782
        0.0000127029   0.0000000302   0.0000352366  -0.0000172526  -0.0000000684
       -0.0000065605   0.0000079045   0.0000000331  -0.0000028971  -0.0000014230
       -0.0000000154  -0.0000035557  -0.0000049508  -0.0000000010   0.0000017577
        0.0000003802   0.0000000113   0.0000019542   0.0000039349  -0.0000000382
        0.0000075117   0.0000010480  -0.0000000349  -0.0000411272   0.0000281797
        0.0000000179   0.0000192707   0.0000267892  -0.0000000478  -0.0000370713
       -0.0000674562   0.0000000286   0.0001579111  -0.0008834141   0.0024018868
       -0.0005517692   0.0008073782   0.0001376197   0.0000713274   0.0001542640
        0.0000135762  -0.0004095500   0.0006087970   0.0001700938  -0.0005948611
       -0.0009114932  -0.0011834479  -0.0162364380  -0.0150474266   0.0098865631
        0.0006352203   0.0005509025   0.0001501289   0.0006349240   0.0005507261
       -0.0001492656  -0.0010232858   0.0034923437   0.0000024113  -0.1238534024
       -0.0011719007  -0.1142030376  -0.1238697911  -0.0013325976   0.1142051791
       -0.1268245782   0.1147166244   0.0000774208  -0.0000774408  -0.0001945970
        0.0003307063  -0.0000108046  -0.0000247297   0.0000345760   0.0000087489
       -0.0001449696   0.0000077418  -0.0000980256  -0.0001304444  -0.0001133941
        0.0000075138   0.0000307852  -0.0000000005  -0.0000097507   0.0000015492
        0.0000000214   0.0000025355   0.0000030979   0.0000000033   0.0000024327
        0.0000001396   0.0000000225   0.0000000730  -0.0000011481   0.0000000224
       -0.0000007380  -0.0000003143   0.0000000163   0.0000010556   0.0000011107
        0.0000000087   0.0000033907  -0.0000048439   0.0000000056   0.0000019404
        0.0000043339  -0.0000000391  -0.0000001609   0.0000016800  -0.0000000390
        0.0000005006   0.0000010988  -0.0000000101   0.0000029276  -0.0000000293
       -0.0000000136  -0.0000198195   0.0000058869  -0.0000000552  -0.0000212662
        0.0000123472  -0.0000000541  -0.0000981016  -0.0001304888   0.0001131461
        0.0000087190  -0.0001451703  -0.0000079452  -0.0000107855  -0.0000246741
       -0.0000346619  -0.0000775817  -0.0001939588  -0.0003307899
       -0.0108976925  -0.0303452675  -0.0000227178  -0.0491339892  -0.1353049750
       -0.0000538799  -0.0399941146   0.4583835105  -0.0000502595  -0.0068605552
       -0.0024267959  -0.0060903242   0.0000198466   0.0001182698   0.0008444628
       -0.0001964189   0.0001228578  -0.0000779936  -0.0001279970   0.0000472954
        0.0000578040  -0.0001759508   0.0001034722  -0.0003573614   0.0009010662
       -0.0005998264   0.0002835503   0.0000286409  -0.0002028771  -0.0000023068
       -0.0000957982   0.0001321698   0.0000000767   0.0000615770  -0.0000331403
       -0.0000000962  -0.0000166687   0.0000046828  -0.0000000079   0.0000143326
       -0.0000064365   0.0000000000  -0.0000337903   0.0000081734   0.0000000076
        0.0000197787   0.0000021079  -0.0000000025  -0.0000167129  -0.0000042243
        0.0000000258   0.0000016550   0.0000016558   0.0000000242   0.0000053580
       -0.0000017577  -0.0000000022   0.0000012393  -0.0000006081   0.0000000232
        0.0000022685  -0.0000004432   0.0000000449   0.0000008963   0.0000001768
        0.0000000037  -0.0000003709   0.0000002391   0.0000000323   0.0000052158
       -0.0000034280  -0.0000000056  -0.0000138958   0.0000113287  -0.0000000044
        0.0000027511  -0.0000061238  -0.0000000476   0.0000058861   0.0000022223
        0.0000000041   0.0000020079   0.0000014483  -0.0000000299   0.0000000165
       -0.0000013582  -0.0000000547   0.0000023555  -0.0000021254   0.0000000100
       -0.0000020157   0.0000021669  -0.0000000303   0.0000149774  -0.0000122146
       -0.0000000105  -0.0000260822   0.0000060860  -0.0000000030   0.0000240536
        0.0000296151   0.0000000303   0.0009016301  -0.0005998826  -0.0002781304
       -0.0001765680   0.0001041192   0.0003571320  -0.0001279619   0.0000477427
       -0.0000575035  -0.0001967301   0.0001237766   0.0000770748   0.0000191772
        0.0001171345  -0.0008423609  -0.0068854066  -0.0024598164   0.0060914084
       -0.0009775603   0.0008587627  -0.0002977967  -0.0009771896   0.0008590917
        0.0002987399   0.0024577333  -0.0053998427  -0.0000039656  -0.0005889647
       -0.0425461068  -0.0030130697  -0.0007501147  -0.0425559750   0.0032397414
        0.1142101209  -0.1981227129  -0.0001036505  -0.0002637793  -0.0002031052
       -0.0000869098  -0.0000127052  -0.0000384990   0.0000149636   0.0000071757
       -0.0000187283   0.0000222505   0.0000391499   0.0000434951  -0.0000029648
        0.0000054925   0.0000078609   0.0000000025  -0.0000010913  -0.0000006967
        0.0000000271   0.0000036882  -0.0000013436   0.0000000150   0.0000027693
       -0.0000002104   0.0000000149   0.0000010395  -0.0000006506   0.0000000219
        0.0000004676  -0.0000001717   0.0000000200  -0.0000001034   0.0000004527
        0.0000000078   0.0000012767   0.0000008703  -0.0000000154   0.0000009476
       -0.0000016540  -0.0000000058   0.0000009301   0.0000002985  -0.0000000109
       -0.0000000000  -0.0000000348  -0.0000000171   0.0000001267  -0.0000016253
       -0.0000000049  -0.0000028037   0.0000013112  -0.0000000122   0.0000188808
       -0.0000210946   0.0000000649   0.0000389530   0.0000433784   0.0000032602
        0.0000071007  -0.0000191797  -0.0000222701  -0.0000126631  -0.0000383367
       -0.0000149973  -0.0002648878  -0.0002045043   0.0000879786
       -0.0000075880  -0.0000217967   0.0012127450  -0.0000362211  -0.0000537233
       -0.0622091960  -0.0000265002  -0.0000502595   0.5282012938  -0.0172081822
       -0.0174699128  -0.0035388141  -0.0005391109  -0.0006986335  -0.0010949890
       -0.0001886001   0.0005809112   0.0006392139  -0.0000631480  -0.0000551074
       -0.0002803403  -0.0005099179   0.0010595980   0.0003474320   0.0004348866
       -0.0006205958  -0.0044054342   0.0000004523  -0.0000020900   0.0029240152
       -0.0000002177   0.0000001611  -0.0000127701   0.0000001609   0.0000000895
        0.0000172098  -0.0000001419   0.0000000259  -0.0000046957   0.0000001132
       -0.0000000181   0.0000005198  -0.0000001291  -0.0000000662  -0.0000067304
       -0.0000000030   0.0000000677   0.0000061674   0.0000000119  -0.0000000894
       -0.0000051857   0.0000001563  -0.0000000558   0.0000015346  -0.0000001484
       -0.0000000412   0.0000010258  -0.0000000572   0.0000001139   0.0000000233
        0.0000002232  -0.0000001391  -0.0000006436  -0.0000001262  -0.0000000213
       -0.0000005452   0.0000000303   0.0000001500  -0.0000002730  -0.0000000203
        0.0000000281   0.0000014194   0.0000000372  -0.0000000055  -0.0000057408
        0.0000000092   0.0000000336   0.0000016751   0.0000000251   0.0000000676
        0.0000013122   0.0000000359  -0.0000000243   0.0000005513   0.0000000358
        0.0000000152   0.0000000632  -0.0000000220  -0.0000000431  -0.0000000804
       -0.0000000795   0.0000000132   0.0000001039   0.0000000185  -0.0000000204
        0.0000064210  -0.0000000424  -0.0000000408   0.0000040649   0.0000001006
        0.0000000290   0.0000378911  -0.0004344166   0.0006255192  -0.0044051885
        0.0005093315  -0.0010598244   0.0003463068   0.0000631255   0.0000554604
       -0.0002800149   0.0001880858  -0.0005815025   0.0006388350   0.0005393933
        0.0007006730  -0.0010956357   0.0171982252   0.0174699936  -0.0035037362
        0.0003161628   0.0005240132   0.0001434638  -0.0003174711  -0.0005229604
        0.0001431063   0.0000016487  -0.0000040574   0.0005113872  -0.1142334998
       -0.0035643648  -0.2036016625   0.1142365160   0.0037910291  -0.2035726457
        0.0000771395  -0.0001035349  -0.0447623952  -0.0007774892  -0.0011121798
       -0.0009843266   0.0000122472   0.0000779185  -0.0000120758  -0.0000416323
       -0.0001778028   0.0000011239  -0.0001574872  -0.0000712198  -0.0001824631
       -0.0000000246  -0.0000000412  -0.0000182682  -0.0000000132  -0.0000000084
       -0.0000000801   0.0000000111   0.0000000068  -0.0000016423  -0.0000000086
       -0.0000000206  -0.0000009815  -0.0000000272   0.0000000182  -0.0000009660
        0.0000000059   0.0000000123  -0.0000009765  -0.0000000113  -0.0000000141
       -0.0000006849  -0.0000000044  -0.0000000062  -0.0000010433  -0.0000000054
       -0.0000000151  -0.0000001831  -0.0000000046  -0.0000000082  -0.0000002203
        0.0000000079  -0.0000000015  -0.0000004849  -0.0000000008  -0.0000000006
       -0.0000004676  -0.0000000005  -0.0000000041  -0.0000064845   0.0000000304
       -0.0000000648  -0.0000151600   0.0001575559   0.0000713864  -0.0001822574
        0.0000416840   0.0001778712   0.0000013250  -0.0000123062  -0.0000780714
       -0.0000121576   0.0007771915   0.0011131812  -0.0009825898
       -0.0162364571   0.0068838182  -0.0172012176  -0.1025183693   0.0000397608
       -0.0576717053  -0.0162338360  -0.0068605552  -0.0172081822   0.6363143513