$hessian                                                                        
        0.4348238294   0.0043970107  -0.0359125818  -0.1754074142  -0.0086879802
       -0.0658725238  -0.0357216775  -0.0140889462  -0.0003756991  -0.0018740246
       -0.0030453290   0.0019405529  -0.0016189715  -0.0006605363  -0.0009721720
       -0.0000662271  -0.0001219721  -0.0000648049  -0.0006828487  -0.0005118678
       -0.0002889451   0.0017787619   0.0020834111  -0.0005412825  -0.0002329207
       -0.0000290392  -0.0000950171   0.0002406019   0.0000773211   0.0001080505
       -0.0000427708  -0.0000098305  -0.0000000259  -0.0000328990   0.0000503843
       -0.0000712621   0.0000086961  -0.0001157989   0.0001308290   0.0002862659
        0.0002080865  -0.0001878387  -0.0000031009   0.0002114926   0.0000278381
       -0.0000924493  -0.0000340785  -0.0000239293   0.0001223740   0.0001759737
       -0.0001203508   0.0001293155  -0.0001978067   0.0001280355   0.0000869474
       -0.0000269219  -0.0001599378  -0.0000810437  -0.0000539058   0.0000305881
        0.0000463401   0.0000806518  -0.0000123724  -0.0001022245  -0.0000355428
        0.0000558426  -0.0001168998   0.0000705462   0.0001126575   0.0001244664
       -0.0000904009  -0.0001279671  -0.0001513161  -0.0000300989   0.0000981295
        0.0000392372  -0.0002137828  -0.0000912587  -0.0002883982   0.0000171670
        0.0002143030   0.0003232619  -0.0003999444  -0.0003412451  -0.0002029182
        0.0004330167   0.0002563504  -0.0000469089  -0.0001628757  -0.0000024180
        0.0001175591   0.0002581019  -0.0000169715   0.0001816712  -0.0000082861
       -0.0001421020  -0.0000659190   0.0001611783   0.0001295008  -0.0004418590
       -0.0001256652  -0.0000175068   0.0003478636   0.0000802231  -0.0000222694
       -0.0001951595  -0.0000403931  -0.0000151302   0.0000513623   0.0002871808
        0.0000438790  -0.0001611151  -0.0001259899   0.0001562272   0.0000105589
        0.0001220104  -0.0000830850   0.0000527080  -0.0001055691   0.0000615420
        0.0000213292   0.0000720341  -0.0000778140   0.0001017412   0.0000402595
       -0.0001007666  -0.0001478814  -0.0000137733   0.0001053073   0.0000727748
        0.0000778364  -0.0001055269  -0.0002231018   0.0001167039   0.0000447431
        0.0001643954   0.0001424877  -0.0002451225  -0.0004543745   0.0000188146
        0.0002975707   0.0004160473  -0.0001242535  -0.0001955253  -0.0001056573
        0.0001231677  -0.0000329926   0.0001298274  -0.0001863447   0.0000784077
       -0.0001171474  -0.0000824008   0.0001368522   0.0002229040  -0.0000732283
       -0.0001080166   0.0001436826  -0.0000984084  -0.0000188645  -0.0936947184
       -0.0759104767   0.0704174259  -0.0428070979   0.0092274615   0.0269751912
       -0.0835012988   0.0876188556   0.0044024467   0.0000050698  -0.0001585701
        0.0002564092  -0.0003664025  -0.0001964952   0.0002348521  -0.0008381294
       -0.0002666867  -0.0000170384  -0.0001207590  -0.0000150029  -0.0000693213
       -0.0000265232  -0.0000005637  -0.0000267229  -0.0000076303  -0.0000013074
       -0.0000035796  -0.0000334273  -0.0000146758   0.0000200225  -0.0000021847
        0.0000009400   0.0000083362   0.0000005349  -0.0000246513   0.0000016525
        0.0000174134  -0.0000162901  -0.0000159517   0.0000365633   0.0000235631
       -0.0000152246   0.0000003310   0.0000306417   0.0000113293   0.0000091763
        0.0000192193   0.0000015988   0.0000282142   0.0000031692  -0.0000028827
       -0.0000096527   0.0000177019   0.0000164505   0.0000154597   0.0000104182
       -0.0000283920  -0.0000298320   0.0000010235   0.0000262379  -0.0000087868
       -0.0000389642   0.0000023832  -0.0000132359   0.0000173603   0.0000079918
       -0.0000398853  -0.0000124062   0.0000238216  -0.0000054796  -0.0000403318
        0.0000372649   0.0000237133  -0.0000213868  -0.0000032738   0.0000096481
       -0.0000220845   0.0000118444   0.0000160382  -0.0000045098  -0.0000073430
       -0.0000177939  -0.0000325990   0.0000109224  -0.0000027545  -0.0000106932
        0.0000296562   0.0000042553   0.0000125311  -0.0000083817  -0.0000142852
        0.0000211835  -0.0000017408   0.0000061658  -0.0000204627  -0.0000098659
        0.0043970107   0.5038054710  -0.0227466215  -0.0000858247  -0.0586900954
        0.0144593906  -0.0229562316  -0.0061486201  -0.0112180632  -0.0018392738
       -0.0010230674   0.0026622009  -0.0016075160   0.0003013404   0.0003175486
        0.0002542298   0.0003977088  -0.0001580357  -0.0006751870   0.0007851109
       -0.0003719449  -0.0003815882  -0.0012212629  -0.0012209412   0.0000194659
       -0.0000458577   0.0001510547  -0.0000492532   0.0000362169  -0.0001594664
       -0.0000002102  -0.0000481724   0.0000152451  -0.0000695833   0.0000272539
       -0.0000898981   0.0000181059  -0.0001203169   0.0001852783  -0.0000164705
        0.0001932420  -0.0002505281  -0.0000370496  -0.0004142793   0.0001972261
        0.0000580845  -0.0000211768   0.0000022765  -0.0000799181  -0.0000513945
       -0.0000710478   0.0002190804  -0.0002291471   0.0001048914   0.0000371932
        0.0000224336  -0.0000421405  -0.0000202517  -0.0000027128  -0.0000005477
        0.0000150147   0.0000161053  -0.0000068961  -0.0000232112  -0.0000080612
        0.0000132421  -0.0000216736   0.0000175986   0.0000215381   0.0000384085
       -0.0000139154  -0.0000319769  -0.0000359042  -0.0000137574   0.0000150974
        0.0000058551  -0.0000651893  -0.0000236386  -0.0000543035   0.0000264951
        0.0000476951   0.0000482495  -0.0000640115  -0.0000616725  -0.0000203739
        0.0000707538   0.0000472461  -0.0000142837  -0.0000270759  -0.0000012703
        0.0000178422   0.0000268131  -0.0000036236   0.0000148581  -0.0000029340
       -0.0000067694  -0.0000062276   0.0000599832   0.0000398576  -0.0004326946
       -0.0000475577  -0.0000685392   0.0003573496   0.0000708923   0.0000754166
       -0.0002005863  -0.0000463095  -0.0000617723   0.0001498382   0.0002193347
        0.0000440182  -0.0000803218  -0.0000449579   0.0000559082   0.0000055935
        0.0000601560  -0.0000278429   0.0000081112  -0.0000448291   0.0000030745
        0.0000026787   0.0000301990  -0.0000339732   0.0000455041   0.0000002344
       -0.0000391913  -0.0000505088  -0.0000065797   0.0000349082   0.0000342468
        0.0000233502  -0.0000389608  -0.0000811462   0.0000505402   0.0000101930
        0.0000634070   0.0000402023  -0.0000881609  -0.0001343698   0.0000048825
        0.0000854343   0.0001153511  -0.0000404599  -0.0000446835  -0.0000253369
        0.0000400163  -0.0000095998   0.0000357760  -0.0000626460   0.0000251446
       -0.0000333560  -0.0000267448   0.0000386145   0.0001043902  -0.0000419370
       -0.0000254177  -0.0001406555   0.0000846761  -0.0000444167  -0.0723061274
       -0.1479419395   0.0921970671   0.0096619778  -0.0712786689  -0.0712195876
        0.0870421328  -0.2173356514  -0.0030480192   0.0000269691  -0.0000095049
        0.0000587217  -0.0001452380  -0.0003507321  -0.0000509749  -0.0011822036
       -0.0009432534   0.0002626347  -0.0000027730   0.0000353756   0.0000332070
       -0.0000107124   0.0000106441   0.0000060933  -0.0000009655   0.0000040605
       -0.0000011479   0.0000034038  -0.0000010831   0.0000079305  -0.0000025728
       -0.0000022222   0.0000060298   0.0000025537  -0.0000014767   0.0000006552
        0.0000046110  -0.0000032931  -0.0000046941   0.0000037982   0.0000027114
       -0.0000021566  -0.0000004780   0.0000039371   0.0000008666   0.0000002544
        0.0000024519  -0.0000014070   0.0000043436   0.0000002920  -0.0000014352
       -0.0000017066   0.0000004797  -0.0000002165   0.0000017464   0.0000010093
       -0.0000039684  -0.0000037550  -0.0000034564  -0.0000040815  -0.0000041790
        0.0000063867   0.0000024064  -0.0000012686   0.0000085918   0.0000094928
       -0.0000123790   0.0000017351   0.0000175342   0.0000008175  -0.0000092369
        0.0000105832   0.0000068725  -0.0000033282   0.0000034304   0.0000071361
       -0.0000047131   0.0000024405   0.0000036171  -0.0000003324  -0.0000008369
       -0.0000035989  -0.0000085083   0.0000028551  -0.0000002463  -0.0000028402
        0.0000051779   0.0000036188   0.0000052087  -0.0000030294   0.0000000622
        0.0000051966   0.0000019049   0.0000119558  -0.0000257812   0.0000076639
       -0.0359125818  -0.0227466215   0.4931845958  -0.0772191651   0.0092565184
       -0.1069039882   0.0113037870  -0.0058098185   0.0105547076   0.0002527325
        0.0018409653  -0.0005286856   0.0003196629   0.0009655315   0.0002530157
       -0.0003233584  -0.0003439479   0.0003745211  -0.0000507424  -0.0002482031
        0.0010597394   0.0028715827   0.0003673294  -0.0006288776  -0.0001949185
        0.0001273851  -0.0002154907   0.0002446687  -0.0001038209   0.0002137035
       -0.0000059323   0.0000251641  -0.0000570993   0.0000661083  -0.0000107572
        0.0000603631  -0.0000383213   0.0000693445  -0.0001165417   0.0001924614
       -0.0001249839   0.0001916103   0.0002009984   0.0002586051  -0.0005020443
       -0.0001027186  -0.0000338793  -0.0000050325   0.0001580347   0.0001652283
        0.0000255360  -0.0001775873   0.0000887375  -0.0000530077   0.0000306340
       -0.0000242973  -0.0000596361  -0.0000235642  -0.0000243550  -0.0000069777
        0.0000073863   0.0000312997   0.0000008267  -0.0000271294  -0.0000110192
        0.0000162261  -0.0000406025   0.0000249631   0.0000388322   0.0000402855
       -0.0000308015  -0.0000418297  -0.0000474863   0.0000020273   0.0000384559
        0.0000183119  -0.0000729644  -0.0000391276  -0.0000964239   0.0000149462
        0.0000737430   0.0001161036  -0.0001023481  -0.0000967564  -0.0000586167
        0.0001343225   0.0000611223  -0.0000188828  -0.0000582839   0.0000037291
        0.0000319198   0.0000747600  -0.0000025209   0.0000528195  -0.0000052493
       -0.0000436833  -0.0000332383   0.0000625708   0.0000537960   0.0002775436
        0.0001047844   0.0000604442  -0.0002946036  -0.0000477407  -0.0000773424
        0.0001655981   0.0000304124   0.0000603100  -0.0000980340  -0.0002380926
       -0.0000431172  -0.0000898116   0.0000261342   0.0000267798  -0.0000116616
        0.0000089100  -0.0000014120   0.0000184502  -0.0000290033   0.0000149331
       -0.0000061803   0.0000289281  -0.0000106935   0.0000375487   0.0000063106
       -0.0000393033  -0.0000487116  -0.0000159313   0.0000410946   0.0000271511
        0.0000296141  -0.0000478296  -0.0000687749   0.0000329483   0.0000233285
        0.0000510072   0.0000481228  -0.0000890809  -0.0001644506   0.0000105159
        0.0001169108   0.0001496071  -0.0000422241  -0.0000882393  -0.0000358855
        0.0000432864  -0.0000057859   0.0000608059  -0.0000685566   0.0000210613
       -0.0000574804  -0.0000350084   0.0000587294   0.0000812322  -0.0000054031
       -0.0000509019   0.0001328205  -0.0000248214   0.0000120807   0.0656380460
        0.0900104535  -0.1236602082   0.0271910066  -0.0704740970  -0.2298174553
        0.0044282698  -0.0036953054  -0.0429361874  -0.0000391027  -0.0000954205
        0.0000895489   0.0001216118  -0.0001027842  -0.0000982555   0.0011166198
        0.0007494112  -0.0005200491  -0.0001015663   0.0000162310  -0.0000296503
       -0.0000148250   0.0000137494  -0.0000052025  -0.0000053283   0.0000040654
        0.0000020661  -0.0000108603  -0.0000089090   0.0000035096  -0.0000031410
       -0.0000073758   0.0000204492  -0.0000024760  -0.0000129986   0.0000011694
        0.0000065155  -0.0000052095  -0.0000041956   0.0000156476   0.0000096897
       -0.0000064597  -0.0000002380   0.0000083449   0.0000065353   0.0000071494
        0.0000060476   0.0000000209   0.0000119678   0.0000010704   0.0000013485
       -0.0000028161   0.0000067933   0.0000073765   0.0000055036   0.0000051831
       -0.0000117802  -0.0000060295  -0.0000028176   0.0000073944  -0.0000050851
       -0.0000124945   0.0000021453  -0.0000140507   0.0000014729  -0.0000024440
       -0.0000093414   0.0000017959   0.0000054146  -0.0000023137  -0.0000177376
        0.0000154345   0.0000128373  -0.0000058408   0.0000002378   0.0000031353
       -0.0000068150   0.0000084831   0.0000070437  -0.0000018416  -0.0000025220
       -0.0000080972  -0.0000152665   0.0000045030  -0.0000012160  -0.0000041842
        0.0000123200   0.0000005354   0.0000044146  -0.0000001947  -0.0000083886
        0.0000123057  -0.0000003903   0.0000065881  -0.0000034644   0.0000218469
       -0.1754074142  -0.0000858247  -0.0772191651   0.4357518549   0.1296634374
        0.0541609929  -0.1386621114  -0.0865130621   0.0522706351  -0.0450173102
       -0.0284140274   0.0083900967  -0.0028774848   0.0005730114  -0.0048894049
       -0.0001526463  -0.0005187498   0.0009927446  -0.0000794013  -0.0027217874
       -0.0003730921   0.0012925389  -0.0072083761   0.0073453615   0.0005716205
        0.0009984585  -0.0011572742  -0.0001571047  -0.0001888592   0.0000680288
        0.0000164392   0.0000492408  -0.0000159182   0.0004093078  -0.0003740530
        0.0007280435  -0.0002341886   0.0009312782  -0.0012526856  -0.0013319686
       -0.0014575396   0.0009256186  -0.0009976862  -0.0001903196  -0.0008731950
        0.0010261225   0.0004216326   0.0002724459  -0.0000935325  -0.0001361678
        0.0008720687  -0.0010194560   0.0013248642  -0.0006427948  -0.0005728631
        0.0001423690   0.0006190970   0.0002510440   0.0001167667  -0.0003026699
       -0.0002419086  -0.0002339775   0.0001608022   0.0004075593   0.0003533823
       -0.0001431959   0.0003313586  -0.0005287471  -0.0003984249  -0.0006664233
        0.0001833057   0.0005602986   0.0007556028   0.0001382262  -0.0004504586
       -0.0003042889   0.0010170517   0.0005291479   0.0010867968  -0.0003723348
       -0.0008800812  -0.0013526565   0.0017235999   0.0015722295   0.0009086451
       -0.0017333941  -0.0013089915   0.0000557671   0.0003101232   0.0000490622
       -0.0002868649  -0.0008395938  -0.0000154167  -0.0005863032   0.0001665917
        0.0005394363   0.0002135672  -0.0009309785  -0.0006240989   0.0031544134
        0.0006547142   0.0000294072  -0.0023806834  -0.0003404764  -0.0001428306
        0.0012108904   0.0001779263   0.0001667058  -0.0004460902  -0.0018403822
       -0.0001594268   0.0007377833   0.0006346787  -0.0008398259  -0.0001427011
       -0.0005783674   0.0003794606  -0.0000026053   0.0003205904  -0.0002449846
        0.0000183451  -0.0003962423   0.0003576748  -0.0005838005   0.0000801469
        0.0003448734   0.0005284439   0.0001552686  -0.0004608720  -0.0003986602
       -0.0003632625   0.0005402621   0.0011671781  -0.0004891600  -0.0002682873
       -0.0010181737  -0.0004273404   0.0010869297   0.0022005282  -0.0000952697
       -0.0012632085  -0.0019376295   0.0005103346   0.0007948222   0.0002411418
       -0.0003089689   0.0000748771  -0.0004250314   0.0006496867  -0.0002356606
        0.0004512049   0.0002985240  -0.0004727979  -0.0011874040   0.0004787827
        0.0003514423   0.0001328875   0.0001677367   0.0002352579  -0.0273214992
       -0.0077642601  -0.0068860205  -0.0112409336  -0.0055780003  -0.0192797046
       -0.0357518145   0.0083431461  -0.0157754469   0.0012706405   0.0006670548
        0.0012964093  -0.0009036735  -0.0006757531   0.0003380732  -0.0006199509
        0.0001828870   0.0004219559   0.0002502243   0.0000652551   0.0000289099
        0.0001588674  -0.0000684811   0.0002072572   0.0000035483  -0.0000379712
        0.0000674103  -0.0000685880  -0.0000141392  -0.0000507263   0.0000597565
       -0.0001378386  -0.0001024756  -0.0000650725  -0.0000257070  -0.0000077569
       -0.0000529282   0.0000412832   0.0000567110  -0.0000176305  -0.0000013992
        0.0000132713  -0.0000271619  -0.0000722901   0.0000116618   0.0000278365
       -0.0000362628  -0.0000141985  -0.0000412558  -0.0000096996   0.0000524069
        0.0000064171  -0.0000111919   0.0000064549  -0.0000489555  -0.0000054895
        0.0000567602   0.0000454391  -0.0000234291  -0.0000253822  -0.0000324955
       -0.0000152652  -0.0000086841   0.0000094901   0.0000209308   0.0000058062
        0.0000755120   0.0000023784  -0.0000726478   0.0000067897   0.0000321029
       -0.0000460994  -0.0000320553   0.0000474852  -0.0000227971  -0.0000502075
        0.0000141860   0.0000062400  -0.0000113795   0.0000020205   0.0000057506
        0.0000377101   0.0000623549  -0.0000331790   0.0000187485   0.0000294816
       -0.0000427386  -0.0000404600  -0.0000410247   0.0000323726  -0.0000217287
       -0.0000223000  -0.0000127291   0.0000201613   0.0000754696  -0.0000099264
       -0.0086879802  -0.0586900954   0.0092565184   0.1296634374   0.2060454843
       -0.1128112465  -0.0720733105  -0.1275472556   0.0809799853  -0.0176292982
       -0.0034498079  -0.0019500100  -0.0006010060   0.0025098508   0.0010145245
       -0.0010908293  -0.0004601167   0.0001597416   0.0005072370   0.0006344858
        0.0078878291  -0.0198611277  -0.0203262529   0.0223040385  -0.0004855225
        0.0006313625  -0.0006342720  -0.0000432760  -0.0001622895   0.0001846770
        0.0000645202   0.0001127416  -0.0000042785   0.0003548565  -0.0003588279
        0.0006918878  -0.0002539993   0.0008181239  -0.0013519975  -0.0008992978
       -0.0018872416   0.0009731200  -0.0004422670  -0.0002928330  -0.0013148897
        0.0006424942   0.0001608948   0.0000957828   0.0001483854   0.0000976997
        0.0008898370  -0.0012172381   0.0014442564  -0.0007131403  -0.0005131601
        0.0000255423   0.0005148558   0.0002110775   0.0000771205  -0.0002854698
       -0.0002162024  -0.0001923244   0.0001553815   0.0003502357   0.0002927362
       -0.0001196144   0.0002715877  -0.0004523482  -0.0003280844  -0.0005617075
        0.0001648161   0.0004730729   0.0006417715   0.0001281339  -0.0003642093
       -0.0002429621   0.0008544947   0.0004264230   0.0008896552  -0.0002965548
       -0.0007110602  -0.0010943753   0.0014218253   0.0013154427   0.0007138789
       -0.0014202617  -0.0011093845   0.0000524887   0.0002538280   0.0000474544
       -0.0002314513  -0.0006834047  -0.0000076558  -0.0004648553   0.0001256717
        0.0004296195   0.0001271622  -0.0008150753  -0.0005309541   0.0035399998
        0.0008216654   0.0000961074  -0.0028503478  -0.0004078925  -0.0002577270
        0.0014421619   0.0002277394   0.0002575428  -0.0006168230  -0.0021375121
       -0.0002437796   0.0007087534   0.0007381568  -0.0008636987  -0.0001611548
       -0.0006728186   0.0004066239  -0.0000068499   0.0003704565  -0.0001901006
        0.0000253909  -0.0003884600   0.0003926789  -0.0005919952   0.0001081576
        0.0003379084   0.0005211036   0.0001411194  -0.0004362319  -0.0004118962
       -0.0003400063   0.0005230838   0.0011471699  -0.0004854531  -0.0002493885
       -0.0009941546  -0.0003945937   0.0010464120   0.0020234362  -0.0000702014
       -0.0011625821  -0.0017668318   0.0004977002   0.0006746077   0.0002165025
       -0.0003048438   0.0000766046  -0.0003625908   0.0006117043  -0.0002246130
        0.0003934318   0.0002823386  -0.0004173064  -0.0011801667   0.0005079022
        0.0002867530   0.0003150084   0.0000447491   0.0003145304  -0.0231854460
       -0.0029965795  -0.0086951865  -0.0122426376   0.0003870775  -0.0068357212
        0.0247232658   0.0060058758   0.0126879821   0.0009684912  -0.0011779122
       -0.0013516486   0.0001437501   0.0002708137   0.0001587327   0.0001619507
       -0.0001897992  -0.0019091117   0.0001608339   0.0000057673  -0.0000552736
        0.0001466091  -0.0000736971   0.0001966526  -0.0000074598  -0.0000340313
        0.0000673281  -0.0001237273  -0.0000135166  -0.0000455136   0.0000571651
       -0.0001273929  -0.0000861500  -0.0000687641  -0.0000377060  -0.0000075185
       -0.0000487420   0.0000374462   0.0000540677  -0.0000028314   0.0000088352
        0.0000081688  -0.0000272605  -0.0000632838   0.0000198308   0.0000317109
       -0.0000345424  -0.0000114712  -0.0000249072  -0.0000092857   0.0000540491
        0.0000050863  -0.0000018657   0.0000171185  -0.0000400193   0.0000002873
        0.0000421454   0.0000372088  -0.0000181737  -0.0000069806  -0.0000318514
       -0.0000447291  -0.0000109331  -0.0000242350  -0.0000154530  -0.0000304593
        0.0000801560  -0.0000008772  -0.0001145821   0.0000057461   0.0000077883
       -0.0000392670  -0.0000151192   0.0000388958  -0.0000332419  -0.0000581517
        0.0000058797   0.0000139529  -0.0000016452  -0.0000019739   0.0000002827
        0.0000290757   0.0000488688  -0.0000294096   0.0000178664   0.0000263215
       -0.0000253164  -0.0000428471  -0.0000423723   0.0000317391  -0.0000317707
       -0.0000146336  -0.0000202539  -0.0000105692   0.0001396817   0.0000246390
       -0.0658725238   0.0144593906  -0.1069039882   0.0541609929  -0.1128112465
        0.2451356814   0.0326372785   0.0717603096  -0.1104922708  -0.0061683108
       -0.0084941545   0.0109492941  -0.0030873607   0.0018422086  -0.0009634761
        0.0013519131   0.0002490084   0.0003124556  -0.0043184080   0.0062662538
       -0.0041664651   0.0237604427   0.0293626796  -0.0198381368   0.0008386911
        0.0001329156   0.0006208551  -0.0001227069   0.0002110846  -0.0002599089
       -0.0001923946  -0.0001256230   0.0000676544  -0.0001184730   0.0002945539
       -0.0004851379   0.0003150492  -0.0006610933   0.0009546766   0.0006956551
        0.0011893703  -0.0011263726   0.0004959603  -0.0003530047   0.0008199108
       -0.0003352814  -0.0002068355  -0.0000552895  -0.0002480447  -0.0002820037
       -0.0006613984   0.0009911694  -0.0010954043   0.0005297607   0.0003774196
       -0.0000145073  -0.0003402251  -0.0001632172  -0.0000547938   0.0002308954
        0.0001662664   0.0001249106  -0.0001176104  -0.0002576454  -0.0002474132
        0.0000795225  -0.0001786720   0.0003479603   0.0002297928   0.0004223878
       -0.0000869754  -0.0003412214  -0.0004833730  -0.0000981489   0.0002727008
        0.0001917533  -0.0006268280  -0.0003258980  -0.0006403931   0.0002471578
        0.0005236627   0.0007873897  -0.0010135151  -0.0009581760  -0.0005261492
        0.0009965512   0.0008223204  -0.0000221468  -0.0001460790  -0.0000416847
        0.0001614898   0.0004646706   0.0000051795   0.0003560524  -0.0000812278
       -0.0003191164  -0.0000873114   0.0005548847   0.0003564967  -0.0027072416
       -0.0006156690  -0.0000994993   0.0021648787   0.0003118745   0.0002271592
       -0.0011467340  -0.0001892223  -0.0002258328   0.0005574704   0.0016027434
        0.0001800843  -0.0004439865  -0.0005359996   0.0006103389   0.0001046884
        0.0005130578  -0.0003338504   0.0000386231  -0.0002789906   0.0001122646
       -0.0000244188   0.0002906268  -0.0002761073   0.0004033328  -0.0000866370
       -0.0002055084  -0.0003347977  -0.0000843557   0.0002792511   0.0002847749
        0.0002134782  -0.0003387676  -0.0007786978   0.0003206134   0.0001707329
        0.0006776106   0.0002449660  -0.0006809556  -0.0013149960   0.0000356936
        0.0007363014   0.0011410221  -0.0003181901  -0.0004033584  -0.0001296203
        0.0001824004  -0.0000540446   0.0001999663  -0.0003771281   0.0001488774
       -0.0002368796  -0.0001767860   0.0002596578   0.0007587437  -0.0003572429
       -0.0001517291  -0.0004419147   0.0001100308  -0.0001991649   0.0135129662
        0.0006250855   0.0083344086  -0.0367660315  -0.0048198032  -0.0214215281
       -0.0111395600   0.0048124984  -0.0024592926   0.0010870787  -0.0013694442
        0.0001900078  -0.0008415749  -0.0004482285   0.0002124429   0.0004380613
       -0.0018462218   0.0010041363  -0.0000228377  -0.0000481010   0.0000339194
       -0.0000901882   0.0000402449  -0.0001393682   0.0000084801   0.0000099526
       -0.0000476709   0.0000808207   0.0000572621   0.0000025481  -0.0000562565
        0.0001245042   0.0000426516   0.0000552805   0.0000432259   0.0000000837
        0.0000298449  -0.0000215975  -0.0000357794  -0.0000142864  -0.0000152279
        0.0000011949   0.0000202503   0.0000384842  -0.0000191338  -0.0000351394
        0.0000152908   0.0000112800   0.0000069336   0.0000060771  -0.0000428819
       -0.0000018984  -0.0000044835  -0.0000185519   0.0000260914  -0.0000055765
       -0.0000203490  -0.0000290137   0.0000238099   0.0000064430   0.0000222997
        0.0000363926   0.0000032817   0.0000379474   0.0000166664   0.0000288037
       -0.0000549659  -0.0000216690   0.0000807612  -0.0000101201   0.0000105712
        0.0000091915  -0.0000056876  -0.0000225635   0.0000238023   0.0000386451
        0.0000001805  -0.0000177449  -0.0000033288   0.0000021707   0.0000008927
       -0.0000132433  -0.0000225569   0.0000178088  -0.0000113204  -0.0000165368
        0.0000093386   0.0000313265   0.0000262363  -0.0000249687   0.0000324442
        0.0000004557   0.0000073858   0.0000076590  -0.0001374187  -0.0000434457
       -0.0357216775  -0.0229562316   0.0113037870  -0.1386621114  -0.0720733105
        0.0326372785   0.5361574068   0.1128815591   0.1011199928  -0.2100083687
        0.0094149777  -0.1133822293  -0.0533483548  -0.0407369952   0.0227503880
       -0.0066372182   0.0167310340  -0.0240297285   0.0250079274   0.0047299168
        0.0092938080  -0.0966828682  -0.0070009823  -0.0204285860  -0.0010406904
       -0.0087223736   0.0071008550  -0.0017089564   0.0012085390  -0.0026107991
        0.0014320644   0.0001608796   0.0005251322  -0.0032688677   0.0007868795
       -0.0030825664   0.0005754147  -0.0035804764   0.0050339143  -0.0004892306
        0.0051338037  -0.0053251980   0.0005043287  -0.0049982349   0.0084422048
       -0.0019839224  -0.0008747089  -0.0015972204  -0.0008348121  -0.0005193392
       -0.0016889487   0.0038733937  -0.0038373524   0.0018501242   0.0005392941
        0.0002413545  -0.0005526448  -0.0002417201   0.0000085628   0.0002418630
        0.0002370799   0.0002014804  -0.0001114722  -0.0003736897  -0.0002348541
        0.0001456207  -0.0002727106   0.0004003789   0.0003354893   0.0005614182
       -0.0001605167  -0.0004908389  -0.0006422512  -0.0003016935   0.0002739088
        0.0001229035  -0.0009749548  -0.0003432925  -0.0008901079   0.0002505371
        0.0007260937   0.0011153814  -0.0015197341  -0.0013227339  -0.0007573685
        0.0014438177   0.0010741521  -0.0000362600  -0.0002428935  -0.0000461428
        0.0002947492   0.0007758794  -0.0000207661   0.0005047430  -0.0001520101
       -0.0004240727  -0.0000712890   0.0009679982   0.0006184526  -0.0082101060
       -0.0016070830  -0.0011502083   0.0071505728   0.0013133663   0.0012556261
       -0.0041222633  -0.0007861963  -0.0010651187   0.0020726280   0.0050238288
        0.0008701041  -0.0004909495  -0.0008743273   0.0007086353   0.0002815951
        0.0005015969  -0.0003071058   0.0000268550  -0.0003005397   0.0002236887
        0.0000570437   0.0003207947  -0.0003521655   0.0004218578   0.0000039061
       -0.0002885955  -0.0004309844  -0.0000761503   0.0003494895   0.0001603982
        0.0003918805  -0.0003581070  -0.0010375736   0.0006376684   0.0000632212
        0.0008484853   0.0003767808  -0.0009425339  -0.0019102890   0.0001421681
        0.0010682556   0.0016558146  -0.0004360013  -0.0006956039  -0.0001954072
        0.0002610409  -0.0000604622   0.0003974214  -0.0006596684   0.0002461841
       -0.0003970656  -0.0002511249   0.0004355157   0.0012326977  -0.0005631909
       -0.0002935380  -0.0014920691   0.0003521559  -0.0001818145  -0.0061336364
       -0.0013168341  -0.0023512659   0.0019636989   0.0013047653   0.0014990436
        0.0020495402  -0.0012127922   0.0001299197  -0.0035497031   0.0011787113
       -0.0036813961  -0.0008607716  -0.0045578454   0.0000881128  -0.0066024901
        0.0143498710  -0.0232407472  -0.0001690131  -0.0001170296   0.0001404618
       -0.0001346047   0.0001058307  -0.0001665917  -0.0000104974   0.0000786138
       -0.0000451388   0.0001003973   0.0000719164   0.0000712947  -0.0000280297
        0.0000905631  -0.0000176261   0.0000795778   0.0000179314  -0.0000153133
        0.0000417006  -0.0000335747  -0.0000425183   0.0000060772  -0.0000100480
       -0.0000004383   0.0000168951   0.0000507267  -0.0000185104  -0.0000314076
        0.0000221955   0.0000117712   0.0000317127   0.0000097937  -0.0000430135
       -0.0000013169   0.0000012658  -0.0000114427   0.0000394250   0.0000011332
       -0.0000399849  -0.0000375860   0.0000163044  -0.0000003188   0.0000034610
        0.0000344497   0.0000337396  -0.0000133692  -0.0000933796   0.0001002606
       -0.0000806087   0.0000188925   0.0000289370  -0.0000007635  -0.0000087516
        0.0000308206   0.0000224754  -0.0000319860   0.0000158526   0.0000355695
       -0.0000082478  -0.0000234236   0.0000045933   0.0000027046  -0.0000022550
       -0.0000259500  -0.0000451031   0.0000252937  -0.0000099269  -0.0000234162
        0.0000308740   0.0000381435   0.0000390689  -0.0000211089   0.0000444438
        0.0000302281  -0.0000138338  -0.0000603277  -0.0001877994  -0.0000127465
       -0.0140889462  -0.0061486201  -0.0058098185  -0.0865130621  -0.1275472556
        0.0717603096   0.1128815591   0.3448901358  -0.2240838108  -0.0287005585
       -0.0651818153   0.0025838844  -0.0103973496   0.0047572159  -0.0154518404
        0.0107168008  -0.0050227206   0.0053705929  -0.0255262098  -0.0315608925
        0.0239946380   0.0343863427  -0.1255660825   0.1255316265  -0.0044320646
        0.0056298834  -0.0016784094   0.0009172733  -0.0007887508   0.0017012500
        0.0003155097   0.0000911672  -0.0006380078   0.0000305846   0.0000771119
       -0.0000085370  -0.0000320479  -0.0003740894   0.0001407640  -0.0006581039
        0.0001214328   0.0000270857  -0.0000231902  -0.0005933011   0.0013749896
       -0.0003802328  -0.0001552320   0.0003075264   0.0005586151   0.0006901000
       -0.0007571114   0.0000475314  -0.0008130693   0.0002768884   0.0006202582
       -0.0002714752  -0.0007053163  -0.0002727566  -0.0001425217   0.0003937707