$hessian                                                                        
        0.5308865238  -0.1222193243  -0.2088184290  -0.0832270066   0.0407519351
        0.0015872017   0.0192977034   0.0148305003  -0.0203515740  -0.0102561572
       -0.0222787509   0.0152996281  -0.0012045377   0.0011244276  -0.0005284550
        0.0000599328  -0.0005084554   0.0003301656   0.0000681987   0.0000168600
        0.0001041220  -0.0000570259   0.0000822634  -0.0000651919   0.0000108450
       -0.0000698384  -0.0000141793   0.0000743905   0.0000212443  -0.0000269753
       -0.0000903892  -0.0000646941  -0.0000409554   0.0001804198  -0.0000137123
       -0.0000341371  -0.0001229445  -0.0001098170   0.0000054726   0.0000401502
        0.0001034153   0.0000328970   0.0000301368  -0.0000090392   0.0000110419
       -0.0000112935   0.0000001983  -0.0000053235   0.0000180906  -0.0000007460
       -0.0000021846  -0.0000051715  -0.0000015431  -0.0000016902  -0.0000106698
       -0.0000033336   0.0000029667  -0.0000039820   0.0000005701  -0.0000055141
       -0.0000036779  -0.0000001330   0.0000000858  -0.0000152781   0.0000000523
       -0.0000010586   0.0000087720  -0.0000024846  -0.0000013252  -0.0000004808
        0.0000082551   0.0000021433   0.0000005190  -0.0000016059  -0.0000005998
       -0.0000039339  -0.0000004758   0.0000004603  -0.0000011111  -0.0000013062
       -0.0000000532  -0.0000056641  -0.0000003665   0.0000006580  -0.0000024038
        0.0000035607   0.0000019945  -0.0000020687   0.0000013557   0.0000009409
       -0.0000003902   0.0000004795   0.0000009590   0.0000018411  -0.0000042462
       -0.0000010547  -0.0000070350   0.0000010840  -0.0000007113  -0.0000012398
       -0.0000015260   0.0000052469  -0.0000151204   0.0000017183  -0.0000041228
        0.0000000697  -0.0000008104   0.0000012038   0.0000039558  -0.0000012638
       -0.0000037045  -0.0000026529  -0.0000034914   0.0000135396   0.0000335037
        0.0000142566  -0.0000594152  -0.0001312459   0.0001062089   0.0000546621
        0.0001171790   0.0000116124  -0.0003995437  -0.0500164678   0.0362449625
        0.0158999609  -0.2147094885  -0.0636121678   0.1429702425  -0.1872479414
        0.1265639429   0.0342433571  -0.0010550205  -0.0196180027   0.0117076531
       -0.0011433920   0.0050320760   0.0032819069   0.0000000528   0.0000817631
        0.0000381299   0.0000198106  -0.0000089351   0.0000019818   0.0000110795
        0.0000084019   0.0000128324  -0.0000005122  -0.0000058340  -0.0000093463
        0.0000026522  -0.0000099861   0.0000026028   0.0000075054   0.0000026577
       -0.0000091438  -0.0000008640   0.0000006051   0.0000001206  -0.0000025222
       -0.0000002958   0.0000004213  -0.0000037818  -0.0000004136   0.0000020382
       -0.0000012941  -0.0000015295  -0.0000001519  -0.0000046818  -0.0000004333
        0.0000000919  -0.0000018451   0.0000015360   0.0000007583  -0.0000007930
        0.0000006625   0.0000010456  -0.0000017960  -0.0000000967   0.0000012749
       -0.0000014163  -0.0000002090   0.0000012743  -0.0000010361   0.0000018386
        0.0000010520  -0.0000036280   0.0000009751  -0.0000024938  -0.0000016433
        0.0000007568  -0.0000004604  -0.0000035589   0.0000019890  -0.0000052316
       -0.0000000833   0.0000002097   0.0000116288  -0.0000044860   0.0000092896
       -0.0000049090   0.0000040987   0.0000679351   0.0000701256  -0.0008904783
        0.0047347565   0.0034826409  -0.0005992199  -0.0012794881   0.0012114053
       -0.1222193243   0.5746572475  -0.1618384821  -0.0195220482  -0.2726980867
        0.1311512287   0.0601190619  -0.0488829577  -0.0119017294  -0.0220241767
       -0.0267480948   0.0267728160   0.0009364186  -0.0006134652  -0.0013371475
       -0.0000980861   0.0000844884  -0.0003165462   0.0001443866  -0.0001579789
        0.0000159399  -0.0000090822   0.0001004757  -0.0000835532   0.0001247200
        0.0000436145   0.0000239801  -0.0000892828  -0.0001548896  -0.0000172835
       -0.0000752527   0.0001988074   0.0000024633  -0.0000049133  -0.0001003611
       -0.0000651123  -0.0000359183   0.0000377452  -0.0000240659  -0.0000511491
        0.0000396841   0.0000174171  -0.0000166586   0.0000030770   0.0000327891
       -0.0000020363  -0.0000028798   0.0000083187   0.0000027723   0.0000033162
       -0.0000052386   0.0000017388   0.0000009228   0.0000018348   0.0000111642
        0.0000021170  -0.0000028281  -0.0000044357  -0.0000007954   0.0000056759
        0.0000091075  -0.0000011107   0.0000006220   0.0000109687   0.0000006225
       -0.0000009543  -0.0000104446   0.0000017657  -0.0000005962  -0.0000025870
       -0.0000081826  -0.0000026218  -0.0000009347   0.0000030339   0.0000011077
        0.0000019890  -0.0000007750  -0.0000003673   0.0000022882   0.0000012225
        0.0000006116   0.0000027730   0.0000010020   0.0000003443   0.0000024472
       -0.0000013576  -0.0000007361  -0.0000002546  -0.0000014474  -0.0000003725
       -0.0000026480   0.0000003278  -0.0000001012  -0.0000021090   0.0000040995
        0.0000009686   0.0000061992   0.0000000774  -0.0000012778  -0.0000002279
        0.0000019190  -0.0000051838   0.0000052010  -0.0000003113   0.0000020289
        0.0000046950   0.0000012906   0.0000001589  -0.0000099253   0.0000032531
        0.0000020073   0.0000138183   0.0000003516  -0.0000036813   0.0000978756
        0.0000055010  -0.0001192634  -0.0000311151   0.0000364644   0.0001253567
       -0.0004605604  -0.0001039101   0.0003750335  -0.0088684987   0.0423017215
       -0.0161667427  -0.0034103719  -0.1018093764   0.0303031730   0.1265946829
       -0.1485134220  -0.0226473702  -0.0015585577  -0.0080184827   0.0051887956
        0.0046545650  -0.0003972757   0.0014097188   0.0001206371   0.0000022195
        0.0000839061  -0.0000028957  -0.0000040141  -0.0000150697  -0.0000012871
       -0.0000183144   0.0000284473   0.0000023482   0.0000005808   0.0000055146
       -0.0000050014   0.0000117449  -0.0000017947  -0.0000047744  -0.0000050555
        0.0000026203   0.0000004121   0.0000005463  -0.0000055935  -0.0000014054
       -0.0000001081  -0.0000006275   0.0000002177  -0.0000000169  -0.0000018628
       -0.0000001303   0.0000036878   0.0000008101   0.0000026479   0.0000015723
        0.0000003337   0.0000008710   0.0000006134   0.0000003864  -0.0000001759
        0.0000006286   0.0000003682   0.0000005754   0.0000014520   0.0000004518
        0.0000012163   0.0000011702   0.0000000521   0.0000005672  -0.0000017374
       -0.0000004551   0.0000007390   0.0000002171   0.0000004144  -0.0000007066
        0.0000003912  -0.0000005232  -0.0000007118  -0.0000010003  -0.0000007463
       -0.0000049582  -0.0000054327  -0.0000047987  -0.0000106927   0.0000042999
       -0.0000034786   0.0000829398   0.0000461695   0.0000627162   0.0050615655
       -0.0006549357   0.0011354636  -0.0194782712  -0.0087036659   0.0178123301
       -0.2088184290  -0.1618384821   0.3380874526   0.0341341064   0.0910407359
       -0.1182304498  -0.0442320304   0.0171520400   0.0211164901   0.0144049336
        0.0256856114  -0.0306136651   0.0001396534  -0.0005953919   0.0009445551
        0.0000457148   0.0002932350  -0.0000700248  -0.0000697264   0.0001213147
       -0.0000035297   0.0000048966  -0.0001039609   0.0001131342  -0.0000763182
        0.0000244565  -0.0000134778   0.0000130685   0.0000718055   0.0000323629
        0.0001046156  -0.0000805047   0.0000277967  -0.0001400632   0.0000651322
        0.0000640690   0.0001037743   0.0000532077   0.0000138747   0.0000088814
       -0.0000927588  -0.0000431122  -0.0000081502   0.0000031450  -0.0000290749
        0.0000135489   0.0000026612  -0.0000037645  -0.0000179353  -0.0000012205
        0.0000038719   0.0000013403   0.0000011801  -0.0000014191   0.0000034992
        0.0000016419  -0.0000009490   0.0000046204  -0.0000004045   0.0000031378
       -0.0000003969   0.0000012204  -0.0000004633   0.0000061832  -0.0000001240
        0.0000014621  -0.0000035595   0.0000008100   0.0000015626   0.0000005531
       -0.0000044468  -0.0000007138  -0.0000004189   0.0000006073   0.0000003458
        0.0000016830  -0.0000005497  -0.0000005413   0.0000003369   0.0000004343
       -0.0000000125   0.0000029177  -0.0000004731  -0.0000005522   0.0000004335
       -0.0000025735  -0.0000010388   0.0000008810  -0.0000002364  -0.0000002593
        0.0000007545  -0.0000009600  -0.0000008469  -0.0000002553   0.0000013919
        0.0000007472   0.0000038190  -0.0000000228  -0.0000005799  -0.0000000977
        0.0000006463  -0.0000013980   0.0000095131  -0.0000008967   0.0000031463
       -0.0000025351   0.0000012544  -0.0000022801   0.0000057479  -0.0000000682
        0.0000028651  -0.0000049443   0.0000016545  -0.0000062853  -0.0000763854
       -0.0000361132   0.0001205932   0.0001598113  -0.0000578876  -0.0000350509
        0.0001320814   0.0000841193   0.0000549601   0.0390230417  -0.0460957117
       -0.0007610901   0.1106522667   0.0707197480  -0.1576889985   0.0341260504
       -0.0227700069  -0.0442367862   0.0021026717   0.0177099463  -0.0095671371
        0.0036376273   0.0013006373   0.0051094859  -0.0001307138   0.0000098915
       -0.0000658764  -0.0000099256   0.0000107918   0.0000095174  -0.0000093362
        0.0000097523  -0.0000276490  -0.0000009821   0.0000016974   0.0000046065
        0.0000002477   0.0000018723   0.0000014810  -0.0000017926   0.0000011650
        0.0000044183   0.0000004477  -0.0000012907   0.0000045779   0.0000016661
        0.0000000658   0.0000004762   0.0000025737   0.0000003486  -0.0000004682
        0.0000003359   0.0000010462  -0.0000000326   0.0000025830   0.0000004052
       -0.0000000447   0.0000013110  -0.0000005501  -0.0000005725   0.0000003209
       -0.0000006201  -0.0000009298   0.0000006489   0.0000000090  -0.0000010464
        0.0000005308  -0.0000000598  -0.0000009522   0.0000004809  -0.0000005997
       -0.0000006929   0.0000012960  -0.0000011146   0.0000016949   0.0000011133
       -0.0000012059   0.0000010317   0.0000022501  -0.0000021938   0.0000057485
       -0.0000006121   0.0000013723  -0.0000068575   0.0000123384  -0.0000108213
        0.0000065852   0.0000260853  -0.0001236871  -0.0001060354   0.0033632516
        0.0015338462   0.0051079702   0.0113381005   0.0059140364  -0.0093253627
       -0.0832270066  -0.0195220482   0.0341341064   0.5302401523  -0.1066612896
       -0.2166405697  -0.2191784447   0.1570325832   0.0314181128  -0.0497948270
       -0.0083235782   0.0373567305  -0.0003259885  -0.0005244214   0.0037807887
       -0.0004238731   0.0004200541   0.0000499610   0.0000421329  -0.0004475117
       -0.0001448264   0.0000547596   0.0001701900  -0.0000684067   0.0002456410
        0.0000315252   0.0000363613  -0.0001830932  -0.0001609241  -0.0000610666
       -0.0000108083   0.0003150255  -0.0000858291  -0.0001062317  -0.0001200241
       -0.0001952246   0.0000150642   0.0000859273  -0.0000941997  -0.0000213407
       -0.0000055803   0.0000248629  -0.0000576704  -0.0000074168   0.0000382936
       -0.0000044769  -0.0000032679   0.0000049901   0.0000244523   0.0000010852
        0.0000138541  -0.0000083500   0.0000004191   0.0000068974  -0.0000142671
       -0.0000028895   0.0000092823  -0.0000015185   0.0000021465  -0.0000044088
       -0.0000055434  -0.0000012440   0.0000003937  -0.0000165595   0.0000000432
       -0.0000018132   0.0000032528   0.0000004909   0.0000002571   0.0000099779
       -0.0000036365  -0.0000005957  -0.0000022524  -0.0000023064  -0.0000007673
        0.0000014239   0.0000009011   0.0000001154  -0.0000051126  -0.0000068065
       -0.0000024532  -0.0000042966  -0.0000004612  -0.0000007174  -0.0000015872
        0.0000028258   0.0000003944   0.0000025658   0.0000022528  -0.0000000630
       -0.0000013096  -0.0000002213  -0.0000003067   0.0000069255  -0.0000019032
       -0.0000011769   0.0000014345  -0.0000028454   0.0000074342  -0.0000012656
       -0.0000004887   0.0000002054  -0.0000042109   0.0000031923  -0.0000108238
       -0.0000048613   0.0000003616  -0.0000003612   0.0000030576   0.0000063943
       -0.0000150997   0.0000136424   0.0000016153  -0.0000005261  -0.0000225876
        0.0000474861  -0.0001655812   0.0000852602   0.0000189499   0.0000234753
       -0.0009037996  -0.0001131614   0.0011236327  -0.0119074599   0.0240488473
       -0.0082982987   0.0219334870  -0.0249871535  -0.0006175600  -0.0015156265
        0.0208603764  -0.0096931228  -0.1832638060  -0.0449935819   0.1224497239
       -0.0009129089   0.0022868989  -0.0000851027   0.0001386752   0.0003507772
        0.0002468078  -0.0000190315  -0.0000107594  -0.0000226902   0.0000140168
       -0.0000478456   0.0000184980   0.0000349680  -0.0000128065   0.0000038020
        0.0000028255  -0.0000126826  -0.0000224663   0.0000079604  -0.0000041523
        0.0000032639  -0.0000004052   0.0000017858  -0.0000106272   0.0000050601
        0.0000019049  -0.0000075195   0.0000060851   0.0000004703  -0.0000017552
       -0.0000011500  -0.0000018087   0.0000000913   0.0000023645   0.0000024882
        0.0000008252   0.0000017813   0.0000028572   0.0000004455   0.0000035467
       -0.0000004472  -0.0000009215   0.0000012437  -0.0000025525  -0.0000018307
       -0.0000007943   0.0000000093  -0.0000006765  -0.0000002298   0.0000036263
        0.0000007688   0.0000080988  -0.0000013238   0.0000024308   0.0000065983
       -0.0000037939   0.0000063195  -0.0000028378  -0.0000037634   0.0000036588
        0.0000011476  -0.0000015451   0.0000001861   0.0000155008   0.0000323075
        0.0000091174  -0.0000615150   0.0001072826   0.0001450737   0.0002396334
        0.0003525624  -0.0006193920  -0.0011556881  -0.0001994212   0.0059556186
        0.0407519351  -0.2726980867   0.0910407359  -0.1066612896   0.5666775537
       -0.1686279567   0.0977394641  -0.1866795756   0.0106963673   0.0363386178
        0.0406956944  -0.0482139306  -0.0026644011   0.0028444506   0.0051879127
       -0.0003500789  -0.0003235491   0.0005659007  -0.0001342536   0.0002419029
       -0.0001264200  -0.0000409810  -0.0000923317   0.0000610368  -0.0001794846
       -0.0000728516  -0.0000206988   0.0001439405   0.0001862568  -0.0000102645
       -0.0002297290  -0.0000971513   0.0000162686   0.0000715776   0.0003799738
        0.0000212405  -0.0000161866  -0.0001030511  -0.0000407497   0.0000549646
        0.0000190909  -0.0000131858   0.0000377038   0.0000019925  -0.0000384752
        0.0000055505   0.0000035334  -0.0000084759  -0.0000211616  -0.0000036320
       -0.0000053341   0.0000038373  -0.0000008622  -0.0000046603  -0.0000029238
        0.0000001032  -0.0000047615   0.0000065274  -0.0000003049  -0.0000031875
       -0.0000064094   0.0000014910  -0.0000010929  -0.0000009103  -0.0000008665
        0.0000028652   0.0000081622  -0.0000020771   0.0000002109  -0.0000045260
        0.0000091231   0.0000027429   0.0000017651   0.0000009112   0.0000001765
       -0.0000020924  -0.0000012799  -0.0000001596   0.0000017350   0.0000019806
        0.0000008232  -0.0000014492   0.0000005208   0.0000005841   0.0000002626
        0.0000009617   0.0000009335  -0.0000029156  -0.0000008990   0.0000004525
       -0.0000005365   0.0000008117   0.0000005099  -0.0000007088  -0.0000033253
       -0.0000001138  -0.0000059197   0.0000014607  -0.0000036911   0.0000006889
       -0.0000014465   0.0000053082  -0.0000035116  -0.0000012449   0.0000040575
        0.0000050702   0.0000006425  -0.0000023487   0.0000007458  -0.0000055539
        0.0000075495  -0.0000153002  -0.0000010004   0.0000031475  -0.0000168776
        0.0000108366   0.0001477641   0.0000632818  -0.0001664445  -0.0001297353
        0.0009709097   0.0000263553  -0.0000449714   0.0252493054  -0.0506517450
        0.0077021289  -0.0698530971  -0.0038698814   0.0496680382   0.0024269926
       -0.0198709727   0.0089434090  -0.0445954681  -0.0577801109   0.0426257720
        0.0203199918  -0.0197498601  -0.0022370081   0.0000621641  -0.0003053316
       -0.0001720520   0.0000397927  -0.0000077443   0.0000022798   0.0000071157
        0.0000375646  -0.0000251539  -0.0000225354   0.0000074083  -0.0000162289
        0.0000134900   0.0000043618   0.0000030075  -0.0000008719   0.0000048854
       -0.0000024536   0.0000003757  -0.0000026087   0.0000114620  -0.0000010973
       -0.0000009271   0.0000050327  -0.0000041546   0.0000000650   0.0000025652
        0.0000001989  -0.0000019162  -0.0000007582  -0.0000040322  -0.0000018887
       -0.0000007217  -0.0000015136  -0.0000001202  -0.0000001870  -0.0000015219
        0.0000003890   0.0000003408  -0.0000016330   0.0000008734   0.0000009571
       -0.0000008888  -0.0000003272   0.0000007415  -0.0000014169  -0.0000001525
        0.0000000327  -0.0000059410   0.0000008789  -0.0000018236  -0.0000019602
        0.0000017730  -0.0000017031  -0.0000010021   0.0000014545  -0.0000001544
       -0.0000010791   0.0000018664   0.0000016888   0.0000236763  -0.0000205192
        0.0000093419  -0.0000531654  -0.0001082907  -0.0001012661   0.0003400690
       -0.0003875698  -0.0000631397   0.0002231135   0.0018483331   0.0031794774
        0.0015872017   0.1311512287  -0.1182304498  -0.2166405697  -0.1686279567
        0.3500695629   0.0627367426  -0.0281283161  -0.0725979767   0.0132400083
       -0.0179782140  -0.0006920964   0.0050213370   0.0047868261   0.0021520668
       -0.0006130486  -0.0004951949   0.0002612259   0.0001649074   0.0000337399
        0.0000471041   0.0000409360  -0.0001034987  -0.0001314939  -0.0000225591
        0.0000358877   0.0000164973  -0.0000605369  -0.0000330833  -0.0000405273
       -0.0002060511   0.0002411037  -0.0000364440   0.0004980452   0.0002328522
        0.0000597102  -0.0000071594  -0.0001223245  -0.0000269481  -0.0000558449
        0.0000743909   0.0000214404   0.0000119105   0.0000010316   0.0000132843
       -0.0000080208  -0.0000002716  -0.0000002538  -0.0000104640  -0.0000004739
       -0.0000030637   0.0000005621   0.0000012933  -0.0000067234   0.0000130739
        0.0000023965  -0.0000059240   0.0000001866  -0.0000015979   0.0000068467
        0.0000046004  -0.0000007020   0.0000023439   0.0000153113   0.0000002660
        0.0000004163  -0.0000041960   0.0000013713   0.0000006760  -0.0000069340
       -0.0000026275  -0.0000006828   0.0000008457   0.0000018527   0.0000008009
        0.0000002354  -0.0000006802  -0.0000002238   0.0000034146   0.0000047465
        0.0000018161   0.0000050144   0.0000002550   0.0000004587   0.0000020576
       -0.0000038463  -0.0000007398  -0.0000015922  -0.0000029719  -0.0000003806
        0.0000016714   0.0000000517  -0.0000000544  -0.0000068905   0.0000020706
        0.0000009687   0.0000034178   0.0000010588  -0.0000030172   0.0000005313
        0.0000015687  -0.0000040734   0.0000102766  -0.0000017422   0.0000085485
       -0.0000033270  -0.0000003922   0.0000021054   0.0000035272   0.0000000213
        0.0000054520  -0.0000069949   0.0000010417  -0.0000073788   0.0001427843
       -0.0000378581  -0.0000364055  -0.0001589831  -0.0001095027   0.0000409282
        0.0015699371  -0.0009306649  -0.0003664066  -0.0089760245   0.0091060133
       -0.0033899657   0.0240895380   0.0191767160  -0.0247731244   0.0000022962
       -0.0030820556   0.0021248323   0.1225535884   0.0421661513  -0.1387922164
       -0.0101717112   0.0093874134   0.0018941712  -0.0000508792  -0.0000710730
        0.0000677598   0.0000058415   0.0000441994   0.0000168670  -0.0000090221
        0.0000079794   0.0000319278  -0.0000137201   0.0000396125   0.0000087854
        0.0000277326   0.0000085651  -0.0000010673  -0.0000062917   0.0000016688
       -0.0000054840   0.0000005362  -0.0000006294   0.0000042096  -0.0000038033
       -0.0000013800   0.0000042009  -0.0000032580  -0.0000006571   0.0000008618
        0.0000008846   0.0000030500   0.0000003137  -0.0000000494  -0.0000008684
       -0.0000003639  -0.0000003947  -0.0000017919  -0.0000002984  -0.0000025978
        0.0000000463   0.0000004482  -0.0000009101   0.0000021147   0.0000010479
        0.0000013332   0.0000006405   0.0000001400   0.0000013387  -0.0000024108
       -0.0000008254  -0.0000053132   0.0000003994  -0.0000007118  -0.0000051304
        0.0000017852  -0.0000041551   0.0000032364   0.0000006125   0.0000003822
       -0.0000040699  -0.0000015293  -0.0000014892  -0.0000162223  -0.0000066069
       -0.0000116734   0.0000394327   0.0000003919  -0.0000062579  -0.0005075489
       -0.0001603291   0.0001963288   0.0057858239   0.0033888369   0.0021143670
        0.0192977034   0.0601190619  -0.0442320304  -0.2191784447   0.0977394641
        0.0627367426   0.5151883489  -0.1254871832  -0.1995365398  -0.1894453365
       -0.0127775296   0.0983254914  -0.0393435613   0.0087699626   0.0211084234
       -0.0006276762  -0.0037326476   0.0013098272  -0.0004478775   0.0001792470
        0.0001776843   0.0000573221  -0.0002761438  -0.0001428699  -0.0002741401
       -0.0000479687   0.0000232101   0.0002206765   0.0002428306  -0.0001283873
       -0.0005283638  -0.0005091705  -0.0003097515  -0.0009296450   0.0009329672
       -0.0002010905  -0.0001239481   0.0000850461  -0.0000488915   0.0001580527
        0.0000733487  -0.0000027076   0.0001015712  -0.0000209782  -0.0000446079
       -0.0000360774   0.0000056545  -0.0000150350  -0.0000113224  -0.0000139475
        0.0000004257  -0.0000132223   0.0000022059  -0.0000225222   0.0000097263
        0.0000053773  -0.0000177684   0.0000189990  -0.0000000283  -0.0000008837
       -0.0000173327   0.0000033000   0.0000033853   0.0000157400  -0.0000004436
        0.0000029968   0.0000358970  -0.0000010488   0.0000006521  -0.0000186249
        0.0000216182   0.0000065500   0.0000080675   0.0000018322   0.0000004739
       -0.0000050327  -0.0000021186  -0.0000009802   0.0000091313   0.0000113084
        0.0000033019   0.0000047733   0.0000005473   0.0000001146   0.0000032758
       -0.0000036585  -0.0000008250  -0.0000074793  -0.0000068214  -0.0000015288
        0.0000094788   0.0000016064  -0.0000000818  -0.0000130319  -0.0000079213
       -0.0000019541  -0.0000169727   0.0000037937  -0.0000062905   0.0000112350
       -0.0000010293   0.0000025262   0.0000106472  -0.0000059937   0.0000186774
       -0.0000142001  -0.0000080975   0.0000121037   0.0000219813  -0.0000103997
       -0.0000003219  -0.0000606591  -0.0000032184   0.0000024505   0.0001565476
       -0.0000559568   0.0001099417   0.0001710660   0.0001848129   0.0000032715
        0.0013298919   0.0032888072   0.0017980539   0.0198489990  -0.0623519229
        0.0220626791  -0.0491364656   0.0111926174   0.0241248197   0.0026332161
        0.0012863777   0.0023750226  -0.0197613481   0.0142980913   0.0062626504
       -0.0416630322   0.0053975178   0.0017373185   0.0004101043   0.0001732109
        0.0001597522   0.0000429895   0.0000465847  -0.0000012324   0.0000384377
        0.0000039378   0.0000379669   0.0000115305   0.0000476632  -0.0000331042
       -0.0001091778   0.0000012404   0.0000207222  -0.0000126272   0.0000226874
       -0.0000335386   0.0000049817  -0.0000029885   0.0000217600  -0.0000115057
       -0.0000039617   0.0000178591  -0.0000180277  -0.0000014315   0.0000080316
        0.0000041399  -0.0000011636  -0.0000008258  -0.0000107876  -0.0000083232
       -0.0000029947  -0.0000042570  -0.0000052156  -0.0000019913  -0.0000081291
        0.0000003127  -0.0000000856  -0.0000051244   0.0000045139   0.0000014013
        0.0000010987  -0.0000000642  -0.0000005302   0.0000026676  -0.0000033673
       -0.0000021438  -0.0000208592   0.0000026638  -0.0000073417  -0.0000136975
        0.0000064707  -0.0000154044   0.0000058791   0.0000068857  -0.0000069823
       -0.0000140506   0.0000042335   0.0000329240  -0.0000429360  -0.0000545355
       -0.0000198386  -0.0000318051  -0.0004328920  -0.0001185780   0.0026725966
        0.0016440452   0.0023526796  -0.0005399943   0.0000263249   0.0000977680
        0.0148305003  -0.0488829577   0.0171520400   0.1570325832  -0.1866795756
       -0.0281283161  -0.1254871832   0.5815964069  -0.1736033593  -0.0639648305
       -0.1000348967   0.0692818827   0.0206408166   0.0048502649  -0.0117592989
        0.0007569467   0.0010018970  -0.0010233278   0.0006410875  -0.0009606647
        0.0001505033  -0.0000559628   0.0002237921  -0.0001530178   0.0001350330
       -0.0000308162   0.0000254095  -0.0001068340  -0.0000019352   0.0001315953
        0.0004209666  -0.0000552492   0.0000135135   0.0012717031  -0.0005417976
        0.0001597420  -0.0000129445  -0.0002588093   0.0001263138   0.0000744427
       -0.0000561681  -0.0000187457  -0.0000946785   0.0000010552  -0.0000296090
        0.0000181072  -0.0000008457   0.0000093274   0.0000166328   0.0000029510
        0.0000157198  -0.0000011811   0.0000009783   0.0000083952  -0.0000096980
       -0.0000027534   0.0000077802   0.0000041991   0.0000020004  -0.0000041114
       -0.0000097544   0.0000011689  -0.0000054779  -0.0000129696  -0.0000006468
        0.0000015899   0.0000066438  -0.0000002900   0.0000008760   0.0000103413
       -0.0000037411  -0.0000000138  -0.0000011905  -0.0000005555  -0.0000005475
        0.0000023982  -0.0000002347  -0.0000004599  -0.0000034569  -0.0000055136
       -0.0000022494  -0.0000022928  -0.0000001091  -0.0000007804  -0.0000002976
        0.0000014465   0.0000002086   0.0000031896   0.0000025985   0.0000005345
       -0.0000020951  -0.0000008654  -0.0000008402   0.0000095235   0.0000001094
        0.0000001811  -0.0000022931  -0.0000027628   0.0000083813  -0.0000034324
       -0.0000016489   0.0000029491   0.0000015397   0.0000016441  -0.0000062920
        0.0000002639   0.0000011363  -0.0000099409   0.0000220778   0.0000023142
       -0.0000070532   0.0000054845   0.0000042636  -0.0000157583  -0.0002176099
        0.0000184862   0.0001093319   0.0002525913   0.0003180761  -0.0000100012
       -0.0002065510  -0.0022272883  -0.0022092454  -0.0234131399  -0.0036977781
        0.0181565774   0.0125315756  -0.0016290578  -0.0101172501   0.0016381757
       -0.0033654373   0.0049073956  -0.0038261312   0.0038884381   0.0005927826
        0.0059454171  -0.2401724451   0.1124584333  -0.0002164875  -0.0003108325
       -0.0005555363  -0.0000495786  -0.0000033298  -0.0000481900  -0.0000128215
       -0.0000384882   0.0000328909   0.0000068619  -0.0000104751   0.0000124879
        0.0000993802  -0.0000258109  -0.0000092931   0.0000003643  -0.0000140246
        0.0000185936   0.0000008451   0.0000004293  -0.0000087177   0.0000058132
        0.0000014474  -0.0000056032   0.0000057401   0.0000011409  -0.0000028855
       -0.0000007290  -0.0000029128  -0.0000006265   0.0000023677   0.0000015100
        0.0000000504   0.0000016958   0.0000019975  -0.0000002994   0.0000031537
       -0.0000006851  -0.0000013395   0.0000012691  -0.0000021097  -0.0000018353
       -0.0000008989  -0.0000000157  -0.0000010646  -0.0000012458   0.0000035264
       -0.0000002383   0.0000058498  -0.0000010973   0.0000040247   0.0000065568
       -0.0000026537   0.0000063880   0.0000016590  -0.0000044935   0.0000163676
       -0.0000014756   0.0000089906  -0.0000248155   0.0000409221   0.0000297443
        0.0000090619   0.0000073958  -0.0000324879   0.0000563922   0.0011006565
       -0.0035797471   0.0048534670   0.0001549920   0.0006761941  -0.0005650474
       -0.0203515740  -0.0119017294   0.0211164901   0.0314181128   0.0106963673
       -0.0725979767  -0.1995365398  -0.1736033593   0.3418431423   0.1307309654
        0.0328679376  -0.1520759966   0.0134265933  -0.0043632544  -0.0040379448
       -0.0006070799   0.0003674687  -0.0003047851  -0.0001375255  -0.0002313090
       -0.0006222106   0.0001345259   0.0002122133  -0.0001225722   0.0001743492
       -0.0000934589   0.0000454675  -0.0000545523  -0.0001715874  -0.0000305537
       -0.0001491446   0.0004945408   0.0001956434   0.0003850118  -0.0002368435
        0.0000279466  -0.0001057222  -0.0000705581  -0.0000457278  -0.0000662309
        0.0001186093   0.0000346793   0.0000019647   0.0000138256   0.0000213846
        0.0000146799   0.0000006670  -0.0000071344  -0.0000038716   0.0000051171
       -0.0000054668   0.0000075378  -0.0000012851   0.0000059640  -0.0000058138
       -0.0000012938   0.0000049906  -0.0000088115  -0.0000010997   0.0000031055
        0.0000088638  -0.0000023655   0.0000021686  -0.0000016761  -0.0000000440
       -0.0000004338  -0.0000185186   0.0000004801   0.0000010358   0.0000022297
       -0.0000082117  -0.0000026173  -0.0000031593  -0.0000009727   0.0000003995
        0.0000002149   0.0000008601   0.0000006329  -0.0000019915  -0.0000018654
        0.0000002592  -0.0000012185   0.0000002974   0.0000007682  -0.0000012446
        0.0000007937   0.0000004532   0.0000003739   0.0000006403   0.0000004784
       -0.0000026465   0.0000005342   0.0000004948  -0.0000007033   0.0000023689
        0.0000013412   0.0000104949  -0.0000005437  -0.0000009049  -0.0000090163
        0.0000014027  -0.0000022834  -0.0000034622   0.0000018579  -0.0000040336
        0.0000062002   0.0000057182  -0.0000053778   0.0000060360   0.0000060777
        0.0000085460   0.0000180148  -0.0000004445   0.0000005807   0.0000631935
        0.0000378045  -0.0000504782  -0.0001344723   0.0000069658   0.0001082008
       -0.0015633259  -0.0005386425   0.0002333017  -0.0003685902   0.0454384578
       -0.0240887196   0.0228558379  -0.0093739791  -0.0151658672   0.0024069233
        0.0050027918   0.0034606764   0.0159271152  -0.0113388307  -0.0037657383
        0.0020207078   0.1128917260  -0.0972711629   0.0004311504  -0.0007404837
       -0.0002279033   0.0000397257  -0.0000068583  -0.0000103201   0.0000429187
       -0.0000256499   0.0000252373   0.0000009586   0.0000037266  -0.0000091061
        0.0000138987   0.0000208081  -0.0000074387   0.0000075159  -0.0000029367
        0.0000007753  -0.0000032120  -0.0000000278  -0.0000017135   0.0000012587
        0.0000003664  -0.0000034790   0.0000039580  -0.0000002624  -0.0000006127