 Entering Gaussian System
 *********************************************
 Gaussian 98:
 frequency output generated by the xtb code
 *********************************************
                         Standard orientation:
 --------------------------------------------------------------------
  Center     Atomic     Atomic              Coordinates (Angstroms)
  Number     Number      Type              X           Y           Z
 --------------------------------------------------------------------
    1          6             0        4.889283    0.361283   -3.903718
    2          6             0        4.957043    1.417150   -3.103791
    3          6             0        5.978985    1.633654   -2.084951
    4          6             0        7.251035    1.071059   -2.175432
    5          6             0        8.163144    1.218603   -1.149773
    6          6             0        7.833533    1.930768   -0.003522
    7          6             0        8.719563    1.893814    1.214062
    8          8             0        8.392922    0.770284    2.039208
    9          6             0        7.049895    0.735680    2.361032
   10          6             0        6.533000    1.519023    3.380626
   11          6             0        5.164557    1.557824    3.628191
   12          6             0        4.265045    0.873597    2.832859
   13          6             0        4.775783    0.095905    1.803643
   14          6             0        6.166025   -0.036116    1.604966
   15          6             0        6.344936   -0.967961    0.527280
   16          6             0        7.465986   -1.522759   -0.073986
   17          6             0        7.284144   -2.378859   -1.141374
   18          6             0        6.007871   -2.671731   -1.614482
   19          6             0        4.878008   -2.154049   -1.009785
   20          6             0        5.053080   -1.323143    0.085335
   21          7             0        4.110308   -0.675833    0.867324
   22          6             0        2.733741   -0.689777    0.653251
   23          6             0        2.054015   -1.898599    0.507174
   24          6             0        0.686374   -1.899823    0.292763
   25          7             0       -0.025628   -3.096982    0.183538
   26          6             0        0.075651   -4.018794   -0.844132
   27          6             0        1.021072   -4.116620   -1.850668
   28          6             0        0.878360   -5.140061   -2.769927
   29          6             0       -0.181957   -6.038938   -2.694628
   30          6             0       -1.136955   -5.935054   -1.701612
   31          6             0       -1.013449   -4.915149   -0.768419
   32          6             0       -1.801555   -4.508841    0.361698
   33          6             0       -3.008561   -4.960935    0.904912
   34          8             0       -3.674328   -5.949975    0.241007
   35          6             0       -5.094425   -5.908194    0.290318
   36          6             0       -5.625184   -4.503856    0.138808
   37          6             0       -6.679024   -4.042267    0.915461
   38          6             0       -7.043062   -2.709805    0.879737
   39          6             0       -6.334238   -1.796714    0.100682
   40          6             0       -6.627428   -0.369730    0.201514
   41          6             0       -5.726380    0.587609    0.023730
   42          6             0       -5.324399   -2.279591   -0.730485
   43          6             0       -4.987437   -3.616263   -0.721607
   44          6             0       -3.468833   -4.342163    2.059965
   45          6             0       -2.782832   -3.277420    2.631350
   46          6             0       -1.629984   -2.769015    2.068438
   47          6             0       -1.157901   -3.390627    0.923125
   48          6             0       -0.013591   -0.684130    0.174593
   49          6             0       -1.360483   -0.704079   -0.244871
   50          7             0       -2.428252   -0.729987   -0.663582
   51          6             0        0.670712    0.532539    0.343107
   52          7             0        0.007457    1.747081    0.205442
   53          6             0        0.430388    2.795691   -0.598587
   54          6             0        1.547234    2.892883   -1.413747
   55          6             0        1.716768    4.059377   -2.137545
   56          6             0        0.793818    5.098954   -2.067069
   57          6             0       -0.339001    4.992107   -1.284458
   58          6             0       -0.527756    3.830914   -0.547286
   59          6             0       -1.571773    3.379370    0.328884
   60          6             0       -2.766235    3.968453    0.761847
   61          8             0       -3.041397    5.209164    0.277497
   62          6             0       -4.261663    5.821356    0.633467
   63          6             0       -5.483966    5.098037    0.123016
   64          6             0       -5.413600    4.305869   -1.015628
   65          6             0       -6.525835    3.622758   -1.465599
   66          6             0       -7.745382    3.722893   -0.796464
   67          6             0       -8.930290    2.982066   -1.216607
   68          6             0       -8.924090    1.861280   -1.926566
   69          6             0       -7.817215    4.555207    0.321125
   70          6             0       -6.700607    5.223353    0.782093
   71          6             0       -3.557455    3.248380    1.645401
   72          6             0       -3.161766    1.994412    2.099743
   73          6             0       -1.987728    1.398553    1.686999
   74          6             0       -1.210231    2.092839    0.771539
   75          6             0        2.036531    0.513512    0.594977
   76          6             0        6.592611    2.556136    0.058167
   77          6             0        5.682620    2.417527   -0.970296
   78          1             0        5.611940   -0.436014   -3.859757
   79          1             0        4.096273    0.248572   -4.623254
   80          1             0        4.185937    2.176015   -3.154991
   81          1             0        7.523921    0.507014   -3.053977
   82          1             0        9.138180    0.760737   -1.229747
   83          1             0        9.768463    1.748624    0.948054
   84          1             0        8.614930    2.821723    1.794030
   85          1             0        7.206998    2.111964    3.980429
   86          1             0        4.795625    2.163632    4.442206
   87          1             0        3.203636    0.942518    3.014841
   88          1             0        8.449557   -1.285495    0.298205
   89          1             0        8.140949   -2.823450   -1.625319
   90          1             0        5.895387   -3.325691   -2.466839
   91          1             0        3.895296   -2.386494   -1.389512
   92          1             0        2.581255   -2.834974    0.599489
   93          1             0        1.838644   -3.414897   -1.923265
   94          1             0        1.604388   -5.241846   -3.563062
   95          1             0       -0.257411   -6.826011   -3.430105
   96          1             0       -1.965926   -6.622065   -1.640400
   97          1             0       -5.462588   -6.356990    1.223452
   98          1             0       -5.412869   -6.545642   -0.542330
   99          1             0       -7.203989   -4.726397    1.568622
  100          1             0       -7.853944   -2.360385    1.503697
  101          1             0       -7.639080   -0.114650    0.495085
  102          1             0       -4.701618    0.367823   -0.224438
  103          1             0       -5.977335    1.627923    0.140233
  104          1             0       -4.789226   -1.600424   -1.373310
  105          1             0       -4.192479   -3.972173   -1.360764
  106          1             0       -4.383059   -4.675955    2.523374
  107          1             0       -3.177968   -2.827740    3.529682
  108          1             0       -1.115804   -1.927630    2.507885
  109          1             0        2.254741    2.081168   -1.499847
  110          1             0        2.582097    4.166021   -2.775867
  111          1             0        0.964598    5.994730   -2.645287
  112          1             0       -1.071327    5.781970   -1.240516
  113          1             0       -4.205220    6.817034    0.177054
  114          1             0       -4.324729    5.951127    1.723302
  115          1             0       -4.475044    4.215038   -1.542515
  116          1             0       -6.449370    3.009995   -2.350293
  117          1             0       -9.872227    3.391182   -0.871259
  118          1             0       -8.012175    1.392105   -2.254511
  119          1             0       -9.838397    1.357097   -2.189345
  120          1             0       -8.756063    4.658033    0.846729
  121          1             0       -6.770336    5.846822    1.662899
  122          1             0       -4.495524    3.648113    1.994650
  123          1             0       -3.801063    1.471477    2.794334
  124          1             0       -1.702989    0.430288    2.065584
  125          1             0        2.565005    1.443535    0.731267
  126          1             0        6.329833    3.141208    0.928526
  127          1             0        4.716691    2.897999   -0.896720
 --------------------------------------------------------------------
     1 basis functions        1 primitive gaussians
     1 alpha electrons        1 beta electrons
 
 Harmonic frequencies (cm**-1), IR intensities (km*mol⁻¹),
 Raman scattering activities (A**4/amu), Raman depolarization ratios,
 reduced masses (AMU), force constants (mDyne/A) and normal coordinates:
                      1                      2                      3
                        a                      a                      a 
 Frequencies --     9.0309                11.9380                12.6394
 Red. masses --    11.0452                11.2415                10.9606
 Frc consts  --     0.0000                 0.0000                 0.0000
 IR Inten    --     0.0333                 0.0106                 0.1687
 Raman Activ --     0.0000                 0.0000                 0.0000
 Depolar     --     0.0000                 0.0000                 0.0000
 Atom AN      X      Y      Z        X      Y      Z        X      Y      Z
   1   6    -0.02   0.09  -0.02     0.16   0.08  -0.00     0.19   0.26  -0.14
   2   6    -0.00   0.07   0.01     0.14   0.05   0.03     0.13   0.18  -0.03
   3   6     0.00   0.04   0.01     0.11   0.02   0.06     0.09   0.13   0.01
   4   6    -0.00   0.03  -0.02     0.11   0.02   0.09     0.11   0.17   0.00
   5   6     0.01  -0.00  -0.02     0.08  -0.01   0.12     0.08   0.12   0.03
   6   6     0.02  -0.03   0.00     0.06  -0.03   0.12     0.03   0.03   0.08
   7   6     0.03  -0.06  -0.01     0.02  -0.06   0.15     0.01  -0.03   0.09
   8   8     0.03  -0.09  -0.03    -0.02  -0.08   0.13    -0.00  -0.09   0.02
   9   6     0.03  -0.07  -0.02    -0.03  -0.06   0.08    -0.00  -0.09   0.02
  10   6     0.05  -0.09   0.01    -0.04  -0.07   0.08     0.00  -0.15   0.06
  11   6     0.05  -0.08   0.02    -0.05  -0.05   0.04     0.00  -0.16   0.07
  12   6     0.03  -0.05   0.02    -0.04  -0.03   0.00     0.00  -0.12   0.03
  13   6     0.01  -0.03  -0.00    -0.02  -0.02   0.00    -0.00  -0.06  -0.01
  14   6     0.01  -0.04  -0.02    -0.02  -0.03   0.04    -0.00  -0.05  -0.03
  15   6    -0.01  -0.02  -0.05     0.00  -0.02   0.03    -0.01   0.02  -0.09
  16   6    -0.02  -0.02  -0.07     0.01  -0.02   0.05    -0.01   0.06  -0.14
  17   6    -0.05   0.01  -0.09     0.02  -0.00   0.03    -0.02   0.13  -0.19
  18   6    -0.05   0.04  -0.08     0.03   0.02  -0.01    -0.03   0.15  -0.19
  19   6    -0.04   0.03  -0.06     0.02   0.02  -0.03    -0.02   0.10  -0.14
  20   6    -0.02   0.00  -0.04     0.01   0.01  -0.01    -0.01   0.04  -0.09
  21   7    -0.00  -0.00  -0.01    -0.00   0.01  -0.03    -0.00  -0.02  -0.05
  22   6    -0.01   0.01   0.00    -0.00   0.01  -0.05    -0.01  -0.02  -0.03
  23   6    -0.02   0.02  -0.01    -0.00   0.02  -0.05    -0.00  -0.02  -0.03
  24   6    -0.02   0.03   0.00    -0.00   0.02  -0.05    -0.01  -0.03  -0.01
  25   7    -0.03   0.04  -0.01    -0.01   0.03  -0.06    -0.01  -0.03   0.02
  26   6    -0.04   0.05  -0.03    -0.02   0.04  -0.07    -0.01  -0.07   0.05
  27   6    -0.06   0.07  -0.05    -0.04   0.05  -0.09    -0.01  -0.11   0.06
  28   6    -0.07   0.09  -0.06    -0.05   0.07  -0.10    -0.01  -0.15   0.10
  29   6    -0.07   0.09  -0.06    -0.05   0.06  -0.09    -0.01  -0.14   0.13
  30   6    -0.05   0.07  -0.04    -0.03   0.05  -0.08    -0.02  -0.09   0.12
  31   6    -0.04   0.05  -0.03    -0.02   0.03  -0.06    -0.01  -0.06   0.08
  32   6    -0.02   0.03  -0.00     0.00   0.02  -0.05    -0.01  -0.02   0.07
  33   6    -0.01   0.01   0.01     0.01   0.00  -0.03    -0.01   0.01   0.09
  34   8    -0.02   0.03   0.01     0.00   0.01  -0.03    -0.02  -0.02   0.14
  35   6    -0.01   0.02   0.03     0.00   0.00   0.00    -0.02  -0.01   0.12
  36   6    -0.02   0.02   0.06    -0.01   0.00   0.05    -0.01  -0.01   0.07
  37   6    -0.01   0.00   0.09     0.00  -0.03   0.08    -0.01   0.03   0.05
  38   6    -0.01   0.00   0.12    -0.00  -0.03   0.12    -0.00   0.03  -0.00
  39   6    -0.03   0.02   0.13    -0.03  -0.00   0.13    -0.00  -0.01  -0.04
  40   6    -0.02   0.02   0.16    -0.03  -0.01   0.18    -0.00  -0.00  -0.10
  41   6    -0.03   0.02   0.18    -0.04   0.00   0.17     0.00  -0.01  -0.14
  42   6    -0.04   0.04   0.10    -0.04   0.02   0.10    -0.00  -0.04  -0.02
  43   6    -0.04   0.04   0.07    -0.03   0.03   0.05    -0.01  -0.04   0.04
  44   6     0.01  -0.01   0.03     0.03  -0.01  -0.01    -0.01   0.04   0.07
  45   6     0.02  -0.01   0.03     0.04  -0.01  -0.01    -0.00   0.06   0.03
  46   6     0.00   0.00   0.02     0.02  -0.00  -0.03    -0.00   0.04   0.01
  47   6    -0.01   0.02   0.00     0.01   0.01  -0.04    -0.01   0.00   0.03
  48   6    -0.01   0.04   0.03    -0.00   0.02  -0.05    -0.01  -0.03  -0.01
  49   6    -0.02   0.05   0.05    -0.01   0.03  -0.03    -0.01  -0.03  -0.02
  50   7    -0.02   0.06   0.06    -0.02   0.03  -0.00    -0.00  -0.04  -0.03
  51   6    -0.00   0.03   0.05     0.01   0.02  -0.05    -0.01  -0.03  -0.01
  52   7     0.01   0.04   0.07     0.01   0.03  -0.07    -0.02  -0.03  -0.01
  53   6     0.01   0.04   0.06    -0.00   0.00  -0.10    -0.01  -0.02   0.00
  54   6     0.01   0.04   0.07    -0.00  -0.02  -0.11    -0.00  -0.01   0.01
  55   6     0.01   0.04   0.07    -0.02  -0.04  -0.15     0.01  -0.00   0.02
  56   6     0.00   0.04   0.07    -0.03  -0.04  -0.18     0.01  -0.00   0.03
  57   6     0.00   0.04   0.06    -0.02  -0.03  -0.17     0.00  -0.01   0.02
  58   6     0.00   0.03   0.06    -0.01  -0.00  -0.13    -0.01  -0.02   0.00
  59   6     0.00   0.03   0.06     0.00   0.02  -0.10    -0.01  -0.03  -0.01
  60   6    -0.01   0.02   0.04     0.00   0.02  -0.11    -0.02  -0.03  -0.01
  61   8    -0.02   0.02   0.04    -0.02   0.00  -0.17    -0.01  -0.02  -0.00
  62   6    -0.05  -0.02  -0.03    -0.00   0.01  -0.13     0.00  -0.01   0.01
  63   6    -0.00  -0.07  -0.09    -0.02  -0.01  -0.05    -0.01   0.02  -0.00
  64   6     0.09  -0.09  -0.07    -0.07  -0.07  -0.01    -0.02   0.04  -0.02
  65   6     0.13  -0.13  -0.12    -0.09  -0.10   0.07    -0.03   0.07  -0.04
  66   6     0.09  -0.15  -0.19    -0.06  -0.05   0.11    -0.03   0.07  -0.03
  67   6     0.14  -0.20  -0.24    -0.08  -0.07   0.19    -0.04   0.09  -0.05
  68   6     0.22  -0.22  -0.21    -0.11  -0.11   0.26    -0.05   0.11  -0.08
  69   6     0.00  -0.13  -0.21    -0.02   0.01   0.06    -0.01   0.04  -0.01
  70   6    -0.04  -0.09  -0.16    -0.00   0.03  -0.02    -0.01   0.02   0.00
  71   6    -0.01   0.02   0.04     0.03   0.05  -0.07    -0.03  -0.03  -0.03
  72   6    -0.00   0.02   0.05     0.04   0.07  -0.03    -0.03  -0.04  -0.04
  73   6     0.00   0.03   0.06     0.03   0.06  -0.03    -0.03  -0.04  -0.03
  74   6     0.00   0.03   0.06     0.02   0.03  -0.07    -0.02  -0.03  -0.02
  75   6     0.00   0.02   0.03     0.01   0.02  -0.05    -0.01  -0.02  -0.01
  76   6     0.03  -0.02   0.02     0.06  -0.02   0.10     0.02  -0.00   0.09
  77   6     0.02   0.01   0.03     0.09   0.00   0.07     0.04   0.04   0.06
  78   1    -0.01   0.03  -0.01     0.05   0.02  -0.00     0.06   0.08  -0.06
  79   1    -0.01   0.03  -0.01     0.05   0.03  -0.01     0.06   0.09  -0.05
  80   1    -0.00   0.02   0.01     0.04   0.02   0.01     0.03   0.04   0.01
  81   1    -0.00   0.01  -0.01     0.04   0.01   0.02     0.04   0.07  -0.01
  82   1     0.00  -0.00  -0.01     0.02  -0.00   0.04     0.03   0.04   0.01
  83   1     0.01  -0.02  -0.01     0.01  -0.02   0.05     0.00   0.00   0.03
  84   1     0.01  -0.02   0.00     0.00  -0.02   0.05    -0.01  -0.02   0.04
  85   1     0.02  -0.03   0.00    -0.02  -0.03   0.03     0.00  -0.06   0.03
  86   1     0.02  -0.03   0.01    -0.02  -0.02   0.01     0.00  -0.06   0.03
  87   1     0.01  -0.01   0.01    -0.01  -0.00  -0.01    -0.00  -0.04   0.01
  88   1    -0.00  -0.01  -0.02     0.00  -0.01   0.02    -0.00   0.01  -0.04
  89   1    -0.02   0.00  -0.03     0.01  -0.00   0.01    -0.01   0.05  -0.07
  90   1    -0.02   0.02  -0.03     0.01   0.01  -0.01    -0.01   0.06  -0.07
  91   1    -0.01   0.01  -0.01     0.01   0.01  -0.02    -0.01   0.03  -0.04
  92   1    -0.01   0.00  -0.01    -0.00   0.00  -0.02     0.00  -0.01  -0.01
  93   1    -0.02   0.02  -0.01    -0.01   0.02  -0.03    -0.00  -0.03   0.01
  94   1    -0.03   0.03  -0.02    -0.02   0.02  -0.03    -0.00  -0.05   0.03
  95   1    -0.02   0.03  -0.02    -0.02   0.02  -0.03    -0.00  -0.05   0.05
  96   1    -0.01   0.02  -0.01    -0.01   0.01  -0.02    -0.01  -0.03   0.04
  97   1     0.00  -0.00   0.01     0.01  -0.01   0.00    -0.01   0.01   0.04
  98   1    -0.01   0.01   0.01    -0.00   0.00  -0.00    -0.01  -0.01   0.04
  99   1     0.00  -0.00   0.02     0.01  -0.01   0.02    -0.00   0.02   0.02
 100   1    -0.00  -0.00   0.04     0.00  -0.01   0.04    -0.00   0.02  -0.00
 101   1    -0.01   0.00   0.05    -0.01  -0.01   0.06    -0.00   0.00  -0.03
 102   1    -0.01   0.01   0.05    -0.01   0.01   0.04     0.00  -0.01  -0.04
 103   1    -0.01   0.00   0.06    -0.01  -0.00   0.06     0.00  -0.00  -0.05
 104   1    -0.01   0.02   0.03    -0.02   0.01   0.03    -0.00  -0.02  -0.01
 105   1    -0.01   0.02   0.01    -0.01   0.01   0.01    -0.00  -0.02   0.01
 106   1     0.01  -0.00   0.01     0.01  -0.01   0.00    -0.00   0.02   0.02
 107   1     0.01  -0.01   0.01     0.01  -0.01  -0.00     0.00   0.03   0.01
 108   1     0.00  -0.00   0.01     0.01  -0.00  -0.01     0.00   0.01  -0.00
 109   1     0.00   0.01   0.02     0.00  -0.00  -0.02     0.00  -0.00   0.00
 110   1     0.00   0.01   0.02    -0.01  -0.01  -0.05     0.00   0.00   0.01
 111   1     0.00   0.01   0.02    -0.01  -0.02  -0.06     0.00   0.00   0.01
 112   1    -0.00   0.01   0.02    -0.01  -0.01  -0.05     0.00  -0.00   0.01
 113   1    -0.02  -0.01  -0.01    -0.01  -0.00  -0.05     0.00  -0.00   0.01
 114   1    -0.03  -0.00  -0.01     0.01   0.02  -0.04     0.00  -0.01   0.00
 115   1     0.03  -0.02  -0.00    -0.03  -0.03  -0.01    -0.01   0.01  -0.01
 116   1     0.06  -0.04  -0.03    -0.03  -0.04   0.03    -0.01   0.03  -0.01
 117   1     0.03  -0.06  -0.09    -0.02  -0.02   0.06    -0.01   0.03  -0.01
 118   1     0.07  -0.06  -0.04    -0.04  -0.04   0.07    -0.02   0.03  -0.03
 119   1     0.07  -0.07  -0.07    -0.03  -0.04   0.09    -0.02   0.04  -0.03
 120   1    -0.01  -0.04  -0.08     0.00   0.01   0.03    -0.00   0.01  -0.00
 121   1    -0.03  -0.02  -0.05     0.01   0.02  -0.01     0.00  -0.00   0.00
 122   1    -0.01   0.00   0.01     0.01   0.02  -0.02    -0.01  -0.01  -0.01
 123   1    -0.00   0.01   0.01     0.02   0.03  -0.00    -0.01  -0.01  -0.01
 124   1     0.00   0.01   0.02     0.01   0.02  -0.00    -0.01  -0.01  -0.01
 125   1     0.00   0.00   0.01     0.00   0.00  -0.02    -0.00  -0.01   0.00
 126   1     0.01  -0.01   0.01     0.01  -0.01   0.03    -0.01  -0.02   0.04
 127   1     0.01   0.00   0.01     0.03   0.00   0.01     0.01   0.00   0.02
                      4                      5                      6
                        a                      a                      a 
 Frequencies --    16.3091                17.7438                19.6905
 Red. masses --    10.9177                11.3727                11.0261
 Frc consts  --     0.0000                 0.0000                 0.0000
 IR Inten    --     0.1731                 0.0691                 0.0257
 Raman Activ --     0.0000                 0.0000                 0.0000
 Depolar     --     0.0000                 0.0000                 0.0000
 Atom AN      X      Y      Z        X      Y      Z        X      Y      Z
   1   6     0.28  -0.10  -0.24    -0.06  -0.00   0.09     0.02  -0.03  -0.03
   2   6     0.10  -0.15  -0.16    -0.05   0.04   0.04     0.01  -0.04  -0.02
   3   6     0.04  -0.07  -0.11    -0.07   0.06   0.04     0.01  -0.04  -0.02
   4   6     0.10   0.07  -0.07    -0.06   0.06   0.06     0.01  -0.04  -0.02
   5   6     0.04   0.14  -0.03    -0.07   0.08   0.07     0.01  -0.04  -0.02
   6   6    -0.07   0.09  -0.03    -0.08   0.10   0.05     0.01  -0.04  -0.02
   7   6    -0.11   0.17  -0.00    -0.09   0.12   0.06     0.00  -0.04  -0.02
   8   8    -0.06   0.18  -0.00    -0.09   0.12   0.06    -0.00  -0.03  -0.01
   9   6    -0.04   0.09   0.02    -0.09   0.07   0.02    -0.00  -0.02  -0.00
  10   6    -0.06   0.05   0.03    -0.13   0.06   0.00     0.01  -0.01   0.00
  11   6    -0.06  -0.01   0.06    -0.14   0.03  -0.03     0.01   0.00   0.01
  12   6    -0.04  -0.05   0.07    -0.10  -0.01  -0.04     0.00   0.01   0.01
  13   6    -0.02  -0.01   0.05    -0.05  -0.00  -0.03    -0.01   0.01   0.01
  14   6    -0.02   0.06   0.02    -0.05   0.03   0.01    -0.01  -0.00   0.00
  15   6    -0.00   0.08   0.00     0.01   0.02   0.03    -0.03  -0.00  -0.00
  16   6     0.01   0.15  -0.03     0.03   0.04   0.06    -0.03  -0.02  -0.00
  17   6     0.03   0.16  -0.04     0.08   0.02   0.07    -0.04  -0.01  -0.01
  18   6     0.03   0.10  -0.02     0.10  -0.03   0.05    -0.05   0.01  -0.01
  19   6     0.02   0.04   0.02     0.07  -0.05   0.02    -0.04   0.02  -0.00
  20   6     0.01   0.03   0.02     0.03  -0.02   0.00    -0.03   0.01   0.00
  21   7    -0.01  -0.03   0.06    -0.01  -0.04  -0.03    -0.02   0.02   0.00
  22   6    -0.01  -0.04   0.06    -0.00  -0.05  -0.07    -0.02   0.03   0.01
  23   6    -0.00  -0.04   0.05     0.00  -0.05  -0.08    -0.02   0.03  -0.01
  24   6    -0.00  -0.05   0.05     0.01  -0.05  -0.09    -0.02   0.03  -0.01
  25   7     0.00  -0.05   0.04     0.00  -0.06  -0.08    -0.02   0.03  -0.03
  26   6     0.00  -0.03   0.02    -0.05  -0.04  -0.09    -0.00   0.04  -0.03
  27   6     0.02  -0.03   0.04    -0.09  -0.04  -0.13    -0.02   0.09  -0.05
  28   6     0.02  -0.00   0.01    -0.14  -0.03  -0.14    -0.00   0.09  -0.06
  29   6     0.01   0.01  -0.03    -0.15  -0.02  -0.10     0.03   0.05  -0.04
  30   6    -0.01   0.01  -0.04    -0.11  -0.02  -0.06     0.05   0.00  -0.02
  31   6    -0.01  -0.01  -0.02    -0.06  -0.04  -0.05     0.03   0.00  -0.01
  32   6    -0.03  -0.02  -0.03    -0.00  -0.04  -0.01     0.04  -0.03   0.00
  33   6    -0.05  -0.01  -0.06     0.02  -0.03   0.04     0.07  -0.08   0.03
  34   8    -0.06   0.02  -0.11    -0.02  -0.03   0.08     0.11  -0.13   0.04
  35   6    -0.05   0.02  -0.10    -0.02  -0.01   0.13     0.10  -0.15   0.05
  36   6    -0.05   0.02  -0.06    -0.00   0.00   0.13     0.05  -0.17   0.05
  37   6    -0.07  -0.01  -0.05     0.05   0.04   0.18     0.03  -0.20   0.04
  38   6    -0.07  -0.01  -0.01     0.06   0.04   0.17    -0.02  -0.22   0.03
  39   6    -0.06   0.02   0.04     0.03   0.01   0.10    -0.05  -0.19   0.03
  40   6    -0.06   0.02   0.10     0.04   0.02   0.07    -0.13  -0.21   0.00
  41   6    -0.06   0.03   0.15     0.03   0.01  -0.02    -0.19  -0.16  -0.02
  42   6    -0.05   0.06   0.04    -0.01  -0.02   0.07    -0.03  -0.16   0.04
  43   6    -0.04   0.06  -0.01    -0.03  -0.03   0.08     0.03  -0.14   0.05
  44   6    -0.06  -0.03  -0.05     0.07  -0.03   0.06     0.07  -0.10   0.04
  45   6    -0.05  -0.06  -0.02     0.11  -0.04   0.04     0.03  -0.08   0.02
  46   6    -0.03  -0.06   0.01     0.09  -0.05  -0.01     0.00  -0.03   0.00
  47   6    -0.02  -0.05   0.01     0.03  -0.05  -0.03     0.01  -0.01  -0.00
  48   6    -0.01  -0.05   0.06     0.00  -0.06  -0.10    -0.03   0.03   0.00
  49   6    -0.01  -0.05   0.07     0.00  -0.07  -0.11    -0.03   0.03   0.01
  50   7    -0.02  -0.03   0.09     0.00  -0.09  -0.12    -0.03   0.02   0.02
  51   6    -0.01  -0.05   0.06    -0.01  -0.06  -0.10    -0.02   0.03   0.02
  52   7    -0.00  -0.05   0.04    -0.01  -0.06  -0.10    -0.01   0.04   0.02
  53   6     0.01  -0.07   0.02     0.01  -0.03  -0.05     0.02   0.04   0.04
  54   6    -0.00  -0.11   0.00     0.01  -0.02  -0.05     0.03   0.04   0.06
  55   6     0.01  -0.12  -0.02     0.03   0.00  -0.01     0.06   0.05   0.08
  56   6     0.03  -0.10  -0.03     0.05   0.02   0.04     0.07   0.06   0.08
  57   6     0.04  -0.07  -0.01     0.05   0.01   0.04     0.06   0.06   0.06
  58   6     0.03  -0.05   0.01     0.03  -0.02  -0.00     0.03   0.05   0.04
  59   6     0.03  -0.02   0.03     0.03  -0.03  -0.02     0.01   0.06   0.01
  60   6     0.04   0.01   0.03     0.05  -0.02   0.02     0.01   0.07  -0.01
  61   8     0.07   0.01   0.02     0.08   0.01   0.08     0.03   0.08  -0.00
  62   6     0.06   0.02  -0.01     0.07   0.01   0.07     0.03   0.08  -0.03
  63   6     0.06   0.02  -0.01     0.08   0.03   0.03     0.03   0.10  -0.04
  64   6     0.08  -0.02   0.02     0.09   0.05   0.02     0.05  -0.02   0.04
  65   6     0.08  -0.03   0.02     0.10   0.07  -0.02     0.04   0.00   0.04
  66   6     0.06   0.02  -0.01     0.09   0.06  -0.04    -0.00   0.15  -0.05
  67   6     0.06   0.02  -0.00     0.10   0.07  -0.08    -0.02   0.19  -0.05
  68   6     0.06  -0.01   0.04     0.11   0.08  -0.08    -0.05   0.13   0.04
  69   6     0.05   0.06  -0.04     0.07   0.03  -0.02    -0.02   0.27  -0.14
  70   6     0.05   0.06  -0.04     0.07   0.02   0.01    -0.01   0.24  -0.13
  71   6     0.04   0.04   0.05     0.03  -0.04  -0.01    -0.02   0.07  -0.03
  72   6     0.01   0.03   0.06     0.01  -0.06  -0.06    -0.05   0.06  -0.04
  73   6     0.00   0.01   0.06    -0.01  -0.07  -0.09    -0.04   0.05  -0.02
  74   6     0.01  -0.02   0.05     0.00  -0.05  -0.07    -0.02   0.05   0.00
  75   6    -0.01  -0.05   0.06    -0.01  -0.05  -0.09    -0.02   0.03   0.02
  76   6    -0.14  -0.04  -0.07    -0.09   0.09   0.03     0.01  -0.04  -0.02
  77   6    -0.09  -0.12  -0.11    -0.08   0.08   0.03     0.01  -0.04  -0.02
  78   1     0.11   0.00  -0.08    -0.02  -0.00   0.04     0.01  -0.01  -0.01
  79   1     0.09  -0.05  -0.08    -0.01  -0.01   0.02     0.01  -0.01  -0.01
  80   1    -0.00  -0.08  -0.04    -0.01   0.01  -0.00     0.00  -0.01  -0.00
  81   1     0.06   0.03  -0.02    -0.02   0.01   0.02     0.00  -0.01  -0.01
  82   1     0.03   0.07  -0.00    -0.02   0.02   0.02     0.00  -0.01  -0.00
  83   1    -0.03   0.07   0.01    -0.03   0.04   0.02     0.00  -0.01  -0.00
  84   1    -0.06   0.05  -0.00    -0.04   0.03   0.02     0.00  -0.01  -0.01
  85   1    -0.02   0.02   0.01    -0.05   0.03   0.00     0.01  -0.01   0.00
  86   1    -0.02  -0.01   0.02    -0.05   0.01  -0.01     0.01   0.00   0.00
  87   1    -0.01  -0.03   0.03    -0.03  -0.01  -0.02     0.00   0.01   0.00
  88   1     0.00   0.05  -0.02     0.01   0.02   0.02    -0.01  -0.01  -0.00
  89   1     0.01   0.06  -0.02     0.03   0.01   0.03    -0.01  -0.01  -0.00
  90   1     0.01   0.03  -0.01     0.04  -0.01   0.02    -0.02   0.00  -0.00
  91   1     0.01  -0.00   0.01     0.03  -0.03   0.00    -0.01   0.01  -0.00
  92   1     0.00  -0.01   0.01     0.00  -0.01  -0.02    -0.01   0.01  -0.01
  93   1     0.01  -0.01   0.02    -0.03  -0.01  -0.04    -0.01   0.03  -0.02
  94   1     0.01   0.00   0.01    -0.05  -0.01  -0.05    -0.01   0.03  -0.02
  95   1     0.00   0.01  -0.01    -0.05  -0.00  -0.03     0.01   0.01  -0.01
  96   1    -0.01   0.01  -0.02    -0.03  -0.00  -0.01     0.02  -0.01  -0.00
  97   1    -0.02  -0.00  -0.03     0.00   0.00   0.04     0.03  -0.05   0.02
  98   1    -0.01   0.01  -0.04    -0.02  -0.00   0.04     0.03  -0.05   0.02
  99   1    -0.02  -0.01  -0.03     0.02   0.02   0.06     0.02  -0.06   0.01
 100   1    -0.02  -0.01  -0.00     0.03   0.02   0.06    -0.01  -0.07   0.01
 101   1    -0.02   0.00   0.03     0.02   0.01   0.03    -0.04  -0.07   0.00
 102   1    -0.02   0.01   0.04     0.01  -0.00  -0.02    -0.05  -0.03  -0.01
 103   1    -0.02   0.01   0.05     0.01   0.00  -0.01    -0.07  -0.05  -0.01
 104   1    -0.01   0.02   0.02    -0.01  -0.01   0.01    -0.01  -0.04   0.01
 105   1    -0.01   0.03  -0.00    -0.02  -0.02   0.02     0.01  -0.03   0.02
 106   1    -0.02  -0.01  -0.02     0.03  -0.01   0.03     0.03  -0.04   0.01
 107   1    -0.02  -0.02  -0.00     0.04  -0.01   0.02     0.01  -0.03   0.01
 108   1    -0.01  -0.02   0.01     0.03  -0.02  -0.01    -0.01  -0.00  -0.00
 109   1    -0.01  -0.04   0.00    -0.00  -0.01  -0.03     0.01   0.01   0.02
 110   1     0.00  -0.04  -0.01     0.01   0.00  -0.00     0.02   0.01   0.03
 111   1     0.01  -0.03  -0.01     0.02   0.01   0.02     0.03   0.02   0.03
 112   1     0.02  -0.02  -0.01     0.02   0.01   0.02     0.02   0.02   0.02
 113   1     0.02   0.00  -0.01     0.02   0.01   0.03     0.01   0.02  -0.01
 114   1     0.01   0.01  -0.00     0.02  -0.01   0.02     0.00   0.03  -0.01
 115   1     0.02  -0.02   0.01     0.03   0.02   0.01     0.02  -0.04   0.03
 116   1     0.03  -0.02   0.01     0.03   0.03  -0.01     0.02  -0.03   0.03
 117   1     0.02   0.01  -0.01     0.03   0.02  -0.03    -0.01   0.08  -0.04
 118   1     0.02  -0.01   0.02     0.03   0.02  -0.02    -0.02   0.01   0.04
 119   1     0.02  -0.00   0.01     0.03   0.02  -0.03    -0.02   0.05   0.01
 120   1     0.01   0.03  -0.02     0.02   0.01  -0.01    -0.01   0.11  -0.06
 121   1     0.01   0.03  -0.02     0.02   0.00   0.01    -0.01   0.10  -0.06
 122   1     0.01   0.02   0.01     0.01  -0.01   0.00    -0.01   0.02  -0.01
 123   1     0.00   0.02   0.02    -0.00  -0.02  -0.02    -0.02   0.02  -0.02
 124   1    -0.00   0.00   0.02    -0.01  -0.03  -0.04    -0.02   0.01  -0.01
 125   1    -0.00  -0.01   0.02    -0.00  -0.01  -0.02    -0.01   0.01   0.01
 126   1    -0.07  -0.02  -0.02    -0.03   0.03   0.01     0.00  -0.01  -0.01
 127   1    -0.04  -0.06  -0.04    -0.02   0.02   0.00     0.00  -0.01  -0.01
                      7                      8                      9
                        a                      a                      a 
 Frequencies --    21.4252                21.8708                25.7906
 Red. masses --    11.0609                11.1146                11.0766
 Frc consts  --     0.0000                 0.0000                 0.0000
 IR Inten    --     0.2045                 0.0614                 0.1431
 Raman Activ --     0.0000                 0.0000                 0.0000
 Depolar     --     0.0000                 0.0000                 0.0000
 Atom AN      X      Y      Z        X      Y      Z        X      Y      Z
   1   6     0.20  -0.12  -0.12     0.20  -0.09  -0.16    -0.14   0.04   0.05
   2   6     0.12  -0.15  -0.07     0.11  -0.13  -0.10    -0.13   0.04   0.04
   3   6     0.10  -0.12  -0.06     0.07  -0.11  -0.06    -0.12   0.04   0.03
   4   6     0.12  -0.07  -0.04     0.09  -0.07  -0.02    -0.11   0.08  -0.01
   5   6     0.10  -0.04  -0.02     0.05  -0.05   0.01    -0.09   0.08  -0.03
   6   6     0.06  -0.05  -0.03    -0.01  -0.06   0.00    -0.08   0.04  -0.01
   7   6     0.04  -0.01  -0.01    -0.05  -0.03   0.03    -0.05   0.04  -0.03
   8   8     0.04   0.01   0.01    -0.07  -0.02   0.06     0.01   0.01  -0.06
   9   6     0.03   0.02   0.02    -0.07  -0.00   0.03     0.02  -0.03  -0.00
  10   6     0.04   0.03   0.01    -0.07   0.00   0.03     0.04  -0.06   0.04
  11   6     0.04   0.03   0.02    -0.08   0.01   0.01     0.05  -0.09   0.08
  12   6     0.04   0.03   0.03    -0.07   0.02  -0.01     0.03  -0.09   0.10
  13   6     0.03   0.02   0.03    -0.07   0.02  -0.00     0.01  -0.06   0.06
  14   6     0.03   0.02   0.02    -0.06   0.01   0.02     0.01  -0.02   0.01
  15   6     0.02   0.01   0.03    -0.06   0.00   0.02    -0.01   0.01  -0.02
  16   6     0.02   0.01   0.03    -0.06  -0.01   0.04    -0.02   0.04  -0.08
  17   6     0.02   0.00   0.03    -0.05  -0.00   0.03    -0.05   0.07  -0.09
  18   6     0.01   0.00   0.04    -0.05   0.01   0.01    -0.06   0.05  -0.05
  19   6     0.02   0.01   0.04    -0.05   0.02  -0.00    -0.04   0.01   0.00
  20   6     0.02   0.01   0.03    -0.06   0.02   0.00    -0.02  -0.01   0.02
  21   7     0.03   0.02   0.03    -0.07   0.03  -0.01    -0.01  -0.05   0.07
  22   6     0.02   0.01   0.04    -0.06   0.04  -0.03    -0.01  -0.03   0.09
  23   6     0.04   0.01   0.02    -0.06   0.04  -0.03    -0.02  -0.03   0.07
  24   6     0.04  -0.00   0.01    -0.06   0.05  -0.04    -0.02  -0.01   0.07
  25   7     0.05  -0.01   0.00    -0.07   0.06  -0.04    -0.03  -0.01   0.05
  26   6    -0.01   0.04  -0.04    -0.05   0.03  -0.02    -0.05   0.04   0.00
  27   6    -0.06   0.08  -0.09    -0.06   0.04  -0.03    -0.08   0.10  -0.04
  28   6    -0.11   0.13  -0.13    -0.04   0.01  -0.00    -0.11   0.15  -0.09
  29   6    -0.12   0.14  -0.13    -0.02  -0.01   0.03    -0.10   0.14  -0.10
  30   6    -0.08   0.10  -0.09    -0.01  -0.02   0.04    -0.06   0.08  -0.06
  31   6    -0.02   0.05  -0.04    -0.02   0.00   0.02    -0.04   0.03  -0.01
  32   6     0.03   0.02   0.01    -0.02   0.01   0.02    -0.01  -0.03   0.03
  33   6     0.04   0.01   0.03     0.00  -0.02   0.05     0.01  -0.06   0.04
  34   8     0.01   0.04   0.04     0.03  -0.07   0.10     0.01  -0.06   0.04
  35   6     0.01   0.05   0.07     0.02  -0.06   0.06     0.01  -0.02   0.00
  36   6     0.03   0.06   0.07     0.04  -0.06   0.01     0.05  -0.01  -0.02
  37   6     0.05   0.08   0.09     0.08  -0.00   0.02     0.09   0.05  -0.00
  38   6     0.05   0.08   0.06     0.11   0.01  -0.01     0.14   0.06  -0.03
  39   6     0.03   0.06   0.02     0.11  -0.04  -0.07     0.15   0.01  -0.08
  40   6     0.02   0.06  -0.03     0.17  -0.03  -0.11     0.20   0.03  -0.11
  41   6     0.00   0.06  -0.10     0.20  -0.07  -0.15     0.23  -0.01  -0.16
  42   6     0.02   0.04   0.01     0.07  -0.10  -0.09     0.12  -0.05  -0.09
  43   6     0.02   0.04   0.04     0.03  -0.11  -0.05     0.07  -0.06  -0.06
  44   6     0.08  -0.01   0.06     0.00  -0.01   0.04     0.02  -0.09   0.06
  45   6     0.11  -0.04   0.08    -0.03   0.03   0.00     0.01  -0.10   0.08
  46   6     0.11  -0.04   0.06    -0.05   0.05  -0.03     0.00  -0.07   0.08
  47   6     0.06  -0.02   0.03    -0.05   0.04  -0.02    -0.01  -0.04   0.06
  48   6     0.03  -0.01   0.02    -0.05   0.06  -0.05    -0.01  -0.01   0.09
  49   6     0.03  -0.03  -0.00    -0.05   0.06  -0.06    -0.00   0.00   0.08
  50   7     0.04  -0.05  -0.02    -0.04   0.07  -0.08    -0.00   0.00   0.08
  51   6     0.01  -0.00   0.04    -0.05   0.05  -0.04     0.00  -0.01   0.09
  52   7    -0.00  -0.01   0.04    -0.04   0.06  -0.03     0.02  -0.01   0.07
  53   6    -0.01   0.00   0.06    -0.03   0.07  -0.01     0.03  -0.04   0.03
  54   6     0.01   0.04   0.09    -0.03   0.07  -0.01     0.05  -0.08   0.04
  55   6     0.00   0.05   0.10    -0.02   0.08   0.01     0.06  -0.10  -0.00
  56   6    -0.03   0.02   0.08     0.00   0.09   0.04     0.06  -0.10  -0.06
  57   6    -0.05  -0.01   0.05     0.00   0.09   0.04     0.05  -0.07  -0.07
  58   6    -0.04  -0.02   0.04    -0.01   0.08   0.02     0.03  -0.04  -0.03
  59   6    -0.05  -0.05   0.01    -0.02   0.08   0.02     0.02  -0.00  -0.03
  60   6    -0.08  -0.09  -0.02    -0.00   0.08   0.04     0.01   0.02  -0.07
  61   8    -0.11  -0.11  -0.02     0.00   0.11   0.07     0.03  -0.00  -0.15
  62   6    -0.09  -0.09   0.02    -0.01   0.08   0.05     0.04   0.03  -0.15
  63   6    -0.10  -0.05  -0.00     0.01   0.03   0.05     0.02   0.03  -0.09
  64   6    -0.13   0.01  -0.05     0.03   0.08   0.02    -0.02  -0.00  -0.07
  65   6    -0.14   0.05  -0.07     0.06   0.02   0.03    -0.03  -0.02  -0.02
  66   6    -0.14   0.04  -0.05     0.08  -0.10   0.08    -0.01   0.00   0.02
  67   6    -0.15   0.08  -0.08     0.12  -0.17   0.09    -0.02  -0.02   0.09
  68   6    -0.18   0.12  -0.13     0.18  -0.14   0.05    -0.04  -0.04   0.12
  69   6    -0.11  -0.02  -0.00     0.06  -0.14   0.11     0.02   0.04  -0.00
  70   6    -0.09  -0.07   0.02     0.02  -0.08   0.10     0.04   0.05  -0.06
  71   6    -0.08  -0.12  -0.05    -0.00   0.08   0.03     0.00   0.06  -0.05
  72   6    -0.06  -0.11  -0.04    -0.02   0.06   0.00    -0.01   0.07   0.00
  73   6    -0.03  -0.07  -0.01    -0.03   0.05  -0.03    -0.01   0.05   0.04
  74   6    -0.03  -0.05   0.01    -0.03   0.06  -0.02     0.01   0.02   0.03
  75   6     0.01   0.01   0.05    -0.05   0.04  -0.03     0.00  -0.03   0.10
  76   6     0.04  -0.08  -0.06    -0.03  -0.10  -0.04    -0.09   0.01   0.03
  77   6     0.06  -0.12  -0.07     0.01  -0.12  -0.07    -0.11   0.01   0.05
  78   1     0.07  -0.02  -0.05     0.07  -0.01  -0.06    -0.04   0.01   0.01
  79   1     0.06  -0.04  -0.04     0.07  -0.03  -0.05    -0.04   0.01   0.02
  80   1     0.02  -0.06  -0.01     0.02  -0.05  -0.02    -0.04   0.01   0.01
  81   1     0.04  -0.02  -0.01     0.04  -0.02  -0.00    -0.03   0.03  -0.01
  82   1     0.03  -0.00  -0.00     0.02  -0.01   0.01    -0.02   0.03  -0.02
  83   1     0.01  -0.00   0.00    -0.01  -0.01   0.02    -0.01   0.02  -0.02
  84   1     0.01   0.00  -0.01    -0.02  -0.01   0.00    -0.02   0.01  -0.00
  85   1     0.01   0.01   0.00    -0.02  -0.00   0.01     0.01  -0.02   0.01
  86   1     0.01   0.01   0.00    -0.02   0.00   0.00     0.02  -0.04   0.03
  87   1     0.01   0.01   0.01    -0.02   0.01  -0.01     0.01  -0.03   0.04
  88   1     0.01   0.00   0.01    -0.02  -0.01   0.01    -0.00   0.02  -0.03
  89   1     0.00  -0.00   0.01    -0.01  -0.00   0.01    -0.02   0.03  -0.04
  90   1     0.00   0.00   0.01    -0.01   0.00   0.00    -0.02   0.02  -0.02
  91   1     0.00   0.00   0.01    -0.01   0.01  -0.00    -0.02   0.00   0.01
  92   1     0.01   0.00   0.00    -0.02   0.01  -0.01    -0.01  -0.01   0.02
  93   1    -0.01   0.02  -0.02    -0.02   0.02  -0.02    -0.03   0.03  -0.01
  94   1    -0.04   0.05  -0.05    -0.02   0.01  -0.00    -0.04   0.06  -0.03
  95   1    -0.05   0.05  -0.05    -0.00  -0.01   0.01    -0.03   0.05  -0.04
  96   1    -0.02   0.03  -0.02     0.00  -0.01   0.02    -0.02   0.02  -0.02
  97   1     0.01   0.02   0.03     0.00  -0.01   0.02    -0.01  -0.00   0.00
  98   1    -0.01   0.01   0.03     0.01  -0.02   0.02     0.00  -0.01   0.00
  99   1     0.02   0.03   0.03     0.02   0.01   0.02     0.02   0.03   0.01
 100   1     0.02   0.03   0.02     0.04   0.02   0.00     0.05   0.03  -0.01
 101   1     0.01   0.02  -0.01     0.05   0.00  -0.03     0.06   0.02  -0.03
 102   1     0.00   0.02  -0.03     0.05  -0.03  -0.05     0.06  -0.02  -0.05
 103   1    -0.00   0.02  -0.04     0.07  -0.02  -0.05     0.08   0.00  -0.05
 104   1     0.00   0.01  -0.00     0.02  -0.04  -0.04     0.04  -0.02  -0.04
 105   1     0.00   0.01   0.01     0.00  -0.05  -0.02     0.01  -0.03  -0.02
 106   1     0.02  -0.00   0.02     0.01  -0.01   0.02     0.01  -0.03   0.02
 107   1     0.04  -0.02   0.03    -0.01   0.01  -0.00     0.01  -0.04   0.03
 108   1     0.04  -0.02   0.02    -0.02   0.02  -0.02    -0.00  -0.02   0.03
 109   1     0.01   0.02   0.03    -0.01   0.02  -0.01     0.01  -0.02   0.02
 110   1     0.00   0.02   0.04    -0.00   0.02   0.00     0.02  -0.04   0.00
 111   1    -0.01   0.01   0.03     0.00   0.03   0.02     0.02  -0.04  -0.03
 112   1    -0.02  -0.01   0.01     0.00   0.03   0.02     0.01  -0.02  -0.03
 113   1    -0.02  -0.02   0.02    -0.01   0.02   0.01     0.01   0.00  -0.06
 114   1    -0.02  -0.04   0.01    -0.01   0.03   0.01     0.02   0.03  -0.04
 115   1    -0.04   0.01  -0.02     0.01   0.05  -0.00    -0.01  -0.01  -0.03
 116   1    -0.05   0.03  -0.03     0.02   0.02   0.00    -0.02  -0.01  -0.00
 117   1    -0.04   0.03  -0.02     0.03  -0.08   0.04    -0.00  -0.00   0.03
 118   1    -0.05   0.03  -0.04     0.06  -0.02  -0.00    -0.02  -0.01   0.03
 119   1    -0.05   0.04  -0.05     0.06  -0.06   0.02    -0.01  -0.02   0.05
 120   1    -0.03  -0.01   0.00     0.02  -0.07   0.04     0.01   0.02   0.01
 121   1    -0.02  -0.03   0.02     0.00  -0.03   0.04     0.02   0.02  -0.02
 122   1    -0.03  -0.04  -0.02     0.00   0.02   0.02     0.00   0.02  -0.02
 123   1    -0.02  -0.04  -0.02    -0.01   0.02  -0.00    -0.01   0.03   0.00
 124   1    -0.00  -0.02  -0.00    -0.01   0.01  -0.01    -0.00   0.02   0.02
 125   1    -0.00   0.00   0.02    -0.01   0.01  -0.01     0.00  -0.01   0.03
 126   1     0.00  -0.02  -0.02    -0.02  -0.03  -0.01    -0.03  -0.01   0.02
 127   1     0.01  -0.04  -0.02    -0.00  -0.04  -0.03    -0.04  -0.00   0.02
                     10                     11                     12
                        a                      a                      a 
 Frequencies --    29.1840                33.4913                35.3184
 Red. masses --    11.1021                10.9749                10.6094
 Frc consts  --     0.0000                 0.0000                 0.0000
 IR Inten    --     0.2391                 0.1816                 0.2366
 Raman Activ --     0.0000                 0.0000                 0.0000
 Depolar     --     0.0000                 0.0000                 0.0000
 Atom AN      X      Y      Z        X      Y      Z        X      Y      Z
   1   6    -0.03  -0.07  -0.00    -0.07  -0.23   0.09     0.04   0.18  -0.11
   2   6    -0.06  -0.06  -0.01    -0.12  -0.22   0.08     0.08   0.15  -0.07
   3   6    -0.06  -0.03  -0.02    -0.11  -0.15   0.06     0.07   0.08  -0.05
   4   6    -0.04   0.01  -0.02    -0.07  -0.07   0.03     0.04  -0.00  -0.02
   5   6    -0.04   0.03  -0.03    -0.06  -0.02   0.02     0.03  -0.05  -0.01
   6   6    -0.06   0.02  -0.03    -0.09  -0.05   0.03     0.06  -0.02  -0.02
   7   6    -0.05   0.05  -0.03    -0.07  -0.01   0.02     0.05  -0.06  -0.01
   8   8    -0.01   0.05  -0.03    -0.01  -0.02   0.05    -0.02  -0.04  -0.01
   9   6     0.00   0.01  -0.00    -0.00  -0.06   0.06    -0.02   0.02  -0.03
  10   6     0.00  -0.01   0.01    -0.01  -0.12   0.10    -0.02   0.08  -0.06
  11   6     0.01  -0.04   0.04    -0.01  -0.13   0.09    -0.02   0.11  -0.08
  12   6     0.01  -0.05   0.05    -0.00  -0.08   0.04    -0.03   0.09  -0.05
  13   6     0.00  -0.03   0.03     0.00  -0.03   0.01    -0.03   0.04  -0.02
  14   6     0.00  -0.00   0.01     0.00  -0.03   0.02    -0.03   0.02  -0.01
  15   6     0.00   0.01  -0.00     0.01   0.02  -0.02    -0.04  -0.02   0.02
  16   6     0.01   0.03  -0.02     0.01   0.02  -0.02    -0.05  -0.05   0.04
  17   6     0.01   0.04  -0.03     0.01   0.07  -0.07    -0.05  -0.08   0.06
  18   6     0.00   0.02  -0.01     0.02   0.12  -0.11    -0.05  -0.08   0.07
  19   6     0.00  -0.00   0.01     0.01   0.12  -0.11    -0.05  -0.05   0.05
  20   6     0.00  -0.01   0.01     0.01   0.06  -0.06    -0.04  -0.02   0.03
  21   7     0.00  -0.04   0.03     0.01   0.04  -0.05    -0.04   0.01   0.01
  22   6     0.01  -0.02   0.02     0.01   0.04  -0.05    -0.04  -0.00   0.02
  23   6    -0.00  -0.01  -0.01     0.02   0.04  -0.08    -0.03  -0.02   0.03
  24   6     0.01   0.00  -0.05     0.02   0.03  -0.07    -0.02  -0.03   0.02
  25   7    -0.01   0.01  -0.05     0.03   0.03  -0.07    -0.01  -0.05   0.02
  26   6     0.01  -0.03  -0.02     0.06  -0.01  -0.03     0.01  -0.04   0.02
  27   6     0.03  -0.07   0.01     0.08  -0.04  -0.01     0.04  -0.05   0.04
  28   6     0.04  -0.11   0.05     0.12  -0.08   0.04     0.06  -0.05   0.04
  29   6     0.04  -0.10   0.06     0.13  -0.09   0.05     0.06  -0.05   0.02
  30   6     0.01  -0.05   0.03     0.10  -0.06   0.03     0.03  -0.05  -0.01
  31   6    -0.00  -0.02  -0.00     0.07  -0.02  -0.02     0.01  -0.04  -0.01
  32   6    -0.02   0.02  -0.03     0.05   0.01  -0.04    -0.01  -0.05  -0.02
  33   6    -0.02   0.04  -0.02     0.05   0.01  -0.03    -0.02  -0.05  -0.04
  34   8    -0.03   0.03  -0.01     0.05   0.01  -0.02    -0.03  -0.03  -0.08
  35   6    -0.03   0.03   0.00     0.04   0.03  -0.02    -0.03   0.02  -0.10
  36   6    -0.03   0.03   0.01     0.06   0.04   0.02     0.02   0.04  -0.04
  37   6    -0.02   0.02   0.03     0.10   0.05   0.07     0.09   0.08   0.03
  38   6    -0.01   0.03   0.05     0.13   0.06   0.10     0.16   0.10   0.09
  39   6    -0.01   0.03   0.06     0.11   0.05   0.08     0.16   0.08   0.07
  40   6     0.01   0.03   0.09     0.12   0.06   0.10     0.23   0.09   0.13
  41   6     0.01   0.03   0.07     0.11   0.05   0.05     0.26   0.06   0.07
  42   6    -0.03   0.04   0.04     0.07   0.05   0.03     0.08   0.05  -0.00
  43   6    -0.04   0.03   0.01     0.04   0.04   0.01     0.02   0.03  -0.05
  44   6    -0.02   0.06  -0.04     0.06   0.01  -0.03    -0.02  -0.07  -0.03
  45   6    -0.02   0.08  -0.06     0.05   0.03  -0.05    -0.03  -0.08  -0.01
  46   6    -0.02   0.06  -0.07     0.03   0.04  -0.07    -0.03  -0.06  -0.00
  47   6    -0.02   0.03  -0.05     0.03   0.03  -0.06    -0.02  -0.05  -0.00
  48   6     0.02   0.01  -0.06     0.01   0.03  -0.04    -0.04  -0.04   0.01
  49   6     0.04   0.02  -0.12     0.01   0.04  -0.03    -0.03  -0.06  -0.02
  50   7     0.06   0.02  -0.18     0.00   0.06  -0.03    -0.02  -0.07  -0.05
  51   6     0.02   0.00  -0.01    -0.00   0.03  -0.02    -0.06  -0.03   0.00
  52   7     0.04   0.01  -0.00    -0.02   0.03   0.00    -0.07  -0.04  -0.00
  53   6     0.09   0.05   0.08    -0.05   0.02  -0.02    -0.05  -0.03   0.02
  54   6     0.15   0.09   0.17    -0.07   0.02  -0.06    -0.05  -0.02   0.02
  55   6     0.22   0.14   0.25    -0.11   0.00  -0.09    -0.04  -0.01   0.04
  56   6     0.22   0.14   0.25    -0.12  -0.01  -0.08    -0.03  -0.00   0.06
  57   6     0.15   0.09   0.14    -0.09  -0.00  -0.04    -0.03  -0.01   0.06
  58   6     0.09   0.04   0.05    -0.06   0.01  -0.01    -0.04  -0.02   0.03
  59   6     0.02   0.00  -0.04    -0.03   0.01   0.02    -0.05  -0.03   0.02
  60   6    -0.01  -0.02  -0.10    -0.03   0.01   0.04    -0.04  -0.01   0.03
  61   8    -0.01  -0.03  -0.13    -0.04   0.01   0.06    -0.02  -0.00   0.06
  62   6    -0.01  -0.02  -0.12    -0.04  -0.01   0.05    -0.02   0.00   0.02
  63   6    -0.02  -0.02  -0.08    -0.04   0.01   0.01    -0.02   0.02  -0.02
  64   6    -0.06  -0.07  -0.05    -0.00  -0.04   0.05     0.03  -0.11   0.08
  65   6    -0.07  -0.08   0.01    -0.01  -0.01   0.01     0.02  -0.09   0.06
  66   6    -0.05  -0.06   0.05    -0.04   0.06  -0.06    -0.02   0.05  -0.05
  67   6    -0.06  -0.09   0.12    -0.04   0.09  -0.10    -0.03   0.06  -0.05
  68   6    -0.07  -0.14   0.20    -0.04   0.05  -0.04    -0.02  -0.05   0.13
  69   6    -0.02  -0.01   0.01    -0.07   0.10  -0.09    -0.07   0.19  -0.15
  70   6    -0.00   0.01  -0.05    -0.07   0.08  -0.05    -0.07   0.18  -0.14
  71   6    -0.05  -0.04  -0.15    -0.01   0.00   0.06    -0.05  -0.01   0.02
  72   6    -0.06  -0.05  -0.16     0.01   0.01   0.05    -0.07  -0.03  -0.00
  73   6    -0.04  -0.04  -0.12     0.01   0.02   0.04    -0.08  -0.04  -0.01
  74   6     0.00  -0.01  -0.06    -0.01   0.02   0.02    -0.06  -0.04   0.00
  75   6     0.01  -0.02   0.03     0.00   0.04  -0.02    -0.06  -0.01   0.01
  76   6    -0.07  -0.02  -0.02    -0.12  -0.13   0.06     0.09   0.04  -0.04
  77   6    -0.07  -0.04  -0.02    -0.13  -0.18   0.07     0.10   0.09  -0.05
  78   1    -0.00  -0.02   0.00    -0.00  -0.05   0.02     0.00   0.04  -0.04
  79   1    -0.01  -0.03   0.00    -0.02  -0.08   0.03     0.01   0.07  -0.04
  80   1    -0.02  -0.02  -0.01    -0.05  -0.08   0.03     0.03   0.05  -0.01
  81   1    -0.01   0.00  -0.01    -0.01  -0.01   0.01     0.01  -0.01  -0.01
  82   1    -0.01   0.02  -0.01    -0.01   0.01  -0.00     0.00  -0.03   0.00
  83   1    -0.01   0.02  -0.01    -0.02   0.01   0.00     0.01  -0.03  -0.00
  84   1    -0.02   0.01  -0.01    -0.03  -0.00   0.00     0.03  -0.01  -0.01
  85   1     0.00  -0.00   0.00    -0.00  -0.04   0.04    -0.00   0.02  -0.02
  86   1     0.00  -0.02   0.01    -0.00  -0.05   0.04    -0.00   0.04  -0.03
  87   1     0.00  -0.02   0.02    -0.00  -0.02   0.01    -0.01   0.03  -0.01
  88   1     0.00   0.01  -0.01     0.00  -0.01   0.00    -0.01  -0.01   0.01
  89   1     0.00   0.02  -0.01     0.00   0.02  -0.02    -0.02  -0.03   0.02
  90   1     0.00   0.01  -0.01     0.01   0.05  -0.04    -0.02  -0.03   0.02
  91   1     0.00  -0.00   0.00     0.00   0.05  -0.04    -0.01  -0.01   0.02
  92   1    -0.00  -0.01  -0.00     0.01   0.01  -0.03    -0.00  -0.00   0.01
  93   1     0.01  -0.02  -0.00     0.02  -0.01  -0.01     0.01  -0.01   0.02
  94   1     0.02  -0.04   0.02     0.04  -0.03   0.02     0.02  -0.02   0.02
  95   1     0.01  -0.04   0.03     0.05  -0.04   0.03     0.02  -0.02   0.01
  96   1     0.00  -0.01   0.01     0.03  -0.02   0.01     0.01  -0.01  -0.01
  97   1    -0.01   0.01   0.00     0.01   0.00  -0.01    -0.02  -0.00  -0.04
  98   1    -0.01   0.01  -0.00     0.01   0.02  -0.01    -0.01   0.02  -0.04
  99   1    -0.00   0.01   0.01     0.03   0.02   0.02     0.03   0.03   0.01
 100   1     0.00   0.01   0.02     0.05   0.02   0.04     0.06   0.04   0.04
 101   1     0.01   0.01   0.04     0.04   0.02   0.04     0.08   0.04   0.06
 102   1    -0.00   0.01   0.01     0.03   0.02  -0.00     0.07   0.01  -0.01
 103   1     0.01   0.01   0.03     0.04   0.02   0.02     0.09   0.02   0.03
 104   1    -0.01   0.01   0.01     0.01   0.01   0.01     0.02   0.01  -0.01
 105   1    -0.01   0.01  -0.00     0.00   0.01  -0.01    -0.01   0.00  -0.03
 106   1    -0.01   0.02  -0.01     0.02   0.00  -0.00    -0.01  -0.02  -0.01
 107   1    -0.01   0.03  -0.02     0.01   0.01  -0.01    -0.01  -0.03  -0.00
 108   1    -0.01   0.02  -0.03     0.01   0.02  -0.03    -0.01  -0.02   0.00
 109   1     0.04   0.03   0.05    -0.02   0.01  -0.02    -0.02  -0.01   0.00
 110   1     0.08   0.05   0.10    -0.04  -0.00  -0.03    -0.01  -0.00   0.01
 111   1     0.08   0.05   0.09    -0.04  -0.01  -0.03    -0.01   0.00   0.02
 112   1     0.04   0.03   0.04    -0.03  -0.00  -0.01    -0.01  -0.00   0.02
 113   1    -0.00  -0.01  -0.04    -0.01   0.00   0.02     0.00   0.00   0.01
 114   1     0.00   0.00  -0.03    -0.02  -0.01   0.01    -0.01  -0.00   0.01
 115   1    -0.02  -0.03  -0.02     0.01  -0.03   0.03     0.02  -0.06   0.05
 116   1    -0.03  -0.04   0.01     0.01  -0.01   0.01     0.02  -0.06   0.04
 117   1    -0.01  -0.02   0.03    -0.01   0.04  -0.05    -0.01   0.05  -0.06
 118   1    -0.02  -0.04   0.06    -0.01   0.00   0.01    -0.00  -0.05   0.09
 119   1    -0.02  -0.05   0.07    -0.01   0.02  -0.02    -0.01  -0.01   0.03
 120   1    -0.00   0.00   0.01    -0.03   0.05  -0.04    -0.03   0.09  -0.07
 121   1     0.01   0.01  -0.02    -0.03   0.03  -0.02    -0.03   0.08  -0.06
 122   1    -0.02  -0.01  -0.05    -0.00  -0.00   0.02    -0.01  -0.00   0.01
 123   1    -0.03  -0.02  -0.06     0.01   0.00   0.02    -0.02  -0.01  -0.00
 124   1    -0.02  -0.01  -0.04     0.01   0.01   0.01    -0.03  -0.02  -0.01
 125   1     0.01  -0.01   0.02    -0.00   0.01  -0.00    -0.02  -0.00  -0.00
 126   1    -0.03  -0.01  -0.00    -0.04  -0.04   0.02     0.03   0.02  -0.01
 127   1    -0.02  -0.02  -0.00    -0.05  -0.07   0.03     0.04   0.04  -0.02
                     13                     14                     15
                        a                      a                      a 
 Frequencies --    42.4175                45.1914                50.2057
 Red. masses --    10.8552                10.8181                10.8853
 Frc consts  --     0.0000                 0.0000                 0.0000
 IR Inten    --     0.3129                 0.0625                 0.0399
 Raman Activ --     0.0000                 0.0000                 0.0000
 Depolar     --     0.0000                 0.0000                 0.0000
 Atom AN      X      Y      Z        X      Y      Z        X      Y      Z
   1   6    -0.06   0.06  -0.03    -0.02   0.33  -0.38    -0.06   0.15  -0.17
   2   6    -0.04   0.03   0.01    -0.06   0.18  -0.17    -0.08   0.04  -0.03
   3   6    -0.03  -0.01   0.00    -0.11   0.03  -0.09    -0.08  -0.05  -0.01
   4   6    -0.04  -0.03  -0.02    -0.13  -0.02  -0.07    -0.09  -0.06  -0.03
   5   6    -0.02  -0.06  -0.03    -0.15  -0.08  -0.04    -0.08  -0.10  -0.04
   6   6     0.01  -0.07  -0.02    -0.15  -0.09  -0.03    -0.05  -0.12  -0.02
   7   6     0.03  -0.09  -0.03    -0.10  -0.03  -0.06    -0.00  -0.09  -0.05
   8   8     0.02  -0.07   0.00    -0.03   0.01   0.03     0.04  -0.03   0.06
   9   6     0.02  -0.02   0.02    -0.01  -0.02   0.06     0.04  -0.02   0.08
  10   6     0.05  -0.01   0.03    -0.02  -0.03   0.06     0.05  -0.02   0.09
  11   6     0.06   0.03   0.05    -0.02  -0.05   0.07     0.05   0.00   0.08
  12   6     0.03   0.06   0.05    -0.01  -0.06   0.07     0.04   0.04   0.06
  13   6    -0.01   0.05   0.05    -0.00  -0.06   0.07     0.03   0.04   0.05
  14   6    -0.01   0.01   0.03    -0.00  -0.05   0.08     0.03   0.01   0.07
  15   6    -0.05   0.02   0.02     0.01  -0.06   0.09     0.02   0.02   0.06
  16   6    -0.07  -0.00  -0.01     0.02  -0.06   0.12     0.02  -0.00   0.07
  17   6    -0.11   0.03  -0.03     0.04  -0.08   0.13     0.01   0.03   0.05
  18   6    -0.12   0.09  -0.02     0.05  -0.09   0.12     0.01   0.10   0.00
  19   6    -0.10   0.10   0.00     0.04  -0.09   0.09     0.02   0.11  -0.01
  20   6    -0.06   0.07   0.02     0.02  -0.07   0.08     0.02   0.07   0.03
  21   7    -0.04   0.08   0.05     0.01  -0.07   0.07     0.03   0.08   0.03
  22   6    -0.04   0.05   0.07     0.02  -0.02   0.03     0.03   0.05   0.02
  23   6     0.00   0.03   0.07    -0.01  -0.00   0.00     0.07   0.03   0.03
  24   6     0.01  -0.02   0.04    -0.01   0.03  -0.02     0.07  -0.01   0.01
  25   7     0.05  -0.05   0.04    -0.03   0.05  -0.05     0.10  -0.03   0.04
  26   6     0.07  -0.02   0.02     0.00   0.03  -0.02     0.03  -0.01   0.01
  27   6     0.10  -0.00   0.04     0.01   0.03  -0.02     0.01  -0.02  -0.01
  28   6     0.12   0.01   0.02     0.05  -0.00   0.01    -0.06   0.02  -0.04
  29   6     0.12   0.00  -0.02     0.07  -0.03   0.03    -0.10   0.07  -0.05
  30   6     0.10  -0.01  -0.04     0.06  -0.02   0.01    -0.06   0.07  -0.01
  31   6     0.07  -0.03  -0.02     0.02   0.00  -0.01     0.00   0.03   0.02
  32   6     0.05  -0.05  -0.03     0.01   0.01  -0.02     0.04   0.03   0.04
  33   6     0.04  -0.06  -0.05     0.02  -0.01  -0.01     0.02   0.08   0.04
  34   8     0.02  -0.01  -0.12     0.03  -0.02   0.00     0.02   0.09   0.07
  35   6     0.02   0.01  -0.07     0.03  -0.02  -0.00     0.02   0.06   0.08
  36   6     0.03   0.03   0.02     0.03  -0.01   0.02    -0.01   0.04  -0.00
  37   6     0.06  -0.00   0.08     0.04  -0.02   0.04    -0.09   0.02  -0.10
  38   6     0.05  -0.00   0.13     0.04  -0.02   0.06    -0.12   0.01  -0.16
  39   6     0.00   0.02   0.12     0.03  -0.01   0.06    -0.08   0.01  -0.12
  40   6    -0.05   0.01   0.13     0.01  -0.01   0.06    -0.08   0.01  -0.13
  41   6    -0.11   0.06   0.03    -0.01   0.00   0.03    -0.05   0.00  -0.03
  42   6    -0.02   0.06   0.08     0.02  -0.00   0.05    -0.01   0.02  -0.04
  43   6    -0.00   0.06   0.03     0.02  -0.00   0.03     0.02   0.03   0.02
  44   6     0.04  -0.11  -0.03     0.02  -0.01  -0.01     0.04   0.11   0.03
  45   6     0.04  -0.13   0.02    -0.00   0.01  -0.03     0.08   0.08   0.04
  46   6     0.04  -0.10   0.03    -0.02   0.04  -0.05     0.11   0.02   0.05
  47   6     0.04  -0.07   0.01    -0.02   0.03  -0.04     0.09   0.00   0.05
  48   6    -0.03  -0.04   0.01     0.03   0.05  -0.02     0.04  -0.04  -0.04
  49   6    -0.02  -0.09  -0.03     0.03   0.09  -0.02     0.05  -0.09  -0.08
  50   7    -0.01  -0.14  -0.06     0.03   0.14  -0.02     0.07  -0.14  -0.12
  51   6    -0.07  -0.02   0.01     0.05   0.03   0.00    -0.00  -0.01  -0.04
  52   7    -0.09  -0.04  -0.05     0.08   0.05   0.02    -0.04  -0.04  -0.07
  53   6    -0.04  -0.04  -0.03     0.05   0.03  -0.00    -0.04  -0.02  -0.05
  54   6    -0.03  -0.06  -0.00     0.04   0.04  -0.01    -0.05  -0.01  -0.06
  55   6     0.02  -0.06   0.01     0.01   0.02  -0.04    -0.06  -0.00  -0.05
  56   6     0.04  -0.03   0.00    -0.01   0.01  -0.06    -0.06  -0.00  -0.02
  57   6     0.02  -0.01  -0.02    -0.00   0.00  -0.05    -0.04  -0.01   0.00
  58   6    -0.02  -0.02  -0.04     0.03   0.02  -0.02    -0.04  -0.02  -0.01
  59   6    -0.05  -0.00  -0.07     0.04   0.01  -0.00    -0.03  -0.03  -0.01
  60   6    -0.04   0.03  -0.07     0.03  -0.01  -0.01    -0.01  -0.03   0.02
  61   8     0.02   0.07  -0.05    -0.01  -0.03  -0.03     0.02   0.00   0.09
  62   6     0.04   0.09  -0.04    -0.01  -0.04  -0.00     0.02   0.00   0.07
  63   6     0.03   0.10  -0.02    -0.01  -0.04   0.01     0.02   0.02   0.03
  64   6    -0.01   0.24  -0.12    -0.03   0.00  -0.02     0.07  -0.06   0.09
  65   6    -0.00   0.21  -0.10    -0.04   0.03  -0.03     0.08  -0.08   0.08
  66   6     0.05   0.03   0.03    -0.03   0.00  -0.01     0.05  -0.01   0.01
  67   6     0.08  -0.02   0.05    -0.05   0.05  -0.04     0.08  -0.06   0.03
  68   6     0.11   0.06  -0.07    -0.09   0.12  -0.15     0.14  -0.18   0.22
  69   6     0.09  -0.11   0.13    -0.00  -0.06   0.04    -0.00   0.10  -0.07
  70   6     0.08  -0.08   0.11     0.00  -0.08   0.05    -0.01   0.11  -0.06
  71   6    -0.07   0.04  -0.10     0.05  -0.01   0.01    -0.03  -0.05  -0.01
  72   6    -0.13   0.02  -0.12     0.09   0.01   0.04    -0.05  -0.08  -0.07
  73   6    -0.14  -0.01  -0.11     0.10   0.03   0.05    -0.05  -0.08  -0.09
  74   6    -0.10  -0.02  -0.08     0.07   0.03   0.02    -0.04  -0.05  -0.06
  75   6    -0.07   0.02   0.05     0.05  -0.00   0.02    -0.00   0.03  -0.01
  76   6     0.02  -0.06   0.01    -0.15  -0.09  -0.03    -0.05  -0.13   0.02
  77   6     0.00  -0.03   0.02    -0.13  -0.03  -0.05    -0.07  -0.10   0.03
  78   1    -0.02   0.02  -0.02    -0.01   0.09  -0.14    -0.01   0.05  -0.09
  79   1    -0.02   0.03  -0.01     0.00   0.14  -0.13    -0.02   0.07  -0.05
  80   1    -0.01   0.01   0.02    -0.02   0.05  -0.02    -0.03   0.01   0.02
  81   1    -0.02  -0.01  -0.01    -0.03   0.00  -0.02    -0.03  -0.01  -0.02
  82   1    -0.01  -0.02  -0.02    -0.05  -0.03  -0.01    -0.02  -0.03  -0.02
  83   1     0.01  -0.04  -0.01    -0.03  -0.01  -0.03    -0.01  -0.03  -0.03
  84   1     0.02  -0.02  -0.01    -0.03  -0.00  -0.03     0.01  -0.01  -0.03
  85   1     0.02  -0.01   0.01    -0.01  -0.00   0.02     0.02  -0.01   0.03
  86   1     0.02   0.01   0.01    -0.01  -0.02   0.02     0.02   0.00   0.02
  87   1     0.01   0.03   0.02    -0.00  -0.02   0.02     0.01   0.02   0.01
  88   1    -0.02  -0.01  -0.00     0.01  -0.01   0.04     0.01  -0.01   0.03
  89   1    -0.04   0.01  -0.01     0.01  -0.03   0.04     0.00   0.00   0.02
  90   1    -0.04   0.03  -0.01     0.02  -0.03   0.04     0.00   0.04  -0.01
  91   1    -0.03   0.04   0.00     0.01  -0.03   0.02     0.01   0.05  -0.01
  92   1     0.01   0.01   0.03    -0.01  -0.01   0.00     0.03   0.01   0.02
  93   1     0.03  -0.00   0.02    -0.00   0.01  -0.01     0.01  -0.01  -0.00
  94   1     0.04   0.01   0.01     0.02  -0.00   0.01    -0.03   0.01  -0.02
  95   1     0.04   0.00  -0.01     0.03  -0.01   0.01    -0.05   0.03  -0.02
  96   1     0.03  -0.00  -0.02     0.02  -0.01   0.01    -0.03   0.03  -0.00
  97   1     0.01  -0.01  -0.03     0.01  -0.01  -0.00     0.01   0.03   0.03
  98   1    -0.00   0.02  -0.03     0.01  -0.00  -0.00     0.00   0.00   0.03
  99   1     0.03  -0.01   0.02     0.01  -0.01   0.01    -0.03   0.01  -0.03
 100   1     0.02  -0.01   0.05     0.01  -0.01   0.02    -0.05   0.00  -0.07
 101   1    -0.01  -0.01   0.06     0.00  -0.01   0.02    -0.03   0.01  -0.06
 102   1    -0.04   0.03  -0.02    -0.00   0.01   0.00    -0.01  -0.00   0.02
 103   1    -0.05   0.01   0.01    -0.01  -0.00   0.01    -0.01   0.00  -0.01
 104   1    -0.01   0.02   0.02     0.01   0.00   0.01     0.01   0.01  -0.00
 105   1    -0.01   0.03  -0.00     0.00   0.00   0.00     0.02   0.01   0.02
 106   1     0.01  -0.04  -0.01     0.01  -0.01   0.00     0.00   0.05   0.01
 107   1     0.01  -0.05   0.01    -0.00   0.00  -0.01     0.03   0.03   0.01
 108   1     0.01  -0.03   0.01    -0.01   0.02  -0.02     0.05  -0.00   0.02
 109   1    -0.01  -0.02   0.00     0.02   0.01   0.00    -0.02  -0.00  -0.02
 110   1     0.01  -0.02   0.01     0.00   0.01  -0.01    -0.02   0.00  -0.02
 111   1     0.02  -0.01   0.00    -0.01  -0.00  -0.02    -0.02   0.00  -0.00
 112   1     0.01   0.00  -0.01    -0.01  -0.00  -0.02    -0.01  -0.00   0.01
 113   1     0.02   0.02  -0.02    -0.01  -0.01   0.00     0.01   0.00   0.03
 114   1     0.02   0.03  -0.01     0.00  -0.01   0.00    -0.00  -0.01   0.02
 115   1    -0.02   0.11  -0.06    -0.01   0.01  -0.01     0.03  -0.03   0.04
 116   1    -0.01   0.09  -0.05    -0.02   0.02  -0.02     0.03  -0.04   0.04
 117   1     0.02  -0.04   0.05    -0.01   0.01   0.01     0.01  -0.00  -0.03
 118   1     0.04   0.05  -0.06    -0.03   0.04  -0.06     0.05  -0.07   0.11
 119   1     0.04   0.00  -0.01    -0.03   0.05  -0.05     0.05  -0.07   0.07
 120   1     0.04  -0.07   0.07     0.00  -0.02   0.02    -0.01   0.05  -0.04
 121   1     0.03  -0.06   0.06     0.01  -0.03   0.02    -0.01   0.05  -0.03
 122   1    -0.02   0.02  -0.03     0.01  -0.01   0.00    -0.00  -0.01   0.00
 123   1    -0.05   0.01  -0.04     0.03   0.00   0.02    -0.02  -0.03  -0.03
 124   1    -0.05  -0.01  -0.04     0.04   0.01   0.02    -0.02  -0.03  -0.04
 125   1    -0.03   0.01   0.02     0.02  -0.01   0.01    -0.01   0.01  -0.00
 126   1     0.01  -0.02   0.01    -0.04  -0.03  -0.00    -0.01  -0.04   0.01
 127   1     0.00  -0.01   0.01    -0.03  -0.00  -0.02    -0.02  -0.03   0.02
                     16                     17                     18
                        a                      a                      a 
 Frequencies --    57.0085                58.9086                65.8260
 Red. masses --    11.5752                10.6632                11.1194
 Frc consts  --     0.0000                 0.0000                 0.0000
 IR Inten    --     0.8756                 0.4516                 1.2600
 Raman Activ --     0.0000                 0.0000                 0.0000
 Depolar     --     0.0000                 0.0000                 0.0000
 Atom AN      X      Y      Z        X      Y      Z        X      Y      Z
   1   6    -0.01   0.06  -0.08    -0.03   0.05  -0.03     0.03  -0.03   0.04
   2   6    -0.02   0.01  -0.02    -0.01   0.02   0.01     0.03   0.01  -0.01
   3   6    -0.03  -0.03   0.00    -0.00  -0.01  -0.00     0.04   0.04  -0.02
   4   6    -0.05  -0.07   0.03    -0.01  -0.03  -0.01     0.04   0.05  -0.01
   5   6    -0.06  -0.09   0.04    -0.00  -0.04  -0.02     0.03   0.06  -0.01
   6   6    -0.04  -0.06   0.02     0.02  -0.03  -0.02     0.03   0.07  -0.02
   7   6    -0.05  -0.04   0.02     0.04  -0.02  -0.03     0.01   0.05  -0.01
   8   8    -0.06  -0.01   0.08     0.03   0.01   0.01     0.01   0.01  -0.07
   9   6    -0.07  -0.01   0.01     0.02   0.03   0.01     0.01   0.01  -0.03
  10   6    -0.12  -0.01  -0.01     0.02   0.04  -0.00     0.04   0.01  -0.02
  11   6    -0.13  -0.00  -0.08     0.02   0.04  -0.00     0.05  -0.01   0.03
  12   6    -0.09   0.01  -0.14     0.02   0.03   0.01     0.03  -0.03   0.07
  13   6    -0.04   0.02  -0.12     0.02   0.02   0.01     0.00  -0.02   0.05
  14   6    -0.03  -0.00  -0.03     0.02   0.02   0.02    -0.00  -0.00  -0.00
  15   6     0.02  -0.01  -0.02     0.03   0.01   0.03    -0.03  -0.02   0.01
  16   6     0.05  -0.05   0.07     0.04   0.01   0.05    -0.04  -0.01  -0.02
  17   6     0.11  -0.05   0.06     0.05   0.01   0.05    -0.06  -0.05   0.02
  18   6     0.14  -0.01  -0.04     0.06   0.02   0.02    -0.07  -0.09   0.07
  19   6     0.10   0.03  -0.13     0.05   0.03   0.00    -0.06  -0.09   0.09
  20   6     0.04   0.02  -0.11     0.03   0.02   0.01    -0.04  -0.05   0.06
  21   7     0.01   0.05  -0.19     0.03   0.02   0.00    -0.02  -0.05   0.09
  22   6     0.01   0.01  -0.16     0.02   0.01   0.00    -0.02  -0.02   0.07
  23   6     0.03   0.00  -0.16     0.04   0.00  -0.07    -0.02  -0.01  -0.06
  24   6     0.01  -0.01  -0.04     0.04  -0.01  -0.05    -0.01   0.01  -0.11
  25   7     0.04  -0.03  -0.01     0.04  -0.00  -0.09    -0.02   0.02  -0.19
  26   6     0.03  -0.03  -0.01     0.04  -0.02  -0.07    -0.02  -0.02  -0.13
  27   6     0.01  -0.03  -0.03     0.07  -0.08  -0.03    -0.06  -0.05  -0.17
  28   6     0.01  -0.04  -0.02     0.06  -0.10  -0.01    -0.05  -0.12  -0.09
  29   6     0.02  -0.06   0.01     0.02  -0.05  -0.03    -0.00  -0.16   0.01
  30   6     0.04  -0.06   0.03    -0.01   0.01  -0.07     0.03  -0.14   0.03
  31   6     0.04  -0.05   0.01    -0.00   0.02  -0.09     0.02  -0.07  -0.04
  32   6     0.06  -0.05   0.03    -0.02   0.06  -0.11     0.04  -0.04  -0.03
  33   6     0.05  -0.04   0.03    -0.02   0.08  -0.09     0.07  -0.03   0.02
  34   8     0.02  -0.00   0.01    -0.04   0.08  -0.06     0.04  -0.04   0.08
  35   6     0.02   0.06  -0.00    -0.04  -0.00   0.09     0.04   0.04   0.06
  36   6     0.06   0.07  -0.01    -0.10  -0.03   0.08     0.07   0.05   0.04
  37   6    -0.01   0.05  -0.09     0.07   0.04   0.25    -0.03   0.02  -0.08
  38   6    -0.04   0.04  -0.12     0.07   0.04   0.21    -0.06   0.01  -0.11
  39   6     0.01   0.06  -0.06    -0.09  -0.03  -0.02     0.01   0.04  -0.01
  40   6    -0.04   0.05  -0.08    -0.05  -0.02  -0.08    -0.06   0.02  -0.05
  41   6    -0.05   0.08   0.01    -0.03  -0.07  -0.26    -0.11   0.08  -0.01
  42   6     0.09   0.09   0.03    -0.26  -0.11  -0.18     0.14   0.07   0.11
  43   6     0.12   0.09   0.05    -0.26  -0.11  -0.13     0.16   0.08   0.13
  44   6     0.08  -0.06   0.05     0.00   0.10  -0.09     0.10   0.01   0.02
  45   6     0.10  -0.08   0.07     0.03   0.09  -0.10     0.10   0.04  -0.04
  46   6     0.10  -0.08   0.05     0.04   0.06  -0.10     0.07   0.04  -0.11
  47   6     0.06  -0.05   0.02     0.01   0.04  -0.10     0.03   0.01  -0.11
  48   6    -0.03  -0.02   0.06     0.01  -0.01   0.04    -0.00   0.02  -0.04
  49   6    -0.08  -0.05   0.21    -0.01  -0.01   0.09     0.01   0.08  -0.09
  50   7    -0.14  -0.06   0.37    -0.03   0.00   0.16     0.03   0.19  -0.14
  51   6    -0.04  -0.01   0.02    -0.00  -0.01   0.09    -0.01   0.00   0.10
  52   7    -0.04  -0.01   0.05    -0.00  -0.01   0.13    -0.01   0.01   0.16
  53   6    -0.01  -0.01   0.06    -0.01  -0.03   0.09    -0.02  -0.02   0.10
  54   6     0.00  -0.01   0.07    -0.01  -0.06   0.08    -0.02  -0.05   0.09
  55   6     0.04   0.00   0.11    -0.02  -0.09   0.03    -0.06  -0.10   0.00
  56   6     0.07   0.03   0.13    -0.02  -0.09  -0.01    -0.09  -0.12  -0.08
  57   6     0.05   0.03   0.09    -0.01  -0.06  -0.00    -0.08  -0.09  -0.05
  58   6     0.01   0.01   0.06    -0.01  -0.03   0.05    -0.04  -0.04   0.04
  59   6    -0.01   0.02   0.03    -0.01  -0.01   0.06    -0.04  -0.01   0.06
  60   6    -0.02   0.04  -0.01    -0.01   0.01   0.03    -0.04  -0.00   0.02
  61   8    -0.01   0.02  -0.08    -0.00  -0.01  -0.02    -0.02  -0.01   0.01
  62   6    -0.01   0.05  -0.11     0.01   0.02  -0.04    -0.00   0.03  -0.01
  63   6    -0.02   0.03  -0.08     0.00   0.03  -0.04    -0.02   0.07  -0.03
  64   6    -0.04   0.05  -0.09    -0.01   0.04  -0.05    -0.02   0.12  -0.06
  65   6    -0.04   0.03  -0.06    -0.01   0.03  -0.03    -0.01   0.11  -0.06
  66   6    -0.02  -0.01  -0.01     0.00   0.01  -0.01     0.00   0.05  -0.02
  67   6    -0.02  -0.04   0.05     0.02  -0.03   0.03     0.03  -0.02   0.01
  68   6    -0.01  -0.05   0.06     0.05  -0.08   0.10     0.11  -0.11   0.15
  69   6     0.00  -0.01   0.00     0.01   0.02  -0.01    -0.00   0.03  -0.01
  70   6     0.01   0.01  -0.04     0.01   0.03  -0.03    -0.01   0.04  -0.01
  71   6    -0.03   0.07   0.01    -0.03   0.03   0.03    -0.06   0.01   0.01
  72   6    -0.03   0.09   0.06    -0.03   0.04   0.07    -0.07   0.01   0.04
  73   6    -0.04   0.06   0.08    -0.02   0.03   0.11    -0.05   0.01   0.09
  74   6    -0.03   0.02   0.05    -0.01   0.01   0.10    -0.03   0.00   0.10
  75   6    -0.02  -0.00  -0.08    -0.00  -0.00   0.08    -0.02  -0.02   0.14
  76   6    -0.03  -0.02  -0.00     0.03  -0.00  -0.01     0.03   0.07  -0.03
  77   6    -0.02  -0.01  -0.01     0.02   0.01  -0.00     0.03   0.06  -0.03
  78   1    -0.00   0.02  -0.04    -0.01   0.01  -0.02     0.01  -0.01   0.02
  79   1    -0.00   0.03  -0.03    -0.01   0.02  -0.01     0.01  -0.02   0.01
  80   1    -0.01   0.00   0.01    -0.01   0.01   0.01     0.01   0.00  -0.01
  81   1    -0.02  -0.03   0.01    -0.01  -0.01  -0.00     0.01   0.01  -0.00
  82   1    -0.02  -0.03   0.02    -0.00  -0.02  -0.01     0.01   0.02   0.00
  83   1    -0.01  -0.02   0.01     0.01  -0.01  -0.01     0.00   0.02   0.00
  84   1    -0.01  -0.01  -0.00     0.02  -0.00  -0.02    -0.00   0.01   0.01
  85   1    -0.04  -0.00   0.01     0.01   0.01  -0.00     0.01   0.01  -0.01
  86   1    -0.05  -0.00  -0.03     0.01   0.01  -0.00     0.02  -0.00   0.01
  87   1    -0.03   0.01  -0.06     0.01   0.01   0.00     0.01  -0.02   0.03
  88   1     0.01  -0.02   0.04     0.01  -0.00   0.02    -0.01   0.01  -0.02
  89   1     0.04  -0.02   0.04     0.02  -0.00   0.02    -0.02  -0.01   0.00
  90   1     0.05  -0.00  -0.01     0.02   0.01   0.00    -0.03  -0.03   0.03
  91   1     0.04   0.02  -0.06     0.02   0.01  -0.01    -0.02  -0.03   0.04
  92   1     0.01   0.00  -0.07     0.02   0.00  -0.03    -0.01  -0.01  -0.03
  93   1    -0.00  -0.01  -0.01     0.03  -0.04  -0.00    -0.03  -0.00  -0.07
  94   1    -0.00  -0.01  -0.01     0.03  -0.04   0.01    -0.02  -0.04  -0.03
  95   1     0.01  -0.02   0.01     0.01  -0.02  -0.01     0.00  -0.06   0.02
  96   1     0.01  -0.02   0.01    -0.01   0.01  -0.02     0.02  -0.05   0.03
  97   1    -0.00   0.02  -0.00     0.02   0.01   0.04     0.00   0.02   0.02
  98   1     0.00   0.02  -0.00    -0.03  -0.02   0.04     0.00   0.01   0.02
  99   1    -0.02   0.01  -0.04     0.06   0.03   0.12    -0.03  -0.00  -0.05
 100   1    -0.03   0.01  -0.05     0.06   0.03   0.10    -0.04  -0.01  -0.06
 101   1    -0.02   0.01  -0.05    -0.00   0.01   0.01    -0.03  -0.01  -0.03
 102   1    -0.00   0.03   0.03    -0.02  -0.04  -0.10    -0.02   0.04   0.01
 103   1    -0.02   0.02  -0.00     0.01  -0.01  -0.09    -0.05   0.02  -0.01
 104   1     0.04   0.03   0.02    -0.11  -0.05  -0.10     0.06   0.03   0.05
 105   1     0.05   0.03   0.03    -0.11  -0.05  -0.07     0.07   0.03   0.06
 106   1     0.02  -0.01   0.01     0.00   0.03  -0.02     0.03   0.00   0.02
 107   1     0.04  -0.03   0.02     0.01   0.03  -0.03     0.04   0.02  -0.01
 108   1     0.03  -0.03   0.02     0.02   0.01  -0.03     0.02   0.02  -0.05
 109   1    -0.01  -0.01   0.01    -0.00  -0.02   0.03     0.00  -0.01   0.04
 110   1     0.02  -0.00   0.04    -0.01  -0.03   0.00    -0.02  -0.04  -0.00
 111   1     0.03   0.01   0.05    -0.01  -0.03  -0.02    -0.04  -0.05  -0.04
 112   1     0.02   0.01   0.03    -0.00  -0.02  -0.01    -0.03  -0.03  -0.03
 113   1     0.00   0.01  -0.05     0.01   0.00  -0.02     0.01   0.01   0.00
 114   1    -0.00   0.03  -0.03    -0.00   0.01  -0.01    -0.00   0.01  -0.00
 115   1    -0.02   0.02  -0.04    -0.00   0.01  -0.02    -0.01   0.05  -0.02
 116   1    -0.02   0.01  -0.02    -0.00   0.01  -0.01    -0.01   0.04  -0.02
 117   1    -0.00  -0.02   0.02     0.00  -0.01  -0.00     0.00  -0.01  -0.02
 118   1    -0.00  -0.01   0.01     0.02  -0.02   0.04     0.04  -0.03   0.07
 119   1    -0.00  -0.02   0.03     0.02  -0.03   0.04     0.04  -0.05   0.05
 120   1     0.01  -0.01   0.01     0.00   0.00  -0.00     0.00  -0.00   0.00
 121   1     0.01  -0.00  -0.01     0.00   0.01  -0.01    -0.00   0.00   0.00
 122   1    -0.01   0.03  -0.00    -0.01   0.01   0.00    -0.02   0.00  -0.00
 123   1    -0.01   0.04   0.02    -0.01   0.02   0.02    -0.03   0.00   0.01
 124   1    -0.01   0.02   0.03    -0.01   0.01   0.04    -0.02   0.00   0.03
 125   1    -0.01   0.00  -0.03    -0.00   0.00   0.03    -0.01  -0.01   0.06
 126   1    -0.01   0.00  -0.00     0.02   0.00  -0.00     0.01   0.02  -0.01
 127   1    -0.00   0.01  -0.01     0.01   0.01   0.00     0.01   0.02  -0.01
                     19                     20                     21
                        a                      a                      a 
 Frequencies --    69.0795                79.1370                81.6521
 Red. masses --    10.3674                10.6653                10.1681
 Frc consts  --     0.0000                 0.0000                 0.0000
 IR Inten    --     0.3685                 0.2807                 0.0446
 Raman Activ --     0.0000                 0.0000                 0.0000
 Depolar     --     0.0000                 0.0000                 0.0000
 Atom AN      X      Y      Z        X      Y      Z        X      Y      Z
   1   6    -0.08   0.03   0.02    -0.11   0.01   0.02     0.15   0.11  -0.14
   2   6    -0.02   0.02   0.03    -0.01   0.03  -0.01    -0.11  -0.12   0.19
   3   6     0.01  -0.02   0.00     0.02  -0.03  -0.03    -0.08  -0.06   0.15
   4   6    -0.01  -0.07  -0.02    -0.01  -0.11  -0.02    -0.02   0.11   0.05
   5   6     0.01  -0.10  -0.04     0.00  -0.14  -0.03     0.02   0.16   0.01
   6   6     0.06  -0.09  -0.03     0.05  -0.11  -0.04     0.00   0.09   0.05
   7   6     0.07  -0.10  -0.04     0.05  -0.10  -0.04     0.03   0.07   0.03
   8   8    -0.01  -0.02   0.05    -0.03   0.02   0.10     0.07  -0.01  -0.07
   9   6    -0.01   0.06   0.03    -0.03   0.05   0.04     0.06  -0.02  -0.06
  10   6    -0.00   0.11  -0.00    -0.07   0.08  -0.00     0.07   0.00  -0.08
  11   6    -0.00   0.13  -0.00    -0.08   0.05  -0.03     0.07   0.06  -0.11
  12   6    -0.01   0.10   0.04    -0.05  -0.01  -0.02     0.06   0.08  -0.12
  13   6    -0.03   0.06   0.06    -0.01  -0.01   0.00     0.05   0.04  -0.09
  14   6    -0.03   0.05   0.06    -0.01   0.02   0.04     0.05  -0.00  -0.07
  15   6    -0.03   0.06   0.05     0.04   0.04   0.03     0.03  -0.03  -0.05
  16   6    -0.04   0.07   0.03     0.08   0.10   0.05     0.03  -0.08  -0.01
  17   6    -0.04   0.14  -0.02     0.14   0.18  -0.02     0.02  -0.16   0.05
  18   6    -0.04   0.18  -0.05     0.16   0.19  -0.09     0.01  -0.17   0.06
  19   6    -0.04   0.15  -0.01     0.13   0.10  -0.08     0.02  -0.09   0.01
  20   6    -0.03   0.08   0.04     0.07   0.03  -0.02     0.03  -0.02  -0.04
  21   7    -0.03   0.05   0.07     0.03  -0.03  -0.02     0.03   0.05  -0.09
  22   6    -0.03   0.02   0.05     0.02  -0.04  -0.02     0.02   0.03  -0.04
  23   6     0.01   0.00  -0.03     0.01  -0.03  -0.03     0.04   0.02  -0.04
  24   6     0.01  -0.03  -0.07    -0.01  -0.01   0.02     0.03  -0.00  -0.00
  25   7     0.02  -0.03  -0.10    -0.05   0.01   0.03     0.04  -0.00   0.01
  26   6    -0.01  -0.05  -0.08    -0.05   0.00   0.04     0.01  -0.01   0.01
  27   6    -0.04  -0.10  -0.10    -0.06   0.00   0.02    -0.01  -0.02  -0.00
  28   6    -0.08  -0.11  -0.07    -0.09   0.02   0.01    -0.06   0.00  -0.02
  29   6    -0.10  -0.09  -0.03    -0.11   0.04   0.00    -0.08   0.03  -0.02
  30   6    -0.07  -0.05  -0.01    -0.08   0.03   0.03    -0.06   0.04   0.00
  31   6    -0.02  -0.04  -0.03    -0.05   0.01   0.04    -0.01   0.02   0.02
  32   6     0.00  -0.01  -0.03    -0.06   0.03   0.03    -0.00   0.04   0.01
  33   6     0.01   0.02   0.00    -0.05   0.01   0.02    -0.01   0.06   0.00
  34   8    -0.00  -0.01   0.06     0.02  -0.06   0.04     0.04   0.01   0.04
  35   6     0.00  -0.01   0.06     0.01  -0.08  -0.08     0.03  -0.05  -0.02
  36   6    -0.01  -0.02   0.00     0.00  -0.09  -0.07    -0.00  -0.06  -0.05
  37   6    -0.05  -0.02  -0.06    -0.02  -0.11  -0.08    -0.02  -0.08  -0.06
  38   6    -0.05  -0.02  -0.07     0.03  -0.09  -0.00     0.01  -0.07  -0.01
  39   6     0.01  -0.02  -0.02     0.09  -0.06   0.09     0.05  -0.05   0.04
  40   6     0.06  -0.01   0.01     0.10  -0.06   0.16     0.09  -0.05   0.11
  41   6     0.13  -0.05   0.16     0.06  -0.04   0.09     0.12  -0.06   0.15
  42   6     0.05  -0.02   0.02     0.09  -0.04   0.08     0.04  -0.04   0.03
  43   6     0.03  -0.02   0.03     0.05  -0.05   0.00     0.01  -0.05  -0.02
  44   6     0.02   0.07  -0.02    -0.11   0.05  -0.03    -0.05   0.13  -0.05
  45   6     0.04   0.08  -0.06    -0.15   0.10  -0.06    -0.06   0.16  -0.08
  46   6     0.05   0.04  -0.08    -0.13   0.08  -0.03    -0.02   0.10  -0.05
  47   6     0.03  -0.00  -0.07    -0.07   0.04   0.01     0.01   0.04  -0.01
  48   6    -0.01  -0.04  -0.03     0.01   0.00   0.04     0.01  -0.01   0.03
  49   6    -0.01  -0.03  -0.05     0.02   0.04   0.02     0.01  -0.03   0.03
  50   7    -0.01   0.01  -0.06     0.04   0.09  -0.01     0.02  -0.06   0.01
  51   6    -0.04  -0.03   0.03     0.03  -0.01   0.05    -0.02  -0.00   0.04
  52   7    -0.05  -0.03   0.03     0.04  -0.00   0.08    -0.04  -0.01   0.06
  53   6    -0.01  -0.05   0.02     0.02  -0.01   0.05    -0.04  -0.02   0.05
  54   6     0.01  -0.10   0.03     0.03   0.00   0.07    -0.04  -0.04   0.05
  55   6     0.06  -0.11   0.03    -0.00  -0.02   0.02    -0.03  -0.06   0.03
  56   6     0.09  -0.07   0.02    -0.05  -0.05  -0.03    -0.02  -0.05   0.01
  57   6     0.08  -0.03   0.01    -0.05  -0.06  -0.04    -0.02  -0.03   0.01
  58   6     0.03  -0.02   0.01    -0.01  -0.04   0.01    -0.03  -0.02   0.03
  59   6     0.02   0.02   0.02    -0.01  -0.05   0.00    -0.05  -0.01   0.01
  60   6     0.04   0.06   0.02    -0.03  -0.07  -0.03    -0.05   0.01  -0.02
  61   8     0.04   0.04  -0.04    -0.02  -0.07  -0.02     0.00   0.02  -0.02
  62   6     0.01   0.02  -0.09     0.02  -0.02   0.03     0.01   0.06  -0.05
  63   6     0.03  -0.07  -0.01    -0.01   0.05  -0.01     0.01   0.06  -0.03
  64   6     0.03  -0.15   0.05    -0.03   0.17  -0.09    -0.00   0.06  -0.04
  65   6     0.02  -0.17   0.09    -0.04   0.19  -0.12     0.00   0.04  -0.01
  66   6     0.01  -0.10   0.06    -0.01   0.11  -0.06     0.02   0.01   0.02
  67   6    -0.04  -0.01   0.06     0.01   0.07  -0.07     0.02  -0.00   0.04
  68   6    -0.19   0.19  -0.26     0.10  -0.05   0.12    -0.00   0.07  -0.08
  69   6     0.03  -0.06   0.04     0.00   0.02   0.01     0.03   0.00   0.02
  70   6     0.04  -0.04  -0.00     0.01  -0.01   0.03     0.02   0.03  -0.00
  71   6     0.05   0.11   0.07    -0.05  -0.09  -0.06    -0.09   0.01  -0.05
  72   6     0.01   0.10   0.09    -0.03  -0.08  -0.04    -0.12  -0.00  -0.06
  73   6    -0.03   0.05   0.05     0.00  -0.04   0.02    -0.11  -0.01  -0.02
  74   6    -0.02   0.01   0.03     0.01  -0.03   0.03    -0.06  -0.02   0.02
  75   6    -0.06  -0.00   0.08     0.04  -0.03   0.01    -0.01   0.02   0.01
  76   6     0.09  -0.03  -0.01     0.09  -0.03  -0.04    -0.06  -0.04   0.14
  77   6     0.06  -0.00   0.00     0.08   0.01  -0.04    -0.11  -0.14   0.19
[...]
   8   8    -0.00   0.00  -0.00     0.00  -0.00   0.00    -0.00  -0.00   0.00
   9   6    -0.00  -0.00  -0.00    -0.00   0.00   0.00     0.00  -0.00  -0.00
  10   6    -0.00   0.00   0.00    -0.00  -0.00  -0.00     0.00   0.00   0.00
  11   6     0.00  -0.00  -0.00     0.00  -0.00  -0.00    -0.00   0.00   0.00
  12   6     0.01  -0.00  -0.00    -0.00   0.00   0.00    -0.00   0.00   0.00
  13   6     0.00   0.00   0.00    -0.00  -0.00  -0.00    -0.00  -0.00  -0.00
  14   6     0.00  -0.00   0.00     0.00  -0.00  -0.00    -0.00   0.00   0.00
  15   6    -0.00   0.00   0.00     0.00  -0.00  -0.00    -0.00   0.00   0.00
  16   6     0.00   0.00   0.00    -0.00  -0.00  -0.00     0.00   0.00   0.00
  17   6     0.00  -0.00  -0.00    -0.00   0.00   0.00     0.00  -0.00  -0.00
  18   6    -0.00  -0.00  -0.00     0.00   0.00   0.00    -0.00  -0.00  -0.00
  19   6    -0.00  -0.00  -0.00    -0.00  -0.00  -0.00    -0.00  -0.00  -0.00
  20   6     0.00  -0.00  -0.00    -0.00   0.00   0.00    -0.00  -0.00  -0.00
  21   7     0.00   0.00  -0.00     0.00  -0.00   0.00    -0.00   0.00  -0.00
  22   6    -0.01  -0.00  -0.00    -0.00   0.00  -0.00     0.00  -0.00   0.00
  23   6    -0.01   0.02  -0.00    -0.00   0.00  -0.00     0.00  -0.00   0.00
  24   6     0.00   0.00   0.00     0.00   0.00   0.00    -0.00  -0.00   0.00
  25   7     0.00   0.00   0.00    -0.00  -0.00  -0.00     0.00   0.00  -0.00
  26   6     0.00   0.00   0.00    -0.00   0.00   0.00     0.00   0.00   0.00
  27   6     0.00   0.00   0.00     0.00   0.00  -0.00     0.00   0.00  -0.00
  28   6    -0.00   0.00   0.00    -0.00   0.00   0.00     0.00   0.00  -0.00
  29   6     0.00   0.00   0.00     0.00   0.00   0.00    -0.00  -0.00  -0.00
  30   6     0.00   0.00  -0.00     0.00   0.00  -0.00    -0.00  -0.00   0.00
  31   6     0.00  -0.00  -0.00     0.00  -0.00  -0.00    -0.00  -0.00  -0.00
  32   6    -0.00  -0.00   0.00    -0.00  -0.00  -0.00     0.00   0.00  -0.00
  33   6     0.00   0.00   0.00     0.00   0.00   0.00    -0.00  -0.00  -0.00
  34   8    -0.00  -0.00  -0.00    -0.00  -0.00  -0.00     0.00   0.00   0.00
  35   6     0.00   0.00  -0.00     0.00   0.00  -0.00    -0.00  -0.00   0.00
  36   6     0.00  -0.00   0.00    -0.00  -0.00   0.00     0.00   0.00  -0.00
  37   6    -0.00  -0.00   0.00    -0.00  -0.00   0.00     0.00   0.00  -0.00
  38   6    -0.00   0.00   0.00    -0.00  -0.00   0.00     0.00   0.00  -0.00
  39   6    -0.00   0.00   0.00    -0.00   0.00   0.00     0.00  -0.01   0.00
  40   6     0.00   0.00  -0.00     0.00   0.00  -0.00     0.00   0.00  -0.00
  41   6    -0.00  -0.00   0.00    -0.02  -0.02   0.00    -0.00  -0.05  -0.00
  42   6    -0.00  -0.00   0.00     0.01   0.01  -0.01    -0.13  -0.17   0.16
  43   6     0.00  -0.00  -0.00     0.00  -0.00  -0.00    -0.03   0.02   0.03
  44   6     0.03   0.01  -0.01     0.01   0.00  -0.01    -0.01  -0.00   0.01
  45   6     0.00  -0.00  -0.01     0.00  -0.00  -0.00    -0.00   0.00   0.00
  46   6    -0.00  -0.00  -0.00    -0.00  -0.00  -0.00     0.00   0.00   0.00
  47   6    -0.00   0.00   0.00     0.00  -0.00  -0.00     0.00   0.00  -0.00
  48   6     0.00   0.00   0.00    -0.00  -0.00   0.00    -0.00   0.00  -0.00
  49   6    -0.00  -0.00  -0.00     0.00  -0.00   0.00     0.00   0.00   0.00
  50   7    -0.00   0.00  -0.00    -0.00   0.00   0.00    -0.00  -0.00  -0.00
  51   6     0.00  -0.01   0.00    -0.00   0.00  -0.00    -0.00  -0.00  -0.00
  52   7    -0.00   0.00   0.00     0.00  -0.00   0.00    -0.00   0.00  -0.00
  53   6     0.00   0.00  -0.00     0.00   0.00  -0.00    -0.00  -0.00   0.00
  54   6    -0.01   0.01   0.00    -0.00   0.00   0.00     0.00  -0.00  -0.00
  55   6     0.00  -0.00  -0.00    -0.00  -0.00   0.00     0.00   0.00  -0.00
  56   6     0.00   0.00  -0.00    -0.00  -0.00   0.00     0.00   0.00  -0.00
  57   6    -0.01   0.02   0.00     0.01  -0.01  -0.00    -0.00   0.00   0.00
  58   6    -0.00  -0.00   0.00     0.00  -0.00  -0.00    -0.00  -0.00   0.00
  59   6     0.00  -0.00  -0.00    -0.00   0.00   0.00    -0.00   0.00   0.00
  60   6     0.00   0.00  -0.00     0.00  -0.01   0.00     0.00  -0.00   0.00
  61   8     0.00  -0.00   0.00     0.00   0.00  -0.00     0.00  -0.00  -0.00
  62   6    -0.00  -0.00  -0.00     0.00  -0.00  -0.00    -0.00   0.00  -0.00
  63   6    -0.00  -0.00  -0.00    -0.00  -0.00   0.00    -0.00  -0.00  -0.00
  64   6    -0.00   0.00   0.00    -0.00   0.00   0.00    -0.00  -0.00   0.00
  65   6     0.00  -0.00  -0.00    -0.00  -0.00  -0.00    -0.00   0.00   0.00
  66   6     0.00  -0.00   0.00     0.00  -0.00  -0.00     0.00  -0.00   0.00
  67   6    -0.00   0.00   0.00    -0.00   0.00   0.00    -0.00   0.00   0.00
  68   6    -0.00  -0.00  -0.00     0.00  -0.00  -0.00     0.00  -0.00  -0.00
  69   6    -0.00  -0.00   0.00    -0.00   0.00   0.00    -0.00  -0.00   0.00
  70   6     0.00   0.00   0.00     0.00   0.00   0.00    -0.00   0.00   0.00
  71   6     0.00  -0.00  -0.00     0.22  -0.09  -0.08     0.00  -0.00  -0.00
  72   6    -0.00  -0.00   0.00     0.06   0.05  -0.06     0.00   0.00  -0.00
  73   6     0.00  -0.00   0.00    -0.02   0.06  -0.02    -0.00   0.00  -0.00
  74   6    -0.00   0.00  -0.00    -0.00   0.00   0.00    -0.00   0.00   0.00
  75   6    -0.13  -0.23  -0.03     0.00   0.00   0.00     0.00   0.00   0.00
  76   6    -0.00   0.00   0.00    -0.00   0.00   0.00    -0.00   0.00   0.00
  77   6     0.00  -0.00  -0.00    -0.00   0.00   0.00    -0.00   0.00   0.00
  78   1    -0.00   0.00  -0.00    -0.00   0.00   0.00     0.00  -0.00   0.00
  79   1     0.00   0.00   0.00    -0.00  -0.00  -0.00     0.00   0.00   0.00
  80   1    -0.00   0.00  -0.00     0.00  -0.00   0.00    -0.00   0.00  -0.00
  81   1    -0.00   0.00   0.00     0.00  -0.00  -0.00    -0.00   0.00   0.00
  82   1    -0.00   0.00   0.00     0.00  -0.00  -0.00    -0.00   0.00   0.00
  83   1     0.00  -0.00  -0.00     0.00  -0.00  -0.00    -0.00   0.00   0.00
  84   1    -0.00   0.00  -0.00    -0.00   0.00   0.00     0.00  -0.00  -0.00
  85   1    -0.00  -0.00  -0.00     0.00   0.00   0.00    -0.00  -0.00  -0.00
  86   1    -0.00   0.00   0.00    -0.00   0.00   0.00     0.00  -0.00  -0.00
  87   1    -0.05   0.00   0.01     0.00  -0.00  -0.00     0.00  -0.00  -0.00
  88   1    -0.00  -0.00  -0.00     0.00   0.00   0.00    -0.00  -0.00  -0.00
  89   1    -0.00   0.00   0.00     0.00  -0.00  -0.00    -0.00   0.00   0.00
  90   1     0.00   0.00   0.00    -0.00  -0.00  -0.00     0.00   0.00   0.00
  91   1     0.00   0.00   0.00     0.00   0.00   0.00     0.00   0.00   0.00
  92   1     0.03  -0.06   0.01     0.00  -0.00   0.00    -0.00   0.00  -0.00
  93   1    -0.00  -0.00   0.00    -0.00  -0.00   0.00    -0.00  -0.00   0.00
  94   1     0.00  -0.00  -0.00     0.00  -0.00  -0.00    -0.00   0.00   0.00
  95   1    -0.00  -0.00  -0.00    -0.00  -0.00  -0.00     0.00   0.00   0.00
  96   1    -0.01  -0.01   0.00    -0.00  -0.00   0.00     0.00   0.00  -0.00
  97   1    -0.00  -0.00   0.00    -0.00  -0.00   0.00     0.00   0.00  -0.00
  98   1    -0.00   0.00   0.00     0.00   0.00   0.00     0.00   0.00   0.00
  99   1     0.00   0.00  -0.00     0.00   0.00  -0.00    -0.00  -0.00   0.00
 100   1     0.00  -0.00  -0.00     0.00  -0.00  -0.00    -0.00   0.00   0.00
 101   1    -0.00   0.00   0.00     0.00  -0.00  -0.00    -0.00   0.00   0.00
 102   1     0.02  -0.00  -0.00     0.09  -0.02  -0.02     0.05  -0.02  -0.01
 103   1    -0.00   0.01   0.00    -0.02   0.07   0.01    -0.04   0.17   0.02
 104   1     0.00   0.00  -0.00    -0.02  -0.02   0.02     0.46   0.59  -0.55
 105   1    -0.00   0.00   0.00    -0.01   0.00   0.01     0.10  -0.04  -0.08
 106   1    -0.10  -0.04   0.05    -0.04  -0.01   0.02     0.05   0.02  -0.02
 107   1    -0.01   0.01   0.03    -0.01   0.01   0.01     0.01  -0.01  -0.01
 108   1     0.00   0.00   0.00     0.00   0.00   0.00    -0.00  -0.00  -0.00
 109   1     0.02  -0.03  -0.00     0.01  -0.01  -0.00    -0.00   0.00   0.00
 110   1    -0.00  -0.00   0.00     0.01   0.00  -0.01    -0.00  -0.00   0.00
 111   1    -0.00  -0.01   0.01     0.00   0.01  -0.01    -0.00  -0.00   0.00
 112   1     0.05  -0.05  -0.00    -0.03   0.03   0.00     0.00  -0.00  -0.00
 113   1    -0.00  -0.00   0.00    -0.00  -0.00   0.00    -0.00  -0.00   0.00
 114   1    -0.00   0.00   0.00    -0.00  -0.00   0.01    -0.00  -0.00   0.00
 115   1     0.00  -0.00  -0.00     0.01  -0.00  -0.00     0.00  -0.00  -0.00
 116   1    -0.00   0.00   0.00    -0.00   0.00   0.00     0.00  -0.00  -0.01
 117   1     0.00  -0.00  -0.00     0.00  -0.00  -0.00     0.00  -0.00  -0.00
 118   1    -0.00   0.00   0.00    -0.01   0.01   0.00    -0.01   0.00   0.00
 119   1     0.00   0.00   0.00     0.01   0.00   0.00    -0.00  -0.00  -0.00
 120   1     0.00  -0.00  -0.00     0.01  -0.00  -0.00     0.00  -0.00  -0.00
 121   1    -0.00  -0.00  -0.00     0.00  -0.01  -0.01     0.00  -0.00  -0.00
 122   1    -0.01   0.00   0.00    -0.76   0.33   0.28    -0.02   0.01   0.01
 123   1     0.00   0.00  -0.00    -0.19  -0.15   0.21    -0.01  -0.01   0.01
 124   1    -0.00   0.01  -0.00     0.05  -0.18   0.07     0.00  -0.01   0.00
 125   1     0.46   0.82   0.12    -0.00  -0.01  -0.00    -0.00  -0.00  -0.00
 126   1     0.00  -0.00  -0.00     0.00  -0.00  -0.00     0.00  -0.00  -0.00
 127   1    -0.00   0.00   0.00     0.00  -0.00  -0.00     0.00  -0.00  -0.00
                    373                    374                    375
                        a                      a                      a 
 Frequencies --  3130.6979              3132.3608              3139.1616
 Red. masses --     2.1042                 2.0993                 2.0963
 Frc consts  --     0.0000                 0.0000                 0.0000
 IR Inten    --    38.1311                54.6133                21.8793
 Raman Activ --     0.0000                 0.0000                 0.0000
 Depolar     --     0.0000                 0.0000                 0.0000
 Atom AN      X      Y      Z        X      Y      Z        X      Y      Z
   1   6     0.26  -0.11   0.13    -0.00   0.00  -0.00     0.00  -0.00   0.00
   2   6     0.03  -0.03   0.01    -0.00   0.00  -0.00     0.00  -0.00   0.00
   3   6    -0.00  -0.00  -0.00     0.00   0.00   0.00    -0.00   0.00   0.00
   4   6     0.00  -0.01  -0.01    -0.00   0.00   0.00    -0.00   0.00   0.00
   5   6     0.00  -0.00  -0.00    -0.00   0.00   0.00    -0.00   0.00   0.00
   6   6    -0.00   0.00   0.00     0.00  -0.00  -0.00    -0.00   0.00  -0.00
   7   6    -0.00  -0.00  -0.00    -0.00  -0.00  -0.00    -0.00  -0.00  -0.00
   8   8    -0.00  -0.00   0.00     0.00   0.00  -0.00     0.00   0.00  -0.00
   9   6     0.00  -0.00  -0.00    -0.00   0.00   0.00    -0.00  -0.00   0.00
  10   6    -0.00  -0.00  -0.00    -0.00  -0.00  -0.00    -0.00  -0.00  -0.00
  11   6     0.00  -0.00  -0.00     0.00  -0.00  -0.00     0.00  -0.00  -0.00
  12   6     0.00  -0.00  -0.00    -0.00   0.00   0.00     0.00   0.00   0.00
  13   6     0.00   0.00   0.00    -0.00  -0.00  -0.00    -0.00  -0.00  -0.00
  14   6    -0.00   0.00   0.00     0.00  -0.00  -0.00     0.00  -0.00  -0.00
  15   6    -0.00  -0.00  -0.00     0.00   0.00   0.00     0.00   0.00   0.00
  16   6    -0.00  -0.00  -0.00    -0.00  -0.00  -0.00    -0.00  -0.00  -0.00
  17   6    -0.00   0.00   0.00    -0.00   0.00   0.00    -0.00   0.00   0.00
  18   6     0.00   0.00   0.00     0.00   0.00   0.00    -0.00   0.00   0.00
  19   6     0.00   0.00   0.00    -0.00  -0.00  -0.00    -0.00  -0.00  -0.00
  20   6     0.00  -0.00  -0.00    -0.00   0.00   0.00    -0.00   0.00   0.00
  21   7    -0.00   0.00   0.00     0.00  -0.00   0.00     0.00   0.00   0.00
  22   6     0.00  -0.00   0.00    -0.00   0.00  -0.00    -0.00  -0.00  -0.00
  23   6     0.00  -0.00   0.00    -0.00   0.00  -0.00    -0.00   0.00  -0.00
  24   6     0.00  -0.00   0.00    -0.00   0.00  -0.00    -0.00  -0.00  -0.00
  25   7    -0.00  -0.00  -0.00     0.00  -0.00  -0.00     0.00   0.00  -0.00
  26   6     0.00   0.00   0.00    -0.00   0.00   0.00     0.00  -0.00  -0.00
  27   6    -0.00  -0.00  -0.00    -0.00  -0.00   0.00    -0.00  -0.00   0.00
  28   6     0.00  -0.00  -0.00    -0.00   0.00   0.00    -0.00   0.00   0.00
  29   6    -0.00  -0.00  -0.00     0.00   0.00   0.00     0.00   0.00   0.00
  30   6    -0.00  -0.00   0.00     0.00   0.00  -0.00    -0.00  -0.00   0.00
  31   6    -0.00  -0.00   0.00    -0.00  -0.00  -0.00    -0.00   0.00   0.00
  32   6    -0.00  -0.00  -0.00     0.00   0.00   0.00     0.00   0.00   0.00
  33   6     0.00   0.00   0.00    -0.00  -0.00  -0.00    -0.00  -0.00  -0.00
  34   8    -0.00  -0.00  -0.00     0.00  -0.00   0.00     0.00   0.00   0.00
  35   6     0.00  -0.00   0.00     0.00   0.00  -0.00    -0.00   0.00  -0.00
  36   6     0.00  -0.00   0.00    -0.00   0.00   0.00    -0.00  -0.00   0.00
  37   6    -0.00  -0.00   0.00     0.00   0.00  -0.00     0.00   0.00  -0.00
  38   6    -0.00   0.00   0.00     0.00  -0.00  -0.00     0.00  -0.00  -0.00
  39   6    -0.00   0.00  -0.00    -0.00   0.00  -0.00    -0.00   0.00  -0.00
  40   6    -0.00   0.00   0.00     0.00  -0.00  -0.00     0.03  -0.01  -0.01
  41   6     0.00  -0.00  -0.00     0.02  -0.02  -0.00     0.21  -0.22  -0.06
  42   6    -0.00  -0.00   0.00     0.00   0.00  -0.00     0.01   0.02  -0.02
  43   6    -0.00   0.00   0.00     0.00  -0.00  -0.00     0.00  -0.00  -0.00
  44   6    -0.00  -0.00  -0.00     0.00   0.00  -0.00    -0.00  -0.00   0.00
  45   6    -0.00   0.00   0.00     0.00  -0.00  -0.00    -0.00   0.00   0.00
  46   6     0.00   0.00   0.00    -0.00  -0.00  -0.00    -0.00  -0.00  -0.00
  47   6     0.00  -0.00   0.00    -0.00  -0.00   0.00    -0.00  -0.00   0.00
  48   6    -0.00   0.00  -0.00     0.00  -0.00   0.00    -0.00   0.00   0.00
  49   6     0.00  -0.00   0.00    -0.00   0.00  -0.00     0.00   0.00   0.00
  50   7    -0.00   0.00  -0.00     0.00  -0.00   0.00     0.00  -0.00  -0.00
  51   6     0.00  -0.00   0.00    -0.00   0.00  -0.00     0.00  -0.00   0.00
  52   7    -0.00   0.00  -0.00     0.00  -0.00  -0.00    -0.00   0.00  -0.00
  53   6    -0.00  -0.00   0.00     0.00   0.00  -0.00    -0.00  -0.00   0.00
  54   6    -0.00   0.00  -0.00    -0.00   0.00   0.00     0.00  -0.00  -0.00
  55   6    -0.00  -0.00   0.00    -0.00  -0.00   0.00     0.00  -0.00  -0.00
  56   6     0.00   0.00  -0.00    -0.00  -0.00   0.00    -0.00  -0.00   0.00
  57   6    -0.00   0.00   0.00     0.00  -0.00   0.00     0.00  -0.00  -0.00
  58   6    -0.00   0.00   0.00    -0.00   0.00   0.00     0.00   0.00  -0.00
  59   6     0.00  -0.00  -0.00     0.00  -0.00   0.00    -0.00   0.00  -0.00
  60   6    -0.00   0.00  -0.00    -0.00   0.00  -0.00     0.00  -0.00   0.00
  61   8     0.00  -0.00  -0.00     0.00  -0.00   0.00    -0.00   0.00  -0.00
  62   6    -0.00   0.00   0.00    -0.00  -0.00  -0.00     0.00   0.00  -0.00
  63   6    -0.00  -0.00   0.00    -0.00   0.00   0.00    -0.00  -0.00  -0.00
  64   6    -0.00   0.00   0.00     0.00  -0.00  -0.00    -0.00  -0.00  -0.00
  65   6     0.00  -0.00  -0.00     0.00  -0.01  -0.02    -0.00   0.00   0.00
  66   6    -0.00  -0.00  -0.00    -0.00  -0.00  -0.00     0.00  -0.00   0.00
  67   6     0.00  -0.00  -0.00     0.04  -0.01  -0.01    -0.00   0.00   0.00
  68   6     0.00  -0.00  -0.00     0.31  -0.00  -0.02    -0.03   0.00   0.00
  69   6    -0.00   0.00   0.00     0.00  -0.00  -0.00     0.00  -0.00  -0.00
  70   6    -0.00   0.00   0.00     0.00  -0.00  -0.00    -0.00  -0.00   0.00
  71   6    -0.00   0.00   0.00    -0.00   0.00   0.00     0.00  -0.00  -0.00
  72   6    -0.00  -0.00   0.00    -0.00  -0.00   0.00    -0.00  -0.00   0.00
  73   6     0.00  -0.00   0.00    -0.00   0.00  -0.00     0.00  -0.00   0.00
  74   6     0.00   0.00   0.00    -0.00   0.00   0.00     0.00  -0.00  -0.00
  75   6    -0.00  -0.00  -0.00    -0.00  -0.00  -0.00    -0.00  -0.00  -0.00
  76   6     0.00  -0.00  -0.00     0.00  -0.00  -0.00     0.00  -0.00  -0.00
  77   6     0.00  -0.00  -0.00    -0.00   0.00   0.00     0.00  -0.00  -0.00
  78   1    -0.43   0.49  -0.01     0.00  -0.00   0.00    -0.00   0.00  -0.00
  79   1    -0.49  -0.09  -0.45     0.00   0.00   0.00    -0.00  -0.00  -0.00
  80   1    -0.08   0.07  -0.01     0.00  -0.00   0.00    -0.00   0.00  -0.00
  81   1    -0.02   0.03   0.05     0.00  -0.00  -0.00     0.00  -0.00  -0.00
  82   1    -0.00   0.00   0.00     0.00  -0.00  -0.00     0.00  -0.00  -0.00
  83   1     0.00  -0.00  -0.00     0.00  -0.00  -0.00     0.00  -0.00  -0.00
  84   1    -0.00   0.00   0.00    -0.00   0.00   0.00    -0.00   0.00   0.00
  85   1     0.00   0.00   0.00     0.00   0.00   0.00     0.00   0.00   0.00
  86   1    -0.00   0.00   0.00    -0.00   0.00   0.00    -0.00   0.00   0.00
  87   1    -0.00   0.00   0.00     0.00  -0.00  -0.00    -0.00  -0.00   0.00
  88   1     0.00   0.00   0.00     0.00   0.00   0.00     0.00   0.00   0.00
  89   1     0.00  -0.00  -0.00     0.00  -0.00  -0.00     0.00  -0.00  -0.00
  90   1    -0.00  -0.00  -0.00    -0.00  -0.00  -0.00    -0.00  -0.00  -0.00
  91   1    -0.00  -0.00  -0.00     0.00   0.00   0.00     0.00   0.00   0.00
  92   1    -0.00   0.00  -0.00     0.00  -0.00   0.00     0.00  -0.00   0.00
  93   1     0.00   0.00   0.00     0.00   0.00  -0.00     0.00   0.00  -0.00
  94   1    -0.00   0.00   0.00     0.00  -0.00  -0.00     0.00  -0.00  -0.00
  95   1     0.00   0.00   0.00    -0.00  -0.00  -0.00    -0.00  -0.00  -0.00
  96   1     0.00   0.00   0.00    -0.00  -0.00   0.00     0.00   0.00  -0.00
  97   1     0.00   0.00  -0.00    -0.00  -0.00   0.00    -0.00  -0.00   0.00
  98   1    -0.00   0.00   0.00    -0.00  -0.00  -0.00    -0.00  -0.00  -0.00
  99   1     0.00   0.00  -0.00    -0.00  -0.00   0.00    -0.00  -0.00   0.00
 100   1     0.00  -0.00  -0.00    -0.00   0.00   0.00    -0.01   0.00   0.01
 101   1     0.00  -0.00  -0.00    -0.00   0.00   0.00    -0.08   0.02   0.02
 102   1    -0.00   0.00   0.00    -0.05   0.01   0.01    -0.59   0.11   0.14
 103   1    -0.00   0.00   0.00    -0.01   0.05   0.01    -0.15   0.68   0.07
 104   1     0.00   0.00  -0.00    -0.01  -0.01   0.01    -0.05  -0.06   0.06
 105   1     0.00  -0.00  -0.00    -0.00  -0.00   0.00    -0.00   0.00   0.00
 106   1     0.00   0.00  -0.00    -0.00  -0.00   0.00     0.00   0.00  -0.00
 107   1     0.00  -0.00  -0.00    -0.00   0.00   0.00     0.00  -0.00  -0.00
 108   1    -0.00  -0.00  -0.00     0.00   0.00   0.00     0.00   0.00   0.00
 109   1     0.00  -0.00   0.00     0.00  -0.00  -0.00    -0.00   0.00   0.00
 110   1     0.00   0.00  -0.00     0.00   0.00  -0.00    -0.00  -0.00   0.00
 111   1    -0.00  -0.00   0.00     0.00   0.00  -0.00    -0.00   0.00  -0.00
 112   1     0.00  -0.00  -0.00    -0.00  -0.00   0.00    -0.00   0.00   0.00
 113   1     0.00  -0.00   0.00     0.00   0.00  -0.00     0.00  -0.00   0.00
 114   1     0.00  -0.00  -0.00     0.00   0.00   0.00    -0.00  -0.00  -0.00
 115   1     0.00  -0.00  -0.00    -0.00   0.00   0.00    -0.00   0.00   0.00
 116   1    -0.00   0.00   0.00    -0.01   0.04   0.06     0.00  -0.01  -0.01
 117   1    -0.00   0.00   0.00    -0.09   0.03   0.03     0.01  -0.00  -0.00
 118   1    -0.01   0.00   0.00    -0.59   0.32   0.22     0.05  -0.03  -0.02
 119   1    -0.00  -0.00  -0.00    -0.52  -0.30  -0.16     0.04   0.02   0.01
 120   1     0.00  -0.00  -0.00    -0.01   0.00   0.01    -0.00   0.00   0.00
 121   1     0.00  -0.00  -0.00    -0.00   0.00   0.00    -0.00  -0.00  -0.00
 122   1     0.00  -0.00  -0.00     0.00  -0.00  -0.00    -0.01   0.00   0.00
 123   1     0.00   0.00  -0.00     0.00   0.00  -0.00     0.00   0.00  -0.00
 124   1    -0.00   0.00  -0.00     0.00  -0.00   0.00    -0.00   0.00  -0.00
 125   1     0.00   0.00   0.00     0.00   0.00   0.00     0.00   0.00   0.00
 126   1    -0.00   0.00   0.00    -0.00   0.00   0.00    -0.00   0.00   0.00
 127   1    -0.01   0.01   0.00     0.00  -0.00  -0.00    -0.00   0.00   0.00
