$hessian                                                                        
        0.6091273436  -0.0059869444  -0.0003698776  -0.2772199720   0.0366024996
        0.0002064600  -0.0398946775  -0.0782918005  -0.0001254392  -0.0260509629
        0.0293248192   0.0000655791  -0.0034192309  -0.0129266797  -0.0000250633
       -0.0121367066   0.0073447735   0.0000280698   0.0145576051   0.0069916380
       -0.0000017365   0.0007799286  -0.0221452430  -0.0000403419   0.0342169504
        0.0389779391   0.0000588923  -0.1717508540   0.0813608458   0.0002765265
       -0.0025250523  -0.0039632205  -0.0000034069   0.0016340100  -0.0002268220
        0.0000007643  -0.0009047957   0.0001222181   0.0000005438   0.0004329415
        0.0001642714  -0.0000005245  -0.0001492391  -0.0000686611  -0.0000003209
        0.0000449049   0.0000656462   0.0000002663   0.0000166102  -0.0000178858
       -0.0000004507  -0.0000893798  -0.0000333242   0.0000002850  -0.0000614266
        0.0000382866  -0.0000012534   0.0000888988  -0.0000880554   0.0000023523
       -0.0001329625   0.0000299723  -0.0000008266   0.0001100772   0.0000375714
       -0.0000006829  -0.0000672574  -0.0000219416  -0.0000000257   0.0000009158
       -0.0000860172   0.0000010204  -0.0000611165   0.0000282805   0.0000006617
        0.0011005682   0.0004984095  -0.0000011582  -0.0033004140   0.0014877046
        0.0000001523   0.0097044310   0.0000435733   0.0000055526  -0.0975321714
       -0.1051727168  -0.0001532655  -0.0165408040   0.0016193519   0.0000171998
       -0.0000785382   0.0000117949  -0.0000009078   0.0000177038  -0.0001297198
       -0.0000020034  -0.0000943649  -0.0003144006  -0.0000014017  -0.0197473617
        0.0247430044   0.0000634226   0.0000003010   0.0000038894  -0.0000008384
       -0.0000236023  -0.0000412525  -0.0000005196  -0.0000264424  -0.0000240495
       -0.0000005048  -0.0000380857   0.0000200863   0.0000010704  -0.0000102260
        0.0000298790   0.0000007951   0.0000224545  -0.0000077203   0.0000009353
       -0.0059869444   0.6763183565   0.0010871173  -0.0422097564  -0.0932443176
       -0.0000517628  -0.0244209505   0.0194066830   0.0000418025   0.0151972285
       -0.0117426500  -0.0000244931   0.0021975400   0.0049179585   0.0000089450
        0.0057704752  -0.0028645761  -0.0000112657  -0.0069903952  -0.0051499298
       -0.0000035360  -0.0043282449   0.0077682540   0.0000079579  -0.0073071579
       -0.0671941037  -0.0001323674   0.1548303830  -0.2754392268  -0.0005476781
       -0.0005447555   0.0015676585   0.0000023580  -0.0007892453  -0.0004047309
        0.0000027898   0.0004967582  -0.0000307145  -0.0000014361  -0.0001484598
       -0.0000655593  -0.0000002462   0.0001154976  -0.0000467105  -0.0000001751
       -0.0000016487  -0.0000632340  -0.0000003378  -0.0000538981   0.0000411201
       -0.0000001552   0.0000752090   0.0000383200   0.0000001491  -0.0000291994
        0.0000038031   0.0000000544  -0.0001002101   0.0000701775  -0.0000000735
        0.0000985914  -0.0000305579   0.0000000703  -0.0001010803  -0.0000410042
        0.0000006704   0.0000738100   0.0000457737   0.0000009813   0.0000050256
        0.0000782351  -0.0000000946   0.0000794193  -0.0000204077   0.0000009265
       -0.0007622816  -0.0001849030  -0.0000007060   0.0017648216  -0.0006035737
        0.0000019824  -0.0063550365  -0.0053237087  -0.0000246407  -0.1053389363
       -0.2470943081  -0.0003370757   0.0244218517  -0.0008640568  -0.0000195823
        0.0000428499   0.0001379269  -0.0000010718  -0.0002354871  -0.0003129956
        0.0000002018  -0.0002722826   0.0002703707   0.0000006754   0.0008189965
        0.0000241324  -0.0000006902   0.0000087316   0.0000015842  -0.0000002559
        0.0000153980   0.0000315727  -0.0000003998   0.0000119402   0.0000134175
       -0.0000001767   0.0000316272  -0.0000056915   0.0000005183  -0.0000014213
       -0.0000285312   0.0000007067  -0.0000787626   0.0000201474   0.0000003136
       -0.0003698776   0.0010871173   0.1150507559   0.0000664771  -0.0001040386
       -0.0483318066  -0.0000266256   0.0000811125   0.0023640240   0.0000433242
       -0.0000303546  -0.0063636791   0.0000042143   0.0000166386  -0.0004974402
        0.0000222003  -0.0000118451   0.0006976862  -0.0000242403  -0.0000139838
        0.0000282879  -0.0000042350   0.0000185727   0.0059474624  -0.0000371615
       -0.0001654579   0.0017442194   0.0004181925  -0.0004929520  -0.0450007674
        0.0000015754   0.0000031938  -0.0010489716  -0.0000029426   0.0000032005
       -0.0004662238   0.0000008223  -0.0000019301   0.0001650979  -0.0000006362
       -0.0000000773   0.0002987799   0.0000003158   0.0000003526  -0.0000250406
       -0.0000003327  -0.0000001722  -0.0000260385  -0.0000001976   0.0000001511
       -0.0000045870   0.0000003674   0.0000004986  -0.0000772773   0.0000000609
        0.0000003014   0.0000146324  -0.0000002598  -0.0000000770   0.0000681721
        0.0000004265  -0.0000003647   0.0000217922  -0.0000005979   0.0000006507
       -0.0000307684   0.0000005720   0.0000006446  -0.0000046483   0.0000002217
       -0.0000004935  -0.0000214802   0.0000001622   0.0000007568  -0.0000634063
        0.0000003524   0.0000023866  -0.0014278410   0.0000064387  -0.0000053349
        0.0005748338  -0.0000164816  -0.0000235669   0.0090613546  -0.0001568452
       -0.0003366387  -0.0347586402   0.0000574544  -0.0000064102   0.0019498477
       -0.0000004555  -0.0000002864   0.0001647459  -0.0000014991   0.0000010816
       -0.0008709991  -0.0000006497   0.0000013516  -0.0002991178   0.0000198662
       -0.0000247015   0.0011777254  -0.0000002368  -0.0000001715  -0.0000124292
       -0.0000001818   0.0000001756  -0.0000124027  -0.0000001294  -0.0000000004
       -0.0000048258   0.0000002832   0.0000001484   0.0000006517   0.0000002407
        0.0000000478   0.0000098217   0.0000000177   0.0000004746   0.0000084999
       -0.2772199720  -0.0422097564   0.0000664771   0.5958572514  -0.0077360528
       -0.0002656883  -0.1309859623  -0.0776465083  -0.0000972702   0.0315084531
       -0.0222260612  -0.0000674542   0.0039194319   0.0179764575   0.0000373949
        0.0113264018  -0.0068160594  -0.0000289458  -0.0121358340  -0.0057711782
        0.0000025522  -0.0016001540   0.0144492707   0.0000312256  -0.0212444617
       -0.0330834099  -0.0000563147  -0.0427920298   0.0747140886   0.0001726363
       -0.0038098434   0.0045605823  -0.0000011407  -0.0021437979  -0.0023105806
       -0.0000053582   0.0009360106   0.0007011584  -0.0000006616  -0.0004220726
       -0.0002085064   0.0000010552   0.0001279934   0.0000963690   0.0000000091
       -0.0000218407  -0.0000667138  -0.0000009440  -0.0000457619   0.0000621273
        0.0000003755   0.0000256941  -0.0000246085  -0.0000006186   0.0001207903
        0.0000098499   0.0000020851  -0.0001364922   0.0000077184  -0.0000032335
        0.0000796364  -0.0000156081   0.0000019520  -0.0001350704  -0.0000457306
        0.0000010075   0.0001549405   0.0000206542   0.0000003011   0.0000646001
        0.0001566239  -0.0000003905   0.0002308302  -0.0002294485  -0.0000004797
       -0.0020339369  -0.0013823511   0.0000025574   0.0053179376  -0.0016071401
       -0.0000014767  -0.0236638408  -0.0269976489  -0.0000422567  -0.0170651012
       -0.0029444885   0.0000056120  -0.1131681635   0.1155992890   0.0002340311
        0.0000404950   0.0003312974   0.0000019174  -0.0000537189  -0.0001129328
        0.0000006735   0.0001148909   0.0000478226  -0.0000006587  -0.0011100916
        0.0026743879   0.0000110739  -0.0000212972   0.0000364838   0.0000008330
        0.0000055670   0.0000288632   0.0000001580   0.0000272996   0.0000168384
        0.0000005121   0.0000202613  -0.0000234050  -0.0000006989  -0.0000118614
       -0.0000213501  -0.0000002759  -0.0000571807  -0.0000103436  -0.0000005727
        0.0366024996  -0.0932443176  -0.0001040386  -0.0077360528   0.6965989074
        0.0011065110  -0.1268565342  -0.3092071947  -0.0004428936   0.0135758317
       -0.0647766869  -0.0001424483   0.0061857270   0.0061213906   0.0000030148
        0.0068172181  -0.0061602807  -0.0000201462  -0.0073454764  -0.0028654509
        0.0000026983  -0.0005602103   0.0062580090   0.0000152547  -0.0153054465
       -0.0131824843  -0.0000016994   0.0197021564   0.0273913001   0.0000370163
        0.0010501464   0.0054427673   0.0000010713  -0.0026549292  -0.0000770385
       -0.0000022274   0.0017165109  -0.0004356206  -0.0000010967  -0.0007005275
       -0.0003555108   0.0000012708   0.0002826446   0.0000548468   0.0000000948
       -0.0000679612  -0.0001197967  -0.0000004959  -0.0000821726   0.0000354530
        0.0000006919   0.0001755501   0.0000629705  -0.0000005377   0.0000139929
       -0.0001515368   0.0000021004  -0.0002073120   0.0001669259  -0.0000028943
        0.0002315396  -0.0001313591   0.0000019808  -0.0002007925  -0.0000681045
        0.0000000368   0.0000627037   0.0000520137  -0.0000004908   0.0001937273
        0.0002492613  -0.0000007138   0.0001347601  -0.0000204778  -0.0000004764
       -0.0014352525  -0.0004651944   0.0000013141   0.0059624196  -0.0022661225
       -0.0000026232  -0.0215867178  -0.0087118253  -0.0000044972  -0.0263601683
       -0.0028347876   0.0000109710   0.1152157318  -0.2340597856  -0.0004317824
        0.0002195844  -0.0001759922   0.0000017805  -0.0000866592   0.0001158286
        0.0000000495  -0.0001559394   0.0002550932   0.0000001863   0.0030425630
       -0.0035585982  -0.0000277770  -0.0000387563   0.0000188405   0.0000011505
        0.0000239967   0.0000619865   0.0000005383   0.0000347987   0.0000380785
        0.0000006280   0.0000464018  -0.0000331406  -0.0000009199   0.0000435416
       -0.0000722306  -0.0000004412   0.0000468626   0.0000498637  -0.0000001600
        0.0002064600  -0.0000517628  -0.0483318066  -0.0002656883   0.0011065110
        0.1150549513  -0.0001972220  -0.0004768326  -0.0436144289   0.0000093053
       -0.0001094264   0.0016349674   0.0000091250  -0.0000060107   0.0047590907
        0.0000088313  -0.0000075652   0.0001216051  -0.0000063993  -0.0000028898
        0.0006978792  -0.0000017149   0.0000043866  -0.0002383919  -0.0000174513
        0.0000090253  -0.0049024952   0.0000636081  -0.0000056619   0.0004786978
        0.0000063208   0.0000053631   0.0021236318  -0.0000095258   0.0000014090
       -0.0000507619   0.0000058057  -0.0000044758   0.0001634346  -0.0000016262
       -0.0000005064  -0.0000309504   0.0000007252   0.0000010470   0.0000326594
       -0.0000005573  -0.0000003563   0.0000107971   0.0000001010  -0.0000001196
        0.0000147364   0.0000006322   0.0000007269  -0.0000010522   0.0000002658
       -0.0000004636  -0.0000025473  -0.0000004167  -0.0000001088   0.0000066256
        0.0000007827  -0.0000008287   0.0000232583  -0.0000005629   0.0000005687
       -0.0000047914  -0.0000001445   0.0000003544   0.0000104004   0.0000009843
        0.0000000687   0.0000137506  -0.0000003007   0.0000008852  -0.0000050066
        0.0000003480   0.0000018757   0.0000785966   0.0000029939  -0.0000039696
        0.0000245877  -0.0000296332  -0.0000055210  -0.0022768103  -0.0000381430
       -0.0000058410   0.0012113982   0.0002391573  -0.0004250776  -0.0349635285
       -0.0000009077   0.0000008568  -0.0007467824  -0.0000001730  -0.0000000920
        0.0000360325  -0.0000002836   0.0000007140  -0.0001659213   0.0000147844
       -0.0000261632   0.0088448915  -0.0000000663  -0.0000001876  -0.0000022826
       -0.0000000814   0.0000000377   0.0000075113  -0.0000000745  -0.0000001362
        0.0000154463   0.0000000856   0.0000000541   0.0000065628   0.0000002340
       -0.0000002037  -0.0000012936   0.0000004222   0.0000003162  -0.0000326614
       -0.0398946775  -0.0244209505  -0.0000266256  -0.1309859623  -0.1268565342
       -0.0001972220   0.5840985345   0.0935661152   0.0000540968  -0.1449735600
        0.1039184915   0.0002559173   0.0087484557   0.0067533321   0.0000054193
        0.0039210241  -0.0061859442  -0.0000088750  -0.0034199652  -0.0021981768
       -0.0000035573  -0.0050369354   0.0020050243   0.0000127257  -0.0308571707
        0.0187604623   0.0000542948   0.0068443011  -0.0011146625  -0.0000108936
       -0.0158170767  -0.0328368590  -0.0000478420   0.0080060342  -0.0005152873
       -0.0000055048  -0.0045736485  -0.0002732217   0.0000021230   0.0020719872
        0.0010438905   0.0000026022  -0.0003522418  -0.0005086627  -0.0000003578
        0.0002751935   0.0001104604   0.0000001721  -0.0000045278  -0.0001756895
        0.0000001634   0.0000458397   0.0001998932  -0.0000003116  -0.0005797660
        0.0001782945  -0.0000009148   0.0004104502   0.0002766761   0.0000022292
       -0.0004525208   0.0000552379   0.0000004141   0.0003186016   0.0001260387
       -0.0000022040  -0.0003283938  -0.0000563877  -0.0000021810   0.0001060548
       -0.0006447577   0.0000032884  -0.0019002970  -0.0001578519  -0.0000026823
        0.0042794523   0.0070805780   0.0000038641  -0.0503017675   0.0026170539
       -0.0000283999  -0.1912727077  -0.0539667799  -0.0000988166  -0.0062515412
       -0.0006397810   0.0000064350   0.0076478202   0.0135590007   0.0000308560
        0.0001473157  -0.0008815688  -0.0000019948  -0.0000769689  -0.0000252297
       -0.0000012612  -0.0007329961   0.0011859182   0.0000036857   0.0009431835
        0.0001813163   0.0000007496   0.0000376837  -0.0000039856  -0.0000005732
       -0.0000109573  -0.0000632952  -0.0000001299  -0.0000389154  -0.0000225953
       -0.0000000594  -0.0000610998   0.0000218022   0.0000007035  -0.0000165413
        0.0000659410   0.0000003637   0.0000383069  -0.0001573057   0.0000003027
       -0.0782918005   0.0194066830   0.0000811125  -0.0776465083  -0.3092071947
       -0.0004768326   0.0935661152   0.7149705606   0.0010674197   0.0848344988
       -0.2009748638  -0.0002950079  -0.0067481222  -0.0659031198  -0.0001293025
       -0.0179765443   0.0061198006   0.0000179790   0.0129261221   0.0049187823
       -0.0000009271   0.0003452847  -0.0094905083  -0.0000328115   0.0396619288
        0.0262420333   0.0000236842   0.0067189175  -0.0504495989  -0.0000915337
       -0.0211923718  -0.0287596395  -0.0000699715  -0.0024794789  -0.0090730173
       -0.0000129726   0.0006991603  -0.0008379091  -0.0000037295   0.0003046290
       -0.0000957792   0.0000043769  -0.0001352197   0.0000237382  -0.0000002921
       -0.0000984854   0.0001209122   0.0000001793   0.0000690348  -0.0001491532
        0.0000005222  -0.0000632085   0.0000855227  -0.0000008057   0.0000785772
       -0.0002769998   0.0000012396   0.0003434345   0.0000470282   0.0000014698
        0.0000897182  -0.0000383358   0.0000006908   0.0001771364   0.0002179748
       -0.0000011226  -0.0002480791  -0.0000356411  -0.0000013001   0.0000078748
       -0.0002899951  -0.0000002058   0.0005717723   0.0007667232   0.0000002046
        0.0063796774  -0.0000715421  -0.0000029183   0.0049107666   0.0140685543
        0.0000274663  -0.0369945846  -0.0844632763  -0.0000553542  -0.0001879400
        0.0010119889  -0.0000086716  -0.0098069503  -0.0266033867  -0.0000406980
        0.0004516656  -0.0011992992  -0.0000017760  -0.0000415648   0.0002237570
        0.0000019535  -0.0004724856   0.0000360374   0.0000025889   0.0002398263
       -0.0004714485  -0.0000040490   0.0000802860   0.0001516790  -0.0000001376
       -0.0000161308  -0.0000476706   0.0000002465  -0.0000366777  -0.0000110060
        0.0000000152  -0.0000245470   0.0000154367  -0.0000002392  -0.0000202126
        0.0000411166  -0.0000001778   0.0000244857  -0.0000189440  -0.0000003120
       -0.0001254392   0.0000418025   0.0023640240  -0.0000972702  -0.0004428936
       -0.0436144289   0.0000540968   0.0010674197   0.1216484933   0.0001935146
       -0.0003133721  -0.0547636263  -0.0000218532  -0.0001132418   0.0028914520
       -0.0000276789   0.0000042326   0.0047590987   0.0000215253   0.0000077719
       -0.0004975720   0.0000120734  -0.0000275569   0.0066708262   0.0001008911
        0.0000275028   0.0011529941   0.0000090939  -0.0000806932  -0.0040821850
       -0.0000176997  -0.0000218898   0.0051992726  -0.0000136445  -0.0000393394
        0.0026237890   0.0000071680   0.0000002067   0.0002463473  -0.0000010244
       -0.0000021543  -0.0023829309  -0.0000002430  -0.0000008795   0.0001464328
        0.0000001255   0.0000004257   0.0001814619   0.0000000764   0.0000000396
       -0.0000118343  -0.0000001582   0.0000002243   0.0003921127  -0.0000010366
       -0.0000016113  -0.0001574505   0.0000011981   0.0000002582  -0.0005241039
       -0.0000003726  -0.0000003898  -0.0001805189   0.0000001255   0.0000014339
        0.0001369112  -0.0000006162  -0.0000009034  -0.0000150798   0.0000005903
        0.0000007581   0.0002694249  -0.0000012910   0.0000022533   0.0009996465
       -0.0000036920  -0.0000049105   0.0119238436  -0.0000316273   0.0000361593
       -0.0084530923  -0.0000403686  -0.0000697748  -0.0529241010   0.0000070802
       -0.0000098157   0.0061587496  -0.0000224351  -0.0000602500   0.0013404277
        0.0000007630  -0.0000019007   0.0001547038  -0.0000012244   0.0000030607
       -0.0011785854  -0.0000007804  -0.0000004680   0.0000248646  -0.0000001951
       -0.0000009094  -0.0003318829   0.0000004466   0.0000008675  -0.0000334192
        0.0000000883   0.0000001329  -0.0000228932   0.0000000880  -0.0000000252
       -0.0000610475  -0.0000001187  -0.0000003043   0.0000322295   0.0000001496
       -0.0000003079  -0.0000665039  -0.0000003256  -0.0000009580  -0.0000158500
       -0.0260509629   0.0151972285   0.0000433242   0.0315084531   0.0135758317
        0.0000093053  -0.1449735600   0.0848344988   0.0001935146   0.7552582167
        0.0000069589  -0.0004349897  -0.1449610971  -0.0848322725  -0.0000870554
        0.0315077568  -0.0135692446  -0.0000568559  -0.0260478098  -0.0151982352
       -0.0000080492  -0.0286963908   0.0521937167   0.0001290268  -0.3055040049
       -0.0000069438   0.0002196470  -0.0286910722  -0.0521973621  -0.0000747288
       -0.0509924825  -0.0191911686  -0.0000065244  -0.0000197874   0.0040336022
       -0.0000003103  -0.0038678271   0.0025789370   0.0000009502  -0.0000725021
        0.0003858614  -0.0000010122  -0.0001672665   0.0000583217  -0.0000002495
        0.0001018647   0.0000416878   0.0000000622   0.0000261885   0.0000941313
        0.0000000696  -0.0003061793  -0.0002210804  -0.0000001523   0.0001190701
        0.0003252773   0.0000001905   0.0001190840  -0.0003252692  -0.0000000949
       -0.0003061938   0.0002210525   0.0000013023   0.0000261935  -0.0000941276
       -0.0000006029   0.0001018823  -0.0000416815  -0.0000009582  -0.0001672731
       -0.0000583229   0.0000013442  -0.0000724148  -0.0003858776  -0.0000004319
       -0.0038677213  -0.0025792802  -0.0000014493  -0.0000188348  -0.0040336627
       -0.0000044768  -0.0509952688   0.0191870300   0.0000551146  -0.0001744723
        0.0005800392   0.0000029682  -0.0005464541  -0.0030341119  -0.0000014303
       -0.0005468428   0.0030342859   0.0000146491  -0.0001743816  -0.0005800767
        0.0000003860  -0.0006976158   0.0025998648   0.0000096924  -0.0006972143
       -0.0025996154  -0.0000012515  -0.0000302988   0.0000569449   0.0000000368
       -0.0000247402  -0.0000500239  -0.0000001075  -0.0000215030  -0.0000097439
       -0.0000002189  -0.0000215023   0.0000097438  -0.0000003174  -0.0000247427
        0.0000500228  -0.0000001576  -0.0000302927  -0.0000569365  -0.0000001590
        0.0293248192  -0.0117426500  -0.0000303546  -0.0222260612  -0.0647766869
       -0.0001094264   0.1039184915  -0.2009748638  -0.0003133721   0.0000069589
        0.6239060281   0.0009140410  -0.1039163462  -0.2009909962  -0.0001903654
        0.0222324186  -0.0647757590  -0.0001546761  -0.0293259730  -0.0117456017
        0.0000131336   0.0294889146   0.0209410587   0.0000072078  -0.0000069791
       -0.1014691048  -0.0001029996  -0.0294923310   0.0209352997   0.0000603155
       -0.0283595111   0.0014682046   0.0000106314   0.0082486139   0.0015215718
       -0.0000079612  -0.0031629765   0.0007084146   0.0000028155   0.0009072426
        0.0003387949   0.0000001530  -0.0001387725  -0.0002623215   0.0000002810
        0.0001851169   0.0000094317   0.0000001588  -0.0000824983  -0.0000177113
        0.0000000269   0.0001061680   0.0000761923  -0.0000002323  -0.0002794331
        0.0000433896  -0.0000002893   0.0002794343   0.0000433792   0.0000001843
       -0.0001062058   0.0000761979  -0.0000003769   0.0000825296  -0.0000177892
        0.0000002701  -0.0001850897   0.0000093175  -0.0000003236   0.0001387946
       -0.0002622311   0.0000004813  -0.0009072689   0.0003386851  -0.0000017309
        0.0031626220   0.0007084523   0.0000035848  -0.0082487113   0.0015205903
       -0.0000075989   0.0283556332   0.0014717344  -0.0000056073   0.0006795718
        0.0004253661  -0.0000001248  -0.0025563301  -0.0040167497  -0.0000240406
        0.0025565427  -0.0040163960  -0.0000244913  -0.0006796012   0.0004252688
        0.0000035713   0.0032952834  -0.0048236020  -0.0000257467  -0.0032950331
       -0.0048240160  -0.0000154940  -0.0000361355  -0.0001149856  -0.0000001049
       -0.0000001395  -0.0000070681  -0.0000000379   0.0000023705  -0.0000034405
       -0.0000002677  -0.0000024033  -0.0000033700  -0.0000006672   0.0000001268
       -0.0000070545  -0.0000004274   0.0000361474  -0.0001149795  -0.0000001391
        0.0000655791  -0.0000244931  -0.0063636791  -0.0000674542  -0.0001424483
        0.0016349674   0.0002559173  -0.0002950079  -0.0547636263  -0.0004349897
        0.0009140410   0.1253926471  -0.0001267900  -0.0002138189  -0.0547630455
        0.0000195756  -0.0001171754   0.0016349442  -0.0000358526   0.0000015545
       -0.0063635420   0.0000867688  -0.0000179010   0.0024425700   0.0002128092
       -0.0000842259  -0.0532333382  -0.0000313949   0.0000713482   0.0024430209
       -0.0000258433   0.0000136905   0.0036730291   0.0000147156  -0.0000059011
        0.0021218926  -0.0000037016   0.0000026251   0.0000129727   0.0000016524
       -0.0000001027  -0.0001511753  -0.0000000021  -0.0000007807  -0.0000027122
        0.0000001928  -0.0000002023   0.0000048985  -0.0000003805   0.0000003038
       -0.0000063086   0.0000009496   0.0000001535  -0.0000009188  -0.0000012265
        0.0000006930   0.0000118996   0.0000004200  -0.0000001143   0.0000118860
        0.0000001232  -0.0000005426  -0.0000009696  -0.0000000268   0.0000003597
       -0.0000064435  -0.0000000674   0.0000003787   0.0000043729   0.0000004837
       -0.0000012494  -0.0000022453  -0.0000004397   0.0000003552  -0.0001509947
        0.0000045012   0.0000013187   0.0000129089  -0.0000076626  -0.0000022058
        0.0021221470   0.0000452543  -0.0000079949   0.0036729163   0.0000015920
        0.0000003543  -0.0001778040   0.0000011085  -0.0000240187   0.0094675707
        0.0000128425  -0.0000273438   0.0094675249  -0.0000014826   0.0000017981
       -0.0001777368   0.0000136191  -0.0000239637   0.0060166054  -0.0000008966
       -0.0000189513   0.0060166347  -0.0000001520  -0.0000002423  -0.0000024867
        0.0000000528   0.0000000648   0.0000009109   0.0000000447  -0.0000001562
        0.0000010577   0.0000000462  -0.0000002268   0.0000011857  -0.0000000420
        0.0000000660   0.0000009058   0.0000001564  -0.0000000381  -0.0000024421
       -0.0034192309   0.0021975400   0.0000042143   0.0039194319   0.0061857270
        0.0000091250   0.0087484557  -0.0067481222  -0.0000218532  -0.1449610971
       -0.1039163462  -0.0001267900   0.5840971208  -0.0935731687  -0.0004022848
       -0.1309889506   0.1268671343   0.0002981315  -0.0399014218   0.0244170922
        0.0000837149   0.0068445023   0.0011183655  -0.0000065085  -0.0308536389
       -0.0187645978  -0.0000033427  -0.0050368060  -0.0020047514   0.0000042508
       -0.1912737608   0.0539618362   0.0001150792  -0.0503022830  -0.0026219685
        0.0000019731   0.0042804523  -0.0070803285   0.0000077784  -0.0019003491
        0.0001576404  -0.0000012682   0.0001059832   0.0006447884  -0.0000000614
       -0.0003284449   0.0000564271   0.0000012807   0.0003186158  -0.0001259747
        0.0000006954  -0.0004525234  -0.0000552334   0.0000003851   0.0004104976
       -0.0002766335  -0.0000009205  -0.0005797354  -0.0001782877  -0.0000002743
        0.0000458633  -0.0001998701   0.0000026051  -0.0000045016   0.0001757142
       -0.0000016819   0.0002752213  -0.0001104493  -0.0000005288  -0.0003522759
        0.0005086794   0.0000012174   0.0020721228  -0.0010436873   0.0000029830
       -0.0045735718   0.0002729276  -0.0000074702   0.0080057945   0.0005166030
        0.0000074142  -0.0158209709   0.0328374635   0.0000551652  -0.0000769431
        0.0000251770  -0.0000011047   0.0001473215   0.0008816475   0.0000026740
        0.0076480941  -0.0135568850  -0.0000335646  -0.0062516521   0.0006392319
        0.0000122244   0.0009432055  -0.0001812596  -0.0000011513  -0.0007329534
       -0.0011860284  -0.0000010455   0.0000382665   0.0001573266  -0.0000006328
       -0.0000165752  -0.0000659215   0.0000001152  -0.0000611350  -0.0000217910
       -0.0000001222  -0.0000389098   0.0000226614  -0.0000000245  -0.0000109362
        0.0000633298  -0.0000001057   0.0000377176   0.0000039917  -0.0000002909
       -0.0129266797   0.0049179585   0.0000166386   0.0179764575   0.0061213906
       -0.0000060107   0.0067533321  -0.0659031198  -0.0001132418  -0.0848322725
       -0.2009909962  -0.0002138189  -0.0935731687   0.7149608042   0.0011635593
        0.0776570882  -0.3091928772  -0.0005819581   0.0782877884   0.0194137718
       -0.0000335906  -0.0067150421  -0.0504501535  -0.0000822452  -0.0396660911
        0.0262378777   0.0000796752  -0.0003450134  -0.0094904879  -0.0000305955
        0.0369895782  -0.0844572688  -0.0000608416  -0.0049158796   0.0140681152
        0.0000328564  -0.0063794466  -0.0000724994  -0.0000178989  -0.0005719723
        0.0007667080  -0.0000026111  -0.0000078246  -0.0002900109  -0.0000005579
        0.0002480748  -0.0000355421  -0.0000000957  -0.0001771114   0.0002180068
       -0.0000006806  -0.0000897558  -0.0000383423   0.0000003496  -0.0003434227
        0.0000469878   0.0000007156  -0.0000785957  -0.0002770283   0.0000000000
        0.0000631987   0.0000855141  -0.0000012811  -0.0000690047  -0.0001492069
        0.0000014374   0.0000985099   0.0001208393   0.0000004399   0.0001351955
        0.0000238530  -0.0000012270  -0.0003044772  -0.0000958766   0.0000047288
       -0.0006994256  -0.0008379595  -0.0000069564   0.0024807761  -0.0090727911
       -0.0000093058   0.0211931350  -0.0287555385  -0.0000643068   0.0000415553
        0.0002237639   0.0000026043  -0.0004515643  -0.0011992615  -0.0000013213
        0.0098091979  -0.0266038068  -0.0000629900   0.0001874456   0.0010120504
       -0.0000082683  -0.0002397361  -0.0004714776  -0.0000033654   0.0004724314
        0.0000359873   0.0000002782  -0.0000244808  -0.0000189403   0.0000000334
        0.0000201986   0.0000411063   0.0000001450   0.0000245168   0.0000153849
       -0.0000000377   0.0000366503  -0.0000109473  -0.0000001207   0.0000161247
       -0.0000476563   0.0000000774  -0.0000802901   0.0001516691  -0.0000002120
       -0.0000250633   0.0000089450  -0.0004974402   0.0000373949   0.0000030148
        0.0047590907   0.0000054193  -0.0001293025   0.0028914520  -0.0000870554
       -0.0001903654  -0.0547630455  -0.0004022848   0.0011635593   0.1216150260
        0.0001916839  -0.0006195504  -0.0435952908   0.0001937682   0.0000111915
        0.0023635114  -0.0000238066  -0.0000819693  -0.0040822728  -0.0000516448
        0.0000580699   0.0011532516   0.0000061267  -0.0000353630   0.0066712674
        0.0001053039  -0.0000926316  -0.0529106048   0.0000060911   0.0000450460
       -0.0084531432  -0.0000134291  -0.0000135416   0.0119236549  -0.0000030696
       -0.0000004877   0.0009997692  -0.0000010298  -0.0000012123   0.0002690317
        0.0000008649  -0.0000002561  -0.0000151152  -0.0000002883   0.0000014259
        0.0001366416   0.0000019986  -0.0000004670  -0.0001806400  -0.0000018795
       -0.0000008002  -0.0005242156  -0.0000003310   0.0000001004  -0.0001573526
        0.0000004577   0.0000005831   0.0003921379  -0.0000000509  -0.0000006559
       -0.0000118817  -0.0000002485   0.0000006066   0.0001811797  -0.0000004640
        0.0000004416   0.0001470236   0.0000024223  -0.0000007922  -0.0023827206
       -0.0000031136   0.0000027313   0.0002464587   0.0000032734  -0.0000353808
        0.0026241120   0.0000337660  -0.0000372696   0.0051991275  -0.0000011090
        0.0000033211  -0.0011782362  -0.0000009381  -0.0000024430   0.0001550664
        0.0000144219  -0.0000443837   0.0013403120   0.0000110563  -0.0000114570
        0.0061585142  -0.0000009905  -0.0000011088  -0.0003318927   0.0000022851
        0.0000015870   0.0000250149   0.0000000634  -0.0000004116  -0.0000162213
        0.0000002629   0.0000000801  -0.0000669876   0.0000002827  -0.0000001669
        0.0000318319   0.0000003049  -0.0000006615  -0.0000606941   0.0000000018
       -0.0000002694  -0.0000225802  -0.0000004529   0.0000002439  -0.0000331401
       -0.0121367066   0.0057704752   0.0000222003   0.0113264018   0.0068172181
        0.0000088313   0.0039210241  -0.0179765443  -0.0000276789   0.0315077568
        0.0222324186   0.0000195756  -0.1309889506   0.0776570882   0.0001916839
        0.5958498567   0.0077381232  -0.0004325513  -0.2772201060   0.0421970230
        0.0003300719  -0.0427896945  -0.0747189410  -0.0001083825  -0.0212475667
        0.0330827260   0.0000770675  -0.0015991896  -0.0144496383  -0.0000252574
       -0.0236673728   0.0269968509   0.0000704082   0.0053181463   0.0016076828
       -0.0000035042  -0.0020341056   0.0013822344  -0.0000000578   0.0002308412
        0.0002294609   0.0000003235   0.0000646420  -0.0001567061  -0.0000002397