$hessian                                                                        
        0.6204370412  -0.0204256069   0.0701742947  -0.1004404066  -0.0343180027
        0.0010184376   0.0041498689  -0.0105601123   0.0036491891  -0.0006455832
        0.0147857368  -0.0026419709   0.0047728415   0.0012499746   0.0024877585
       -0.0017011487   0.0004621961  -0.0022974999   0.0015650983   0.0003454183
        0.0012553939  -0.0018912139  -0.0011054283  -0.0007880245   0.0017236380
       -0.0014243024   0.0020106555  -0.0045541272  -0.0001833923  -0.0044487648
        0.0039107886  -0.0017259097   0.0046416815  -0.0026608518  -0.0008972791
       -0.0019507964   0.0007545364  -0.0019280263   0.0018680715  -0.0011394431
        0.0009687903  -0.0017364908   0.0023623019   0.0002481522   0.0019474403
       -0.0035146794   0.0018798992  -0.0033480740   0.0118976045  -0.0079046843
        0.0062190969  -0.0772748640   0.0621730262  -0.0279243669   0.0089040127
        0.0065249818   0.0016367126   0.0054143551  -0.0026961520   0.0000588638
       -0.0059694529   0.0052980138   0.0002052582   0.0118389793  -0.0009325244
        0.0015168938  -0.0071280168  -0.0058922949  -0.0032974887   0.0006412383
       -0.0002565811   0.0000962756  -0.0000942157  -0.0008790440   0.0005025964
        0.0010660988   0.0004019108  -0.0006232669  -0.0009057267  -0.0002590525
        0.0004518842   0.0000775165   0.0001216588  -0.0000433953  -0.0009583299
       -0.0001208832   0.0003151938   0.0010997075   0.0012682816  -0.0009214672
       -0.0008937644  -0.0013863597   0.0009500951  -0.0001891840   0.0009419485
       -0.0002814470  -0.0000505121  -0.0001078733   0.0000208764  -0.0000188492
        0.0010012348  -0.0003597655  -0.0000749128  -0.0012047632   0.0005330349
        0.0008159729   0.0002708536  -0.0004383557   0.0018837753   0.0031579088
        0.0008583250  -0.0072165061  -0.0059927203  -0.0032348138  -0.0088682666
        0.0047310764   0.0004703288   0.0031065133  -0.0077203581  -0.0018198191
       -0.0094879042   0.0094230977   0.0025933795   0.0111259889   0.0020181292
        0.0014292080  -0.0064502605  -0.0010534183  -0.0006001526   0.0069799432
       -0.0030020591   0.0002105403  -0.2929098438  -0.0924818929  -0.0144092617
       -0.1440484253   0.1195265460  -0.0381718753  -0.0121203415  -0.0268294005
        0.0027928597   0.0000716557  -0.0000201585   0.0000192223   0.0000389395
       -0.0000155350   0.0001015989   0.0000386810  -0.0000654581   0.0000909781
        0.0000359957  -0.0000591836  -0.0000980288  -0.0000780072  -0.0000287695
        0.0000664428  -0.0000700396  -0.0000558343  -0.0000342416   0.0000318648
       -0.0000432482  -0.0000898387  -0.0001991428  -0.0002490815  -0.0003036322
        0.0001708483  -0.0000057901   0.0000920767  -0.0001534802  -0.0000786168
        0.0003708660   0.0000357136  -0.0000141157   0.0000102072  -0.0000150786
       -0.0000348123   0.0000338391  -0.0000592619  -0.0000048893   0.0000330512
       -0.0000398871   0.0000277604  -0.0000150218  -0.0000400521   0.0000206352
        0.0000119032  -0.0000255025   0.0000540956  -0.0000418386   0.0000144393
        0.0000410476  -0.0000316175  -0.0000114863  -0.0000414238  -0.0000106561
       -0.0001106605   0.0001020837  -0.0000883232  -0.0000893310   0.0000149892
        0.0001095276   0.0002005691   0.0001163778  -0.0002627495  -0.0000964839
       -0.0006501141   0.0000401138  -0.0129712840  -0.0045206725  -0.0005811274
       -0.0204256069   0.5778975059  -0.1148939579  -0.1012876311  -0.2397882721
        0.0339521310   0.0392379541  -0.0754345586   0.0215372203   0.0073597174
        0.0143587271   0.0004059256   0.0063418933  -0.0045303832   0.0044090177
       -0.0026667092   0.0006440752  -0.0031389105   0.0007191132  -0.0002296988
        0.0014911926  -0.0019592374  -0.0007707534  -0.0013136350   0.0021442766
       -0.0016352240   0.0027805515  -0.0030022379   0.0016851304  -0.0035635675
        0.0038523656   0.0002565105   0.0035886714  -0.0029685737  -0.0007664087
       -0.0024333440   0.0011593715  -0.0014591377   0.0016923001  -0.0011390679
        0.0002192819  -0.0014439442   0.0027866340   0.0002171492   0.0029568956
       -0.0062459058  -0.0001274474  -0.0044307138  -0.0141440170   0.0155271435
       -0.0037127022   0.0036583585   0.0039223437  -0.0015667615   0.0037630822
       -0.0033914213   0.0044873698   0.0017854096  -0.0112440940  -0.0024019873
       -0.0067813184   0.0093717888   0.0010111763   0.0078553417  -0.0059795689
        0.0001636154  -0.0008107755  -0.0027481129  -0.0006733317  -0.0014071545
        0.0010542236   0.0002642219  -0.0001379769   0.0005417000   0.0003437027
       -0.0007955331   0.0001306822   0.0000874904   0.0008298258   0.0001263544
       -0.0003447205   0.0000115942   0.0006801338  -0.0002557799  -0.0000824166
       -0.0006484787   0.0002774475   0.0002582185  -0.0001296612  -0.0000393894
        0.0002195695  -0.0002359714   0.0000031926   0.0006421510   0.0003455611
       -0.0003534770  -0.0005806558  -0.0003564067   0.0003122544   0.0001410002
       -0.0008039951   0.0002709718  -0.0002916766   0.0006280601  -0.0001746392
       -0.0004639450  -0.0000683029  -0.0002547690   0.0057171149  -0.0009834565
       -0.0009746497  -0.0056140124   0.0086865963   0.0012993756  -0.0064382453
       -0.0127110671  -0.0049900564   0.0035221373   0.0015758847   0.0007099824
       -0.0083557453   0.0086373537   0.0035083323   0.0161154248   0.0059076528
        0.0043943043  -0.0081972635  -0.0100957637  -0.0059969867   0.0032160120
        0.0062390487   0.0027022245  -0.0055470025  -0.0886583630   0.0079681171
        0.1179058564  -0.1824071931   0.0554163856  -0.0037273629  -0.0063879645
       -0.0011645719   0.0005026577  -0.0003608373   0.0001993385   0.0000630095
        0.0000909704   0.0002754212   0.0000925589  -0.0001046528  -0.0000257823
       -0.0000226362  -0.0001011444   0.0000928318  -0.0000580373  -0.0000282664
        0.0001784594  -0.0000716086  -0.0000287093  -0.0000855170  -0.0000497180
        0.0000268651  -0.0000794034  -0.0008910519  -0.0001899807  -0.0007873727
        0.0007913498  -0.0005480447  -0.0000680567   0.0000043354   0.0002754204
       -0.0001601043  -0.0001148844  -0.0000344927   0.0001030228  -0.0000116244
        0.0000383089  -0.0000036737   0.0000019138  -0.0000889186  -0.0000098906
       -0.0000186772   0.0000103595   0.0000270517   0.0000051614   0.0000233674
        0.0001881484   0.0000198368   0.0000121519  -0.0000220111  -0.0000241238
        0.0000204121  -0.0000416207   0.0000245793   0.0001390796  -0.0001634027
       -0.0001674569  -0.0001621773   0.0002296557  -0.0002161129   0.0004369555
        0.0000940761   0.0006100686   0.0002911488  -0.0004175041   0.0000610554
        0.0001478528   0.0003042421  -0.0267029461  -0.0069268709  -0.0017400835
        0.0701742947  -0.1148939579   0.1420663225   0.0173050257   0.0433688376
       -0.0488967594  -0.0087551782   0.0123545124  -0.0048966901  -0.0009935668
        0.0013606703   0.0059077149  -0.0011926044   0.0001065211   0.0001387116
        0.0002286116  -0.0001127598   0.0002864824   0.0000223748   0.0000124647
       -0.0001473492   0.0001689884   0.0000800454   0.0001493155  -0.0002162877
        0.0000797072  -0.0003477055   0.0004683450  -0.0004671214   0.0003141296
       -0.0001404386  -0.0000381306  -0.0003311666   0.0002583166   0.0000534772
        0.0001687960  -0.0001347696   0.0000347522  -0.0000611039   0.0001501678
        0.0000439047   0.0000480542  -0.0003936607  -0.0003531420  -0.0003518060
        0.0003446278   0.0006831716   0.0004105020   0.0057020944  -0.0051382030
       -0.0025578593  -0.0140381403   0.0066113159  -0.0028585262   0.0009040954
        0.0040951846   0.0044940112  -0.0004798929   0.0021590801   0.0008136338
        0.0006428128  -0.0014002803  -0.0001546965   0.0000863829   0.0012719438
        0.0001934718  -0.0009485334  -0.0004007912  -0.0006072096   0.0002915593
       -0.0002221358  -0.0000119375   0.0001093985  -0.0002166459  -0.0000745839
        0.0003144513   0.0000007116  -0.0000937985  -0.0003202461  -0.0000667655
        0.0001404332   0.0000039835  -0.0001828021   0.0000584636  -0.0000521976
        0.0001778439  -0.0000697339   0.0000241271   0.0002174543  -0.0001065591
       -0.0002109331  -0.0000740889   0.0001153670  -0.0002009633  -0.0000305953
        0.0000768360   0.0001734513   0.0000868967  -0.0000942996  -0.0000282578
        0.0003283277  -0.0001208709   0.0000851555  -0.0002916964   0.0000908316
        0.0002487392  -0.0000552279   0.0000892098  -0.0011834955   0.0009477074
        0.0002620469   0.0002345686  -0.0029996847  -0.0007721379   0.0006745729
        0.0040757598   0.0011421788  -0.0010850868  -0.0017195116   0.0000215985
        0.0008872016  -0.0005824730  -0.0008837474  -0.0023269094  -0.0013360326
       -0.0004502097   0.0006922685   0.0022486792   0.0014537097   0.0005118840
       -0.0023460199  -0.0009893791  -0.0316580141  -0.0001518614  -0.0440570943
       -0.0418176134   0.0516252823  -0.0509364205  -0.0002202162  -0.0005916031
        0.0005611346  -0.0001103299   0.0000363916  -0.0000194945   0.0000032475
       -0.0000305668  -0.0000365433  -0.0000082490   0.0000124346   0.0000205293
        0.0000095846  -0.0000108171  -0.0000044575   0.0000057035   0.0000156724
       -0.0000104003  -0.0000053674   0.0000093856   0.0000358048   0.0000244709
       -0.0000069126   0.0000149393   0.0001411786   0.0000689040   0.0002134640
       -0.0001931454   0.0001407004   0.0000464374  -0.0000198397  -0.0000720936
        0.0000867316   0.0000342350   0.0000006512  -0.0000304270  -0.0000028553
       -0.0000166687  -0.0000014164  -0.0000153034   0.0000185001  -0.0000030994
       -0.0000060896   0.0000037132  -0.0000191402  -0.0000104866  -0.0000025472
       -0.0000516943  -0.0000065702   0.0000069062  -0.0000108221   0.0000113991
        0.0000019651   0.0000003524  -0.0000029400  -0.0000437921   0.0000315870
        0.0000039037   0.0000094652   0.0000220706   0.0000558074  -0.0000071544
       -0.0002069040  -0.0000948434  -0.0000657509   0.0001366964   0.0001844897
        0.0000362551  -0.0002335700   0.0056915066   0.0015426371   0.0008880456
       -0.1004404066  -0.1012876311   0.0173050257   0.6563597125   0.0299135613
        0.0260208891  -0.1412674850   0.1218073776  -0.0279297010   0.0082898836
        0.0030938776   0.0017502083   0.0004548790  -0.0026607393  -0.0010419046
        0.0000012435  -0.0000483148  -0.0002092241  -0.0001919129  -0.0002151720
        0.0004378506   0.0006440668   0.0003225857   0.0002300849  -0.0008495130
        0.0001268604  -0.0004976452   0.0010066755  -0.0003395226   0.0013896032
       -0.0010672695   0.0001180414  -0.0011308929   0.0007532952  -0.0000395256
        0.0006336119  -0.0002116649   0.0005257087  -0.0006179679   0.0000213053
       -0.0001953072  -0.0000854471  -0.0005336939  -0.0004669242   0.0004853689
       -0.0005871003  -0.0012717911   0.0005409496  -0.0937329525   0.0051943975
       -0.0184838946   0.0185647276  -0.0012373784   0.0075141313  -0.0038392039
       -0.0031343198  -0.0010634115  -0.0008695005   0.0024089857   0.0006976861
        0.0022183269  -0.0027492238  -0.0004576739  -0.0039101209   0.0013789679
       -0.0007065253   0.0011719500   0.0023168624   0.0011111955   0.0005368577
       -0.0004929952  -0.0000035875  -0.0000019627  -0.0001089090   0.0000270897
        0.0004275256  -0.0001283686  -0.0000867406  -0.0005265223  -0.0000475356
        0.0001576502   0.0000198783  -0.0005084318   0.0002179381   0.0001298228
        0.0004870264  -0.0002460894  -0.0002045267  -0.0000950136   0.0001303251
        0.0000631651   0.0001942548  -0.0001002347  -0.0004389530  -0.0002647312
        0.0002515993   0.0004511974   0.0001791235  -0.0001997325  -0.0001326325
        0.0004959650  -0.0001711198   0.0002102770  -0.0003847393   0.0000812597
        0.0001089051   0.0001379808   0.0000076380  -0.0014388291  -0.0009752353
        0.0000518020   0.0029754357   0.0003316833   0.0008142207   0.0032343713
        0.0006233377   0.0005843449  -0.0003187865   0.0020206957   0.0001840049
        0.0035311547  -0.0043926854  -0.0009120032  -0.0057182010  -0.0012671081
       -0.0010959020   0.0029943917   0.0018662800   0.0001777986  -0.0024090968
        0.0002119964  -0.0001887048  -0.0449180301  -0.0202177716   0.0014017792
        0.0058920926   0.0166754750  -0.0046937367  -0.3014055395  -0.0456300155
        0.0006822189  -0.0000319405  -0.0001762792   0.0001329278  -0.0000521333
       -0.0000311682  -0.0000725585   0.0000629895   0.0000430766  -0.0001303377
        0.0000089888   0.0000526360   0.0000313105   0.0000199696   0.0000639719
       -0.0000418736   0.0000346114   0.0000583387   0.0000466879   0.0000188199
        0.0000217685   0.0000571519   0.0000883269  -0.0001347948  -0.0005370611
        0.0002699062  -0.0004131589  -0.0001044153  -0.0000060694  -0.0000109045
       -0.0001210603   0.0000157389   0.0000361766   0.0000038222   0.0000188059
        0.0000259299  -0.0000247657   0.0000451602   0.0000329025  -0.0000011970
        0.0000354048  -0.0000423141  -0.0000111024   0.0000384022  -0.0000287592
       -0.0000576890   0.0000105972  -0.0000434369   0.0000248007  -0.0000200741
       -0.0000384753   0.0000369294  -0.0000178180  -0.0000141083   0.0000244769
        0.0000869927   0.0001042402  -0.0001662692   0.0000832636  -0.0000832585
        0.0000272288  -0.0002235481  -0.0000322629   0.0000524350  -0.0002302076
        0.0000588288   0.0000736919  -0.0053034234  -0.0017206032  -0.0022072686
       -0.0343180027  -0.2397882721   0.0433688376   0.0299135613   0.5431963689
       -0.0863175267   0.0490826376  -0.1497613293   0.0171116487   0.0103566793
       -0.0677934801   0.0157855302  -0.0114853676   0.0033431322  -0.0093272075
        0.0038542899  -0.0009894807   0.0045965459  -0.0008498132   0.0010400434
       -0.0023614515   0.0020067393   0.0005999247   0.0015901780  -0.0027732384
        0.0019043744  -0.0033653345   0.0029955723  -0.0044005252   0.0052639577
       -0.0038761582  -0.0006395775  -0.0034260389   0.0032737059   0.0011894123
        0.0027623935  -0.0014878214   0.0013887719  -0.0017246233   0.0019831625
        0.0000696103   0.0017315870  -0.0041103898  -0.0012826692  -0.0043647481
        0.0113695101   0.0015372254   0.0059651033   0.0525157697  -0.0024007377
        0.0076086326   0.0033403922   0.0031124052  -0.0015556997   0.0030321641
        0.0026957308  -0.0010419767  -0.0001010570   0.0111762715   0.0028506925
        0.0061909977  -0.0089844986  -0.0008026826  -0.0064105991   0.0061029178
        0.0003821126   0.0003245468   0.0012903188  -0.0001597087   0.0011959930
       -0.0008141801  -0.0003222172   0.0000309643  -0.0005491695  -0.0003290972
        0.0004871952   0.0000497385  -0.0000216559  -0.0003752342  -0.0000696572
        0.0002118829  -0.0000098735  -0.0001531743   0.0000170601  -0.0001552268
        0.0000960786   0.0000317537   0.0000773585   0.0002504795  -0.0001334231
       -0.0002891630  -0.0000820024   0.0001526797  -0.0001873521   0.0000146029
        0.0000587130   0.0000924222   0.0002141555  -0.0000869051  -0.0000489174
        0.0003571791  -0.0001107940   0.0000258297  -0.0003276418   0.0001588741
        0.0004393471   0.0000428014   0.0002376387  -0.0055526254   0.0021332212
        0.0010623807   0.0045364682  -0.0105668159  -0.0024684479   0.0052224372
        0.0143022728   0.0052827968  -0.0045041875  -0.0032703717  -0.0008775498
        0.0072801288  -0.0066360426  -0.0034649841  -0.0143898566  -0.0058620806
       -0.0043642022   0.0072837355   0.0099392109   0.0064720408  -0.0015503107
       -0.0078878647  -0.0029622698  -0.0599686612  -0.0212733590  -0.0007888543
       -0.0048476213  -0.0248111569   0.0015854993  -0.0464359012  -0.0487979338
        0.0046252808  -0.0006400860   0.0003173791  -0.0002336692   0.0000268605
       -0.0001589627  -0.0002171016  -0.0001195305   0.0000465505   0.0001517853
        0.0000696682  -0.0001444194  -0.0000308584   0.0000340097  -0.0000104385
       -0.0001899284   0.0000013627   0.0000029518   0.0000959981   0.0000565682
       -0.0000471249   0.0000195987   0.0002100610  -0.0010720136  -0.0002893760
       -0.0010145514   0.0008197159   0.0002338172  -0.0000374867  -0.0003259227
        0.0002614319   0.0001322254  -0.0000052503  -0.0001371469  -0.0000104059
       -0.0000942438   0.0000448172  -0.0000656715   0.0000886251   0.0000239850
       -0.0000306833   0.0000401262  -0.0000266970  -0.0000627728   0.0000078342
       -0.0002018459  -0.0000411923   0.0000450506   0.0000007262   0.0000582813
        0.0000354103  -0.0000013969  -0.0000232796  -0.0001721652   0.0001931288
        0.0001569822   0.0000578822  -0.0000299826   0.0001046104  -0.0004409675
       -0.0001379622  -0.0005398816  -0.0003450318   0.0004490125  -0.0003966286
       -0.0000603401  -0.0003492983  -0.0010526894   0.0025111275   0.0018345412
        0.0010184376   0.0339521310  -0.0488967594   0.0260208891  -0.0863175267
        0.1130715213  -0.0119840863   0.0186596873  -0.0524719168   0.0007552981
        0.0188106413   0.0006028860   0.0021291030  -0.0005213993   0.0031048128
       -0.0008461884   0.0007579295  -0.0011447768   0.0005031940  -0.0006984894
        0.0007108201  -0.0001896685   0.0000115210  -0.0001794993   0.0003002995
       -0.0005056302   0.0003988275  -0.0005721819   0.0004513724  -0.0006824035
        0.0008452447   0.0002247843   0.0007068701  -0.0006149768  -0.0004156847
       -0.0004447286   0.0000962883  -0.0002384402   0.0002695465  -0.0006146240
       -0.0006151294  -0.0005256857   0.0007978602   0.0002127184   0.0003211618
       -0.0040497729  -0.0005251355  -0.0025248319  -0.0247081271   0.0041997035
        0.0108399071   0.0043404748  -0.0025887561  -0.0043311021  -0.0027843183
       -0.0002928208  -0.0001645190   0.0010185444  -0.0022544109  -0.0004046024
       -0.0008779010   0.0018951551   0.0003479011   0.0011770436  -0.0006804324
       -0.0002279285  -0.0006988500   0.0005570228   0.0001947486   0.0003503828
       -0.0003539217   0.0000002504  -0.0001518942  -0.0001507742   0.0000620225
        0.0003235647  -0.0000310687  -0.0001316730  -0.0003788384  -0.0000586011
        0.0001440698   0.0000068717  -0.0002718920   0.0001236077  -0.0000166750
        0.0003026883  -0.0001106590  -0.0000272765   0.0000419295  -0.0000211082
       -0.0000326058  -0.0000031282   0.0000193407  -0.0002752789  -0.0000534044
        0.0001077489   0.0002642897   0.0000258403  -0.0001200269  -0.0000511572
        0.0003887348  -0.0001551246   0.0001520412  -0.0003375176   0.0000809362
        0.0001279840   0.0002173104  -0.0000531004   0.0006196008  -0.0009973709
       -0.0000865764  -0.0008897180   0.0014655249   0.0002168148  -0.0009989871
       -0.0018880081  -0.0007869133   0.0013694341   0.0006335738   0.0001943883
       -0.0009884765   0.0003576058   0.0004436141   0.0015150669   0.0007400086
        0.0005111212  -0.0006998066  -0.0011479869  -0.0009739169   0.0003197935
        0.0016486674   0.0005637622   0.0088989607   0.0036855182  -0.0000179068
        0.0017153086   0.0081261006   0.0011177867  -0.0009501019   0.0034156954
       -0.0271005303  -0.0000151515  -0.0001667376   0.0001547444  -0.0000131020
        0.0000288933   0.0000309827  -0.0000176085   0.0000132666   0.0000127545
        0.0000295123   0.0000107239  -0.0000114665   0.0000274691  -0.0000045056
        0.0000531110  -0.0000340694  -0.0000749170   0.0000309959   0.0000463774
       -0.0000284560   0.0000263049  -0.0002103302  -0.0011895453  -0.0002405601
        0.0001082588  -0.0003643893  -0.0001013185  -0.0000049152   0.0000472246
       -0.0000196436  -0.0000286962   0.0000099236   0.0000297731   0.0000104198
        0.0000406580  -0.0000281776   0.0000285208  -0.0000196565  -0.0000116345
        0.0000273054  -0.0000219721   0.0000059289   0.0000317731  -0.0000149980
        0.0000517282   0.0000121117  -0.0000241606   0.0000017814  -0.0000225992
       -0.0000284708   0.0000198750   0.0000073005   0.0000362792  -0.0000389964
       -0.0000416143   0.0000231576  -0.0000585285   0.0000494134   0.0000425152
        0.0000368173  -0.0000114720   0.0000935722  -0.0000611470   0.0001363133
        0.0000897113   0.0001319632  -0.0013796816   0.0016675476   0.0073865357
        0.0041498689   0.0392379541  -0.0087551782  -0.1412674850   0.0490826376
       -0.0119840863   0.5602044729   0.0204757271   0.0674263297  -0.0796235406
       -0.0476571902  -0.0115332739   0.0071672370   0.0115746037   0.0047577705
       -0.0002280102   0.0008876746  -0.0002245837   0.0011359244   0.0001131071
        0.0001651675  -0.0010942719  -0.0008658997  -0.0000039544   0.0012345874
       -0.0004901298   0.0004824525  -0.0025621516   0.0013686356  -0.0058143989
       -0.0002409104  -0.0052699636  -0.0002043647  -0.0009834839  -0.0016356748
       -0.0005755862   0.0001349548  -0.0010316913   0.0011596828  -0.0007374001
        0.0005285499  -0.0017613394   0.0010519399   0.0002126743   0.0023269814
       -0.0100380107  -0.0171321124   0.0032606867  -0.2784281681  -0.0126932612
       -0.0309206002  -0.0637274398  -0.0439033897  -0.0059222188   0.0112011916
        0.0074060458   0.0011196769   0.0053344867   0.0020763597   0.0012716249
       -0.0024255987   0.0010020694   0.0001833004   0.0080853577   0.0022589206
        0.0020941287  -0.0063280716  -0.0052029987  -0.0033288196   0.0011992140
       -0.0005165606  -0.0001576828  -0.0003515100  -0.0012722716   0.0001947701
        0.0011436664   0.0005106025  -0.0005865597  -0.0008174395  -0.0002323854
        0.0005259988   0.0000744206   0.0002960514  -0.0001522822  -0.0011452319
       -0.0003309205   0.0005032455   0.0013720880   0.0013619663  -0.0010740202
       -0.0010154748  -0.0015902317   0.0010604477  -0.0000578897   0.0011003188
       -0.0003918911  -0.0002331759  -0.0000374765   0.0000931125   0.0000098005
        0.0009533533  -0.0003451863  -0.0002305135  -0.0012083140   0.0006245767
        0.0009947204   0.0003652163  -0.0002487797  -0.0010849644   0.0043201083
        0.0012587278  -0.0048685257  -0.0108320559  -0.0050459700  -0.0060945592
        0.0111751545   0.0028722666  -0.0003364861  -0.0089839209  -0.0019608392
       -0.0055288550   0.0065413339   0.0005136140   0.0043870824  -0.0009192103
       -0.0008528863  -0.0030488672   0.0031597473   0.0034728837   0.0054895176
       -0.0074695331  -0.0020019873   0.0239424660  -0.0135257839   0.0054489586
        0.0007634802  -0.0037376369   0.0006549471  -0.0206587189   0.0167953549
       -0.0067276033  -0.0019270051   0.0013496352  -0.0019399187   0.0000075817
       -0.0001219226  -0.0001209562  -0.0001253582  -0.0001646851   0.0002132584
       -0.0000205154   0.0000991116  -0.0003296893  -0.0002315791  -0.0001362978
       -0.0002012704  -0.0000959689   0.0000762242   0.0000863254   0.0001469836
       -0.0000522102  -0.0000503802  -0.0007207930  -0.0001018697  -0.0002936136
       -0.0021085807   0.0020614266   0.0009279697  -0.0000781662  -0.0003028310
        0.0004885082   0.0000774492  -0.0000568692  -0.0000884778  -0.0000245150
       -0.0001007243   0.0000614463  -0.0001192853   0.0000561483   0.0000303050
       -0.0000594122   0.0000691734  -0.0000305349  -0.0000785388   0.0000303023
       -0.0001417633  -0.0000411354   0.0000915830  -0.0000414771   0.0000681105
        0.0000872500  -0.0000459372  -0.0000081231  -0.0000875737   0.0000832765
        0.0000516668  -0.0000200110   0.0002392960  -0.0000676577  -0.0001841164
        0.0000557234   0.0000076960  -0.0000544453   0.0000765042  -0.0001806681
       -0.0001796525  -0.0000536207  -0.0003919087   0.0013768002   0.0001777676
       -0.0105601123  -0.0754345586   0.0123545124   0.1218073776  -0.1497613293
        0.0186596873   0.0204757271   0.5790024809  -0.0733128600  -0.0426873715
       -0.2121339301   0.0265065627   0.0142445608  -0.0369082497   0.0163014336
       -0.0055864959   0.0039815790  -0.0074146563   0.0012651327  -0.0035024551
        0.0039533373  -0.0005175478   0.0005539703  -0.0009097488   0.0000380109
       -0.0029719807   0.0022268448  -0.0003713318   0.0019319499   0.0000719221
        0.0018882118   0.0033964850   0.0015094548  -0.0028007773  -0.0025937958
       -0.0013683732   0.0010436276  -0.0003431935   0.0009897423  -0.0032424267
       -0.0022022534  -0.0025581045   0.0070827374   0.0019329406   0.0053848780
       -0.0275348335  -0.0180386250  -0.0123929098  -0.0385958448  -0.0655657206
        0.0050594216  -0.0345002942  -0.0314836569   0.0035501292  -0.0069389866
       -0.0051840561   0.0012196319   0.0028447340  -0.0017186364  -0.0007293717
       -0.0007937717   0.0035864321   0.0004592250   0.0046161596  -0.0002021036
        0.0002481320  -0.0041961006   0.0005076029  -0.0004048247   0.0014249257
       -0.0013058887  -0.0000931034  -0.0000739364  -0.0007519148  -0.0002514044
        0.0014314389  -0.0003364913  -0.0004227044  -0.0016771333  -0.0003276282
        0.0007390839  -0.0000326911  -0.0015066353   0.0006735736   0.0002619557
        0.0016321320  -0.0007029327  -0.0005700082   0.0002919859   0.0000207870
       -0.0004482492   0.0004423718   0.0000183366  -0.0014521436  -0.0007717861
        0.0007696064   0.0014025475   0.0003750088  -0.0006912591  -0.0001861009
        0.0017771863  -0.0006759204   0.0008581944  -0.0014439131   0.0002542112
        0.0007112948   0.0002919091   0.0002616128  -0.0002194928  -0.0010986236
        0.0002993870  -0.0019363150  -0.0015978664  -0.0010156944  -0.0028837032
        0.0014114189  -0.0003228494   0.0039379344  -0.0020189369   0.0005138009
       -0.0027093545   0.0007599556  -0.0002054092   0.0011387947   0.0003130539
        0.0010667608  -0.0012726152   0.0002180208  -0.0006709828  -0.0003382735
       -0.0001457585  -0.0008054113   0.0087726383   0.0121237741  -0.0012537388
       -0.0023935538  -0.0031975239   0.0034033677  -0.0034039984   0.0040988931
        0.0022538356   0.0008087157   0.0006886819  -0.0005233074  -0.0004200260
        0.0003240690  -0.0003807689  -0.0000093307   0.0003162931  -0.0003708006
        0.0001922689   0.0003835819   0.0000506368   0.0001503210   0.0004660997
       -0.0000170038   0.0002431592   0.0002342020   0.0001795127   0.0004089897
        0.0000812034   0.0004422019  -0.0000008549   0.0006750533   0.0005415895
       -0.0001011025   0.0004377959  -0.0003665815   0.0001735282  -0.0001151240
        0.0001400742  -0.0000415994   0.0000218314   0.0000580559   0.0000314509
        0.0001143376  -0.0000725137   0.0000641560  -0.0000129319  -0.0000233721
        0.0000932175  -0.0000554441   0.0000127491   0.0000833205  -0.0000412410
        0.0000693858   0.0000278317  -0.0000600532   0.0000058447  -0.0000326155
       -0.0001055545   0.0000871422   0.0000943282   0.0000953032  -0.0000676476
       -0.0000139282   0.0000361379  -0.0001335846   0.0003509569   0.0000965428
       -0.0002621370  -0.0003401252   0.0002879096   0.0001402630   0.0000771867
        0.0001791903  -0.0001236026   0.0008376114  -0.0001295239  -0.0019531554
        0.0036491891   0.0215372203  -0.0048966901  -0.0279297010   0.0171116487
       -0.0524719168   0.0674263297  -0.0733128600   0.1688426112  -0.0132699308
        0.0251532297  -0.0544547827   0.0060364385   0.0181999752  -0.0052589986
        0.0013670747   0.0003942418   0.0005617581  -0.0000359898   0.0006070427
       -0.0000528571  -0.0000848537  -0.0003087382   0.0000991430   0.0001374217
        0.0009795660   0.0002588623  -0.0028865061   0.0027157002  -0.0017310182
       -0.0031762695  -0.0021402857   0.0002480638  -0.0003012329  -0.0002160119
        0.0009024533  -0.0000747760  -0.0001045475  -0.0000640507  -0.0003290002
        0.0006030497   0.0003450486  -0.0005789656  -0.0009030743  -0.0005611818
        0.0035556120  -0.0114538348   0.0008426605  -0.0326064887   0.0026163344
       -0.0550725565   0.0023094270  -0.0015703456  -0.0030014115  -0.0031106789
        0.0037649926   0.0043432025   0.0017469880   0.0000425097   0.0005770586
        0.0009200842  -0.0001115050   0.0003243157   0.0009282670   0.0010667398
        0.0000518755  -0.0013717869  -0.0001502856  -0.0006081870   0.0005384354
       -0.0004374863  -0.0000661517  -0.0000813439  -0.0003994434  -0.0000323492
        0.0004945725   0.0000699907  -0.0001865379  -0.0004534297  -0.0000912542
        0.0002150529   0.0000155161  -0.0001445848   0.0000469969  -0.0002283475
        0.0001481335   0.0000176998   0.0002209241   0.0003389353  -0.0002360083
       -0.0002833679  -0.0002887528   0.0002363335  -0.0002086205   0.0001528575
        0.0000046531   0.0001429392   0.0000294218  -0.0000792386  -0.0000447897
        0.0004662957  -0.0001788895   0.0000533648  -0.0004736652   0.0001758938
        0.0003774835   0.0001360258   0.0000384750  -0.0009042448   0.0004239283
        0.0002381126  -0.0007231633  -0.0031189612  -0.0012242344  -0.0004090975
        0.0039408721   0.0008657542  -0.0003868115  -0.0018194848   0.0000396191
        0.0002245502  -0.0001544991  -0.0006484597  -0.0014982567  -0.0008561954
       -0.0007193507   0.0005617884   0.0016721999   0.0013031606   0.0013999810
       -0.0014319900   0.0005016672   0.0013421529  -0.0034233533  -0.0042897010
       -0.0003446461   0.0021078989   0.0066489571  -0.0005694771  -0.0006997075
       -0.0011318471  -0.0005955598  -0.0000319016  -0.0005195894   0.0000194471
       -0.0000373661   0.0000411616   0.0000243843  -0.0000968692   0.0000369631
       -0.0000880677   0.0001502844  -0.0001644887  -0.0002171372  -0.0001643959
       -0.0000525204   0.0000604344  -0.0000602627  -0.0001351635  -0.0000799694
       -0.0000250300  -0.0000704314  -0.0001467154  -0.0001776408  -0.0007898732