$hessian                                                                        
        0.6527726966  -0.0096150167  -0.0088665875  -0.3239832576  -0.0456487497
        0.0060640676  -0.0389453033   0.0834493897  -0.0014208951  -0.0387532476
       -0.0329518110   0.0015704046   0.0528080949  -0.0288386640  -0.0001476938
       -0.1495177996  -0.0658526561   0.0034873681  -0.0018871910   0.0097573741
       -0.0002661627   0.0023229457  -0.0018748689  -0.0000352153  -0.0002658800
        0.0013821918   0.0001056856   0.0006780187  -0.0006597013  -0.0000009356
       -0.0010490315  -0.0003395420   0.0000171334   0.0001475770   0.0010156210
       -0.0000191178  -0.0013086565  -0.0002832946  -0.0001375440  -0.0013020660
       -0.0009428848  -0.0002167289   0.0025120451   0.0011310489   0.0001450151
        0.0005974088   0.0009418712   0.0007153373   0.0004991151   0.0000637537
       -0.0006268169  -0.0013082535  -0.0000375232   0.0005888125  -0.0012271008
       -0.0007276371  -0.0013938495  -0.0005125167   0.0003689383   0.0029323464
       -0.0001749803   0.0003071523  -0.0030982647  -0.0014376598  -0.0006439894
        0.0014322388  -0.0015450444  -0.0000024226  -0.0011204158   0.0009187240
        0.0000692373   0.0006376916   0.0005169617   0.0009313518  -0.0002962017
        0.0028389704   0.0007509095   0.0002012988  -0.1151849151   0.1148374277
       -0.0016508845  -0.0169224579  -0.0026972454   0.0003755799  -0.0011616628
        0.0028317274   0.0000021862  -0.0182330625  -0.0268398947   0.0010411780
       -0.0009228048   0.0001241086   0.0000481889  -0.0001787203  -0.0001334567
       -0.0000007965  -0.0000797574   0.0000508622  -0.0000111696  -0.0000118394
       -0.0000972223  -0.0000035286  -0.0001221854   0.0001680216   0.0000070687
       -0.0001870204  -0.0000578393   0.0001878536  -0.0000357238  -0.0003546041
       -0.0000391938  -0.0000277687   0.0001589110   0.0000948586  -0.0000553288
        0.0002764959  -0.0000912852  -0.0000758306   0.0002331909   0.0000725129
       -0.0000164698   0.0001397784  -0.0001045290  -0.0000012863  -0.0003442348
        0.0000249425  -0.0001777353  -0.0000461048  -0.0002039524
       -0.0096150167   0.6751700398  -0.0143812289   0.0354966223  -0.0943774465
        0.0006693798   0.0238274141   0.0294243584  -0.0010425321  -0.0262597788
       -0.0140785432   0.0005700187   0.0265149983  -0.0676759039   0.0012040285
       -0.1421760844  -0.2885017164   0.0086868507   0.0030614904   0.0024768772
       -0.0000409250   0.0012441946  -0.0040858219   0.0000628021   0.0001865287
        0.0009995403   0.0000271737   0.0006249931  -0.0007655610  -0.0000285852
       -0.0009210182  -0.0002465504   0.0000100802   0.0000875345   0.0007752430
       -0.0000306722  -0.0016136477   0.0000040102  -0.0001125530   0.0006055390
       -0.0015919719   0.0002260778   0.0008336181   0.0004829736  -0.0000232622
        0.0001845164   0.0006874843  -0.0001326940   0.0003561079   0.0001083575
       -0.0000227885  -0.0004544576  -0.0000398208   0.0002199282  -0.0002897155
       -0.0005582149  -0.0004271753  -0.0003185671   0.0002057451   0.0009131795
       -0.0002005845   0.0001970444  -0.0009409279  -0.0003736355  -0.0004514451
        0.0003749073  -0.0004140479  -0.0000137853  -0.0003008462   0.0003600807
        0.0000974035   0.0001006903   0.0001307094   0.0007376166   0.0001744687
        0.0006937651   0.0002636215   0.0000919206   0.1151408054  -0.2305338704
        0.0031651515  -0.0268553813  -0.0026829426   0.0005461544   0.0033661018
       -0.0040011506   0.0002603710  -0.0027432520  -0.0017798837   0.0001874305
       -0.0001322959  -0.0001506926   0.0000255613  -0.0000412417  -0.0000777192
       -0.0000009818  -0.0000157456   0.0000101905  -0.0000016360  -0.0000052975
       -0.0000558770   0.0000050028  -0.0000604102   0.0001047557   0.0000030349
       -0.0000575580  -0.0000973154   0.0000543175   0.0000298678  -0.0002473714
       -0.0000232062  -0.0000444524   0.0001168278  -0.0000014652  -0.0000576788
        0.0002011123  -0.0000093171  -0.0000642810   0.0001924869  -0.0000068398
       -0.0000438195   0.0000996488  -0.0000104631   0.0000370468  -0.0002730452
        0.0000220321  -0.0000239666  -0.0000686879  -0.0000624624
       -0.0088665875  -0.0143812289   0.1149007548   0.0040267252   0.0018685275
       -0.0471466717   0.0000006281  -0.0019112903   0.0013589759   0.0012932409
        0.0006832137  -0.0043328974  -0.0014737103   0.0021624604  -0.0014291477
        0.0053299248   0.0075370924  -0.0431539784  -0.0000934176  -0.0002475786
        0.0047849092   0.0000435114   0.0002260681   0.0014419177  -0.0000379676
       -0.0000009360  -0.0001857392   0.0000031592   0.0000251620  -0.0001903734
       -0.0000092367  -0.0000307192   0.0000030328  -0.0000048211   0.0000537771
       -0.0000946660  -0.0000036778  -0.0000765755   0.0000386436   0.0000137498
       -0.0000644556  -0.0001793245  -0.0000069862   0.0000424400   0.0000470232
        0.0000418768   0.0000242512  -0.0000463314  -0.0000020817   0.0000033729
        0.0000045751   0.0000085452   0.0000020247  -0.0000218329   0.0000039973
       -0.0000275043   0.0000274170   0.0000103710  -0.0000089241  -0.0000423426
        0.0000034878   0.0000293719   0.0000714118   0.0000282867  -0.0000302402
       -0.0000195647   0.0000375800  -0.0000056312   0.0000164011  -0.0000187283
        0.0000133866  -0.0000140042  -0.0000461449   0.0000559723  -0.0000322071
       -0.0001022399   0.0000237845   0.0000467574  -0.0016262733   0.0031760133
       -0.0341542514   0.0009933048   0.0001249211   0.0002384880   0.0000430603
        0.0002643807   0.0076130089   0.0003631809   0.0004674842  -0.0000152022
        0.0000473516   0.0000070555   0.0003074868   0.0000027831   0.0000014043
        0.0000348585   0.0000002660   0.0000031231   0.0000301880   0.0000004208
        0.0000008407   0.0000303195   0.0000008016  -0.0000023197  -0.0000020331
       -0.0000144623  -0.0000123374   0.0000229949  -0.0000021448  -0.0000155612
        0.0000081698  -0.0000027479   0.0000031936   0.0000018341  -0.0000012043
        0.0000106218   0.0000015924   0.0000034776   0.0000109446  -0.0000002875
        0.0000037547   0.0000072806   0.0000019620  -0.0000012624  -0.0000150427
        0.0000051089   0.0000102088   0.0000021758   0.0000230238
       -0.3239832576   0.0354966223   0.0040267252   0.6503168998   0.0137065999
       -0.0092868512  -0.1597879724   0.0639600378  -0.0003859993   0.0515763645
        0.0350876593  -0.0017806449  -0.0432650505   0.0307527311  -0.0002180719
       -0.0361909123  -0.0850402505   0.0027053650   0.0011194391  -0.0055414147
        0.0001239947  -0.0021076622   0.0030785344   0.0000593306  -0.0000428907
       -0.0014564236  -0.0000637432  -0.0010226382   0.0009433176  -0.0000020288
        0.0014261584   0.0005227350  -0.0000204008  -0.0001248787  -0.0016535803
       -0.0000085022   0.0027666870   0.0002719792   0.0002655687   0.0008003134
       -0.0011992188   0.0004805179  -0.0021443759  -0.0016339346  -0.0002849246
       -0.0004431777  -0.0015541402  -0.0006097454  -0.0001144077  -0.0001467447
        0.0005079991   0.0007288204   0.0000665242  -0.0002782685   0.0009122356
        0.0012055728   0.0008910284   0.0002593552  -0.0006132722  -0.0016963390
        0.0001584955  -0.0004345243   0.0018906684   0.0010505014   0.0010970912
       -0.0009895077   0.0010625686   0.0000155618   0.0007205066  -0.0005984919
       -0.0001453841  -0.0004688584  -0.0003609826  -0.0014896432   0.0001183999
       -0.0025267854  -0.0010788523   0.0000733520  -0.0180650481   0.0021549688
        0.0002974549  -0.1037239116  -0.1094061765   0.0040682819  -0.0187739557
        0.0254740494  -0.0003683683  -0.0001753398  -0.0027615621   0.0001500205
        0.0005947001   0.0002022037  -0.0000040685   0.0001277348   0.0001168191
        0.0000037388   0.0000502504  -0.0000131880   0.0000107030   0.0000234340
        0.0000490566   0.0000110517   0.0000985565  -0.0001189192  -0.0000043675
        0.0001442313   0.0000996498  -0.0001150275   0.0000428964   0.0006063267
       -0.0000043962   0.0000057096  -0.0002512800  -0.0000934557   0.0000198673
       -0.0004543997   0.0000532604   0.0000277504  -0.0003651067  -0.0000385821
       -0.0000113238  -0.0002249193   0.0000938621   0.0000128821   0.0005675900
        0.0000253382   0.0001372112   0.0001073046   0.0001449833
       -0.0456487497  -0.0943774465   0.0018685275   0.0137065999   0.6692000517
       -0.0151932096   0.1459136798  -0.2647235513   0.0038485235  -0.0232244722
       -0.0705292858   0.0024921673   0.0274958662  -0.0077129551  -0.0003704240
       -0.0266607311   0.0212970652  -0.0001011602  -0.0027025379  -0.0031278997
        0.0002507169   0.0002383614   0.0004813645  -0.0000644834  -0.0000864023
        0.0002863305  -0.0000012363   0.0003559909  -0.0002768758   0.0000296763
       -0.0005675321  -0.0004791455  -0.0000251085  -0.0001179650   0.0007522135
       -0.0000027137  -0.0005241108  -0.0017587044  -0.0000905096  -0.0040296052
       -0.0033412350  -0.0000214564   0.0012564866   0.0011312379   0.0002885217
        0.0001048080   0.0008935605   0.0002128008   0.0001934571   0.0000568366
       -0.0001712068  -0.0003889906  -0.0000257821   0.0001981939  -0.0004073260
       -0.0006103008  -0.0004506450  -0.0001789019   0.0003518119   0.0008956228
       -0.0001067121   0.0002534734  -0.0009478478  -0.0004539339  -0.0005697655
        0.0004817705  -0.0004819421  -0.0000025758  -0.0003929982   0.0003881146
        0.0000616500   0.0001116512   0.0000515025   0.0008597422  -0.0000076659
        0.0012516209   0.0009674609  -0.0000136466   0.0259701369  -0.0011502075
       -0.0003884869  -0.1092767490  -0.2429284517   0.0073337889   0.0016614541
       -0.0006096947  -0.0000841234  -0.0035149996  -0.0044283474   0.0004034086
        0.0001790194   0.0001832294  -0.0000283043   0.0000043277  -0.0000319714
       -0.0000067941  -0.0000228668   0.0000091240  -0.0000016751  -0.0000034149
       -0.0000615819  -0.0000063053  -0.0000610648   0.0000590234   0.0000073853
       -0.0000555523  -0.0000813382   0.0000146189  -0.0000035563  -0.0003081505
       -0.0000375330  -0.0000431860   0.0001335020  -0.0000122657  -0.0000551456
        0.0002284937  -0.0000286118  -0.0000632992   0.0001795815   0.0000075166
       -0.0000471270   0.0001225372   0.0000072455  -0.0000010865  -0.0002782859
        0.0000374060  -0.0000434650  -0.0000947374  -0.0000411307
        0.0060640676   0.0006693798  -0.0471466717  -0.0092868512  -0.0151932096
        0.1123693269  -0.0022828833   0.0046870072  -0.0457510003  -0.0000798231
        0.0014691863   0.0007018379  -0.0002732077  -0.0005029856  -0.0056175104
        0.0013556179   0.0007916751   0.0015590140   0.0000523807   0.0002939571
       -0.0001750160   0.0000660786  -0.0001234723  -0.0000363768   0.0000174142
        0.0000329827   0.0000006064   0.0000193530  -0.0000122853   0.0000031080
       -0.0000227987   0.0000229242  -0.0000362588   0.0000261320   0.0000480143
       -0.0000706262  -0.0001626874   0.0001515786   0.0001920377   0.0001463131
        0.0003505310   0.0068236373   0.0006249443  -0.0006604954  -0.0000614421
        0.0000926460   0.0000261887   0.0001539576  -0.0000561493   0.0000710313
       -0.0000451061  -0.0000050897  -0.0000191231  -0.0000326088   0.0000555670
       -0.0000337455  -0.0000076152   0.0001544311   0.0000089668   0.0000715832
       -0.0001096441  -0.0000247005   0.0001871258   0.0000128154   0.0000025664
       -0.0000828391   0.0000581627   0.0000165822   0.0000333549   0.0000203627
       -0.0000389988  -0.0000673590  -0.0001114260   0.0000031991   0.0001306637
       -0.0005738575   0.0005879507  -0.0002178372  -0.0003416767   0.0000170188
        0.0008243245   0.0040667090   0.0073456587  -0.0327990920   0.0002535344
       -0.0003136859   0.0009639987   0.0002197356   0.0003642320   0.0079846878
       -0.0000076455  -0.0000144618   0.0000227120  -0.0000028465   0.0000005291
       -0.0000026232   0.0000003831  -0.0000008706   0.0000073203   0.0000025787
        0.0000035404   0.0000142173   0.0000037255  -0.0000027414   0.0000036708
       -0.0000365707  -0.0000525916   0.0000153665  -0.0000049104  -0.0000005629
        0.0000167754   0.0000032341   0.0000004480   0.0000089686   0.0000091080
        0.0000066743   0.0000089323  -0.0000035638   0.0000020376   0.0000062485
        0.0000006593   0.0000042715   0.0000053033   0.0000021452  -0.0000227316
        0.0000163606   0.0000335321   0.0000385298   0.0000248430
       -0.0389453033   0.0238274141   0.0000006281  -0.1597879724   0.1459136798
       -0.0022828833   0.6705007020  -0.0106043268  -0.0077539913  -0.1461868932
       -0.1327407371   0.0050305351  -0.0282024684  -0.0283905726   0.0010527199
        0.0033121578   0.0032526740  -0.0001723748  -0.0066805494   0.0014877796
        0.0001376373  -0.0000111897  -0.0001193345  -0.0000184457   0.0000337919
        0.0001790533   0.0000263712   0.0001209820  -0.0000705742  -0.0000060631
       -0.0000809021   0.0001382858   0.0000258092   0.0004700871   0.0005828094
        0.0000403349  -0.0019291092   0.0024630744  -0.0001561467   0.0084838802
        0.0116653752  -0.0002106517  -0.0002944723   0.0007756541  -0.0001856998
       -0.0002157572  -0.0001003173  -0.0006919570  -0.0000822426  -0.0001800856
        0.0002804667   0.0004874007  -0.0000019780  -0.0002869951   0.0003175176
        0.0000558879   0.0005440758   0.0000296959  -0.0001582452  -0.0010042883
       -0.0002009810  -0.0000294766   0.0010166658   0.0003939890   0.0000915088
       -0.0005275477   0.0004147864  -0.0000036254   0.0003831047  -0.0000585157
       -0.0002245044  -0.0002488687  -0.0002945183  -0.0000079242   0.0006792835
       -0.0003254669   0.0009519691   0.0000257713  -0.0061740009   0.0002164012
        0.0002367076   0.0066030152  -0.0114697729   0.0001844430  -0.3014799054
       -0.0064732862   0.0038398661   0.0008186278  -0.0000556737   0.0000162668
       -0.0010867175  -0.0014176372   0.0000570769   0.0001029674   0.0000536012
        0.0000025153   0.0000187674   0.0000208241  -0.0000043088   0.0000362534
        0.0000772142  -0.0000015583   0.0000802442  -0.0000150719  -0.0000046996
       -0.0000599784   0.0000491931   0.0000921445   0.0000132462   0.0001379279
        0.0000062027  -0.0000396177  -0.0000097515  -0.0000272921  -0.0000545982
       -0.0000368087   0.0000404790  -0.0000405802  -0.0000111709  -0.0000471437
       -0.0000385835  -0.0000053607   0.0000221896   0.0000257741   0.0001174092
       -0.0000084708   0.0000064373   0.0000684993  -0.0001019085
        0.0834493897   0.0294243584  -0.0019112903   0.0639600378  -0.2647235513
        0.0046870072  -0.0106043268   0.6512514534  -0.0149636296  -0.0680128448
       -0.2649957502   0.0069746841  -0.0764626047   0.0176313851   0.0006186157
       -0.0019881987  -0.0584586426   0.0014786029   0.0048980521   0.0033615965
       -0.0001685598  -0.0004646944  -0.0002262235   0.0000846572   0.0000411612
       -0.0008075740  -0.0000243392  -0.0010008801   0.0008025657  -0.0000466323
        0.0016743602   0.0007090960  -0.0000443721  -0.0006858198  -0.0036713243
       -0.0000871603   0.0057190790  -0.0019698605   0.0005808760  -0.0012368491
       -0.0298265849   0.0019517044  -0.0029008014  -0.0031663799  -0.0018328050
        0.0001012023  -0.0021317180  -0.0004186772  -0.0001291965  -0.0001068243
        0.0002708588   0.0004564990   0.0000744288  -0.0002465793   0.0004179931
        0.0016090556   0.0004377544   0.0000574280  -0.0009787190  -0.0012406340
       -0.0000646629  -0.0007566425   0.0013784904   0.0004520251   0.0014915137
       -0.0006489416   0.0007815019   0.0000296938   0.0006914129  -0.0006366088
       -0.0001614413  -0.0002380973   0.0001865192  -0.0020495669   0.0002306260
       -0.0033411143  -0.0027942955   0.0010211543  -0.0002483447   0.0010902802
        0.0001985529   0.0123256132  -0.0263494250   0.0005356231  -0.0068982412
       -0.0439967519   0.0006307237   0.0000481289  -0.0005271385  -0.0000285030
        0.0002701045   0.0001616943   0.0000689935   0.0000551010   0.0000507527
        0.0000145886   0.0000016519   0.0000489555   0.0000149105  -0.0000688532
       -0.0000545214   0.0000179941  -0.0001233645   0.0000645018   0.0000101319
       -0.0000148934   0.0000771687   0.0001319733   0.0000281583   0.0008275265
        0.0000122887  -0.0000256694  -0.0003495124   0.0000038988  -0.0000080136
       -0.0006253085   0.0000668037  -0.0000016885  -0.0004900861  -0.0000617878
       -0.0000336056  -0.0003189882  -0.0000130509   0.0000385680   0.0007298630
        0.0000049978  -0.0000112978   0.0001009409  -0.0001428652
       -0.0014208951  -0.0010425321   0.0013589759  -0.0003859993   0.0038485235
       -0.0457510003  -0.0077539913  -0.0149636296   0.1154791408   0.0034105576
        0.0080682037  -0.0466692757   0.0024635996   0.0000567447  -0.0009071590
       -0.0000584811   0.0013043082  -0.0040792993   0.0000618165  -0.0002415751
        0.0054151685   0.0000013317   0.0002324591   0.0001893323  -0.0000411193
       -0.0000442597  -0.0004099424  -0.0000247591   0.0000373597  -0.0000949423
        0.0000021713   0.0000081927  -0.0000709612   0.0000376573   0.0000656329
       -0.0004545931  -0.0001994572  -0.0000529988   0.0011242228   0.0001442899
        0.0011955045   0.0000362192  -0.0001374208   0.0004738401   0.0004766585
       -0.0001403547   0.0001987762  -0.0001297053   0.0002398788   0.0000035567
        0.0001682649  -0.0001380693  -0.0000057558   0.0001345400   0.0000468917
        0.0000740058   0.0000118729  -0.0000803091   0.0001805298  -0.0001167489
        0.0000227575  -0.0001222462  -0.0002742213  -0.0000146409  -0.0000425092
       -0.0000038659   0.0000527628   0.0000140139   0.0001157997  -0.0002509271
       -0.0000438542   0.0001779781   0.0001491860  -0.0002551349  -0.0001051565
        0.0001570738  -0.0005043299   0.0003054815   0.0002335506   0.0001624057
        0.0073544734  -0.0004106840   0.0008827668   0.0004655937   0.0039285420
        0.0004740885  -0.0346199796  -0.0000220498   0.0000030510  -0.0003200842
        0.0000593341   0.0000420375   0.0009672315  -0.0000012140  -0.0000011878
       -0.0000232279   0.0000020271  -0.0000000182   0.0000753528   0.0000052057
        0.0000013985   0.0001204481   0.0000034197  -0.0000077966  -0.0000073912
        0.0000229286   0.0000035646   0.0000203212   0.0000014668  -0.0000283162
        0.0000050434  -0.0000038392  -0.0000156634   0.0000019757  -0.0000083004
        0.0000245863  -0.0000192660   0.0000248125  -0.0000288185  -0.0000091412
        0.0000117570   0.0000094451   0.0000125341   0.0000039769   0.0000353405
        0.0000070831   0.0000055162   0.0000002907   0.0000422489
       -0.0387532476  -0.0262597788   0.0012932409   0.0515763645  -0.0232244722
       -0.0000798231  -0.1461868932  -0.0680128448   0.0034105576   0.6240142661
        0.0401229207  -0.0071942033  -0.2822931712  -0.0189025390   0.0037374604
       -0.0314130488   0.0651042963  -0.0015777231  -0.0385995049  -0.0303025706
        0.0018120809  -0.0041784571   0.0073023725   0.0001418443   0.0004166968
       -0.0016882661  -0.0002243260  -0.0012621294   0.0016466885   0.0000079691
        0.0027660196   0.0004185638  -0.0001629949  -0.0021279038  -0.0057166639
       -0.0002371640   0.0107130044  -0.0067465355   0.0007799755  -0.0885399278
        0.0698595553   0.0002744881  -0.0194403501   0.0110938800  -0.0117558353
       -0.0000337711  -0.0026525922   0.0009668452  -0.0022087767  -0.0010378986
        0.0001809901   0.0026135057   0.0001425564  -0.0011310723   0.0013032937
        0.0019741744   0.0020048816   0.0005617671  -0.0012031338  -0.0049148161
       -0.0003345354  -0.0008495066   0.0057168786   0.0015014016   0.0017001385
       -0.0023447647   0.0031546673   0.0000500948   0.0021389013  -0.0030878373
       -0.0011681214  -0.0005095079   0.0001769299  -0.0024608478  -0.0015955366
       -0.0238736019   0.0140905443   0.0079161657  -0.0001401118  -0.0004167881
        0.0000301814  -0.0008121533   0.0033214589   0.0000399524  -0.0180593616
       -0.0261717641   0.0009529874  -0.0006664445   0.0022984560   0.0000064322
        0.0010064448  -0.0028899870  -0.0000439656   0.0002922176   0.0000788361
        0.0000101159   0.0000402659  -0.0001414739   0.0000519203  -0.0000460383
       -0.0002260629   0.0000338816   0.0000551098  -0.0002807781   0.0000185147
        0.0003568267   0.0005588511  -0.0003115318   0.0001556185   0.0011260942
        0.0003282135   0.0001680220  -0.0003948890  -0.0000198071   0.0002735848
       -0.0008265085   0.0001764380   0.0002692371  -0.0006639659  -0.0000810762
        0.0001660946  -0.0003234095   0.0000555079   0.0001276581   0.0010336639
       -0.0002665526   0.0003482695   0.0006382527   0.0003642759
       -0.0329518110  -0.0140785432   0.0006832137   0.0350876593  -0.0705292858
        0.0014691863  -0.1327407371  -0.2649957502   0.0080682037   0.0401229207
        0.6125322964  -0.0165137479   0.0337633668  -0.0822580439   0.0004790761
        0.0221514426   0.0249464103  -0.0010198518  -0.0382483599  -0.0099775741
        0.0009396184   0.0008681154   0.0048640474  -0.0000922008   0.0000161372
       -0.0006689583  -0.0000799008   0.0003158055  -0.0000454200   0.0000753257
       -0.0003824116  -0.0017634110  -0.0001603218  -0.0024577304  -0.0017677320
        0.0000381681   0.0057356905  -0.0304214636   0.0003127197   0.0484528994
       -0.1527201080   0.0021673712   0.0149650913  -0.0005055860   0.0108910594
        0.0000438080   0.0025120908  -0.0006979846   0.0010978102   0.0002469318
       -0.0005516052  -0.0018058090  -0.0000673441   0.0008771230  -0.0015098475
       -0.0017284353  -0.0016228466  -0.0014097960   0.0003091751   0.0031230116
       -0.0008992917  -0.0001746585  -0.0035982511  -0.0017192114  -0.0017188538
        0.0016928432  -0.0019702497  -0.0000082800  -0.0014347297   0.0013456314
        0.0002386422   0.0007286516  -0.0002135418   0.0021618342   0.0008230755
        0.0154762913   0.0001214715  -0.0072705028  -0.0008448805   0.0003837471
        0.0000093088   0.0028390905  -0.0039437636   0.0002716625  -0.0039043389
       -0.0021169897   0.0001087775   0.0034785168  -0.0039452465   0.0002262545
       -0.0030414984  -0.0051019240   0.0002053881   0.0002606455   0.0001654332
       -0.0000250583  -0.0000083630   0.0000936927   0.0000036486  -0.0001238933
       -0.0002448324  -0.0000159787  -0.0001666793   0.0003077361   0.0000350943
       -0.0003237704  -0.0001514379   0.0003135219  -0.0001870935  -0.0009313568
       -0.0002646862  -0.0001005349   0.0003775752   0.0000133632  -0.0002348865
        0.0006753667  -0.0001986613  -0.0002545852   0.0005211743   0.0001353432
       -0.0000906765   0.0003575022  -0.0000256253  -0.0001864817  -0.0007969953
        0.0002154579  -0.0002444431  -0.0001531332  -0.0003345149
        0.0015704046   0.0005700187  -0.0043328974  -0.0017806449   0.0024921673
        0.0007018379   0.0050305351   0.0069746841  -0.0466692757  -0.0071942033
       -0.0165137479   0.1376042430   0.0027953093   0.0008572553  -0.0500588102
       -0.0002399615  -0.0016170054  -0.0000963433   0.0017240760   0.0006520317
        0.0021931927  -0.0002449348   0.0002049282  -0.0006695713   0.0000306549
       -0.0000626594  -0.0000701350  -0.0001354109   0.0001174016   0.0000400539
        0.0002680034   0.0000713711   0.0001914243  -0.0001883082  -0.0006020252
        0.0011200015   0.0008280832  -0.0005526738   0.0008799901  -0.0007504193
        0.0054658976  -0.0510477045  -0.0148293660   0.0159559875  -0.0033818126
       -0.0008662166   0.0000281630  -0.0005539129  -0.0001723536  -0.0009740026
        0.0001973998   0.0004021047   0.0000839201  -0.0001760351  -0.0004072215
       -0.0001242514   0.0003925824  -0.0014514139  -0.0005032800  -0.0021996784
        0.0018232264   0.0001488029  -0.0013407965   0.0004421413   0.0006996499
        0.0002048036   0.0000404230  -0.0000669952   0.0000523891  -0.0003587461
        0.0007909040   0.0002341161   0.0011339576  -0.0006884725  -0.0005656060
        0.0118906187  -0.0147630942   0.0002626557   0.0000161429   0.0000159836
       -0.0000384193   0.0000408615   0.0003090111   0.0074169132   0.0004097438
        0.0004757317   0.0010503564  -0.0000163474   0.0002684216   0.0068172240
        0.0000652356   0.0001721650   0.0024972394  -0.0000052745  -0.0000018994
       -0.0000278846  -0.0000013456  -0.0000105374  -0.0000109789  -0.0000120762
       -0.0000135696  -0.0001740243   0.0000045730   0.0000083279  -0.0000586108
        0.0001007910   0.0006155476  -0.0001296160   0.0000130596   0.0000591414
        0.0000218139   0.0000167806   0.0000494926   0.0000086976  -0.0000779101
       -0.0000919612  -0.0000887992   0.0001278545  -0.0001089707  -0.0000902692
        0.0000034322  -0.0001693121   0.0000077329   0.0000122134   0.0002323925
       -0.0000272657  -0.0000580720  -0.0004549398  -0.0000862205
        0.0528080949   0.0265149983  -0.0014737103  -0.0432650505   0.0274958662
       -0.0002732077  -0.0282024684  -0.0764626047   0.0024635996  -0.2822931712
        0.0337633668   0.0027953093   0.6489977709  -0.0105584956  -0.0074994508
       -0.1573902387   0.0692970355   0.0003222151  -0.1357148306  -0.0766131175
        0.0030807379   0.0198109335  -0.0058635995  -0.0008505294  -0.0013394217
        0.0073025488   0.0004781292   0.0022847872  -0.0013749789   0.0000297822
       -0.0021479544  -0.0001595795   0.0000680073  -0.0000030482   0.0004749808
        0.0000014607  -0.0042876787  -0.0006159297  -0.0002463580  -0.0235097129
        0.0050453424  -0.0004176117   0.0014185260   0.0023362898   0.0004017567
        0.0010016873   0.0022811293   0.0016160952  -0.0004936217   0.0002732143
       -0.0011161703  -0.0006673607  -0.0001335358   0.0002103246  -0.0014234849
       -0.0019514337  -0.0011405736  -0.0003735909   0.0009453157   0.0023823319
       -0.0002368828   0.0006200189  -0.0025428460  -0.0015785936  -0.0018052666
        0.0012348518  -0.0010492556  -0.0000512054  -0.0007359955   0.0000095940
        0.0002109957   0.0009347682   0.0009265374   0.0021443346  -0.0009936199
        0.0018847391   0.0022909863  -0.0001353401  -0.0006298090  -0.0035275697
        0.0001952232  -0.0002848317   0.0007395062  -0.0000046462  -0.0005497879
       -0.0023390046   0.0002878068  -0.0215605941   0.0243475688  -0.0003043416
       -0.0210938098  -0.0253644758   0.0012042416  -0.0003492490  -0.0001672040
        0.0000027514  -0.0001392880   0.0004432327  -0.0000332898  -0.0000750247
       -0.0001262006  -0.0000290025  -0.0002691270   0.0004008592   0.0000015582
        0.0000955258  -0.0001132773   0.0003108859   0.0000048462  -0.0009910713
       -0.0001209577  -0.0000807930   0.0004325944   0.0000484967  -0.0001573126
        0.0007896799  -0.0001009107  -0.0001855769   0.0006548778   0.0000579938
       -0.0000739754   0.0004006248  -0.0000639589   0.0000433595  -0.0009252251
        0.0001178314   0.0001391427  -0.0000615921  -0.0001636379
       -0.0288386640  -0.0676759039   0.0021624604   0.0307527311  -0.0077129551
       -0.0005029856  -0.0283905726   0.0176313851   0.0000567447  -0.0189025390
       -0.0822580439   0.0008572553  -0.0105584956   0.6613655804  -0.0119111227
        0.1340732937  -0.2281924341   0.0027535118  -0.0943917513  -0.2293700144
        0.0042906504   0.0041797930  -0.0543904539   0.0005501272   0.0027378600
        0.0030526466   0.0002774754   0.0017200575  -0.0040962659  -0.0002585177
       -0.0030020859   0.0005539055   0.0001248998   0.0001134652  -0.0002396600
       -0.0002329451  -0.0070765625   0.0050604472  -0.0001520097   0.0242100327
       -0.0058801525   0.0001605433   0.0035335943  -0.0016553899  -0.0002399447
        0.0008592556   0.0014705131  -0.0003642542   0.0009785506   0.0004877036
       -0.0002560044  -0.0014469745  -0.0001186886   0.0004264262  -0.0007208296
       -0.0013269382  -0.0010570324  -0.0004685104   0.0007517384   0.0025689758
       -0.0000712246   0.0006760802  -0.0025670145  -0.0008628143  -0.0010938909
        0.0009761906  -0.0013189391  -0.0000545171  -0.0007093089   0.0009877094
        0.0004881258   0.0003642969   0.0005793083   0.0015621305   0.0004056318
        0.0036829056  -0.0025111266   0.0006827487  -0.0027497331  -0.0037766353
        0.0003567846   0.0007379230   0.0006539676  -0.0000081425  -0.0030969093
       -0.0044801573   0.0004373459   0.0012262147  -0.0007175425   0.0001392895
       -0.0067876561   0.0013736130   0.0005247728  -0.0004497486  -0.0001893176
        0.0000079668   0.0000592537   0.0000239227  -0.0000356933  -0.0001326076
       -0.0000577098   0.0000344270  -0.0005084735   0.0007160092   0.0000030947
       -0.0001646715  -0.0001669871   0.0006788932   0.0000513368  -0.0006475527
       -0.0001088054  -0.0001473697   0.0002773533   0.0000644406  -0.0001530804
        0.0005463129  -0.0000445091  -0.0001829034   0.0004953518  -0.0000053018
       -0.0001420513   0.0002362122  -0.0000931040   0.0001154525  -0.0006752469
        0.0001217366  -0.0000335701  -0.0001354151  -0.0004799941
       -0.0001476938   0.0012040285  -0.0014291477  -0.0002180719  -0.0003704240
       -0.0056175104   0.0010527199   0.0006186157  -0.0009071590   0.0037374604
        0.0004790761  -0.0500588102  -0.0074994508  -0.0119111227   0.1215731517
       -0.0015677773   0.0037303039  -0.0483006382   0.0047763818   0.0071977161
       -0.0285265941  -0.0008365462  -0.0008630795  -0.0045437525   0.0003206152
       -0.0004474820   0.0018017480  -0.0000177634  -0.0001017057   0.0014397301
        0.0000378034   0.0000645652  -0.0000350074  -0.0000192312  -0.0000865816