$hessian                                                                        
        0.6258030682   0.0453547954  -0.0957967443  -0.2524380431  -0.0815216192
        0.0091050694   0.0325166692  -0.0701934500  -0.0408768216   0.0055799993
        0.0049120792   0.0027342037  -0.0002634623  -0.0035334996  -0.0005684514
        0.0017355703   0.0002195554  -0.0000078350  -0.0008715233   0.0006711398
       -0.0002270251  -0.0001460774  -0.0004788503   0.0000185494  -0.0016824807
        0.0021597974   0.0006410982   0.0011765592  -0.0009678701  -0.0005964110
       -0.0009092108  -0.0001724667  -0.0000024693   0.0002032544   0.0000221680
        0.0000225909  -0.0001049511   0.0000486864  -0.0000204312   0.0000162824
        0.0000066399  -0.0000110951  -0.0000419473  -0.0001978721  -0.0000413341
       -0.0000908142   0.0003809286   0.0000178670  -0.0656079559  -0.0090731609
        0.0083451862   0.0219935195   0.0823765027   0.0355482194   0.0065087589
       -0.0036159001  -0.0029477229  -0.0029169120  -0.0010510791   0.0004532260
       -0.0001527740  -0.0021024115  -0.0000572102   0.0020793540   0.0009472624
       -0.0004032007  -0.0007687771   0.0012612899   0.0008458058  -0.2757649710
        0.0322439924   0.0684911225  -0.0441913406   0.0093023553   0.0075011263
       -0.0254181659  -0.0139799297  -0.0014268179  -0.0001770668   0.0002629109
        0.0001440496  -0.0000383760   0.0001782296   0.0000810557   0.0000573951
        0.0000895943   0.0000369391  -0.0006277095   0.0001769496   0.0001669261
       -0.0000244674  -0.0000659177   0.0000208829   0.0000562981  -0.0000753904
        0.0000197866   0.0001064709   0.0000033662   0.0000253730   0.0000083221
        0.0000566469  -0.0000062654  -0.0002286229  -0.0001044122  -0.0000938930
        0.0001274040  -0.0000115038  -0.0000224697   0.0000114983  -0.0000900932
       -0.0001843401  -0.0255147747   0.0065605368   0.0090714605
        0.0453547954   0.5705306529   0.2140386943  -0.1498173703  -0.1633891062
       -0.0229535365  -0.0166317938  -0.0410673990  -0.0171721222   0.0015732456
       -0.0016141671  -0.0048034444  -0.0004473011  -0.0012869841  -0.0003799261
        0.0002282912  -0.0001007400   0.0005728369  -0.0001379439   0.0001731450
       -0.0000478270  -0.0000530462  -0.0000323413   0.0003508111  -0.0005081802
        0.0000544557   0.0001648263   0.0008365519  -0.0001688945   0.0001420147
       -0.0004128805  -0.0000138193  -0.0000442479   0.0001233749   0.0000171945
        0.0000222333  -0.0000237703   0.0000265482  -0.0000088016  -0.0000120018
        0.0000007945  -0.0000028965  -0.0000431527  -0.0000669007   0.0000009638
        0.0000821316   0.0001571724  -0.0000206343  -0.0079668300   0.0032015253
        0.0059136183   0.0267263901  -0.0147973991  -0.0124105513  -0.0012627520
       -0.0044097610  -0.0042820509   0.0001238535  -0.0001413921  -0.0000998146
       -0.0001102793   0.0003235713   0.0001019461  -0.0000486227  -0.0004313297
        0.0001098955   0.0011426040  -0.0007626671  -0.0013270592   0.1002660732
       -0.1126780401  -0.0568997596   0.0091744289  -0.2435258408  -0.1064350543
        0.0063743712   0.0046473915   0.0004780307  -0.0001074518   0.0001124097
       -0.0001513971  -0.0000281847   0.0000349319   0.0000276811   0.0000361477
        0.0000129681  -0.0001216021  -0.0004570296   0.0001867403  -0.0002099708
       -0.0000226870  -0.0000188756   0.0000082837   0.0000287389  -0.0000260297
        0.0000112793   0.0000384687   0.0000023993   0.0000063553   0.0000126841
        0.0000259204  -0.0000005672   0.0000808245  -0.0000186261  -0.0000682582
        0.0000015871   0.0000078430   0.0000533640   0.0001336764  -0.0000398492
        0.0001364500  -0.0142469610   0.0050744990   0.0053002375
       -0.0957967443   0.2140386943   0.2472875112  -0.0250542597  -0.0390674885
       -0.0601574976  -0.0156977497  -0.0047775940   0.0023749453   0.0016140076
       -0.0050878534   0.0040231769  -0.0011361350  -0.0008546222   0.0001028996
        0.0001236364  -0.0003685033  -0.0003298939   0.0000799293   0.0000850056
        0.0000309250   0.0001138686  -0.0001114593  -0.0003375790   0.0007202913
        0.0004257659   0.0000768838  -0.0002215755   0.0000143200   0.0003179242
       -0.0000919332  -0.0000221890  -0.0001437151   0.0000259914   0.0000370660
        0.0000038719  -0.0000064781  -0.0000183624   0.0000068444   0.0000021071
       -0.0000007155  -0.0000031363  -0.0000025551   0.0000061200   0.0000037256
        0.0000392144   0.0000218817   0.0000167119   0.0093766014   0.0062657675
       -0.0047109235   0.0082275581  -0.0247032655  -0.0147495437  -0.0016454374
       -0.0040273071   0.0049281287   0.0006591592   0.0002626519   0.0002227552
       -0.0000543013   0.0006785079   0.0001367038  -0.0006445178  -0.0005610601
       -0.0000902510   0.0016162557  -0.0010516383   0.0001738776   0.1025917633
       -0.0422215453  -0.0888521986   0.0066080024  -0.1062119829  -0.0916490524
        0.0098689494   0.0060213375   0.0007481075  -0.0000787613   0.0000250822
        0.0000608719  -0.0000726442  -0.0000937264  -0.0000365579  -0.0000320494
        0.0000003157   0.0001038115   0.0001145426   0.0001467783  -0.0000498083
       -0.0000001946  -0.0000073143  -0.0000028542   0.0000092769   0.0000034262
        0.0000021493  -0.0000038447   0.0000005323   0.0000009606   0.0000027930
       -0.0000022110   0.0000031707   0.0000420639   0.0000499352  -0.0000721596
       -0.0000741229   0.0000295692  -0.0000597351   0.0000034029   0.0000435866
       -0.0002175551  -0.0012261105   0.0010324944   0.0008365046
       -0.2524380431  -0.1498173703  -0.0250542597   0.6520498673   0.0485018885
       -0.1166171636  -0.0862643813   0.0368942428   0.0249941669  -0.0005670027
       -0.0226585678  -0.0094998195  -0.0033431566  -0.0006637026  -0.0004530155
       -0.0008255241  -0.0010225123   0.0006212900   0.0006359989  -0.0005398590
        0.0001622888   0.0004240329   0.0008125999   0.0001518330   0.0007966798
       -0.0027081897  -0.0005295572  -0.0021192626   0.0009832685   0.0010242626
        0.0005606839   0.0000063028  -0.0004731319  -0.0000582502  -0.0001133988
        0.0000761648  -0.0000055105  -0.0000582481   0.0000549929   0.0000299671
        0.0000670100   0.0000191211   0.0001192922   0.0001815170   0.0000983262
       -0.0000369659  -0.0002992604  -0.0000565109   0.0046589339   0.0345147662
        0.0192108571  -0.0073190828  -0.0245624918  -0.0123591656  -0.0033291923
        0.0014281889   0.0019212606   0.0015489463   0.0003450764  -0.0000702225
        0.0000737475   0.0014716074   0.0001129872  -0.0014382408  -0.0006869863
        0.0003143178   0.0007616852  -0.0009756352  -0.0005916398  -0.0650735505
        0.0130419853   0.0207469430   0.0005080335  -0.0016964004  -0.0007418014
       -0.2350758754   0.0663342113   0.0954083183  -0.0001163567   0.0000755443
       -0.0001973390  -0.0002629306  -0.0003852623  -0.0000305205  -0.0000537016
       -0.0000423914  -0.0001025872  -0.0003020475  -0.0002095056  -0.0015421069
        0.0000052977   0.0001295105  -0.0000780116  -0.0000408761   0.0000592095
       -0.0000278249  -0.0000758104   0.0000101738  -0.0000404989   0.0000030771
       -0.0000364065  -0.0000026434   0.0002041167   0.0001821046  -0.0000581723
       -0.0000744054   0.0000032719  -0.0000099789  -0.0000020031   0.0000700695
        0.0000593275  -0.0035581896   0.0013636394   0.0035595132
       -0.0815216192  -0.1633891062  -0.0390674885   0.0485018885   0.5189268454
        0.1976686347  -0.0189337432  -0.2315219317  -0.0841944496  -0.0159889582
       -0.0312221039  -0.0116816755  -0.0019185579   0.0047385885  -0.0000390550
       -0.0027620097  -0.0013063570   0.0003188829   0.0015652055  -0.0007609097
        0.0002525530   0.0002426481   0.0003019662   0.0005005776   0.0049633312
       -0.0032067024  -0.0005202658  -0.0013141144   0.0020922273  -0.0009599809
        0.0006507182   0.0002029499   0.0002379489  -0.0001524882  -0.0001737405
       -0.0000234005   0.0000323301  -0.0000264070   0.0000005645  -0.0000038434
        0.0000159522   0.0000051846   0.0000845453   0.0001722542   0.0000449715
        0.0002517432  -0.0003185327   0.0000344772   0.0844846279  -0.0119464118
       -0.0340606246  -0.0271639410  -0.0488315038  -0.0142731626  -0.0020533116
        0.0009801382   0.0019820088   0.0013381663   0.0001952634  -0.0001157589
        0.0001072524   0.0012328648  -0.0000358132  -0.0013462097  -0.0002639287
        0.0003087104   0.0007444341  -0.0003680747  -0.0002378748  -0.0352877435
        0.0446588807   0.0302851670  -0.0223504748  -0.0179792271  -0.0054525989
        0.0661982057  -0.0641152141  -0.0366704809   0.0002184033  -0.0001432901
       -0.0004084743  -0.0001558759  -0.0002473338  -0.0000558206   0.0000244089
       -0.0000451493  -0.0001690287  -0.0005727050  -0.0002123442   0.0000835170
        0.0000089267   0.0001035551  -0.0000073239  -0.0000773252   0.0000604711
       -0.0000188447  -0.0000804629   0.0000078649  -0.0000298512   0.0000034248
       -0.0000248244   0.0000033194   0.0002246233   0.0002024760  -0.0000421188
       -0.0000567302   0.0000468769   0.0000153806  -0.0000133078   0.0000960283
        0.0000923616   0.0021085381   0.0020678899  -0.0037701680
        0.0091050694  -0.0229535365  -0.0601574976  -0.1166171636   0.1976686347
        0.2384836078  -0.0047079049  -0.1011900464  -0.1024399076  -0.0030070056
       -0.0089563989   0.0006449813  -0.0003612439   0.0014706238   0.0014043250
       -0.0001916967  -0.0004229963  -0.0001345267   0.0002216260  -0.0000404038
        0.0000628576   0.0000507389  -0.0002262230  -0.0001340127   0.0006727329
        0.0015813428  -0.0004518377  -0.0011198482  -0.0001732206  -0.0008235170
        0.0007510351  -0.0002874018   0.0002007222  -0.0001689205   0.0000177844
       -0.0000567672   0.0000688989   0.0000520252   0.0000023311  -0.0000194564
       -0.0000382659  -0.0000030894   0.0000325891  -0.0000284184   0.0000042253
       -0.0001785793  -0.0002352487   0.0000287294   0.0443873308  -0.0225064403
       -0.0034859732  -0.0134135019  -0.0142386499  -0.0126473357  -0.0005987626
        0.0002423604   0.0007509698   0.0004476926   0.0000646185  -0.0000821260
        0.0000539236   0.0004651583  -0.0000051770  -0.0005465931  -0.0000191716
        0.0001598440   0.0003415269  -0.0001190634  -0.0000764892  -0.0020404741
        0.0198127506   0.0094364502  -0.0107286345  -0.0100372251   0.0002333887
        0.0933539971  -0.0357625590  -0.0776779162   0.0002236907   0.0000603283
       -0.0000817217  -0.0000556131  -0.0000880111  -0.0001280233  -0.0000097217
       -0.0000373143   0.0000679125   0.0001299034  -0.0004509971   0.0005176854
        0.0000282858  -0.0000319261   0.0000162795  -0.0000548425   0.0000132899
       -0.0000080053  -0.0000381995  -0.0000113443  -0.0000031668  -0.0000405705
       -0.0000346348  -0.0000011628   0.0000678433   0.0000666181  -0.0000067139
       -0.0000169208   0.0000308220   0.0000052879  -0.0000117723   0.0000338518
        0.0000208442   0.0039905410  -0.0036907114   0.0063645251
        0.0325166692  -0.0166317938  -0.0156977497  -0.0862643813  -0.0189337432
       -0.0047079049   0.6096739172   0.0330275419  -0.0788670552  -0.1498032067
       -0.0706058683  -0.0140510744   0.0029411866  -0.0193454774  -0.0030243568
        0.0062969403   0.0030753641  -0.0005477348  -0.0032850444   0.0009494680
       -0.0006216753  -0.0025990186   0.0024594404  -0.0016417078  -0.0372610103
       -0.0077760844  -0.0019330125   0.0033288474  -0.0052738810   0.0008192791
       -0.0016363016  -0.0007051162  -0.0004716595   0.0004016831   0.0001401497
        0.0000317263  -0.0000987970  -0.0000018036   0.0000087967  -0.0000579154
        0.0000238782  -0.0000523497  -0.0002641621  -0.0001845154  -0.0001174302
       -0.0016857770   0.0002028175  -0.0000920540  -0.2603420724   0.0915379472
        0.0885080144  -0.0899337244  -0.0392318972   0.0003103744  -0.0022333302
       -0.0064359395   0.0006629963  -0.0028442952   0.0001703322   0.0009362985
       -0.0002235083  -0.0008223196  -0.0002185627   0.0005445097   0.0007913817
       -0.0001279175   0.0008323564   0.0010822471   0.0003991161  -0.0125412893
        0.0312115008   0.0159593756  -0.0037980156  -0.0050152520   0.0006539089
       -0.0041342694   0.0211098683   0.0117815007   0.0003404872   0.0021139500
        0.0007759858   0.0002703928   0.0006726939   0.0003148267   0.0000062723
        0.0001364302   0.0003376626   0.0006434157   0.0006022695   0.0003056675
       -0.0000189581  -0.0001635880   0.0000159818   0.0000962651  -0.0000901099
        0.0000313608   0.0001160633   0.0000054261   0.0000456240   0.0000050798
        0.0000852250  -0.0000028940   0.0001824730   0.0003622617   0.0000128546
        0.0001518080   0.0001677471  -0.0000079879   0.0001462105  -0.0000838930
       -0.0000598009   0.0005305001   0.0013733418   0.0003315775
       -0.0701934500  -0.0410673990  -0.0047775940   0.0368942428  -0.2315219317
       -0.1011900464   0.0330275419   0.5475704251   0.1716627590  -0.0727723202
       -0.1235487392  -0.0149594602  -0.0233805875  -0.0368023404  -0.0049425834
        0.0048904540  -0.0044774689   0.0013215169  -0.0014428797   0.0001737298
       -0.0002004998   0.0021170542   0.0004968483   0.0006331709  -0.0054885675
        0.0122784621   0.0021575052   0.0017359472  -0.0031591140  -0.0003283984
       -0.0002115031  -0.0005867829  -0.0002562697  -0.0000227313   0.0003975497
       -0.0000908661   0.0001658971   0.0002013437   0.0000481636   0.0000718404
       -0.0002607872   0.0000243233  -0.0002005316  -0.0003689443  -0.0000384846
        0.0001934577   0.0005500678  -0.0000688271   0.0654407951  -0.1252761323
       -0.0438349386   0.0068166041   0.0473438806   0.0231459837  -0.0029001910
       -0.0019433001  -0.0049374530  -0.0025670018   0.0001018048  -0.0001095575
        0.0002530851  -0.0016637535  -0.0000165085   0.0021141611   0.0002346952
       -0.0005531874  -0.0012917685   0.0007599888   0.0003935895   0.0270181274
       -0.0326780095  -0.0186351700  -0.0035827501   0.0008419951  -0.0027725910
        0.0027428265  -0.0067723488  -0.0022475236  -0.0007119827   0.0001132926
       -0.0004126375  -0.0009511479  -0.0007846957   0.0001039321   0.0001695391
        0.0001992401  -0.0000714422   0.0014366217   0.0003252145   0.0008441161
       -0.0000007854  -0.0002253725   0.0000325951   0.0001027781  -0.0000912582
        0.0000378812   0.0001331330  -0.0000321911   0.0000367953  -0.0000152564
        0.0000350519  -0.0000000690  -0.0001681729  -0.0002458330   0.0000274851
        0.0001396978  -0.0000778687   0.0001126355   0.0001489533  -0.0001323391
       -0.0000651114   0.0002888701   0.0000930202  -0.0000732334
       -0.0408768216  -0.0171721222   0.0023749453   0.0249941669  -0.0841944496
       -0.1024399076  -0.0788670552   0.1716627590   0.2458884419  -0.0161191396
       -0.0121126048  -0.0570903230   0.0004460189  -0.0022775657  -0.0003774513
       -0.0000006163   0.0008192347   0.0077175767  -0.0004474869   0.0004048496
       -0.0003352765  -0.0015519544   0.0007672277   0.0064716228  -0.0049619528
       -0.0012382642  -0.0003226199   0.0009229986  -0.0015272938  -0.0017138320
       -0.0003083564  -0.0001585009   0.0001857750   0.0001044598   0.0000136551
        0.0000156309  -0.0000382249  -0.0000327918   0.0000127404  -0.0000384464
        0.0000164345   0.0000422807  -0.0000889060   0.0000093204   0.0002226358
       -0.0003306064  -0.0000520246  -0.0005151027   0.0748590094  -0.0506907008
       -0.0939509333   0.0219995486   0.0316828823   0.0097075557   0.0016447826
       -0.0042388034   0.0053288950  -0.0008433644  -0.0000407509   0.0014162158
        0.0000094888  -0.0009298793  -0.0002702923   0.0011465507  -0.0000779174
       -0.0003898507  -0.0003224092   0.0003333767   0.0002780022   0.0144962108
       -0.0188567060  -0.0197693465   0.0011135144  -0.0030311631   0.0073699255
        0.0020550236  -0.0088039864  -0.0047465975   0.0005463886  -0.0002299278
       -0.0024391456   0.0000601230   0.0001095779   0.0002893868   0.0003229055
       -0.0000548542  -0.0019384297   0.0002789818   0.0001499390  -0.0000431421
        0.0000024294  -0.0000374456   0.0000028474   0.0000247636  -0.0000168384
        0.0000011321   0.0000322714  -0.0000068164  -0.0000648814   0.0000031443
        0.0000139663   0.0000107156  -0.0001080871  -0.0001767994   0.0000543836
       -0.0000953270   0.0000257125  -0.0002414353   0.0000153553  -0.0000185276
       -0.0002061644  -0.0000793812  -0.0000322014  -0.0005359775
        0.0055799993   0.0015732456   0.0016140076  -0.0005670027  -0.0159889582
       -0.0030070056  -0.1498032067  -0.0727723202  -0.0161191396   0.6307774629
       -0.0096337959   0.0695848424  -0.0943990551   0.0123204546  -0.0013299227
        0.0325572852  -0.0119091117   0.0058412740  -0.0178498057   0.0244311508
       -0.0034199526  -0.0438656057  -0.0361341248  -0.0043369166  -0.2753824896
        0.0731630412  -0.0449483308  -0.0133881278   0.0219906772  -0.0015358309
        0.0001585597   0.0006092569   0.0000673606   0.0015782582  -0.0007916909
        0.0000381382  -0.0013632580  -0.0017134701  -0.0000922165  -0.0010963344
        0.0018279218  -0.0002846400   0.0011922239  -0.0001387062   0.0002243421
       -0.0057890133  -0.0009015090  -0.0014755078  -0.0523985186  -0.0124112411
        0.0022773689  -0.0023078251   0.0029890806   0.0028509160  -0.0018710609
       -0.0009162109   0.0002355580   0.0002257246   0.0004158736  -0.0000064059
       -0.0001551759   0.0001831424   0.0001026182  -0.0002291089  -0.0002556490
        0.0000088486   0.0002393800  -0.0004227835  -0.0001400187  -0.0025022094
       -0.0001092072   0.0007254320   0.0002484823   0.0004198016  -0.0002509820
        0.0003253786   0.0010526947  -0.0004815042  -0.0071871989   0.0271867687
       -0.0035679315  -0.0026094443  -0.0035018924  -0.0016092340   0.0003016198
        0.0005351489  -0.0002542154  -0.0006116025  -0.0013451377  -0.0004881065
        0.0000873640  -0.0001395422   0.0000211968  -0.0000879860   0.0000334008
        0.0000414725  -0.0000319900   0.0000240254  -0.0000238579   0.0001679588
        0.0000640955   0.0000018348   0.0000410613   0.0000168422  -0.0000184495
       -0.0000756931  -0.0000035190   0.0000273583  -0.0000166404   0.0000365281
        0.0000138539   0.0001075944   0.0002157192  -0.0002862541
        0.0049120792  -0.0016141671  -0.0050878534  -0.0226585678  -0.0312221039
       -0.0089563989  -0.0706058683  -0.1235487392  -0.0121126048  -0.0096337959
        0.6200272288  -0.0067498474   0.0681124419  -0.3017916543   0.0197968926
       -0.0649100395  -0.0520884581  -0.0076941667   0.0330962797  -0.0293731272
        0.0061122474  -0.0012914640   0.0399165318  -0.0032987253   0.0343835268
       -0.0969008188   0.0059369475   0.0311467879  -0.0150217173   0.0052409989
        0.0026382332  -0.0051372932   0.0013934526  -0.0010351717   0.0007806772
       -0.0000142463   0.0021649851   0.0015970900   0.0001687847   0.0008941786
       -0.0024570761   0.0003782974  -0.0029163725   0.0015741922  -0.0006177838
       -0.0002006691  -0.0036410730   0.0004324094  -0.0085395517   0.0096917063
        0.0058261597   0.0040703654   0.0025112298  -0.0047489185  -0.0000698564
        0.0006463284   0.0002307061   0.0007882006   0.0000367423  -0.0001199155
        0.0000120500   0.0003931607   0.0000506652  -0.0004070677  -0.0002037575
        0.0001045518   0.0001568464  -0.0003576839  -0.0002002427  -0.0025578338
        0.0003449577   0.0006908898  -0.0009103416  -0.0009115729  -0.0000753994
       -0.0002168550   0.0003141198   0.0006593326   0.0055958398  -0.0128146181
        0.0015040181  -0.0032400360  -0.0019764878  -0.0000030023   0.0006986734
       -0.0001779982   0.0002626709   0.0004054177   0.0012090624   0.0001409843
       -0.0000356038   0.0003367331  -0.0000266119   0.0000893397   0.0000945440
       -0.0000327626  -0.0001601763   0.0000642885  -0.0000351756   0.0000032686
        0.0000187702   0.0000016219   0.0000358088  -0.0000012141  -0.0000271725
       -0.0000546238  -0.0000167150  -0.0000043183  -0.0000409635   0.0000541559
        0.0000233127   0.0002805355  -0.0003552432   0.0008502021
        0.0027342037  -0.0048034444   0.0040231769  -0.0094998195  -0.0116816755
        0.0006449813  -0.0140510744  -0.0149594602  -0.0570903230   0.0695848424
       -0.0067498474   0.1374368431  -0.0068420905   0.0110458544  -0.0459469199
        0.0059038164   0.0009599312   0.0020063413  -0.0029330145   0.0042439065
       -0.0033687292  -0.0065244447  -0.0061784623  -0.0007629537  -0.0386768214
        0.0122617267  -0.0518442851  -0.0048431240   0.0042417056  -0.0027719358
        0.0000516323   0.0007793886   0.0023336160  -0.0002479088   0.0000345847
        0.0011539432  -0.0001268688  -0.0002088470  -0.0001251095  -0.0001337894
        0.0001857450  -0.0004470764   0.0001228931   0.0000176764   0.0004426310
       -0.0016004020   0.0002325829   0.0046454660   0.0073007396   0.0093430088
        0.0001272979   0.0031498432  -0.0043765413   0.0059203967   0.0006509296
        0.0002336930   0.0003111515   0.0000491780  -0.0000629882  -0.0000619445
        0.0000394009   0.0000089124  -0.0000371375   0.0000046095  -0.0000013322
       -0.0000199526  -0.0000301203   0.0000380448   0.0001068979  -0.0003561879
        0.0005801065   0.0005274775  -0.0006634648  -0.0002330626  -0.0006000086
       -0.0007187194   0.0007538121  -0.0008789771  -0.0010709522   0.0040633920
        0.0003766279  -0.0008722844   0.0000688585   0.0066338764   0.0000490483
        0.0000386540  -0.0001612481  -0.0000939207  -0.0006167007  -0.0006957259
        0.0000077941  -0.0000405629   0.0000440489  -0.0000014992  -0.0000185707
       -0.0002214441  -0.0000007756  -0.0000066620  -0.0000631950  -0.0000036384
        0.0000046952   0.0000699729  -0.0000002839  -0.0000084415  -0.0000020447
        0.0000054153  -0.0000064386  -0.0000107608   0.0000035328  -0.0000028260
       -0.0000083977  -0.0003666743   0.0008195841  -0.0016865772
       -0.0002634623  -0.0004473011  -0.0011361350  -0.0033431566  -0.0019185579
       -0.0003612439   0.0029411866  -0.0233805875   0.0004460189  -0.0943990551
        0.0681124419  -0.0068420905   0.6624649607   0.0060434643   0.0675442416
       -0.2194972287  -0.1504501982  -0.0151728097  -0.0646018030   0.0069926610
       -0.0090498529   0.0003543990  -0.0228375992   0.0019560968   0.0052547274
        0.0332700782  -0.0005268660  -0.0031643529   0.0010901809  -0.0010511124
       -0.0039268342  -0.0002213748  -0.0009452119   0.0009245266  -0.0005925237
        0.0001664508  -0.0012738846  -0.0013333294  -0.0000424141  -0.0005309735
        0.0021231430  -0.0003131488   0.0025819974  -0.0005025809   0.0004857519
       -0.0051493797   0.0034036374  -0.0008364018  -0.0015326002  -0.0020406900
        0.0008218882   0.0005850513  -0.0004346313  -0.0007846932  -0.0004352101
       -0.0001055317   0.0000127479   0.0003752570   0.0001254865  -0.0000708833
        0.0000541127   0.0002922344   0.0000355346  -0.0004144513  -0.0000885251
        0.0001496208   0.0003513681   0.0000329709  -0.0002284628  -0.0000123352
       -0.0000467786   0.0000042682  -0.0002506340  -0.0002745911   0.0000147200
       -0.0000944872   0.0000036502   0.0001063560  -0.2747573699   0.0800730782
       -0.0329105420   0.0029427988   0.0016637010   0.0000581965  -0.0051300509
        0.0018234393  -0.0016244803  -0.0003149188  -0.0002873287  -0.0001307126
        0.0000538594  -0.0000863830   0.0000020175  -0.0000390828   0.0000123766
        0.0000088072   0.0000098258  -0.0000101145   0.0000074133   0.0001735376
        0.0000219900   0.0000147699   0.0000358341   0.0000280584  -0.0000106628
        0.0000128413   0.0000184585  -0.0000027866  -0.0000271755   0.0000285270
        0.0000232971   0.0000421625  -0.0001009511   0.0001823136
       -0.0035334996  -0.0012869841  -0.0008546222  -0.0006637026   0.0047385885
        0.0014706238  -0.0193454774  -0.0368023404  -0.0022775657   0.0123204546
       -0.3017916543   0.0110458544   0.0060434643   0.6381851915  -0.0192760379
       -0.0723973964  -0.1907270069  -0.0015410050  -0.0526044753   0.0505873629
       -0.0098541321  -0.0101064555  -0.0496694507   0.0008015271   0.0764394719
       -0.0199264817   0.0123609370   0.0022693926   0.0044151431   0.0009510216
       -0.0025780455  -0.0020704201  -0.0004992072   0.0032760016  -0.0006537910
        0.0005036100  -0.0026064985  -0.0029794997  -0.0001428184  -0.0017393547
        0.0038839688  -0.0006787536   0.0043576159  -0.0012932467   0.0008302585
       -0.0083774607   0.0036769073  -0.0012510511   0.0064963689  -0.0035045885
        0.0003505938  -0.0015158492   0.0003306864   0.0000328756   0.0011550643
       -0.0002053058  -0.0003866289  -0.0006647506  -0.0001525560   0.0001205914
       -0.0000003632  -0.0005310306  -0.0000612673   0.0005609115   0.0002604488
       -0.0001724512  -0.0002867223   0.0003764345   0.0002494730   0.0018215664
       -0.0005357670  -0.0008551681  -0.0001297355  -0.0000618247   0.0001084964
        0.0000990876  -0.0002137945   0.0002554660   0.0808447553  -0.0700912273
        0.0100004567  -0.0217373699  -0.0234386441  -0.0019664272   0.0021618934
        0.0004232543   0.0006172826   0.0000113163  -0.0006492964  -0.0000988652
        0.0000557512  -0.0002033945   0.0000038037   0.0000470080  -0.0000427940
        0.0000283629   0.0000665114   0.0000254876   0.0000250598   0.0000532637
        0.0000134626   0.0000062857  -0.0000363520   0.0000180087   0.0000221528
        0.0000589172   0.0000075185  -0.0000102426   0.0000431140  -0.0000700748
       -0.0000283168   0.0001415784  -0.0000412895   0.0001698279
       -0.0005684514  -0.0003799261   0.0001028996  -0.0004530155  -0.0000390550
        0.0014043250  -0.0030243568  -0.0049425834  -0.0003774513  -0.0013299227
        0.0197968926  -0.0459469199   0.0675442416  -0.0192760379   0.1243403687
       -0.0173257531  -0.0121712747  -0.0487940692  -0.0066064283  -0.0011516222
        0.0003910124   0.0008770335  -0.0008372585  -0.0046636554  -0.0046383783
        0.0062730316  -0.0012734304  -0.0011042536  -0.0004540138   0.0045879962
       -0.0006919788   0.0001303128   0.0007284500   0.0000394393  -0.0000278327
       -0.0000852669  -0.0000499131  -0.0000532911  -0.0001513191   0.0000005020
        0.0001163774   0.0000199365   0.0001335371  -0.0000560264  -0.0001430064
       -0.0003231497   0.0002829434  -0.0002560852   0.0019761222   0.0007130685
       -0.0000477502  -0.0009114436  -0.0004818442  -0.0001748978   0.0000977014
       -0.0001941652  -0.0000985674  -0.0000844008  -0.0000024246   0.0000053206
        0.0000391314  -0.0000420810  -0.0000248551  -0.0000239502   0.0000474313
        0.0000124799   0.0000799997   0.0001448736   0.0000654301   0.0004052570
        0.0002162875   0.0000188551  -0.0000875571  -0.0000015651  -0.0001205749
       -0.0000535310   0.0001160238   0.0000745927  -0.0336398426   0.0103875511
       -0.0382654459   0.0013590107   0.0013365929   0.0001419059  -0.0017665270
        0.0006253690   0.0078826003   0.0000776972  -0.0000930083   0.0005351891
       -0.0000023157  -0.0000246282   0.0000232991   0.0000049262  -0.0000077427
        0.0000179529   0.0000046531   0.0000006916   0.0000508779   0.0000171978
        0.0000073204  -0.0000037496   0.0000034214   0.0000119290   0.0000031044
        0.0000255942   0.0000124114  -0.0000041420   0.0000061322  -0.0000033805
       -0.0000042701  -0.0000064285   0.0000206538   0.0000288603
        0.0017355703   0.0002282912   0.0001236364  -0.0008255241  -0.0027620097
       -0.0001916967   0.0062969403   0.0048904540  -0.0000006163   0.0325572852
       -0.0649100395   0.0059038164  -0.2194972287  -0.0723973964  -0.0173257531
        0.6378139232  -0.0098630577   0.0671032855  -0.3064621925   0.0324922600
       -0.0338721378  -0.0100534368   0.0868763677  -0.0059502422  -0.0510886789
       -0.0084287650  -0.0065300297  -0.0036141204  -0.0011918511  -0.0010850098
        0.0056908971   0.0036280062   0.0008643235  -0.0032929089   0.0008707124
       -0.0004795315   0.0029994307   0.0035429482   0.0001170664   0.0021252472
       -0.0052893200   0.0009567272  -0.0071185110   0.0013376550  -0.0012706416
        0.0154062750  -0.0079792285   0.0017583653  -0.0023089490   0.0006776555
       -0.0000725687   0.0012779229   0.0000151887  -0.0002380900  -0.0005686536
        0.0002802723   0.0003252405   0.0004188327   0.0001154927  -0.0000783617
       -0.0000606273   0.0002802832   0.0000627459  -0.0002452861  -0.0001692970
        0.0000508176   0.0000956155  -0.0003253444  -0.0001044346  -0.0009589901
        0.0003033034   0.0004278436  -0.0000528282  -0.0000042891  -0.0001426088
       -0.0000453445   0.0000364852  -0.0000667181  -0.0230520156  -0.0169520113
       -0.0021324074  -0.0531122704   0.0492373693  -0.0045755086  -0.0236933420
        0.0049135179  -0.0034505377  -0.0000734046   0.0004336160   0.0000385442
       -0.0000699434   0.0001706308  -0.0000154528  -0.0000088749   0.0000675248
       -0.0000387527  -0.0000923506  -0.0000177164  -0.0000140447  -0.0000151886
       -0.0001259836  -0.0000053685   0.0000134169  -0.0000078241  -0.0000180020
       -0.0000552314  -0.0000099321   0.0000126004  -0.0000233728   0.0000198427
        0.0000215593  -0.0000420828   0.0000161886  -0.0001080571
        0.0002195554  -0.0001007400  -0.0003685033  -0.0010225123  -0.0013063570
       -0.0004229963   0.0030753641  -0.0044774689   0.0008192347  -0.0119091117
       -0.0520884581   0.0009599312  -0.1504501982  -0.1907270069  -0.0121712747
       -0.0098630577   0.6647961836  -0.0271915401   0.1099487193  -0.1170510886