$hessian                                                                        
        0.4985943136  -0.0114806846  -0.0287021117  -0.1197553855  -0.0238692938
       -0.0608159132  -0.0076266301  -0.0078417867  -0.0074739301  -0.0001063375
       -0.0015155562   0.0004029920  -0.0000064879  -0.0000982941  -0.0000200794
       -0.0000148017  -0.0000663105  -0.0000250228  -0.0000090212  -0.0000250871
       -0.0000351505   0.0000114997  -0.0000058302  -0.0000008934   0.0000089505
        0.0000304078   0.0000482663  -0.0000126270  -0.0000474481  -0.0000754894
        0.0000405368   0.0000282490   0.0000448267   0.0000207871  -0.0000102617
        0.0000059484  -0.0000110344  -0.0000031849  -0.0000047581   0.0000020886
        0.0000053231   0.0000081061   0.0000064644  -0.0000029211   0.0000074524
        0.0000013727   0.0000079653  -0.0000032972  -0.0000052190   0.0000060570
       -0.0000089762   0.0000043487  -0.0000063614   0.0000091924  -0.0000063336
        0.0000107925  -0.0000083809   0.0000210788  -0.0000114299   0.0000298476
       -0.0000243210   0.0000120788  -0.0000063335   0.0000062494  -0.0000019048
        0.0000018686  -0.0000092750   0.0000047205  -0.0000068989   0.0000008332
       -0.0000007217   0.0000020770   0.0000046565  -0.0000024699   0.0000028475
       -0.0000031268   0.0000007642   0.0000012506   0.0000006959   0.0000015766
       -0.0000132184  -0.0000028013  -0.0000006159   0.0000147180  -0.0000049440
        0.0000002427   0.0000105030   0.0000100906   0.0000034664  -0.0000340073
        0.0000009532  -0.0000008031   0.0000196444  -0.0000025389   0.0000006209
       -0.0000219696  -0.0000073085  -0.0000193829  -0.0000221904  -0.0000119337
        0.0000102122  -0.0000011340   0.0000057577   0.0000048684   0.0000190085
        0.0000026339   0.0000001783   0.0000041695   0.0000024172   0.0000012023
       -0.0000004896  -0.0000001796  -0.0000002748  -0.0000013854  -0.0000015854
        0.0000018993   0.0000036591   0.0000004377   0.0000018402   0.0000044757
        0.0000048337   0.0000004772   0.0000063134   0.0000023335   0.0000034425
       -0.0000117796   0.0000002889   0.0000022813  -0.0000008076   0.0000029387
       -0.0000017122  -0.0000049516  -0.0000005738  -0.0000003218   0.0000041170
       -0.0000025802   0.0000029326   0.0000010939   0.0000000972  -0.0000006865
       -0.0000002836   0.0000016753  -0.0000011056  -0.0000016602  -0.0000029858
        0.0000035773   0.0000010461  -0.0000000808   0.0000013137  -0.0000008514
        0.0000037554  -0.0000024704  -0.0000022291  -0.0000014509   0.0000024220
        0.0000019585   0.0000052226  -0.0000063834  -0.0000031250  -0.0000207451
       -0.0000036930  -0.0000137285  -0.0000083399  -0.0000114411  -0.0000248038
       -0.0000047062   0.0000158956   0.0000192389  -0.0593680758  -0.0571550204
        0.0116940182  -0.0933881734  -0.0068296594   0.0972514335  -0.2050862306
        0.1110817226   0.0015443252  -0.0212719872  -0.0060713977  -0.0209945993
        0.0071330877   0.0028180595   0.0074012576   0.0009762861   0.0010757932
        0.0003442717   0.0000828478   0.0002406496  -0.0004021336  -0.0002478785
       -0.0001615399  -0.0003881484  -0.0000948573  -0.0000623215   0.0001030897
       -0.0000023178  -0.0000580976  -0.0000789605   0.0001892413   0.0000273650
        0.0001381248  -0.0000190225  -0.0000120595   0.0000510193   0.0000168988
       -0.0000196572  -0.0000128531  -0.0000063295  -0.0000120534   0.0000091777
       -0.0000190060   0.0000231678   0.0000143862   0.0000040661   0.0000037880
       -0.0000192581  -0.0000061367   0.0000047506  -0.0000024600  -0.0000048830
        0.0000003234  -0.0000037537  -0.0000035764  -0.0000039807   0.0000037708
       -0.0000029636  -0.0000006689   0.0000019819  -0.0000021934  -0.0000027088
        0.0000015257  -0.0000005847  -0.0000004637   0.0000011804   0.0000000152
       -0.0000006106   0.0000001741   0.0000003249  -0.0000005425   0.0000016680
        0.0000004040  -0.0000002672   0.0000010570  -0.0000006864   0.0000003851
        0.0000016562   0.0000024569  -0.0000017467   0.0000041205   0.0000061036
       -0.0000033612   0.0000115322   0.0000088378  -0.0000032665  -0.0000041126
        0.0000043493   0.0000003003  -0.0000007415   0.0000009778   0.0000000003
       -0.0000002277  -0.0000000669  -0.0000001723  -0.0000005172  -0.0000007219
       -0.0000005850  -0.0000013981  -0.0000001408  -0.0000004636   0.0000010661
       -0.0000008971   0.0000000171   0.0000004186  -0.0000012625   0.0000002227
       -0.0000007048  -0.0000003466  -0.0000013486  -0.0000004279  -0.0000005939
       -0.0000003034   0.0000001813  -0.0000004365  -0.0000003831   0.0000003463
       -0.0000007674   0.0000001128  -0.0000002029   0.0000002827  -0.0000003486
       -0.0000000548
       -0.0114806846   0.5193172147  -0.0146686871  -0.0241478777  -0.0759274870
       -0.0298152011  -0.0192518466  -0.0148797232  -0.0194819148  -0.0016806075
       -0.0053074103   0.0006752654   0.0002047647  -0.0000917467  -0.0000182483
       -0.0000814217   0.0000944376   0.0000155884  -0.0000102773   0.0000185327
       -0.0000039113   0.0000140423   0.0000034183  -0.0000024931  -0.0000368567
        0.0000064072   0.0000112878   0.0000452140  -0.0000452531  -0.0000402362
       -0.0000201147   0.0000235654   0.0000263640  -0.0000179856   0.0000152693
        0.0000066415  -0.0000004716  -0.0000069430  -0.0000076039  -0.0000020809
        0.0000014142  -0.0000012940  -0.0000011518  -0.0000044338  -0.0000035543
        0.0000002283   0.0000048624   0.0000005220  -0.0000039681   0.0000051960
       -0.0000046113   0.0000013295  -0.0000014578   0.0000031622  -0.0000030720
        0.0000034101  -0.0000070343   0.0000011717   0.0000005592   0.0000102884
        0.0000017514  -0.0000008220   0.0000010874   0.0000023049   0.0000001130
       -0.0000022839   0.0000002856   0.0000005484  -0.0000010519   0.0000018760
       -0.0000005333   0.0000009858   0.0000030329  -0.0000010996   0.0000012847
       -0.0000001503   0.0000000920   0.0000004064   0.0000033010  -0.0000014743
        0.0000028980   0.0000025259  -0.0000006694  -0.0000005193   0.0000029771
       -0.0000009880   0.0000007589   0.0000030111   0.0000019387   0.0000018927
       -0.0000025299   0.0000050666  -0.0000040005   0.0000000363  -0.0000022898
       -0.0000021629  -0.0000048359   0.0000027835  -0.0000002575   0.0000067102
        0.0000007743   0.0000038382  -0.0000042222   0.0000011864   0.0000002237
        0.0000019187   0.0000020838   0.0000035365  -0.0000014461  -0.0000001691
       -0.0000004160  -0.0000003299  -0.0000004324  -0.0000011324   0.0000000740
        0.0000005363   0.0000033856   0.0000067367  -0.0000019634  -0.0000034271
       -0.0000074226  -0.0000009443   0.0000104816  -0.0000006704   0.0000058352
       -0.0000121200  -0.0000004942  -0.0000001401  -0.0000022118   0.0000011184
       -0.0000013016  -0.0000019391  -0.0000016560   0.0000008542   0.0000017703
       -0.0000010575   0.0000024171  -0.0000029005  -0.0000023437   0.0000016621
        0.0000018357   0.0000006008  -0.0000014386   0.0000018021  -0.0000004986
        0.0000004312  -0.0000003265  -0.0000006815   0.0000006943  -0.0000000464
        0.0000017319  -0.0000013490  -0.0000016927  -0.0000014017   0.0000014936
        0.0000003247   0.0000073622  -0.0000063216  -0.0000006456  -0.0000286691
        0.0000097430  -0.0000033435   0.0000560261  -0.0000015135   0.0000125603
       -0.0000245151  -0.0000027956  -0.0000035390  -0.0573297572  -0.2615191391
        0.0383618782  -0.0067365659  -0.0462791687   0.0159994738   0.1115546744
       -0.1211626944   0.0007764093   0.0106069122   0.0045485051   0.0112218068
        0.0003206743   0.0007545998  -0.0005359305  -0.0010314122   0.0007315493
       -0.0008073752   0.0000902431   0.0005522282  -0.0006813485  -0.0009211600
       -0.0008587351  -0.0010717737   0.0000236889  -0.0000612359   0.0001927350
        0.0000253369  -0.0000041806  -0.0000442731  -0.0001178353   0.0000130107
       -0.0001181138   0.0000049714  -0.0000215364   0.0000205141  -0.0000500108
       -0.0000089972  -0.0000285887  -0.0000168231   0.0000147482  -0.0000005714
        0.0000090410   0.0000546246   0.0000469459   0.0000312601   0.0000067356
       -0.0000352589  -0.0000044702   0.0000067714  -0.0000041344   0.0000027105
       -0.0000033245  -0.0000020833   0.0000009063  -0.0000033107   0.0000037144
       -0.0000000060   0.0000016250   0.0000030226  -0.0000000469   0.0000007728
        0.0000013844  -0.0000002434  -0.0000006679   0.0000017704  -0.0000009960
        0.0000005569   0.0000010852  -0.0000009896   0.0000008786  -0.0000001608
       -0.0000001107   0.0000005963  -0.0000006688  -0.0000000255   0.0000006710
       -0.0000003438   0.0000005576  -0.0000001050  -0.0000001578  -0.0000049026
       -0.0000026898  -0.0000040937  -0.0000045041  -0.0000049953   0.0000024420
        0.0000028864  -0.0000011368   0.0000008393   0.0000005621   0.0000001154
       -0.0000003027  -0.0000009544   0.0000003048  -0.0000010763  -0.0000018755
        0.0000003330  -0.0000007789   0.0000008097  -0.0000006978   0.0000005756
        0.0000006495  -0.0000006452   0.0000001116  -0.0000002347  -0.0000008333
        0.0000010044  -0.0000007389   0.0000003059   0.0000010266  -0.0000006532
        0.0000006505   0.0000011126  -0.0000005317   0.0000011892   0.0000002669
       -0.0000002517   0.0000012028  -0.0000003015   0.0000004251   0.0000002787
       -0.0000001694
       -0.0287021117  -0.0146686871   0.4899761333  -0.0603723560  -0.0291588912
       -0.1383789125  -0.0007481228  -0.0029443418   0.0008912762   0.0003517611
        0.0004566743   0.0003837763   0.0000091043   0.0001261789   0.0001153882
        0.0000038816  -0.0000097117  -0.0000164623   0.0000110528  -0.0000048603
       -0.0000093580  -0.0000031321  -0.0000011052   0.0000113452   0.0000174971
       -0.0000158451  -0.0000373475  -0.0000130658   0.0000413139   0.0000651450
       -0.0000051501  -0.0000135995  -0.0000574043   0.0000127188  -0.0000040261
        0.0000080783  -0.0000092342   0.0000105511   0.0000075679  -0.0000039601
        0.0000024311  -0.0000108708   0.0000025241  -0.0000025913   0.0000007716
       -0.0000011882  -0.0000060286   0.0000080985   0.0000008796  -0.0000016616
        0.0000031263  -0.0000018361  -0.0000014483  -0.0000108964   0.0000079145
       -0.0000064638   0.0000176103  -0.0000084963   0.0000077294  -0.0000332772
        0.0000141339  -0.0000084507   0.0000015999  -0.0000044699   0.0000010443
       -0.0000003706   0.0000041862  -0.0000026778   0.0000043148  -0.0000014202
        0.0000008380  -0.0000031313  -0.0000041904   0.0000013803   0.0000003085
        0.0000031786  -0.0000002839  -0.0000047385  -0.0000089581   0.0000043355
       -0.0000036555  -0.0000033775   0.0000005057  -0.0000000066  -0.0000047865
        0.0000021009  -0.0000009738   0.0000029729  -0.0000013924   0.0000026752
        0.0000009143  -0.0000015484   0.0000019670  -0.0000064329   0.0000002682
        0.0000271164   0.0000112244   0.0000018560   0.0000057529  -0.0000071742
        0.0000005402   0.0000003958  -0.0000016617  -0.0000004936  -0.0000013798
        0.0000011771  -0.0000005078  -0.0000025856  -0.0000007508  -0.0000001509
        0.0000006513  -0.0000025546   0.0000004066   0.0000018110   0.0000005846
       -0.0000002552  -0.0000014881  -0.0000039620   0.0000009897   0.0000045143
        0.0000014427   0.0000000035  -0.0000091836   0.0000000660  -0.0000010255
        0.0000067827  -0.0000004245   0.0000013561  -0.0000012256  -0.0000002949
       -0.0000006505   0.0000023806   0.0000001002  -0.0000009712   0.0000008613
       -0.0000004993   0.0000004087  -0.0000000008   0.0000016700  -0.0000017552
       -0.0000004599  -0.0000009591   0.0000008743  -0.0000000408   0.0000013780
       -0.0000028500   0.0000015396  -0.0000013064   0.0000005457   0.0000002497
       -0.0000007843  -0.0000001714  -0.0000000597   0.0000009565  -0.0000024345
        0.0000013017  -0.0000018312   0.0000006472   0.0000000251   0.0000134384
       -0.0000134638  -0.0000103856  -0.0000218245   0.0000127258   0.0000154961
        0.0000103607  -0.0000101597  -0.0000154875   0.0117997737   0.0385250619
       -0.0497993287   0.0969710416   0.0156621981  -0.2316908503   0.0016008910
        0.0004337156  -0.0442965006  -0.0042927443  -0.0004756464  -0.0022035427
       -0.0173416865  -0.0091858648  -0.0264387703   0.0003466554   0.0004452666
        0.0002936428   0.0004891084   0.0008362826   0.0008557194  -0.0000473926
        0.0000916786   0.0001577952  -0.0000520076   0.0000298525   0.0002270768
       -0.0000400690  -0.0000230768  -0.0000421543   0.0000277248  -0.0001078200
       -0.0000414112   0.0000055172   0.0000063507   0.0000428786   0.0000176493
       -0.0000301659  -0.0000018027  -0.0000004446  -0.0000071867   0.0000102529
       -0.0000145485   0.0000080391  -0.0000136427  -0.0000114650  -0.0000036870
        0.0000002082  -0.0000039689  -0.0000003782   0.0000023395   0.0000021884
        0.0000031765   0.0000028502   0.0000008010   0.0000041716  -0.0000070717
        0.0000010872  -0.0000007627  -0.0000015964  -0.0000003316   0.0000032671
       -0.0000000415  -0.0000002874   0.0000006765  -0.0000015823  -0.0000011066
        0.0000002685  -0.0000003075  -0.0000017079   0.0000001640  -0.0000004489
       -0.0000013143   0.0000002543  -0.0000016067  -0.0000027167   0.0000004372
       -0.0000008701   0.0000008146  -0.0000001226  -0.0000029185   0.0000081312
       -0.0000026711  -0.0000041724  -0.0000011119   0.0000011519  -0.0000009181
        0.0000015385   0.0000003908   0.0000001996   0.0000006333  -0.0000009396
       -0.0000007927  -0.0000007461  -0.0000010132  -0.0000000635  -0.0000008470
       -0.0000005006   0.0000001747   0.0000015964  -0.0000002372  -0.0000008530
        0.0000006164   0.0000004739   0.0000003517   0.0000008523   0.0000005084
       -0.0000001581   0.0000005199  -0.0000000399   0.0000004956  -0.0000002166
        0.0000000345  -0.0000001817  -0.0000005134  -0.0000003543   0.0000001978
       -0.0000008578   0.0000001024  -0.0000000180   0.0000001417  -0.0000002577
       -0.0000009373
       -0.1197553855  -0.0241478777  -0.0603723560   0.5120324227  -0.0325410533
       -0.0238159151  -0.0750366071  -0.0291936717   0.0088072434  -0.0056279442
       -0.0174785101  -0.0001943044   0.0003745529   0.0001710020   0.0000629100
        0.0000431807  -0.0001119247   0.0000755141  -0.0000685808   0.0000123624
       -0.0000933548   0.0000215085  -0.0000144069  -0.0000104444   0.0000007308
        0.0000857171   0.0000833788  -0.0001073084  -0.0001731155  -0.0001736338
        0.0001210246   0.0001366032   0.0000590369   0.0000202211   0.0000064415
        0.0000087905  -0.0000171723  -0.0000052134  -0.0000086138  -0.0000036915
       -0.0000013389  -0.0000056074   0.0000020375  -0.0000022883  -0.0000056035
        0.0000094845   0.0000020206   0.0000077978   0.0000035355   0.0000081678
        0.0000088107   0.0000025035   0.0000076859  -0.0000045856  -0.0000038478
       -0.0000085145  -0.0000016431   0.0000412387   0.0000068570  -0.0000208399
       -0.0000272936   0.0000064463  -0.0000110714   0.0000061649  -0.0000003420
        0.0000012117  -0.0000001409  -0.0000006030   0.0000040522  -0.0000025067
        0.0000025464  -0.0000049417  -0.0000054185   0.0000055357  -0.0000083780
        0.0000071869  -0.0000049671   0.0000147024   0.0000008543   0.0000031447
       -0.0000133968  -0.0000032856   0.0000019178   0.0000072111   0.0000168604
       -0.0000014779  -0.0000077777  -0.0000063626   0.0000183679  -0.0000007578
       -0.0000122749   0.0000291527  -0.0000142224  -0.0000183818  -0.0000141467
        0.0000496701  -0.0000158045   0.0000003977   0.0000080194   0.0000109512
       -0.0000060422   0.0000000441  -0.0000043009   0.0000002806   0.0000024673
        0.0000062341  -0.0000010268  -0.0000036296   0.0000039901   0.0000004563
       -0.0000025173  -0.0000016144   0.0000004449  -0.0000015403  -0.0000031053
        0.0000018970  -0.0000001515  -0.0000075465  -0.0000001483   0.0000027648
        0.0000145194   0.0000089333  -0.0000066035  -0.0000021741  -0.0000068235
        0.0000112784   0.0000026450   0.0000028023  -0.0000019844   0.0000012424
       -0.0000019101   0.0000022750   0.0000005719   0.0000003212   0.0000011536
       -0.0000005510   0.0000015350   0.0000019141   0.0000025342  -0.0000021226
       -0.0000008610  -0.0000009237   0.0000025681  -0.0000017623   0.0000018946
       -0.0000001220   0.0000015710   0.0000006960   0.0000028726  -0.0000000827
       -0.0000003208   0.0000037374  -0.0000000685   0.0000041068  -0.0000000221
        0.0000006012  -0.0000074582   0.0000011745  -0.0000005052  -0.0000196291
        0.0000127951  -0.0000039387  -0.0000001176  -0.0000555886  -0.0000462429
       -0.0000150149   0.0000457066   0.0000473970  -0.0068212041  -0.0052522744
       -0.0072764429   0.0079702517   0.0034205914   0.0071899807  -0.0214232229
       -0.0055931756  -0.0207387661  -0.1951442947   0.1106234241   0.0046115701
       -0.0934646606  -0.0052365283   0.0932260680   0.0041108573   0.0240352049
       -0.0048197082  -0.0049556848  -0.0165946580   0.0052102946  -0.0014713767
       -0.0018309689  -0.0021749260   0.0005545077   0.0005821589   0.0009813053
       -0.0001562683  -0.0001569935   0.0000617205  -0.0011171756  -0.0007917850
       -0.0007985849   0.0000179872  -0.0000274010   0.0000585560  -0.0000582812
        0.0000059291  -0.0000072406  -0.0000101895  -0.0000094345   0.0000066998
       -0.0000223770   0.0000655705   0.0000388696   0.0000251287  -0.0000160916
       -0.0000219018   0.0000033432   0.0000252771   0.0000021425  -0.0000038671
       -0.0000035881   0.0000018069  -0.0000041560  -0.0000024679   0.0000023888
       -0.0000042197  -0.0000031835   0.0000010546  -0.0000058670  -0.0000001488
        0.0000037398  -0.0000023823   0.0000004810  -0.0000015437   0.0000036226
       -0.0000015097  -0.0000036072   0.0000061667  -0.0000034397   0.0000014885
        0.0000003466  -0.0000013841   0.0000036525   0.0000078152  -0.0000046851
        0.0000055012   0.0000015459  -0.0000040057   0.0000087149   0.0000014751
       -0.0000134983  -0.0000272444  -0.0000125586  -0.0000210730   0.0000247929
        0.0000004036  -0.0000023367  -0.0000015972  -0.0000000329   0.0000010954
        0.0000045877   0.0000020309   0.0000004419   0.0000034155   0.0000027488
       -0.0000008681   0.0000003149  -0.0000015557  -0.0000016950   0.0000008713
       -0.0000022749   0.0000018796  -0.0000017025  -0.0000011110   0.0000009535
       -0.0000032430  -0.0000002890  -0.0000019097  -0.0000018100  -0.0000004474
       -0.0000007468  -0.0000017673  -0.0000002457  -0.0000015248  -0.0000008399
       -0.0000011472  -0.0000013673  -0.0000002539  -0.0000014710  -0.0000008986
       -0.0000008371
       -0.0238692938  -0.0759274870  -0.0291588912  -0.0325410533   0.4764235877
       -0.0034848445  -0.0274847672  -0.1816439125   0.0231996521  -0.0073626250
       -0.0142799859  -0.0036885177  -0.0001890056   0.0002984556   0.0001744123
        0.0002158804  -0.0000395461  -0.0000120416  -0.0000007775  -0.0000640270
       -0.0000424621  -0.0000172583   0.0000139505   0.0000145508   0.0000478029
       -0.0000118623  -0.0000107637  -0.0000852105   0.0000728625   0.0000081872
        0.0000788882  -0.0000538233   0.0000026584   0.0000407400  -0.0000314049
        0.0000035054   0.0000020693   0.0000103769   0.0000110579   0.0000062626
       -0.0000070443   0.0000047257   0.0000039723   0.0000112351   0.0000066703
       -0.0000068810  -0.0000036742  -0.0000144052  -0.0000009761  -0.0000063589
        0.0000010142  -0.0000035492   0.0000049693   0.0000108473  -0.0000053755
        0.0000110407  -0.0000083954  -0.0000124820  -0.0000183092   0.0000310246
       -0.0000093777   0.0000096779   0.0000053603  -0.0000037651  -0.0000007484
       -0.0000001099  -0.0000041998   0.0000018466  -0.0000074509   0.0000026377
       -0.0000038595   0.0000058464  -0.0000012676  -0.0000024386   0.0000044147
       -0.0000062781   0.0000021157  -0.0000032807   0.0000036070  -0.0000040144
        0.0000086368   0.0000017437  -0.0000009037  -0.0000076171  -0.0000073267
       -0.0000015252   0.0000079719   0.0000031713  -0.0000140300  -0.0000063434
        0.0000031444  -0.0000214344   0.0000071405   0.0000238290   0.0000103044
       -0.0000507472  -0.0000001894   0.0000076891   0.0000002054  -0.0000024290
       -0.0000026360  -0.0000045613   0.0000009453  -0.0000003927  -0.0000005504
        0.0000021763  -0.0000030757  -0.0000030945  -0.0000002307   0.0000003900
        0.0000026127   0.0000003442  -0.0000007771  -0.0000010837  -0.0000025714
       -0.0000009388  -0.0000019928  -0.0000025111   0.0000007837   0.0000007681
        0.0000078124  -0.0000080305  -0.0000026129   0.0000027156  -0.0000030207
        0.0000015401   0.0000019354  -0.0000024221   0.0000013532  -0.0000022862
        0.0000027737   0.0000025403   0.0000021655  -0.0000014024  -0.0000029302
       -0.0000004204  -0.0000013668   0.0000025514  -0.0000007580  -0.0000000640
        0.0000010123   0.0000001683   0.0000011911  -0.0000041966  -0.0000034540
        0.0000028506  -0.0000003382   0.0000004120  -0.0000018898  -0.0000005034
       -0.0000019129   0.0000004256   0.0000017381  -0.0000011251  -0.0000000765
       -0.0000022349  -0.0000093525   0.0000108811   0.0000034659   0.0000253511
       -0.0000194474  -0.0000043277  -0.0000703720   0.0000278092  -0.0000093770
        0.0000235430  -0.0000084129   0.0000000420  -0.0196688504  -0.0122341386
       -0.0212120923   0.0006997200   0.0005676577  -0.0003666664   0.0104003178
        0.0046107997   0.0115659704   0.1104220197  -0.1206615004  -0.0006295402
       -0.0051399098  -0.0451828570   0.0154988565  -0.0010121424  -0.0252385294
        0.0042599345  -0.0036518483  -0.0068030217   0.0039772129  -0.0015594176
       -0.0003584989  -0.0013670425   0.0004880691   0.0007669558   0.0009692387
       -0.0000975076  -0.0000993878  -0.0000487108   0.0003099317  -0.0001048459
        0.0003160627  -0.0000519520  -0.0000175879   0.0000095270   0.0001099081
       -0.0000189571   0.0000374484  -0.0000181595   0.0000115596   0.0000254693
       -0.0000302418  -0.0000046958   0.0000015892   0.0000024625  -0.0000134317
       -0.0000227084  -0.0000042312   0.0000111456  -0.0000072576  -0.0000019376
       -0.0000033572  -0.0000020160   0.0000010054   0.0000026979   0.0000029681
        0.0000004813   0.0000024109  -0.0000036867   0.0000041361  -0.0000038587
       -0.0000022551   0.0000013603   0.0000005391   0.0000007208  -0.0000008215
        0.0000007405   0.0000018051  -0.0000020046   0.0000017127  -0.0000002028
        0.0000009548   0.0000005929  -0.0000001581  -0.0000037751   0.0000036881
       -0.0000003783  -0.0000011709   0.0000035481  -0.0000017849  -0.0000004583
        0.0000108391   0.0000154159   0.0000082216   0.0000145450  -0.0000103432
       -0.0000008358   0.0000021437   0.0000006384   0.0000001720   0.0000005465
       -0.0000004489  -0.0000006828   0.0000004681   0.0000003734   0.0000003057
        0.0000004066   0.0000000706   0.0000005231   0.0000003748  -0.0000008119
        0.0000011597  -0.0000012226  -0.0000001579  -0.0000003163   0.0000001881
        0.0000006245   0.0000004718   0.0000000567  -0.0000013451   0.0000006473
       -0.0000002901  -0.0000002204   0.0000008097  -0.0000008726  -0.0000001298
        0.0000010069  -0.0000011918   0.0000008186   0.0000003431  -0.0000002457
        0.0000013801
       -0.0608159132  -0.0298152011  -0.1383789125  -0.0238159151  -0.0034848445
        0.5076486054   0.0086237438   0.0224421698  -0.0692985796  -0.0058813430
       -0.0194858894   0.0012018233   0.0002029804  -0.0001187006   0.0001726285
        0.0000167608  -0.0000510904   0.0001832229  -0.0001335745   0.0000088711
       -0.0001123039   0.0000063653   0.0000068190  -0.0000310320  -0.0000633257
       -0.0000000969  -0.0000062689   0.0001132030  -0.0000355265   0.0000034166
       -0.0000934917  -0.0000137187  -0.0000183905  -0.0000509293   0.0000254981
       -0.0000061334   0.0000180947  -0.0000188030  -0.0000090539  -0.0000034154
        0.0000121847   0.0000041653  -0.0000017257  -0.0000048932   0.0000012599
       -0.0000003738   0.0000006274   0.0000054480  -0.0000002823   0.0000006683
        0.0000006377   0.0000012855  -0.0000045469  -0.0000067081   0.0000155668
       -0.0000114717   0.0000247458  -0.0000112270   0.0000161003  -0.0000263300
        0.0000172396  -0.0000119448  -0.0000018009  -0.0000030666   0.0000007858
        0.0000036486   0.0000019305   0.0000003083   0.0000003278   0.0000034995
       -0.0000001105  -0.0000027615   0.0000014696  -0.0000011905   0.0000069964
        0.0000008744   0.0000016159  -0.0000084634  -0.0000081626   0.0000049076
       -0.0000069649   0.0000051715  -0.0000028501   0.0000037850  -0.0000052558
        0.0000013154   0.0000130865  -0.0000018951   0.0000068234  -0.0000027625
        0.0000142835  -0.0000007185   0.0000024952  -0.0000104597   0.0000006234
        0.0000184504  -0.0000161374  -0.0000010364  -0.0000104489   0.0000171162
        0.0000011027   0.0000107301  -0.0000017194   0.0000026551  -0.0000001011
       -0.0000062402   0.0000066009   0.0000077975  -0.0000059852   0.0000012764
        0.0000041137   0.0000015694  -0.0000006348  -0.0000001213   0.0000007392
       -0.0000002596   0.0000033909   0.0000125673  -0.0000033720  -0.0000041358
       -0.0000206348   0.0000041529   0.0000102969  -0.0000004269   0.0000059455
       -0.0000116328  -0.0000025202  -0.0000006600   0.0000001956   0.0000022998
       -0.0000007790  -0.0000067261  -0.0000016933  -0.0000005263   0.0000037637
       -0.0000014156   0.0000006695   0.0000019158  -0.0000001678   0.0000010720
       -0.0000025063   0.0000003862  -0.0000025374   0.0000040545  -0.0000008141
       -0.0000005949   0.0000017265  -0.0000017669   0.0000011704   0.0000003598
        0.0000041484  -0.0000054223  -0.0000023536  -0.0000041876   0.0000020512
        0.0000043949   0.0000165646  -0.0000141853  -0.0000048377  -0.0000377079
        0.0000240349   0.0000072650   0.0001139773   0.0000050858   0.0000524828
       -0.0000372170  -0.0000116714  -0.0000234196   0.0008375266  -0.0004829450
        0.0018218409  -0.0166282155  -0.0088058685  -0.0269453199  -0.0043743583
        0.0008728875  -0.0018373097   0.0041512966  -0.0001796853  -0.0453015809
        0.0936369676   0.0158013440  -0.2197367507  -0.0002866422   0.0019482882
        0.0003795507   0.0084308809   0.0259283483  -0.0076268947  -0.0029380015
       -0.0028638686  -0.0027871179  -0.0006595560  -0.0013228532   0.0008129304
       -0.0000748252  -0.0000631900  -0.0000862525  -0.0002201194  -0.0003226163
       -0.0000516344   0.0000072443  -0.0000265031  -0.0000168902  -0.0000373192
       -0.0000003921  -0.0000266164  -0.0000413315  -0.0000327980  -0.0000089446
        0.0000280533   0.0000512344   0.0000705275   0.0000101133   0.0000040134
       -0.0000684038   0.0000060535   0.0000077364   0.0000096258   0.0000001363
        0.0000060216  -0.0000032638  -0.0000003731   0.0000032649  -0.0000051205
        0.0000017575  -0.0000013326  -0.0000015205   0.0000012277   0.0000008297
       -0.0000001774   0.0000004907  -0.0000000799  -0.0000023070  -0.0000003844
       -0.0000000501   0.0000010616  -0.0000029980   0.0000005397   0.0000002807
       -0.0000013712   0.0000001802  -0.0000023479  -0.0000051572   0.0000004756
       -0.0000018836  -0.0000010023  -0.0000003844  -0.0000081524  -0.0000003688
       -0.0000074367   0.0000040389  -0.0000076390   0.0000009127  -0.0000088393
        0.0000041423  -0.0000022440   0.0000024803  -0.0000007343  -0.0000022621
       -0.0000033220  -0.0000034331  -0.0000008456  -0.0000020209  -0.0000036433
       -0.0000002174  -0.0000005941  -0.0000000395   0.0000018449   0.0000015647
       -0.0000001466   0.0000012876   0.0000004431   0.0000004482   0.0000005906
        0.0000003090   0.0000006673   0.0000004796   0.0000012142  -0.0000002193
        0.0000006035   0.0000007168  -0.0000007280   0.0000008888   0.0000015095
       -0.0000013797   0.0000020299   0.0000003661   0.0000001337  -0.0000000875
        0.0000003228
       -0.0076266301  -0.0192518466  -0.0007481228  -0.0750366071  -0.0274847672
        0.0086237438   0.5120352005  -0.0235135337  -0.0272734858  -0.1041776739
       -0.0270974359  -0.0520873601  -0.0214729349  -0.0072798609  -0.0201245184
       -0.0046638593   0.0022413801   0.0000515960   0.0001154512   0.0001987712
        0.0000412121   0.0000389444   0.0000237754  -0.0000560271   0.0000660267
        0.0000389390   0.0001524964  -0.0002034335  -0.0000580677  -0.0002306476
        0.0002197057   0.0000297537   0.0000556335   0.0000580243  -0.0000344541
        0.0000277487  -0.0000162539   0.0000092954   0.0000027695   0.0000012850
       -0.0000244053  -0.0000125901  -0.0000050310   0.0000244536  -0.0000125383
        0.0000039557  -0.0000055527  -0.0000149795   0.0000057030   0.0000003834
        0.0000137222  -0.0000031059   0.0000129201   0.0000048564  -0.0000140846
       -0.0000028172  -0.0000345236   0.0000094264  -0.0000091010   0.0000271134
       -0.0000151775   0.0000080800   0.0000089280   0.0000013746   0.0000014473
       -0.0000065049   0.0000007289  -0.0000013166   0.0000027597  -0.0000046898
        0.0000010599   0.0000032632  -0.0000051408   0.0000034395  -0.0000062197
        0.0000017364  -0.0000021745   0.0000081237   0.0000076275  -0.0000059783
        0.0000129621  -0.0000035588   0.0000039297  -0.0000144090   0.0000042117
       -0.0000007245   0.0000014361   0.0000191471   0.0000027725   0.0000085811
       -0.0000177932   0.0000123652  -0.0000094497   0.0000201146  -0.0000098834