$hessian                                                                        
        0.4982690266  -0.0322591338   0.0014111480  -0.1136091893  -0.0662275400
        0.0013503135  -0.0248691642  -0.0208291820   0.0023592213  -0.0050924095
        0.0013874579   0.0014156063  -0.0009787560  -0.0011723135  -0.0000653611
       -0.0000289314  -0.0000068212  -0.0000513823   0.0000150259   0.0000075933
       -0.0000021361  -0.0000133104   0.0000041332  -0.0000074643   0.0000391400
       -0.0000901882  -0.0000142023  -0.0000897270   0.0001678365   0.0000604304
       -0.0000009136  -0.0001672239  -0.0000097504   0.0001756898  -0.0002554271
       -0.0000993903  -0.0002105043   0.0001771136   0.0000861162   0.0000567490
       -0.0001875106  -0.0000299141   0.0000287560   0.0000856706  -0.0000218808
        0.0000199699  -0.0000195130  -0.0000059171   0.0000139668   0.0000393064
       -0.0000087757   0.0000195158  -0.0000755472   0.0000347346  -0.0000250085
        0.0001241858  -0.0000027939  -0.0000090485  -0.0000917398   0.0000558929
       -0.0000183623  -0.0000204212   0.0000187696  -0.0000298651  -0.0000090316
        0.0000102743   0.0000477733   0.0000023122   0.0000089101   0.0000099652
       -0.0000313277   0.0000643904  -0.0000561789   0.0000166636  -0.0000547363
        0.0000581344   0.0000050275   0.0000194841  -0.0000659163   0.0000042381
       -0.0000486111  -0.0000324875  -0.0000314078   0.0000095482   0.0000197804
       -0.0001294723  -0.0000135813  -0.0002277323   0.0002896720   0.0000304542
       -0.0000089813   0.0000182347  -0.0000050521  -0.0000042925   0.0001179612
       -0.0000636802   0.0001096160   0.0000173824  -0.0000316065   0.0000413318
       -0.0001365838  -0.0001111888  -0.0000177189   0.0000506431  -0.0001628933
       -0.0000917930   0.0000387845  -0.0000250631  -0.0000373590   0.0000026902
        0.0000314085  -0.0000516747   0.0000591969  -0.0000157959   0.0000550706
        0.0000807295  -0.0000202908   0.0000597872  -0.0001414736  -0.0000231786
        0.0000764277   0.0000126869   0.0000298276  -0.0000066543  -0.0000215222
        0.0000130543  -0.0000231667   0.0000118522   0.0000086919   0.0000154101
        0.0000034135  -0.0000042622  -0.0000195495  -0.0000023149   0.0000257356
        0.0000018342   0.0000063190  -0.0000173074  -0.0000104804   0.0000072696
       -0.0000094146   0.0000161034  -0.0000088948  -0.0000168014  -0.0000085617
       -0.0000060400   0.0000118186  -0.0000416418   0.0000088179   0.0000041587
        0.0000001007   0.0000189505  -0.0000233336   0.0001940224   0.0000449058
        0.0001289724  -0.0000254665  -0.0000119191  -0.0000239806  -0.0001919747
        0.0002310141  -0.0000306506   0.0001238787  -0.0001488713  -0.0000655388
       -0.0000498527   0.0001951446   0.0000934921  -0.2514587388   0.0726279513
        0.0319261927  -0.0610611823   0.0398885927  -0.0475016039  -0.0445621880
        0.0075419116   0.0104485580  -0.0015937464  -0.0040111947  -0.0013521353
        0.0041433292   0.0042949124   0.0005772461   0.0006418838  -0.0005247458
       -0.0005040284   0.0007962858  -0.0009953055   0.0001574987  -0.0000894917
        0.0000734921  -0.0000809941  -0.0000306079   0.0001021109   0.0001219526
        0.0000861858  -0.0000845341   0.0000190078  -0.0004357054   0.0000842166
        0.0001005516   0.0000066398  -0.0000158682   0.0000223526  -0.0000073163
       -0.0000334494  -0.0000406084   0.0000098598   0.0000043409   0.0000059590
       -0.0000036264   0.0000545310  -0.0000089489   0.0000006434   0.0000026901
       -0.0000026516   0.0000100554  -0.0000075395  -0.0000120345  -0.0000095805
        0.0000073798   0.0000055258  -0.0000044241  -0.0000001599   0.0000017916
        0.0000021272  -0.0000050667  -0.0000032812   0.0000037850   0.0000029344
       -0.0000000684  -0.0000019669   0.0000039463   0.0000048053  -0.0000012192
        0.0000001792  -0.0000006525  -0.0000009046   0.0000015421   0.0000004218
       -0.0000072467  -0.0000007191   0.0000012019   0.0000111305   0.0000232708
        0.0000100681  -0.0000169359   0.0000069658   0.0000303482   0.0000662394
       -0.0000243302  -0.0000068916   0.0000037812  -0.0000520116   0.0000227382
        0.0000394695   0.0000096512  -0.0000103247   0.0000181983  -0.0000132416
        0.0000115882   0.0000272622   0.0000139522  -0.0000090807   0.0000269989
       -0.0000184954  -0.0000028462  -0.0000005193  -0.0000059729   0.0000042563
       -0.0000063710   0.0000020679  -0.0000018346   0.0000014671  -0.0000014960
       -0.0000017901  -0.0000005288   0.0000036728  -0.0000064958  -0.0000030817
       -0.0000020042   0.0000026468  -0.0000135980   0.0000018707  -0.0000083536
       -0.0000104090  -0.0000089124   0.0000009753  -0.0000963567  -0.0001029220
       -0.0001175803
       -0.0322591338   0.4847637018   0.0021873062  -0.0651964972  -0.1524101067
        0.0030447411  -0.0003408223   0.0039845200   0.0002704142   0.0011623788
        0.0001300940  -0.0003424334   0.0001910733   0.0002927667  -0.0000501182
        0.0000129243   0.0000261812   0.0000158647   0.0000079718  -0.0000144183
       -0.0000192054   0.0000092953   0.0000052863  -0.0000007538  -0.0000372831
        0.0002538375   0.0000098095   0.0005135998   0.0001934911  -0.0000263334
       -0.0001582630  -0.0002513173  -0.0000335861  -0.0005594591  -0.0000779434
        0.0000962819   0.0003286555  -0.0003439743  -0.0000840253  -0.0000753724
        0.0002638735   0.0000472466  -0.0000452140  -0.0001122920   0.0000089690
       -0.0000424388   0.0000347733  -0.0000022504   0.0000207541  -0.0000618284
        0.0000115283   0.0000028643   0.0000625866  -0.0000348358   0.0000222548
       -0.0001323746   0.0000252556   0.0000006068   0.0000765621  -0.0000612683
        0.0000249306   0.0000184472   0.0000285378   0.0000021208   0.0000060493
       -0.0000104257   0.0000030495   0.0000020595   0.0000001204   0.0000123051
        0.0000097296  -0.0000086392   0.0000340366  -0.0000022799   0.0000209810
       -0.0000115412  -0.0000037499  -0.0000022699   0.0000340597  -0.0000113772
        0.0000220040   0.0000049875   0.0000213972  -0.0000143577  -0.0000630362
       -0.0000509986   0.0000318515   0.0000893009  -0.0001838792  -0.0000539694
        0.0000192457  -0.0000140113  -0.0000472000  -0.0000381333  -0.0000482343
        0.0000009460  -0.0001576129   0.0002369220  -0.0000036240  -0.0001761727
       -0.0002312475   0.0001762243   0.0000435722   0.0002309602   0.0000775390
        0.0001205305  -0.0001749555   0.0000424666   0.0000594692   0.0000113444
        0.0000605973  -0.0000332524  -0.0000902611   0.0000551327  -0.0000013672
        0.0000131037   0.0000190621  -0.0002176033  -0.0001106905   0.0001181550
        0.0000224179   0.0000107114  -0.0000953488   0.0000344766  -0.0000282547
        0.0000467274  -0.0000006556   0.0000013667   0.0000076504   0.0000086904
        0.0000113588  -0.0000176306   0.0000136083   0.0000042122  -0.0000187188
        0.0000078337  -0.0000140626   0.0000300691  -0.0000399768   0.0000271967
       -0.0000286806   0.0000254809   0.0000010910  -0.0000051007  -0.0000047886
        0.0000096340  -0.0000385039  -0.0000090825  -0.0000034981   0.0000365884
       -0.0000238738   0.0000266082  -0.0000580983   0.0001957322  -0.0001977873
        0.0000607840  -0.0001177511  -0.0000028702   0.0000746497   0.0005039393
        0.0001347441  -0.0000555950  -0.0002165331   0.0000450745   0.0000986888
        0.0000185144  -0.0000792486  -0.0000252032   0.0722812295  -0.0669050791
       -0.0109520193   0.0395413424  -0.1302380314   0.1075330534   0.0075090989
       -0.1039264693  -0.1028699233  -0.0113915064  -0.0158369529  -0.0026983830
       -0.0134908191  -0.0210965161   0.0038331270   0.0008142340   0.0005554068
        0.0000666764   0.0008314160   0.0007798948  -0.0003815585   0.0000076589
        0.0001734665  -0.0001512444   0.0000305882   0.0000678736   0.0002010638
       -0.0000658968  -0.0000128878   0.0000265802   0.0001259981   0.0000503212
        0.0000159261   0.0000150624  -0.0000093725   0.0000045448  -0.0000403150
       -0.0000150172   0.0000270200   0.0000060762   0.0000150794   0.0000041812
        0.0000087633   0.0000088488   0.0000055784  -0.0000089600   0.0000119732
       -0.0000089504  -0.0000087837  -0.0000095491   0.0000051694   0.0000133657
        0.0000074402  -0.0000029401   0.0000063010  -0.0000065684   0.0000020553
        0.0000033754  -0.0000028004   0.0000068386  -0.0000002007  -0.0000059557
        0.0000041016   0.0000000778   0.0000053256  -0.0000100974   0.0000024378
        0.0000024430  -0.0000027385  -0.0000047847   0.0000003339  -0.0000013233
        0.0000061226  -0.0000017776   0.0000009907   0.0000221719   0.0000001529
        0.0000031107   0.0000298376  -0.0000102766  -0.0000390795   0.0001037012
       -0.0001141958  -0.0000636425  -0.0000658177  -0.0000251780   0.0000110918
        0.0000166632   0.0000119068  -0.0000182697  -0.0000197425   0.0000289642
       -0.0000449489   0.0000024425   0.0000333786  -0.0000360475   0.0000333164
        0.0000336039  -0.0000365647  -0.0000034491   0.0000059421  -0.0000114675
       -0.0000007513   0.0000033843  -0.0000028071   0.0000013386   0.0000030933
       -0.0000029016   0.0000000018   0.0000017827  -0.0000010575  -0.0000084072
        0.0000060891  -0.0000070439  -0.0000248732   0.0000107906  -0.0000073949
        0.0000151372   0.0000089235  -0.0000188770  -0.0000182681   0.0001321854
        0.0000301543
        0.0014111480   0.0021873062   0.5227668615   0.0017225962   0.0034271712
       -0.0679985997   0.0047968883   0.0046251956   0.0000324740   0.0010585331
       -0.0003215420   0.0000399294   0.0002330824   0.0002182457   0.0001935964
       -0.0000304726   0.0000205209   0.0000320094  -0.0000082565  -0.0000022617
       -0.0000017783   0.0000101096   0.0000068643   0.0000052394  -0.0000692567
        0.0002509690   0.0000304409   0.0004069770   0.0001418589  -0.0000086040
       -0.0001481022  -0.0002410498  -0.0000464734  -0.0003957095  -0.0001003580
        0.0000486009   0.0002159484  -0.0003252600  -0.0000627065   0.0000160104
        0.0000947172   0.0000286924  -0.0000195172  -0.0000628954  -0.0000066365
        0.0000092711   0.0000222700  -0.0000170499  -0.0000121376  -0.0000118529
        0.0000076845  -0.0000283732   0.0000248284  -0.0000155873   0.0000201372
       -0.0000535149   0.0000186908   0.0000249699   0.0000253124  -0.0000154994
        0.0000113776   0.0000044308   0.0000119923   0.0000043478   0.0000063382
       -0.0000135422   0.0000059023   0.0000144323  -0.0000209421  -0.0000208047
        0.0000049374  -0.0000119064   0.0000006631  -0.0000137137   0.0000163879
       -0.0000190276  -0.0000134202   0.0000006068   0.0000512458  -0.0000116393
        0.0000345176  -0.0000229169   0.0000214425  -0.0000599118   0.0000104965
       -0.0000299724   0.0000342471  -0.0000491052  -0.0001240281  -0.0001465825
        0.0000248772   0.0000804494  -0.0000849566   0.0000292445  -0.0000780210
        0.0001107075  -0.0000108368   0.0001422538  -0.0001199717  -0.0003089337
       -0.0002125223  -0.0001267420  -0.0000750747   0.0001941629  -0.0005057045
       -0.0000922421   0.0000318282   0.0000331698   0.0001502352   0.0000892224
        0.0000510863  -0.0000767929  -0.0001739592   0.0000749481  -0.0000548206
        0.0000489118   0.0000304203   0.0000518098   0.0000752849   0.0000245783
       -0.0000057654  -0.0000022964  -0.0000603053   0.0000094495  -0.0000215756
        0.0000504759   0.0000164429   0.0000084057  -0.0000073766   0.0000105942
       -0.0000048624  -0.0000058440   0.0000023921   0.0000202724  -0.0000121220
       -0.0000189792  -0.0000002293   0.0000106426   0.0000010179   0.0000114680
       -0.0000151518   0.0000325971  -0.0000201305   0.0000177665  -0.0000199237
        0.0000130707  -0.0000088791  -0.0000410026   0.0000205455   0.0000131666
        0.0000138545  -0.0000209258  -0.0000057365   0.0000505460  -0.0000702197
        0.0000159205   0.0000473028   0.0000111196   0.0000189682   0.0003094892
        0.0001353798  -0.0000086127  -0.0001825518   0.0001170112   0.0000174959
       -0.0000258292  -0.0000844067   0.0000261718   0.0318980655  -0.0109051697
       -0.0504225129  -0.0474952373   0.1072624360  -0.1786603369   0.0104158416
       -0.1029851895  -0.2229798795  -0.0163386058  -0.0228957418  -0.0012943343
        0.0122889972   0.0191575314  -0.0015797355   0.0005840527   0.0006490307
        0.0002633399  -0.0006043286  -0.0002350093   0.0003536758  -0.0000670913
       -0.0000834060  -0.0000057416   0.0001196232   0.0000657665   0.0000547248
       -0.0000115635   0.0000150566  -0.0000035730   0.0001142905  -0.0000211010
       -0.0000255463  -0.0000070183   0.0000106891   0.0000138793  -0.0000059457
        0.0000179881   0.0000029367  -0.0000016803  -0.0000060543  -0.0000029934
       -0.0000066643  -0.0000190331  -0.0000024692   0.0000012153  -0.0000050335
        0.0000021712   0.0000050512   0.0000046386  -0.0000003852   0.0000016634
       -0.0000112464   0.0000084583  -0.0000051412  -0.0000081097   0.0000045452
        0.0000035869  -0.0000049755   0.0000049564   0.0000010319   0.0000067578
       -0.0000015472  -0.0000030890   0.0000014912  -0.0000002032   0.0000024394
       -0.0000021170   0.0000062894   0.0000036712   0.0000031201   0.0000016647
        0.0000042356   0.0000059700  -0.0000061347   0.0000211727  -0.0000009463
        0.0000173602  -0.0000243552  -0.0000110921   0.0000221106   0.0000999468
       -0.0000535924   0.0000702583   0.0000287425  -0.0000411219  -0.0000273752
        0.0000143134  -0.0000320734  -0.0000911081  -0.0000133673  -0.0000500408
       -0.0000381870   0.0000077794   0.0000062996  -0.0000280220   0.0000234320
       -0.0000228892  -0.0000386937  -0.0000156469   0.0000068140  -0.0000042260
       -0.0000070693   0.0000003509   0.0000023777   0.0000020701  -0.0000033703
        0.0000047775   0.0000006097  -0.0000004936  -0.0000061612  -0.0000049164
       -0.0000038559   0.0000059392   0.0000053540   0.0000025762  -0.0000078638
       -0.0000102193   0.0000033392  -0.0000168883  -0.0000483711   0.0000862364
       -0.0000058145
       -0.1136091893  -0.0651964972   0.0017225962   0.4614516148  -0.0103544032
        0.0153025219  -0.1737673118   0.0392164893   0.0275932918  -0.0248504846
       -0.0004666375   0.0046017564  -0.0020485766  -0.0028281559  -0.0003297281
       -0.0000929890   0.0000573823  -0.0000598060   0.0000059426   0.0000010541
       -0.0000111106   0.0000305967   0.0000164536   0.0000344789  -0.0001476120
       -0.0000580633  -0.0001025702   0.0006237191   0.0005467184   0.0000260627
       -0.0003248713  -0.0006439059  -0.0000896943  -0.0000579380  -0.0004668677
       -0.0000697279   0.0000887220   0.0003872344   0.0001098379   0.0000822384
       -0.0001500866  -0.0000620307   0.0000166563   0.0000965003  -0.0000008880
        0.0000608765  -0.0000428385  -0.0000061362  -0.0000412122   0.0000390568
        0.0000012492   0.0000160019  -0.0000050349   0.0000043648  -0.0000377370
        0.0000846206  -0.0000031938  -0.0000223133  -0.0000541375  -0.0000367890
       -0.0000395048   0.0000044342  -0.0000341630  -0.0000028671   0.0000007353
       -0.0000042417  -0.0000008796   0.0000050691  -0.0000155053  -0.0000100731
       -0.0000007672   0.0000007784  -0.0000013969   0.0000032554  -0.0000109903
       -0.0000045346  -0.0000076372   0.0000165673  -0.0000134277  -0.0000052343
       -0.0000092549  -0.0000154721  -0.0000319127   0.0000170662  -0.0000099139
        0.0000043265  -0.0000573093  -0.0000153907  -0.0000231879   0.0001318018
       -0.0000390524   0.0000936961  -0.0000329822   0.0000061215  -0.0000037402
        0.0001330990  -0.0006106965  -0.0000351855   0.0000622793   0.0002294379
       -0.0002396376  -0.0000929718   0.0000569804   0.0000788380   0.0000143630
        0.0000846726  -0.0000718733  -0.0000435518   0.0000576902   0.0000284108
        0.0000030115  -0.0000289523  -0.0000183875   0.0000315644  -0.0000156790
        0.0000091143   0.0000301371  -0.0000758360  -0.0000696419   0.0000390664
        0.0000011928   0.0000357223   0.0000153150  -0.0000168259  -0.0000092387
       -0.0000108599  -0.0000026714   0.0000041331   0.0000003833   0.0000119575
       -0.0000007294  -0.0000051807  -0.0000011167   0.0000094614  -0.0000000723
       -0.0000076052   0.0000011970   0.0000048820  -0.0000184834   0.0000121335
       -0.0000133509   0.0000017809  -0.0000019675  -0.0000080321  -0.0000052344
        0.0000029512  -0.0000048661  -0.0000187306   0.0000083385   0.0000087462
       -0.0000304596   0.0000054800  -0.0000209180   0.0000450630  -0.0000403963
        0.0000215943  -0.0000408757  -0.0000098716   0.0000188182  -0.0003387844
        0.0004403027   0.0002290103   0.0009816958  -0.0008398324  -0.0002986868
       -0.0005565876   0.0009581202   0.0002370261  -0.0228387555  -0.0233386922
        0.0016848816   0.0040750017   0.0034241682   0.0007352753  -0.0007291741
       -0.0024798738  -0.0020592357  -0.0418980323   0.0014266264  -0.0019644855
       -0.0659690998   0.0488412204  -0.0524594577  -0.0050484666   0.0027580054
        0.0040629658  -0.0148284639   0.0070649242   0.0004837682   0.0007724594
        0.0009059079  -0.0000789770   0.0006521473   0.0008728538   0.0003008051
        0.0000953876  -0.0002715624   0.0000820212  -0.0009433496   0.0001289098
        0.0002648632   0.0000835686  -0.0000481440   0.0000219080  -0.0000616674
       -0.0000049908   0.0000209971   0.0000451976  -0.0000114197  -0.0000182311
       -0.0000382850   0.0000180992   0.0000261508  -0.0000126340   0.0000193948
       -0.0000144887   0.0000017147  -0.0000125727  -0.0000020784  -0.0000064806
        0.0000229461  -0.0000029570  -0.0000062426  -0.0000057278   0.0000005994
        0.0000044085  -0.0000082802   0.0000000006   0.0000063923  -0.0000022040
       -0.0000012775  -0.0000043105   0.0000028659   0.0000006827   0.0000011402
       -0.0000003031   0.0000018219   0.0000017362   0.0000034810  -0.0000023441
        0.0000028465   0.0000019439  -0.0000004066  -0.0000128608   0.0000139596
       -0.0000082607  -0.0000252977   0.0000015807  -0.0000027364  -0.0000882033
        0.0000813334  -0.0000803268  -0.0002005899   0.0000459273   0.0000751912
       -0.0000118647  -0.0000036566   0.0000248881  -0.0000156198   0.0000177792
       -0.0000136240   0.0000003859   0.0000092466  -0.0000239138   0.0000157076
        0.0000065446  -0.0000230452  -0.0000049740  -0.0000018566  -0.0000083859
       -0.0000044859  -0.0000003580   0.0000023499   0.0000030639  -0.0000028515
       -0.0000001451   0.0000020729   0.0000002291  -0.0000035632  -0.0000012112
       -0.0000028335  -0.0000020156  -0.0000055648   0.0000022865  -0.0000094343
        0.0000077726   0.0000007339  -0.0000197306   0.0000529565   0.0000489994
        0.0000328929
       -0.0662275400  -0.1524101067   0.0034271712  -0.0103544032   0.4979852752
       -0.0038340982   0.0385095936  -0.0754973164  -0.0083224226  -0.0201425368
        0.0036273775   0.0043797723  -0.0029930547  -0.0031365451  -0.0002200939
       -0.0000781543  -0.0000335069  -0.0001634044   0.0000569751   0.0000762336
        0.0000055803  -0.0000454855  -0.0000107313   0.0000321480   0.0001242425
        0.0003606288   0.0000190749   0.0000330744  -0.0000819827   0.0000890922
        0.0001060975  -0.0000334532  -0.0000209287  -0.0006563744  -0.0001261689
        0.0000067219   0.0001264363  -0.0005599584  -0.0001463756  -0.0000390335
        0.0000883950   0.0000798750  -0.0000041270  -0.0000895287  -0.0000290026
       -0.0000580709   0.0000577908  -0.0000093868   0.0000442315  -0.0000414331
        0.0000007965  -0.0000258839   0.0000199511  -0.0000113195   0.0000115566
       -0.0001243159   0.0000228453   0.0000096500   0.0001007813  -0.0000051050
        0.0000071184  -0.0000058718   0.0000130263   0.0000024695   0.0000044786
        0.0000025187   0.0000029717  -0.0000016814   0.0000113330   0.0000083504
       -0.0000016130   0.0000038081  -0.0000069008  -0.0000023623  -0.0000032210
        0.0000095923   0.0000108781  -0.0000094629   0.0000072154   0.0000059486
       -0.0000257003  -0.0000153340   0.0000004509   0.0000183382  -0.0001222230
       -0.0001195743  -0.0000510529   0.0000433444  -0.0000184305  -0.0000841575
        0.0000086286   0.0000689959   0.0000715807   0.0000174364  -0.0000542550
       -0.0000887396   0.0007253807   0.0002922994  -0.0000944337  -0.0005361566
       -0.0002186785   0.0000390057   0.0000011657   0.0004930438   0.0000955179
        0.0000942648  -0.0002143294   0.0000938921   0.0000200968   0.0000411582
        0.0000304515   0.0000097464  -0.0001105582   0.0000437629  -0.0000003079
        0.0001102059  -0.0000219874  -0.0001164833  -0.0001930994   0.0000237204
       -0.0000254973   0.0000225069  -0.0000319788  -0.0000034603  -0.0000043811
        0.0000004228  -0.0000183755  -0.0000045321  -0.0000023654   0.0000153188
       -0.0000141670   0.0000225536  -0.0000303852  -0.0000079183   0.0000365827
        0.0000050421   0.0000173337  -0.0000484972   0.0000324662  -0.0000281238
        0.0000402154   0.0000230521   0.0000120177  -0.0000417838  -0.0000126857
       -0.0000237978   0.0000503733  -0.0000223117   0.0000195888  -0.0000297283
       -0.0000142244   0.0000049223  -0.0000054974  -0.0000313985   0.0000621260
       -0.0000199220   0.0000493104   0.0000088751  -0.0000184359   0.0006318385
        0.0002782311  -0.0003481784  -0.0009442513   0.0003772895   0.0003686178
        0.0003816858  -0.0005015607  -0.0001170648   0.0027808445   0.0053603538
        0.0002265971  -0.0121884271  -0.0207333845   0.0042016797  -0.0113400089
       -0.0165780818  -0.0036670991   0.0015657079  -0.0884857957  -0.0885365976
        0.0497762292  -0.1380164792   0.1001565148   0.0120718070  -0.0043449998
       -0.0055291929   0.0215023897  -0.0085058700  -0.0026408160  -0.0010419430
        0.0004866333  -0.0000345351  -0.0009601504   0.0004221222   0.0005482415
       -0.0000090662  -0.0000093268  -0.0000707375  -0.0013530044   0.0001509652
        0.0001074218  -0.0000019990   0.0000528528   0.0001053858   0.0000359567
        0.0000261703   0.0000666460   0.0000186942   0.0000229877  -0.0000098638
       -0.0000166177   0.0000238040  -0.0000620286   0.0000092452   0.0000040308
        0.0000114686  -0.0000016879  -0.0000045752   0.0000005219   0.0000008258
       -0.0000133671   0.0000136160   0.0000040275   0.0000001000   0.0000054636
        0.0000011171   0.0000028829   0.0000074587  -0.0000007351   0.0000037942
        0.0000043572   0.0000001940  -0.0000047071   0.0000029814  -0.0000009535
        0.0000009899  -0.0000011933  -0.0000059286  -0.0000007584   0.0000005250
       -0.0000018595  -0.0000009594   0.0000016663  -0.0000081377   0.0000037176
        0.0000117972  -0.0000008586  -0.0000028000   0.0000363920   0.0003097918
       -0.0000784071  -0.0000208299   0.0001752480  -0.0001851057  -0.0000274668
        0.0000521023   0.0000171035  -0.0000681836   0.0000101454  -0.0000297458
       -0.0000364316   0.0000061778   0.0000008295  -0.0000190470   0.0000122806
       -0.0000061299  -0.0000298269  -0.0000162950   0.0000082917   0.0000101001
       -0.0000027581   0.0000033794  -0.0000044119  -0.0000046514   0.0000037315
       -0.0000027536  -0.0000048874   0.0000055205  -0.0000022171   0.0000000914
        0.0000005356   0.0000038498  -0.0000000714   0.0000014275   0.0000025066
       -0.0000051373  -0.0000049927   0.0000099478   0.0000386088  -0.0000735398
        0.0000036392
        0.0013503135   0.0030447411  -0.0679985997   0.0153025219  -0.0038340982
        0.5340486895   0.0270208796  -0.0085641869  -0.0758025855   0.0009329564
        0.0006130315   0.0002118824  -0.0002679638  -0.0002036663   0.0001884547
        0.0001881099   0.0000520131   0.0000451152   0.0000178206   0.0000380353
        0.0000231838   0.0000096885  -0.0000047013  -0.0000090187  -0.0000238698
       -0.0000233482   0.0000776157   0.0000622544   0.0000244617  -0.0002013157
       -0.0000704207   0.0000180867   0.0000683453  -0.0000677652   0.0002210227
       -0.0000576861   0.0003664390   0.0000025164  -0.0000183243  -0.0000804114
        0.0002442336  -0.0000222796  -0.0000368622  -0.0000935012   0.0000342963
       -0.0000129940   0.0000210232   0.0000016795  -0.0000143247  -0.0000454860
        0.0000062392  -0.0000040510   0.0000733517  -0.0000309338   0.0000409030
       -0.0000259790  -0.0000000631   0.0000202409  -0.0000098252  -0.0000960645
       -0.0000334875   0.0000183580  -0.0000112647   0.0000218303   0.0000082778
       -0.0000167605  -0.0000237756   0.0000017399  -0.0000177241  -0.0000138887
        0.0000216767  -0.0000495252   0.0000423721  -0.0000273528   0.0000454419
       -0.0000360609   0.0000112395  -0.0000342136   0.0000471599  -0.0000026448
        0.0000553861  -0.0000626051  -0.0000041053  -0.0000670348  -0.0000165213
        0.0000069329  -0.0000103231   0.0001307094   0.0000663787   0.0003134959
       -0.0001239020  -0.0003488330  -0.0001092352  -0.0000392190   0.0000351552
       -0.0000132028  -0.0003526814  -0.0000900044   0.0000511595   0.0002535776
       -0.0000463444  -0.0001950452  -0.0000357865  -0.0000775011  -0.0000280458
       -0.0000636815   0.0000061444   0.0000389368  -0.0000258922   0.0000275418
       -0.0000022319   0.0000097242   0.0000752861  -0.0000207424   0.0000482270
        0.0000045389   0.0000263157   0.0000330876  -0.0000526440  -0.0000115636
        0.0000760680   0.0000317726   0.0000368122  -0.0000546519   0.0000240026
       -0.0000676945   0.0000242130   0.0000008193  -0.0000049318  -0.0000108445
        0.0000127706  -0.0000176576   0.0000171589   0.0000172002  -0.0000321377
       -0.0000222566  -0.0000008913   0.0000252792   0.0000009053   0.0000188798
       -0.0000339592  -0.0000023907  -0.0000174525   0.0000235330  -0.0000172873
        0.0000251574  -0.0000190763  -0.0000136141  -0.0000092306   0.0000241368
       -0.0000145163  -0.0000096160   0.0000275946   0.0000370053  -0.0000044894
        0.0000457337  -0.0000527329  -0.0000238483   0.0000384080  -0.0001495382
       -0.0001246471  -0.0001556091   0.0001530522  -0.0001355955  -0.0001045559
       -0.0001018681   0.0000604164  -0.0000198988   0.0036841517   0.0037787025
        0.0001273807   0.0137052996   0.0198682416  -0.0019741006  -0.0162307491
       -0.0227273888  -0.0008270000  -0.0016627122  -0.0883831966  -0.2265314392
       -0.0526597824   0.0999566792  -0.1547447502   0.0276103466  -0.0105455808
       -0.0105684787  -0.0182068591   0.0071698748   0.0039152232   0.0004895640
        0.0000206571   0.0001423511  -0.0013054261  -0.0002587337   0.0003678694
        0.0000341879   0.0000169015  -0.0000556309  -0.0001068921  -0.0001106479
        0.0000304445  -0.0000144548   0.0000567052   0.0000322603  -0.0001939924
       -0.0000864265   0.0001795662  -0.0000308826   0.0000258787  -0.0000137180
        0.0000339001   0.0000087134  -0.0000042976  -0.0000010858   0.0000001610
        0.0000020461  -0.0000129985   0.0000135481   0.0000209436   0.0000022770
        0.0000204475  -0.0000150544  -0.0000006086  -0.0000154901   0.0000052456
        0.0000074247  -0.0000111182   0.0000055758   0.0000084565  -0.0000071229
        0.0000012392  -0.0000029015   0.0000049039  -0.0000053222   0.0000061068
       -0.0000002484   0.0000070262   0.0000091282   0.0000046871   0.0000032430
        0.0000084641   0.0000089310  -0.0000022901  -0.0000118472   0.0000109659
       -0.0000085651   0.0000311986   0.0000454030  -0.0000422898   0.0003175141
       -0.0001327964  -0.0002684913  -0.0000012805   0.0002159597   0.0001396336
        0.0000812899  -0.0000167364  -0.0000058480  -0.0000079368   0.0000197348
       -0.0000059010  -0.0000009488   0.0000107766  -0.0000144094   0.0000069259
        0.0000064553  -0.0000067589  -0.0000003846  -0.0000059178  -0.0000097970
       -0.0000011325  -0.0000033357   0.0000068335   0.0000061120  -0.0000060806
        0.0000079107   0.0000061147  -0.0000052975  -0.0000002423   0.0000066188
       -0.0000027028   0.0000020512   0.0000147171   0.0000000018  -0.0000103747
        0.0000008933   0.0000102643  -0.0000199261   0.0000208306  -0.0000025857
       -0.0000405890
       -0.0248691642  -0.0003408223   0.0047968883  -0.1737673118   0.0385095936
        0.0270208796   0.4580596291  -0.0147492581   0.0141523468  -0.1065468593
       -0.0611725613  -0.0056376701  -0.0249234447  -0.0192745307  -0.0006211040
        0.0002206269  -0.0001997784  -0.0001582038  -0.0001004650   0.0001070231
       -0.0000643817  -0.0000491356   0.0000112241   0.0000062448   0.0000238877
       -0.0000738846  -0.0001595929   0.0000720072   0.0001472765   0.0001233597
       -0.0000461552  -0.0001028354  -0.0000579641   0.0001232075  -0.0000816520
        0.0000206561  -0.0000855447   0.0002008845   0.0000797019   0.0000490814
       -0.0001102050  -0.0000348170   0.0000098466   0.0000465326  -0.0000114005
        0.0000334108  -0.0000189911  -0.0000046939  -0.0000244884   0.0000259703
       -0.0000009253  -0.0000017509  -0.0000224273   0.0000056743  -0.0000238250
        0.0000433464   0.0000037955  -0.0000081631  -0.0000467592   0.0000304317
        0.0000015726  -0.0000019070  -0.0000094368  -0.0000080373   0.0000002940
       -0.0000053406   0.0000091700   0.0000067566  -0.0000095154  -0.0000083434
       -0.0000040984   0.0000090036  -0.0000131837   0.0000022636  -0.0000088279
        0.0000035097  -0.0000080273   0.0000103361  -0.0000241489  -0.0000076200
        0.0000116225   0.0000095518   0.0000021505   0.0000034534   0.0000149589
        0.0000183051   0.0000122849   0.0000175982  -0.0000535047   0.0000119461
        0.0000424129  -0.0000096435  -0.0000279096   0.0000246851   0.0000310364