      -----------------------------------------------------------      
     |                   =====================                   |     
     |                           x T B                           |     
     |                   =====================                   |     
     |                         S. Grimme                         |     
     |          Mulliken Center for Theoretical Chemistry        |     
     |                    University of Bonn                     |     
      -----------------------------------------------------------      

   * xtb version 6.7.1 (edcfbbe) compiled by 'albert@albert-system' on 2024-07-22

   xtb is free software: you can redistribute it and/or modify it under
   the terms of the GNU Lesser General Public License as published by
   the Free Software Foundation, either version 3 of the License, or
   (at your option) any later version.
   
   xtb is distributed in the hope that it will be useful,
   but WITHOUT ANY WARRANTY; without even the implied warranty of
   MERCHANTABILITY or FITNESS FOR A PARTICULAR PURPOSE.  See the
   GNU Lesser General Public License for more details.
   
   Cite this work as:
   * C. Bannwarth, E. Caldeweyher, S. Ehlert, A. Hansen, P. Pracht,
     J. Seibert, S. Spicher, S. Grimme, WIREs Comput. Mol. Sci., 2020, 11,
     e01493. DOI: 10.1002/wcms.1493
   
   for GFN2-xTB:
   * C. Bannwarth, S. Ehlert and S. Grimme., J. Chem. Theory Comput., 2019,
     15, 1652-1671. DOI: 10.1021/acs.jctc.8b01176
   for GFN1-xTB:
   * S. Grimme, C. Bannwarth, P. Shushkov, J. Chem. Theory Comput., 2017,
     13, 1989-2009. DOI: 10.1021/acs.jctc.7b00118
   for GFN0-xTB:
   * P. Pracht, E. Caldeweyher, S. Ehlert, S. Grimme, ChemRxiv, 2019, preprint.
     DOI: 10.26434/chemrxiv.8326202.v1
   for GFN-FF:
   * S. Spicher and S. Grimme, Angew. Chem. Int. Ed., 2020, 59, 15665-15673.
     DOI: 10.1002/anie.202004239
   
   for ALPB and GBSA implicit solvation:
   * S. Ehlert, M. Stahn, S. Spicher, S. Grimme, J. Chem. Theory Comput.,
     2021, 17, 4250-4261. DOI: 10.1021/acs.jctc.1c00471
   
   for ddCOSMO and CPCM-X implicit solvation:
   * M. Stahn, S. Ehlert, S. Grimme, J. Phys. Chem. A,
     2023, XX, XXXX-XXXX. DOI: 10.1021/acs.jpca.3c04382
   
   for DFT-D4:
   * E. Caldeweyher, C. Bannwarth and S. Grimme, J. Chem. Phys., 2017,
     147, 034112. DOI: 10.1063/1.4993215
   * E. Caldeweyher, S. Ehlert, A. Hansen, H. Neugebauer, S. Spicher,
     C. Bannwarth and S. Grimme, J. Chem. Phys., 2019, 150, 154122.
     DOI: 10.1063/1.5090222
   * E. Caldeweyher, J.-M. Mewes, S. Ehlert and S. Grimme, Phys. Chem. Chem. Phys.
     2020, 22, 8499-8512. DOI: 10.1039/D0CP00502A
   
   for sTDA-xTB:
   * S. Grimme and C. Bannwarth, J. Chem. Phys., 2016, 145, 054103.
     DOI: 10.1063/1.4959605
   
   in the mass-spec context:
   * V. Asgeirsson, C. Bauer and S. Grimme, Chem. Sci., 2017, 8, 4879.
     DOI: 10.1039/c7sc00601b
   * J. Koopman and S. Grimme, ACS Omega 2019, 4, 12, 15120-15133.
     DOI: 10.1021/acsomega.9b02011
   
   for metadynamics refer to:
   * S. Grimme, J. Chem. Theory Comput., 2019, 155, 2847-2862
     DOI: 10.1021/acs.jctc.9b00143
   
   for SPH calculations refer to:
   * S. Spicher and S. Grimme, J. Chem. Theory Comput., 2021, 17, 1701-1714
     DOI: 10.1021/acs.jctc.0c01306
   
   for ONIOM refer to:
   * C. Plett, A. Katbashev, S. Ehlert, S. Grimme, M. Bursch,
     Phys. Chem. Chem. Phys., 2023, 25, 17860-17868. DOI: 10.1039/D3CP02178E
   
   for DIPRO refer to:
   * J. Kohn, N. Gildemeister, S. Grimme, D. Fazzi, A. Hansen,
     J. Chem. Phys., 2023, just accepted.
   
   for PTB refer to:
   * S. Grimme, M. Mueller, A. Hansen, J. Chem. Phys., 2023, 158, 124111.
     DOI: 10.1063/5.0137838
   
   with help from (in alphabetical order)
   P. Atkinson, C. Bannwarth, F. Bohle, G. Brandenburg, E. Caldeweyher
   M. Checinski, S. Dohm, S. Ehlert, S. Ehrlich, I. Gerasimov, C. Hölzer
   A. Katbashev, J. Kohn, J. Koopman, C. Lavigne, S. Lehtola, F. März, M. Müller,
   F. Musil, H. Neugebauer, J. Pisarek, C. Plett, P. Pracht, F. Pultar,
   J. Seibert, P. Shushkov, S. Spicher, M. Stahn, M. Steiner, T. Strunk,
   J. Stückrath, T. Rose, and J. Unsleber
   
 * started run on 2025/09/09 at 21:55:16.999     
   ID    Z sym.   atoms
    1    7 N      1, 27
    2    6 C      2-26, 28-41
    3    1 H      42-65

           -------------------------------------------------
          |                Calculation Setup                |
           -------------------------------------------------

          program call               : xtb data2507/toluene/3CzAnBzt/3CzAnBzt.xyz --gfn 2 --gbsa toluene --ohess vtight --parallel 40 --molden --ceasefiles --namespace data2507/toluene/3CzAnBzt/3CzAnBzt_toluene_S0_preOpt
          calculation namespace      : data2507/toluene/3CzAnBzt/3CzAnBzt_toluene_S0_preOpt
          coordinate file            : data2507/toluene/3CzAnBzt/3CzAnBzt.xyz
          omp threads                :                    40


           -------------------------------------------------
          |                 G F N 2 - x T B                 |
           -------------------------------------------------

        Reference                      10.1021/acs.jctc.8b01176
      * Hamiltonian:
        H0-scaling (s, p, d)           1.850000    2.230000    2.230000
        zeta-weighting                 0.500000
      * Dispersion:
        s8                             2.700000
        a1                             0.520000
        a2                             5.000000
        s9                             5.000000
      * Repulsion:
        kExp                           1.500000    1.000000
        rExp                           1.000000
      * Coulomb:
        alpha                          2.000000
        third order                    shell-resolved
        anisotropic                    true
        a3                             3.000000
        a5                             4.000000
        cn-shift                       1.200000
        cn-exp                         4.000000
        max-rad                        5.000000

      * Solvation model:               GBSA
        Solvent                        toluene
        Parameter file                 internal GFN2-xTB/GBSA
        Dielectric constant                7.0000E+00
        Reference state                gsolv [1 M gas/solution]
        Free energy shift                  4.5239E-03 Eh       2.8388E+00 kcal/mol
        Temperature                        2.9815E+02 K
        Density                            8.6700E-01 kg/L
        Solvent mass                       9.2140E+01 g/mol
        Interaction kernel             Still
        Born radius scaling (c1)           1.5686E+00
        Born radii integrator          GBOBC
        Born offset                        0.0000E+00 a0       0.0000E+00 AA
        H-bond correction              false
        Ion screening                  false
        Surface tension                    1.0000E-05 Eh       1.5569E+01 dyn/cm
        Grid points                               230 per atom

          ...................................................
          :                      SETUP                      :
          :.................................................:
          :  # basis functions                 188          :
          :  # atomic orbitals                 188          :
          :  # shells                          106          :
          :  # electrons                       190          :
          :  max. iterations                   250          :
          :  Hamiltonian                  GFN2-xTB          :
          :  restarted?                      false          :
          :  GBSA solvation                   true          :
          :  PC potential                    false          :
          :  electronic temp.          300.0000000     K    :
          :  accuracy                    1.0000000          :
          :  -> integral cutoff          0.2500000E+02      :
          :  -> integral neglect         0.1000000E-07      :
          :  -> SCF convergence          0.1000000E-05 Eh   :
          :  -> wf. convergence          0.1000000E-03 e    :
          :  Broyden damping             0.4000000          :
          :  net charge                          0          :
          :  unpaired electrons                  0          :
          ...................................................

 iter      E             dE          RMSdq      gap      omega  full diag
   1   -103.4234807 -0.103423E+03  0.466E+00    1.76       0.0  T
   2   -103.4662952 -0.428146E-01  0.282E+00    1.82       1.0  T
   3   -103.3963698  0.699254E-01  0.127E+00    1.84       1.0  T
   4   -103.4791005 -0.827307E-01  0.354E-01    1.84       1.0  T
   5   -103.4832910 -0.419042E-02  0.128E-01    1.83       1.0  T
   6   -103.4838297 -0.538709E-03  0.761E-02    1.84       1.0  T
   7   -103.4840751 -0.245409E-03  0.358E-02    1.83       1.0  T
   8   -103.4841239 -0.487776E-04  0.139E-02    1.83       1.0  T
   9   -103.4841271 -0.321709E-05  0.456E-03    1.83       2.7  T
  10   -103.4841277 -0.601302E-06  0.174E-03    1.83       7.1  T
  11   -103.4841277 -0.579694E-07  0.676E-04    1.83      18.4  T
  12   -103.4841278 -0.112223E-07  0.310E-04    1.83      40.0  T

   *** convergence criteria satisfied after 12 iterations ***

         #    Occupation            Energy/Eh            Energy/eV
      -------------------------------------------------------------
         1        2.0000           -0.6745367             -18.3551
       ...           ...                  ...                  ...
        89        2.0000           -0.4069946             -11.0749
        90        2.0000           -0.4059437             -11.0463
        91        2.0000           -0.4032807             -10.9738
        92        2.0000           -0.3999907             -10.8843
        93        2.0000           -0.3805289             -10.3547
        94        2.0000           -0.3618205              -9.8456
        95        2.0000           -0.3568306              -9.7099 (HOMO)
        96                         -0.2894268              -7.8757 (LUMO)
        97                         -0.2751998              -7.4886
        98                         -0.2510585              -6.8317
        99                         -0.2459687              -6.6931
       100                         -0.2349966              -6.3946
       ...                                ...                  ...
       188                          1.0781777              29.3387
      -------------------------------------------------------------
                  HL-Gap            0.0674037 Eh            1.8341 eV
             Fermi-level           -0.3231287 Eh           -8.7928 eV

 SCC (total)                   0 d,  0 h,  0 min,  0.143 sec
 SCC setup                      ...        0 min,  0.003 sec (  2.022%)
 Dispersion                     ...        0 min,  0.004 sec (  2.851%)
 classical contributions        ...        0 min,  0.000 sec (  0.218%)
 integral evaluation            ...        0 min,  0.006 sec (  4.154%)
 iterations                     ...        0 min,  0.120 sec ( 83.883%)
 molecular gradient             ...        0 min,  0.009 sec (  6.177%)
 printout                       ...        0 min,  0.001 sec (  0.623%)

         :::::::::::::::::::::::::::::::::::::::::::::::::::::
         ::                     SUMMARY                     ::
         :::::::::::::::::::::::::::::::::::::::::::::::::::::
         :: total energy            -101.618173968652 Eh    ::
         :: total w/o Gsasa/hb      -101.575539370271 Eh    ::
         :: gradient norm              0.126489530976 Eh/a0 ::
         :: HOMO-LUMO gap              1.834149267827 eV    ::
         ::.................................................::
         :: SCC energy              -103.484225995246 Eh    ::
         :: -> isotropic ES            0.015972952870 Eh    ::
         :: -> anisotropic ES          0.009496934940 Eh    ::
         :: -> anisotropic XC          0.076038664631 Eh    ::
         :: -> dispersion             -0.090557061105 Eh    ::
         :: -> Gsolv                  -0.045866722434 Eh    ::
         ::    -> Gelec               -0.003232124053 Eh    ::
         ::    -> Gsasa               -0.047158478253 Eh    ::
         ::    -> Ghb                  0.000000000000 Eh    ::
         ::    -> Gshift               0.004523879872 Eh    ::
         :: repulsion energy           1.866052026594 Eh    ::
         :: add. restraining           0.000000000000 Eh    ::
         :: total charge              -0.000000000000 e     ::
         :::::::::::::::::::::::::::::::::::::::::::::::::::::

      ----------------------------------------------------------- 
     |                   =====================                   |
     |                        A N C O P T                        |
     |                   =====================                   |
     |               Approximate Normal Coordinate               |
     |                Rational Function Optimizer                |
      ----------------------------------------------------------- 

Optimization log is written to '/dev/null'
      ----------------------------------------------------------- 
     |                   =====================                   |
     |                        A N C O P T                        |
     |                   =====================                   |
     |               Approximate Normal Coordinate               |
     |                Rational Function Optimizer                |
      ----------------------------------------------------------- 

          ...................................................
          :                      SETUP                      :
          :.................................................:
          :   optimization level         verytight          :
          :   max. optcycles                  1300          :
          :   ANC micro-cycles                  20          :
          :   degrees of freedom               189          :
          :.................................................:
          :   RF solver                   davidson          :
          :   write xtbopt.log                true          :
          :   linear?                        false          :
          :   energy convergence         0.1000000E-06 Eh   :
          :   grad. convergence          0.2000000E-03 Eh/α :
          :   maxmium RF displ.          1.0000000          :
          :   Hlow (freq-cutoff)         0.1000000E-01      :
          :   Hmax (freq-cutoff)         5.0000000          :
          :   S6 in model hess.         20.0000000          :
          ...................................................

generating ANC from exact Hessian ...
Using Lindh-Hessian (1995)
 Shifting diagonal of input Hessian by   9.869202454865666E-003
 Lowest  eigenvalues of input Hessian
    0.000000    0.000000    0.000000    0.000000    0.000000    0.000000
    0.010000    0.010014    0.010070    0.010341    0.010739    0.011039
    0.011239    0.011314    0.011374    0.011550    0.011652    0.012721
 Highest eigenvalues
    2.003722    2.034741    2.078770    2.099904    2.101095    2.533087
 

........................................................................
.............................. CYCLE    1 ..............................
........................................................................

 iter      E             dE          RMSdq      gap      omega  full diag
   1   -103.4841278 -0.103484E+03  0.127E-04    1.83       0.0  T
   2   -103.4841278 -0.114682E-09  0.821E-05    1.83     151.0  T
   3   -103.4841278 -0.264180E-10  0.598E-05    1.83     207.3  T
     SCC iter.                  ...        0 min,  0.023 sec
     gradient                   ...        0 min,  0.008 sec
 * total energy  :  -101.6181740 Eh     change       -0.2065136E-08 Eh
   gradient norm :     0.1264894 Eh/α   predicted     0.0000000E+00 (-100.00%)
   displ. norm   :     0.3711442 α      lambda       -0.2095249E-01
   maximum displ.:     0.2761647 α      in ANC's #42, #44, #99, ...

........................................................................
.............................. CYCLE    2 ..............................
........................................................................

 iter      E             dE          RMSdq      gap      omega  full diag
   1   -103.5776349 -0.103578E+03  0.175E-01    2.02       0.0  T
   2   -103.5776830 -0.480688E-04  0.108E-01    2.02       1.0  T
   3   -103.5775486  0.134412E-03  0.581E-02    2.02       1.0  T
   4   -103.5777082 -0.159623E-03  0.151E-02    2.03       1.0  T
   5   -103.5777224 -0.141210E-04  0.420E-03    2.03       3.0  T
   6   -103.5777229 -0.546075E-06  0.204E-03    2.03       6.1  T
   7   -103.5777230 -0.745952E-07  0.103E-03    2.03      12.0  T
   8   -103.5777230 -0.279691E-07  0.284E-04    2.03      43.6  T
   9   -103.5777230 -0.269355E-08  0.144E-04    2.03      86.3  T
     SCC iter.                  ...        0 min,  0.064 sec
     gradient                   ...        0 min,  0.008 sec
 * total energy  :  -101.6326018 Eh     change       -0.1442784E-01 Eh
   gradient norm :     0.0511080 Eh/α   predicted    -0.1192962E-01 ( -17.32%)
   displ. norm   :     0.3076699 α      lambda       -0.5995371E-02
   maximum displ.:     0.2271226 α      in ANC's #42, #16, #44, ...

........................................................................
.............................. CYCLE    3 ..............................
........................................................................

 iter      E             dE          RMSdq      gap      omega  full diag
   1   -103.6242708 -0.103624E+03  0.115E-01    2.17       0.0  T
   2   -103.6243072 -0.363530E-04  0.713E-02    2.17       1.0  T
   3   -103.6242553  0.518487E-04  0.366E-02    2.17       1.0  T
   4   -103.6243189 -0.635029E-04  0.109E-02    2.17       1.1  T
   5   -103.6243260 -0.710603E-05  0.349E-03    2.17       3.6  T
   6   -103.6243265 -0.577945E-06  0.115E-03    2.17      10.8  T
   7   -103.6243265 -0.525931E-08  0.627E-04    2.17      19.8  T
   8   -103.6243266 -0.108107E-07  0.235E-04    2.17      52.7  T
     SCC iter.                  ...        0 min,  0.057 sec
     gradient                   ...        0 min,  0.008 sec
 * total energy  :  -101.6359753 Eh     change       -0.3373449E-02 Eh
   gradient norm :     0.0109272 Eh/α   predicted    -0.3281450E-02 (  -2.73%)
   displ. norm   :     0.1566501 α      lambda       -0.5830604E-03
   maximum displ.:     0.0952202 α      in ANC's #16, #19, #42, ...

........................................................................
.............................. CYCLE    4 ..............................
........................................................................

 iter      E             dE          RMSdq      gap      omega  full diag
   1   -103.6295474 -0.103630E+03  0.400E-02    2.19       0.0  T
   2   -103.6295513 -0.391448E-05  0.248E-02    2.19       1.0  T
   3   -103.6295464  0.490444E-05  0.970E-03    2.19       1.3  T
   4   -103.6295524 -0.598181E-05  0.217E-03    2.19       5.7  T
   5   -103.6295526 -0.227956E-06  0.944E-04    2.19      13.1  T
   6   -103.6295527 -0.479228E-07  0.337E-04    2.19      36.8  T
     SCC iter.                  ...        0 min,  0.043 sec
     gradient                   ...        0 min,  0.008 sec
 * total energy  :  -101.6363981 Eh     change       -0.4228701E-03 Eh
   gradient norm :     0.0066693 Eh/α   predicted    -0.2987031E-03 ( -29.36%)
   displ. norm   :     0.2037406 α      lambda       -0.3789230E-03
   maximum displ.:     0.1269406 α      in ANC's #16, #8, #19, ...

........................................................................
.............................. CYCLE    5 ..............................
........................................................................

 iter      E             dE          RMSdq      gap      omega  full diag
   1   -103.6300934 -0.103630E+03  0.497E-02    2.19       0.0  T
   2   -103.6300955 -0.212192E-05  0.298E-02    2.20       1.0  T
   3   -103.6300921  0.339934E-05  0.717E-03    2.20       1.7  T
   4   -103.6300960 -0.391072E-05  0.152E-03    2.20       8.2  T
   5   -103.6300961 -0.111761E-06  0.663E-04    2.20      18.7  T
   6   -103.6300961 -0.156840E-07  0.329E-04    2.20      37.6  T
     SCC iter.                  ...        0 min,  0.043 sec
     gradient                   ...        0 min,  0.008 sec
 * total energy  :  -101.6366341 Eh     change       -0.2359729E-03 Eh
   gradient norm :     0.0034062 Eh/α   predicted    -0.1973999E-03 ( -16.35%)
   displ. norm   :     0.1229777 α      lambda       -0.9408770E-04
   maximum displ.:     0.0741910 α      in ANC's #8, #16, #9, ...

........................................................................
.............................. CYCLE    6 ..............................
........................................................................

 iter      E             dE          RMSdq      gap      omega  full diag
   1   -103.6303904 -0.103630E+03  0.313E-02    2.19       0.0  T
   2   -103.6303906 -0.192548E-06  0.184E-02    2.19       1.0  T
   3   -103.6303893  0.131223E-05  0.454E-03    2.19       2.7  T
   4   -103.6303907 -0.142501E-05  0.830E-04    2.19      14.9  T
   5   -103.6303908 -0.384454E-07  0.279E-04    2.19      44.4  T
   6   -103.6303908 -0.172082E-08  0.127E-04    2.19      97.8  T
     SCC iter.                  ...        0 min,  0.043 sec
     gradient                   ...        0 min,  0.008 sec
 * total energy  :  -101.6367047 Eh     change       -0.7059271E-04 Eh
   gradient norm :     0.0028251 Eh/α   predicted    -0.4777319E-04 ( -32.33%)
   displ. norm   :     0.1365820 α      lambda       -0.8197279E-04
   maximum displ.:     0.0900183 α      in ANC's #8, #9, #16, ...

........................................................................
.............................. CYCLE    7 ..............................
........................................................................

 iter      E             dE          RMSdq      gap      omega  full diag
   1   -103.6307602 -0.103631E+03  0.372E-02    2.19       0.0  T
   2   -103.6307606 -0.387616E-06  0.218E-02    2.19       1.0  T
   3   -103.6307590  0.152195E-05  0.500E-03    2.19       2.5  T
   4   -103.6307607 -0.165835E-05  0.103E-03    2.19      12.0  T
   5   -103.6307608 -0.580400E-07  0.405E-04    2.19      30.6  T
   6   -103.6307608 -0.690738E-08  0.160E-04    2.19      77.6  T
     SCC iter.                  ...        0 min,  0.043 sec
     gradient                   ...        0 min,  0.008 sec
 * total energy  :  -101.6367666 Eh     change       -0.6193591E-04 Eh
   gradient norm :     0.0025211 Eh/α   predicted    -0.4175257E-04 ( -32.59%)
   displ. norm   :     0.1330631 α      lambda       -0.6251111E-04
   maximum displ.:     0.0901169 α      in ANC's #8, #9, #7, ...

........................................................................
.............................. CYCLE    8 ..............................
........................................................................

 iter      E             dE          RMSdq      gap      omega  full diag
   1   -103.6311282 -0.103631E+03  0.412E-02    2.19       0.0  T
   2   -103.6311288 -0.608974E-06  0.239E-02    2.19       1.0  T
   3   -103.6311282  0.634991E-06  0.377E-03    2.19       3.3  T
   4   -103.6311290 -0.818198E-06  0.985E-04    2.19      12.6  T
   5   -103.6311291 -0.288604E-07  0.569E-04    2.19      21.8  T
     SCC iter.                  ...        0 min,  0.036 sec
     gradient                   ...        0 min,  0.008 sec
 * total energy  :  -101.6368102 Eh     change       -0.4358599E-04 Eh
   gradient norm :     0.0023968 Eh/α   predicted    -0.3180954E-04 ( -27.02%)
   displ. norm   :     0.1963650 α      lambda       -0.9142609E-04
   maximum displ.:     0.1297432 α      in ANC's #8, #9, #5, ...

........................................................................
.............................. CYCLE    9 ..............................
........................................................................

 iter      E             dE          RMSdq      gap      omega  full diag
   1   -103.6313906 -0.103631E+03  0.688E-02    2.19       0.0  T
   2   -103.6313927 -0.210867E-05  0.397E-02    2.19       1.0  T
   3   -103.6313923  0.441004E-06  0.488E-03    2.19       2.5  T
   4   -103.6313935 -0.119526E-05  0.139E-03    2.19       8.9  T
   5   -103.6313935 -0.672725E-08  0.783E-04    2.19      15.8  T
   6   -103.6313935 -0.181586E-07  0.395E-04    2.19      31.4  T
     SCC iter.                  ...        0 min,  0.043 sec
     gradient                   ...        0 min,  0.008 sec
 * total energy  :  -101.6368464 Eh     change       -0.3614539E-04 Eh
   gradient norm :     0.0031445 Eh/α   predicted    -0.4748745E-04 (  31.38%)
   displ. norm   :     0.0837738 α      lambda       -0.5176593E-04
   maximum displ.:     0.0564573 α      in ANC's #8, #7, #9, ...

........................................................................
.............................. CYCLE   10 ..............................
........................................................................

 iter      E             dE          RMSdq      gap      omega  full diag
   1   -103.6315812 -0.103632E+03  0.309E-02    2.19       0.0  T
   2   -103.6315815 -0.390213E-06  0.178E-02    2.19       1.0  T
   3   -103.6315814  0.165791E-06  0.225E-03    2.19       5.5  T
   4   -103.6315817 -0.310404E-06  0.723E-04    2.19      17.2  T
   5   -103.6315817 -0.814593E-08  0.462E-04    2.19      26.9  T
     SCC iter.                  ...        0 min,  0.036 sec
     gradient                   ...        0 min,  0.008 sec
 * total energy  :  -101.6368861 Eh     change       -0.3976625E-04 Eh
   gradient norm :     0.0020095 Eh/α   predicted    -0.2606631E-04 ( -34.45%)
   displ. norm   :     0.1291982 α      lambda       -0.4782304E-04
   maximum displ.:     0.0881601 α      in ANC's #8, #9, #7, ...

........................................................................
.............................. CYCLE   11 ..............................
........................................................................

 iter      E             dE          RMSdq      gap      omega  full diag
   1   -103.6314244 -0.103631E+03  0.419E-02    2.19       0.0  T
   2   -103.6314248 -0.344690E-06  0.245E-02    2.19       1.0  T
   3   -103.6314240  0.730265E-06  0.353E-03    2.19       3.5  T
   4   -103.6314249 -0.849871E-06  0.908E-04    2.19      13.7  T
   5   -103.6314249 -0.362758E-07  0.430E-04    2.19      28.8  T
     SCC iter.                  ...        0 min,  0.036 sec
     gradient                   ...        0 min,  0.008 sec
 * total energy  :  -101.6369201 Eh     change       -0.3402443E-04 Eh
   gradient norm :     0.0014585 Eh/α   predicted    -0.2431150E-04 ( -28.55%)
   displ. norm   :     0.1673198 α      lambda       -0.2320385E-04
   maximum displ.:     0.1159203 α      in ANC's #8, #9, #5, ...

........................................................................
.............................. CYCLE   12 ..............................
........................................................................

 iter      E             dE          RMSdq      gap      omega  full diag
   1   -103.6310048 -0.103631E+03  0.531E-02    2.19       0.0  T
   2   -103.6310051 -0.349969E-06  0.311E-02    2.19       1.0  T
   3   -103.6310043  0.845112E-06  0.394E-03    2.19       3.1  T
   4   -103.6310052 -0.970012E-06  0.919E-04    2.19      13.5  T
   5   -103.6310053 -0.386548E-07  0.424E-04    2.19      29.2  T
     SCC iter.                  ...        0 min,  0.036 sec
     gradient                   ...        0 min,  0.008 sec
 * total energy  :  -101.6369410 Eh     change       -0.2089592E-04 Eh
   gradient norm :     0.0015396 Eh/α   predicted    -0.1174912E-04 ( -43.77%)
   displ. norm   :     0.0475014 α      lambda       -0.6416234E-05
   maximum displ.:     0.0358077 α      in ANC's #8, #5, #9, ...

........................................................................
.............................. CYCLE   13 ..............................
........................................................................

 iter      E             dE          RMSdq      gap      omega  full diag
   1   -103.6311760 -0.103631E+03  0.163E-02    2.19       0.0  T
   2   -103.6311761 -0.129218E-06  0.945E-03    2.19       1.3  T
   3   -103.6311760  0.104751E-06  0.149E-03    2.19       8.3  T
   4   -103.6311761 -0.146680E-06  0.342E-04    2.19      36.2  T
   5   -103.6311762 -0.256263E-08  0.159E-04    2.19      77.9  T
     SCC iter.                  ...        0 min,  0.036 sec
     gradient                   ...        0 min,  0.008 sec
 * total energy  :  -101.6369475 Eh     change       -0.6448236E-05 Eh
   gradient norm :     0.0005906 Eh/α   predicted    -0.3212445E-05 ( -50.18%)
   displ. norm   :     0.0421087 α      lambda       -0.3359949E-05
   maximum displ.:     0.0311746 α      in ANC's #8, #5, #4, ...

........................................................................
.............................. CYCLE   14 ..............................
........................................................................

 iter      E             dE          RMSdq      gap      omega  full diag
   1   -103.6311906 -0.103631E+03  0.130E-02    2.19       0.0  T
   2   -103.6311907 -0.587527E-07  0.758E-03    2.19       1.6  T
   3   -103.6311906  0.844653E-07  0.127E-03    2.19       9.7  T
   4   -103.6311907 -0.104974E-06  0.216E-04    2.19      57.4  T
   5   -103.6311907 -0.107975E-08  0.122E-04    2.19     101.4  T
     SCC iter.                  ...        0 min,  0.036 sec
     gradient                   ...        0 min,  0.008 sec
 * total energy  :  -101.6369508 Eh     change       -0.3264997E-05 Eh
   gradient norm :     0.0005018 Eh/α   predicted    -0.1684199E-05 ( -48.42%)
   displ. norm   :     0.0361471 α      lambda       -0.2402568E-05
   maximum displ.:     0.0225524 α      in ANC's #8, #3, #4, ...

........................................................................
.............................. CYCLE   15 ..............................
........................................................................

 iter      E             dE          RMSdq      gap      omega  full diag
   1   -103.6313500 -0.103631E+03  0.925E-03    2.19       0.0  T
   2   -103.6313500 -0.151575E-07  0.543E-03    2.19       2.3  T
   3   -103.6313500  0.140213E-07  0.540E-04    2.19      23.0  T
   4   -103.6313500 -0.193410E-07  0.123E-04    2.19     101.2  T
     SCC iter.                  ...        0 min,  0.031 sec
     gradient                   ...        0 min,  0.008 sec
 * total energy  :  -101.6369533 Eh     change       -0.2573630E-05 Eh
   gradient norm :     0.0007062 Eh/α   predicted    -0.1204897E-05 ( -53.18%)
   displ. norm   :     0.0456208 α      lambda       -0.2402799E-05
   maximum displ.:     0.0243894 α      in ANC's #8, #3, #4, ...

........................................................................
.............................. CYCLE   16 ..............................
........................................................................

 iter      E             dE          RMSdq      gap      omega  full diag
   1   -103.6313958 -0.103631E+03  0.100E-02    2.19       0.0  T
   2   -103.6313958 -0.111251E-07  0.588E-03    2.19       2.1  T
   3   -103.6313958  0.147795E-07  0.531E-04    2.19      23.4  T
   4   -103.6313958 -0.204776E-07  0.131E-04    2.19      94.6  T
     SCC iter.                  ...        0 min,  0.028 sec
     gradient                   ...        0 min,  0.008 sec
 * total energy  :  -101.6369562 Eh     change       -0.2843733E-05 Eh
   gradient norm :     0.0005994 Eh/α   predicted    -0.1206660E-05 ( -57.57%)
   displ. norm   :     0.0596004 α      lambda       -0.2592030E-05
   maximum displ.:     0.0301156 α      in ANC's #3, #8, #4, ...

........................................................................
.............................. CYCLE   17 ..............................
........................................................................

 iter      E             dE          RMSdq      gap      omega  full diag
   1   -103.6313273 -0.103631E+03  0.116E-02    2.19       0.0  T
   2   -103.6313274 -0.211643E-07  0.681E-03    2.19       1.8  T
   3   -103.6313273  0.272331E-07  0.701E-04    2.19      17.7  T
   4   -103.6313274 -0.367851E-07  0.176E-04    2.19      70.4  T
     SCC iter.                  ...        0 min,  0.028 sec
     gradient                   ...        0 min,  0.008 sec
 * total energy  :  -101.6369589 Eh     change       -0.2693349E-05 Eh
   gradient norm :     0.0003475 Eh/α   predicted    -0.1300466E-05 ( -51.72%)
   displ. norm   :     0.0449190 α      lambda       -0.1340211E-05
   maximum displ.:     0.0243245 α      in ANC's #3, #8, #1, ...

........................................................................
.............................. CYCLE   18 ..............................
........................................................................

 iter      E             dE          RMSdq      gap      omega  full diag
   1   -103.6312708 -0.103631E+03  0.753E-03    2.19       0.0  T
   2   -103.6312708 -0.104505E-07  0.442E-03    2.19       2.8  T
   3   -103.6312707  0.388134E-07  0.765E-04    2.19      16.2  T
   4   -103.6312708 -0.442217E-07  0.167E-04    2.19      74.4  T
     SCC iter.                  ...        0 min,  0.027 sec
     gradient                   ...        0 min,  0.008 sec
 * total energy  :  -101.6369602 Eh     change       -0.1356756E-05 Eh
   gradient norm :     0.0003040 Eh/α   predicted    -0.6737978E-06 ( -50.34%)
   displ. norm   :     0.0274482 α      lambda       -0.7413664E-06
   maximum displ.:     0.0166559 α      in ANC's #3, #1, #8, ...

........................................................................
.............................. CYCLE   19 ..............................
........................................................................

 iter      E             dE          RMSdq      gap      omega  full diag
   1   -103.6312159 -0.103631E+03  0.413E-03    2.19       0.0  T
   2   -103.6312159 -0.266959E-08  0.243E-03    2.19       5.1  T
   3   -103.6312159  0.100589E-07  0.401E-04    2.19      31.0  T
   4   -103.6312159 -0.115042E-07  0.898E-05    2.19     138.1  T
     SCC iter.                  ...        0 min,  0.028 sec
     gradient                   ...        0 min,  0.008 sec
 * total energy  :  -101.6369611 Eh     change       -0.8571867E-06 Eh
   gradient norm :     0.0002503 Eh/α   predicted    -0.3736243E-06 ( -56.41%)
   displ. norm   :     0.0243883 α      lambda       -0.7285046E-06
   maximum displ.:     0.0154768 α      in ANC's #3, #1, #15, ...

........................................................................
.............................. CYCLE   20 ..............................
........................................................................

 iter      E             dE          RMSdq      gap      omega  full diag
   1   -103.6311603 -0.103631E+03  0.435E-03    2.19       0.0  T
   2   -103.6311603 -0.192934E-08  0.256E-03    2.19       4.9  T
   3   -103.6311603  0.574678E-08  0.315E-04    2.19      39.4  T
   4   -103.6311603 -0.671854E-08  0.706E-05    2.19     175.7  T
     SCC iter.                  ...        0 min,  0.027 sec
     gradient                   ...        0 min,  0.008 sec
 * total energy  :  -101.6369619 Eh     change       -0.8075497E-06 Eh
   gradient norm :     0.0001934 Eh/α   predicted    -0.3666195E-06 ( -54.60%)
   displ. norm   :     0.0220305 α      lambda       -0.5735604E-06
   maximum displ.:     0.0140119 α      in ANC's #3, #1, #5, ...
 * RMSD in coord.:     0.1982387 α      energy gain  -0.1878792E-01 Eh

generating ANC from exact Hessian ...
Using Lindh-Hessian (1995)
 Shifting diagonal of input Hessian by   9.860909027609952E-003
 Lowest  eigenvalues of input Hessian
    0.000000    0.000000    0.000000    0.000000    0.000000    0.000000
    0.010000    0.010019    0.010081    0.010511    0.010791    0.011158
    0.011410    0.011443    0.011613    0.011804    0.012473    0.012963
 Highest eigenvalues
    2.068811    2.122132    2.142223    2.188864    2.213386    2.627749
 

........................................................................
.............................. CYCLE   21 ..............................
........................................................................

 iter      E             dE          RMSdq      gap      omega  full diag
   1   -103.6311426 -0.103631E+03  0.432E-03    2.19       0.0  T
   2   -103.6311426 -0.249445E-08  0.253E-03    2.19       4.9  T
   3   -103.6311426  0.605750E-08  0.332E-04    2.19      37.4  T
   4   -103.6311426 -0.733290E-08  0.760E-05    2.19     163.3  T
     SCC iter.                  ...        0 min,  0.029 sec
     gradient                   ...        0 min,  0.008 sec
 * total energy  :  -101.6369625 Eh     change       -0.6535914E-06 Eh
   gradient norm :     0.0001588 Eh/α   predicted     0.0000000E+00 (-100.00%)
   displ. norm   :     0.0069728 α      lambda       -0.1616861E-07
   maximum displ.:     0.0040734 α      in ANC's #3, #15, #7, ...

........................................................................
.............................. CYCLE   22 ..............................
........................................................................

 iter      E             dE          RMSdq      gap      omega  full diag
   1   -103.6311558 -0.103631E+03  0.206E-03    2.19       0.0  T
   2   -103.6311558 -0.297374E-08  0.117E-03    2.19      10.6  T
   3   -103.6311558 -0.127514E-09  0.133E-04    2.19      93.3  T
   4   -103.6311558 -0.107414E-08  0.497E-05    2.19     249.5  T
     SCC iter.                  ...        0 min,  0.029 sec
     gradient                   ...        0 min,  0.008 sec
 * total energy  :  -101.6369629 Eh     change       -0.3482121E-06 Eh
   gradient norm :     0.0001783 Eh/α   predicted    -0.1548373E-06 ( -55.53%)
   displ. norm   :     0.0321790 α      lambda       -0.1167603E-05
   maximum displ.:     0.0169062 α      in ANC's #3, #15, #7, ...

........................................................................
.............................. CYCLE   23 ..............................
........................................................................

 iter      E             dE          RMSdq      gap      omega  full diag
   1   -103.6312409 -0.103631E+03  0.731E-03    2.19       0.0  T
   2   -103.6312409 -0.283955E-07  0.422E-03    2.19       2.9  T
   3   -103.6312409  0.190281E-07  0.667E-04    2.19      18.6  T
   4   -103.6312409 -0.316000E-07  0.184E-04    2.19      67.3  T
     SCC iter.                  ...        0 min,  0.029 sec
     gradient                   ...        0 min,  0.008 sec
 * total energy  :  -101.6369637 Eh     change       -0.7866973E-06 Eh
   gradient norm :     0.0003114 Eh/α   predicted    -0.5842589E-06 ( -25.73%)
   displ. norm   :     0.0204983 α      lambda       -0.7899665E-06
   maximum displ.:     0.0119480 α      in ANC's #3, #7, #1, ...

........................................................................
.............................. CYCLE   24 ..............................
........................................................................

 iter      E             dE          RMSdq      gap      omega  full diag
   1   -103.6313022 -0.103631E+03  0.537E-03    2.19       0.0  T
   2   -103.6313022 -0.147302E-07  0.308E-03    2.19       4.0  T
   3   -103.6313022  0.208465E-07  0.641E-04    2.19      19.4  T
   4   -103.6313022 -0.283835E-07  0.143E-04    2.19      87.0  T
     SCC iter.                  ...        0 min,  0.028 sec
     gradient                   ...        0 min,  0.008 sec
 * total energy  :  -101.6369643 Eh     change       -0.6362588E-06 Eh
   gradient norm :     0.0001582 Eh/α   predicted    -0.3996794E-06 ( -37.18%)
   displ. norm   :     0.0111744 α      lambda       -0.3389783E-06
   maximum displ.:     0.0073901 α      in ANC's #3, #1, #7, ...

........................................................................
.............................. CYCLE   25 ..............................
........................................................................

 iter      E             dE          RMSdq      gap      omega  full diag
   1   -103.6312986 -0.103631E+03  0.261E-03    2.19       0.0  T
   2   -103.6312986 -0.226659E-08  0.151E-03    2.19       8.2  T
   3   -103.6312986  0.344481E-08  0.274E-04    2.19      45.3  T
   4   -103.6312986 -0.457646E-08  0.658E-05    2.19     188.5  T
     SCC iter.                  ...        0 min,  0.028 sec
     gradient                   ...        0 min,  0.008 sec
 * total energy  :  -101.6369648 Eh     change       -0.4546678E-06 Eh
   gradient norm :     0.0001325 Eh/α   predicted    -0.1699369E-06 ( -62.62%)
   displ. norm   :     0.0244890 α      lambda       -0.7247271E-06
   maximum displ.:     0.0157007 α      in ANC's #3, #1, #7, ...

........................................................................
.............................. CYCLE   26 ..............................
........................................................................

 iter      E             dE          RMSdq      gap      omega  full diag
   1   -103.6312540 -0.103631E+03  0.583E-03    2.19       0.0  T
   2   -103.6312540 -0.109622E-07  0.338E-03    2.19       3.7  T
   3   -103.6312540  0.490374E-09  0.309E-04    2.19      40.2  T
   4   -103.6312540 -0.489929E-08  0.121E-04    2.19     102.2  T
     SCC iter.                  ...        0 min,  0.028 sec
     gradient                   ...        0 min,  0.008 sec
 * total energy  :  -101.6369656 Eh     change       -0.8442544E-06 Eh
   gradient norm :     0.0001634 Eh/α   predicted    -0.3648412E-06 ( -56.79%)
   displ. norm   :     0.0296647 α      lambda       -0.5314916E-06
   maximum displ.:     0.0196293 α      in ANC's #3, #1, #7, ...

........................................................................
.............................. CYCLE   27 ..............................
........................................................................

 iter      E             dE          RMSdq      gap      omega  full diag
   1   -103.6311691 -0.103631E+03  0.658E-03    2.19       0.0  T
   2   -103.6311691 -0.149949E-07  0.380E-03    2.19       3.3  T
   3   -103.6311691  0.455699E-09  0.365E-04    2.19      34.0  T
   4   -103.6311691 -0.650587E-08  0.150E-04    2.19      82.8  T
     SCC iter.                  ...        0 min,  0.029 sec
     gradient                   ...        0 min,  0.008 sec
 * total energy  :  -101.6369663 Eh     change       -0.6485922E-06 Eh
   gradient norm :     0.0001994 Eh/α   predicted    -0.2681509E-06 ( -58.66%)
   displ. norm   :     0.0241337 α      lambda       -0.3668482E-06
   maximum displ.:     0.0165966 α      in ANC's #3, #1, #7, ...

........................................................................
.............................. CYCLE   28 ..............................
........................................................................

 iter      E             dE          RMSdq      gap      omega  full diag
   1   -103.6311987 -0.103631E+03  0.497E-03    2.19       0.0  T
   2   -103.6311987 -0.905563E-08  0.287E-03    2.19       4.3  T
   3   -103.6311987  0.230523E-08  0.334E-04    2.19      37.2  T
   4   -103.6311987 -0.604521E-08  0.121E-04    2.19     102.4  T
     SCC iter.                  ...        0 min,  0.028 sec
     gradient                   ...        0 min,  0.008 sec
 * total energy  :  -101.6369668 Eh     change       -0.5031979E-06 Eh
   gradient norm :     0.0001226 Eh/α   predicted    -0.1869934E-06 ( -62.84%)
   displ. norm   :     0.0214716 α      lambda       -0.3915626E-06
   maximum displ.:     0.0150694 α      in ANC's #3, #1, #6, ...

........................................................................
.............................. CYCLE   29 ..............................
........................................................................

 iter      E             dE          RMSdq      gap      omega  full diag
   1   -103.6312029 -0.103631E+03  0.412E-03    2.19       0.0  T
   2   -103.6312029 -0.629976E-08  0.238E-03    2.19       5.2  T
   3   -103.6312029 -0.169105E-08  0.163E-04    2.19      76.1  T
   4   -103.6312029 -0.761418E-09  0.860E-05    2.19     144.3  T
     SCC iter.                  ...        0 min,  0.029 sec
     gradient                   ...        0 min,  0.008 sec
 * total energy  :  -101.6369673 Eh     change       -0.5328084E-06 Eh
   gradient norm :     0.0000753 Eh/α   predicted    -0.1980837E-06 ( -62.82%)
   displ. norm   :     0.0267789 α      lambda       -0.4985719E-06
   maximum displ.:     0.0186979 α      in ANC's #3, #1, #6, ...

........................................................................
.............................. CYCLE   30 ..............................
........................................................................

 iter      E             dE          RMSdq      gap      omega  full diag
   1   -103.6312419 -0.103631E+03  0.494E-03    2.19       0.0  T
   2   -103.6312419 -0.817478E-08  0.286E-03    2.19       4.3  T
   3   -103.6312419  0.291338E-08  0.329E-04    2.19      37.7  T
   4   -103.6312419 -0.629096E-08  0.119E-04    2.19     104.2  T
     SCC iter.                  ...        0 min,  0.028 sec
     gradient                   ...        0 min,  0.008 sec
 * total energy  :  -101.6369680 Eh     change       -0.6733146E-06 Eh
   gradient norm :     0.0001072 Eh/α   predicted    -0.2517771E-06 ( -62.61%)
   displ. norm   :     0.0378836 α      lambda       -0.6618282E-06
   maximum displ.:     0.0263440 α      in ANC's #3, #1, #6, ...

........................................................................
.............................. CYCLE   31 ..............................
........................................................................

 iter      E             dE          RMSdq      gap      omega  full diag
   1   -103.6312845 -0.103631E+03  0.676E-03    2.19       0.0  T
   2   -103.6312845 -0.122156E-07  0.392E-03    2.19       3.2  T
   3   -103.6312845  0.264657E-08  0.372E-04    2.19      33.4  T
   4   -103.6312845 -0.771664E-08  0.146E-04    2.19      85.0  T
     SCC iter.                  ...        0 min,  0.029 sec
     gradient                   ...        0 min,  0.008 sec
 * total energy  :  -101.6369688 Eh     change       -0.8751517E-06 Eh
   gradient norm :     0.0001758 Eh/α   predicted    -0.3334451E-06 ( -61.90%)
   displ. norm   :     0.0514195 α      lambda       -0.7966943E-06
   maximum displ.:     0.0357002 α      in ANC's #3, #1, #6, ...

........................................................................
.............................. CYCLE   32 ..............................
........................................................................

 iter      E             dE          RMSdq      gap      omega  full diag
   1   -103.6312759 -0.103631E+03  0.898E-03    2.19       0.0  T
   2   -103.6312759 -0.188902E-07  0.522E-03    2.19       2.4  T
   3   -103.6312759  0.157357E-09  0.400E-04    2.19      31.0  T
   4   -103.6312759 -0.780561E-08  0.180E-04    2.19      68.9  T
     SCC iter.                  ...        0 min,  0.029 sec
     gradient                   ...        0 min,  0.008 sec
 * total energy  :  -101.6369699 Eh     change       -0.1052705E-05 Eh
   gradient norm :     0.0001458 Eh/α   predicted    -0.3997076E-06 ( -62.03%)
   displ. norm   :     0.0598621 α      lambda       -0.8072737E-06
   maximum displ.:     0.0414975 α      in ANC's #3, #1, #6, ...

........................................................................
.............................. CYCLE   33 ..............................
........................................................................

 iter      E             dE          RMSdq      gap      omega  full diag
   1   -103.6312637 -0.103631E+03  0.103E-02    2.19       0.0  T
   2   -103.6312637 -0.220741E-07  0.601E-03    2.19       2.1  T
   3   -103.6312637  0.521051E-08  0.508E-04    2.19      24.4  T
   4   -103.6312637 -0.145318E-07  0.201E-04    2.19      61.8  T
     SCC iter.                  ...        0 min,  0.029 sec
     gradient                   ...        0 min,  0.008 sec
 * total energy  :  -101.6369709 Eh     change       -0.1047572E-05 Eh
   gradient norm :     0.0001233 Eh/α   predicted    -0.4076654E-06 ( -61.08%)
   displ. norm   :     0.0633532 α      lambda       -0.7238900E-06
   maximum displ.:     0.0440225 α      in ANC's #3, #1, #6, ...

........................................................................
.............................. CYCLE   34 ..............................
........................................................................

 iter      E             dE          RMSdq      gap      omega  full diag
   1   -103.6312150 -0.103631E+03  0.109E-02    2.19       0.0  T
   2   -103.6312150 -0.229921E-07  0.638E-03    2.19       1.9  T
   3   -103.6312150  0.654595E-09  0.451E-04    2.19      27.5  T
   4   -103.6312150 -0.101772E-07  0.200E-04    2.19      62.2  T
     SCC iter.                  ...        0 min,  0.029 sec
     gradient                   ...        0 min,  0.008 sec
 * total energy  :  -101.6369718 Eh     change       -0.8932217E-06 Eh
   gradient norm :     0.0000644 Eh/α   predicted    -0.3658727E-06 ( -59.04%)
   displ. norm   :     0.0589334 α      lambda       -0.5167291E-06
   maximum displ.:     0.0410619 α      in ANC's #3, #1, #6, ...

........................................................................
.............................. CYCLE   35 ..............................
........................................................................

 iter      E             dE          RMSdq      gap      omega  full diag
   1   -103.6311807 -0.103631E+03  0.103E-02    2.19       0.0  T
   2   -103.6311807 -0.189472E-07  0.602E-03    2.19       2.1  T
   3   -103.6311807  0.657177E-08  0.506E-04    2.19      24.5  T
   4   -103.6311808 -0.148091E-07  0.188E-04    2.19      66.1  T
     SCC iter.                  ...        0 min,  0.028 sec
     gradient                   ...        0 min,  0.008 sec
 * total energy  :  -101.6369725 Eh     change       -0.6440220E-06 Eh
   gradient norm :     0.0000474 Eh/α   predicted    -0.2596316E-06 ( -59.69%)
   displ. norm   :     0.0510926 α      lambda       -0.3621212E-06
   maximum displ.:     0.0356631 α      in ANC's #3, #1, #6, ...

........................................................................
.............................. CYCLE   36 ..............................
........................................................................

 iter      E             dE          RMSdq      gap      omega  full diag
   1   -103.6311610 -0.103631E+03  0.912E-03    2.19       0.0  T
   2   -103.6311610 -0.135932E-07  0.532E-03    2.19       2.3  T
   3   -103.6311610  0.192223E-08  0.380E-04    2.19      32.6  T
   4   -103.6311610 -0.767140E-08  0.158E-04    2.19      78.5  T
     SCC iter.                  ...        0 min,  0.029 sec
     gradient                   ...        0 min,  0.008 sec
 * total energy  :  -101.6369730 Eh     change       -0.4673903E-06 Eh
   gradient norm :     0.0000608 Eh/α   predicted    -0.1862513E-06 ( -60.15%)
   displ. norm   :     0.0522535 α      lambda       -0.3438463E-06
   maximum displ.:     0.0362996 α      in ANC's #3, #1, #6, ...

........................................................................
.............................. CYCLE   37 ..............................
........................................................................

 iter      E             dE          RMSdq      gap      omega  full diag
   1   -103.6311533 -0.103631E+03  0.953E-03    2.19       0.0  T
   2   -103.6311534 -0.139284E-07  0.556E-03    2.19       2.2  T
   3   -103.6311534  0.178292E-08  0.380E-04    2.19      32.6  T
   4   -103.6311534 -0.764229E-08  0.159E-04    2.19      78.1  T
     SCC iter.                  ...        0 min,  0.029 sec
     gradient                   ...        0 min,  0.008 sec
 * total energy  :  -101.6369734 Eh     change       -0.4346421E-06 Eh
   gradient norm :     0.0000694 Eh/α   predicted    -0.1732543E-06 ( -60.14%)
   displ. norm   :     0.0628244 α      lambda       -0.3666849E-06
   maximum displ.:     0.0433222 α      in ANC's #3, #1, #6, ...

........................................................................
.............................. CYCLE   38 ..............................
........................................................................

 iter      E             dE          RMSdq      gap      omega  full diag
   1   -103.6311544 -0.103631E+03  0.116E-02    2.19       0.0  T
   2   -103.6311544 -0.199854E-07  0.677E-03    2.19       1.8  T
   3   -103.6311544  0.331278E-08  0.467E-04    2.19      26.5  T
   4   -103.6311544 -0.117239E-07  0.191E-04    2.19      64.9  T
     SCC iter.                  ...        0 min,  0.039 sec
     gradient                   ...        0 min,  0.009 sec
 * total energy  :  -101.6369738 Eh     change       -0.4310875E-06 Eh
   gradient norm :     0.0000720 Eh/α   predicted    -0.1841643E-06 ( -57.28%)
   displ. norm   :     0.0595666 α      lambda       -0.2582366E-06
   maximum displ.:     0.0408314 α      in ANC's #3, #1, #6, ...

........................................................................
.............................. CYCLE   39 ..............................
........................................................................

 iter      E             dE          RMSdq      gap      omega  full diag
   1   -103.6311802 -0.103631E+03  0.110E-02    2.19       0.0  T
   2   -103.6311802 -0.173055E-07  0.642E-03    2.19       1.9  T
   3   -103.6311802  0.800492E-08  0.516E-04    2.19      24.0  T
   4   -103.6311802 -0.156238E-07  0.181E-04    2.19      68.4  T
     SCC iter.                  ...        0 min,  0.029 sec
     gradient                   ...        0 min,  0.008 sec
 * total energy  :  -101.6369741 Eh     change       -0.2904598E-06 Eh
   gradient norm :     0.0000718 Eh/α   predicted    -0.1335761E-06 ( -54.01%)
   displ. norm   :     0.0424152 α      lambda        0.2134536E-07
   maximum displ.:     0.0290583 α      in ANC's #3, #1, #6, ...

........................................................................
.............................. CYCLE   40 ..............................
........................................................................

 iter      E             dE          RMSdq      gap      omega  full diag
   1   -103.6311801 -0.103631E+03  0.782E-03    2.19       0.0  T
   2   -103.6311801 -0.823530E-08  0.457E-03    2.19       2.7  T
   3   -103.6311801  0.406449E-08  0.362E-04    2.19      34.3  T
   4   -103.6311801 -0.778839E-08  0.124E-04    2.19      99.9  T
     SCC iter.                  ...        0 min,  0.028 sec
     gradient                   ...        0 min,  0.008 sec
 * total energy  :  -101.6369742 Eh     change       -0.5679435E-07 Eh
   gradient norm :     0.0000961 Eh/α   predicted     0.1029340E-07 (-118.12%)
   displ. norm   :     0.0158475 α      lambda       -0.1031766E-06
   maximum displ.:     0.0102874 α      in ANC's #3, #1, #2, ...

   *** GEOMETRY OPTIMIZATION CONVERGED AFTER 40 ITERATIONS ***

------------------------------------------------------------------------
 total energy gain   :        -0.0188002 Eh      -11.7973 kcal/mol
 total RMSD          :         0.2291270 a0        0.1212 Å
 total power (kW/mol):        -1.2339977 (step)  -25.6963 (real)
------------------------------------------------------------------------

 ANCopt (total)                0 d,  0 h,  0 min,  1.921 sec
 optimizer setup                ...        0 min,  0.000 sec (  0.013%)
 model hessian                  ...        0 min,  0.047 sec (  2.444%)
 ANC generation                 ...        0 min,  0.009 sec (  0.448%)
 coordinate transformation      ...        0 min,  0.004 sec (  0.202%)
 single point calculation       ...        0 min,  1.839 sec ( 95.716%)
 optimization log               ...        0 min,  0.009 sec (  0.465%)
 hessian update                 ...        0 min,  0.005 sec (  0.254%)
 rational function              ...        0 min,  0.005 sec (  0.263%)

================
 final structure:
================
65
 xtb: 6.7.1 (edcfbbe)
N          -10.70642124554655       -0.08120155810053       -0.14957979161938
C           -9.55822951177566       -0.08976065494487       -0.13685023997849
C           -8.14675968540381       -0.09951794296096       -0.12175419806448
C           -7.44935059937302       -1.13840858351122       -0.74246642382800
C           -6.06923269191754       -1.14036302195475       -0.72636124696489
C           -5.36554786395093       -0.11592950583508       -0.09650619633005
C           -3.88390320357566       -0.12123327865263       -0.08621542925701
C           -3.18130196091182        0.48788483366203       -1.13357095187934
C           -3.84973163746956        1.11666919457723       -2.21753751044604
C           -3.15355688911418        1.70426008156647       -3.22861372842504
C           -1.74335368505992        1.70037890917018       -3.21886659526563
C           -1.06509847286050        1.10929180388010       -2.19775932936370
C           -1.75149634423602        0.48501737537175       -1.12276435829916
C           -1.06321163200115       -0.12574246207717       -0.06651072093321
C            0.41987122010291       -0.12823486767941       -0.05647912310551
C            1.11361760027668       -1.19114803016075       -0.64629852782083
C            2.49351090609414       -1.23942420519013       -0.66235916624093
C            3.18874697720007       -0.19801353537469       -0.06328351493029
C            2.50236806880532        0.89322740057192        0.51894467367250
C            1.11452684547558        0.92186330754824        0.52305486773556
C            3.50878242409201        1.79919191253191        0.99709159961508
C            3.45985482071711        3.01776587995117        1.66245580384982
C            4.64765793720355        3.63326204657358        2.00348507936215
C            5.87341320970265        3.04217386538535        1.70142063584820
C            5.94776830279944        1.83082808635285        1.04084462841950
C            4.75732562078752        1.21737186963450        0.67513031079482
N            4.54912492305942        0.01121665784885        0.03687784645154
C            5.55123070930082       -0.85485300990536       -0.43171285777303
C            5.53979461715203       -2.19870728602756       -0.06994758829371
C            6.52701529759470       -3.04738772915324       -0.53708214794198
C            7.53406701852233       -2.56396311532531       -1.35639291819121
C            7.54890269049730       -1.22545575635081       -1.71344570739473
C            6.56001355328073       -0.37153387164422       -1.25980412258960
C           -1.76828091200693       -0.73400280430686        0.97994243022778
C           -1.09876796056036       -1.35870987353214        2.06526610804376
C           -1.79287174672961       -1.94706567684461        3.07723700362858
C           -3.20312018491048       -1.94797862167902        3.06652415464044
C           -3.88346111837414       -1.35931084529471        2.04533661927641
C           -3.19812013725091       -0.73267270450445        0.97073162737001
C           -6.06852295603425        0.91601022793013        0.52185721606383
C           -7.44856371668593        0.93044336264754        0.51278737249341
H           -7.99637256647001       -1.93215301939191       -1.23019852755896
H           -5.52449599140470       -1.94070322009406       -1.20524720079145
H           -4.93014951097625        1.12039753983329       -2.22537887724752
H           -3.67559799882437        2.17888577795458       -4.04691721453374
H           -1.20788948943728        2.17152449876400       -4.03035375742308
H            0.01498246824957        1.10454769619391       -2.18678554543325
H            0.54697008214379       -1.98965654085133       -1.10354596182087
H            3.01129005304254       -2.05938034317513       -1.13663923579607
H            0.58063784815255        1.74945176379614        0.96654936831508
H            2.51002748316635        3.46829164005943        1.90962339550529
H            4.63211747600986        4.58228102931912        2.51933359319186
H            6.78613212918886        3.54101649786796        1.99373419127073
H            6.90216127481145        1.37426609816869        0.82562944301872
H            4.76405566114954       -2.56765245618917        0.58468940140264
H            6.51356376288035       -4.08940691902284       -0.25295587372809
H            8.30571517210214       -3.22833057597541       -1.71547811071670
H            8.33008056166214       -0.84493249579329       -2.35508189695239
H            6.55680372005085        0.66840572957155       -1.55139433067244
H           -0.01861640336446       -1.35525797705133        2.06979413351844
H           -1.27037225182334       -2.41809183079586        3.89722824451070
H           -3.73787501631524       -2.42037556290910        3.87786640513806
H           -4.96389923102988       -1.36018766815125        2.03787054409757
H           -5.52309106554324        1.71009592084827        1.01029578269180
H           -7.99486675433899        1.73072754283020        0.99053844745208
 
 Bond Distances (Angstroems)
 ---------------------------
N1-C2=1.1483         C2-N1=1.1483         C2-C3=1.4116         C3-C2=1.4116         C3-C4=1.3968         C3-C41=1.3968        
C4-C3=1.3968         C4-C5=1.3802         C4-H42=1.0803        C5-C4=1.3802         C5-C6=1.3933         C5-H43=1.0801        
C6-C5=1.3933         C6-C7=1.4817         C6-C40=1.3934        C7-C6=1.4817         C7-C8=1.4006         C7-C39=1.4005        
C8-C7=1.4006         C8-C9=1.4203         C8-C13=1.4298        C9-C8=1.4203         C9-C10=1.3610        C9-H44=1.0805        
C10-C9=1.3610        C10-C11=1.4102       C10-H45=1.0805       C11-C10=1.4102       C11-C12=1.3609       C11-H46=1.0804       
C12-C11=1.3609       C12-C13=1.4200       C12-H47=1.0801       C13-C8=1.4298        C13-C12=1.4200       C13-C14=1.4009       
C14-C13=1.4009       C14-C15=1.4831       C14-C34=1.4008       C15-C14=1.4831       C15-C16=1.3996       C15-C20=1.3860       
C16-C15=1.3996       C16-C17=1.3808       C16-H48=1.0806       C17-C16=1.3808       C17-C18=1.3881       C17-H49=1.0795       
C18-C17=1.3881       C18-C19=1.4145       C18-N27=1.3800       C19-C18=1.4145       C19-C20=1.3881       C19-C21=1.4361       
C20-C15=1.3860       C20-C19=1.3881       C20-H50=1.0801       C21-C19=1.4361       C21-C22=1.3893       C21-C26=1.4146       
C22-C21=1.3893       C22-C23=1.3806       C22-H51=1.0799       C23-C22=1.3806       C23-C24=1.3940       C23-H52=1.0803       
C24-C23=1.3940       C24-C25=1.3818       C24-H53=1.0804       C25-C24=1.3818       C25-C26=1.3882       C25-H54=1.0796       
C26-C21=1.4146       C26-C25=1.3882       C26-N27=1.3804       N27-C18=1.3800       N27-C26=1.3804       N27-C28=1.4049       
C28-N27=1.4049       C28-C29=1.3917       C28-C33=1.3918       C29-C28=1.3917       C29-C30=1.3831       C29-H55=1.0800       
C30-C29=1.3831       C30-C31=1.3853       C30-H56=1.0801       C31-C30=1.3853       C31-C32=1.3854       C31-H57=1.0797       
C32-C31=1.3854       C32-C33=1.3831       C32-H58=1.0802       C33-C28=1.3918       C33-C32=1.3831       C33-H59=1.0801       
C34-C14=1.4008       C34-C35=1.4200       C34-C39=1.4299       C35-C34=1.4200       C35-C36=1.3609       C35-H60=1.0802       
C36-C35=1.3609       C36-C37=1.4103       C36-H61=1.0804       C37-C36=1.4103       C37-C38=1.3610       C37-H62=1.0805       
C38-C37=1.3610       C38-C39=1.4203       C38-H63=1.0805       C39-C7=1.4005        C39-C34=1.4299       C39-C38=1.4203       
C40-C6=1.3934        C40-C41=1.3801       C40-H64=1.0801       C41-C3=1.3968        C41-C40=1.3801       C41-H65=1.0803       
H42-C4=1.0803        H43-C5=1.0801        H44-C9=1.0805        H45-C10=1.0805       H46-C11=1.0804       H47-C12=1.0801       
H48-C16=1.0806       H49-C17=1.0795       H50-C20=1.0801       H51-C22=1.0799       H52-C23=1.0803       H53-C24=1.0804       
H54-C25=1.0796       H55-C29=1.0800       H56-C30=1.0801       H57-C31=1.0797       H58-C32=1.0802       H59-C33=1.0801       
H60-C35=1.0802       H61-C36=1.0804       H62-C37=1.0805       H63-C38=1.0805       H64-C40=1.0801       H65-C41=1.0803       
 C  H  Rav=1.0802 sigma=0.0003  Rmin=1.0795  Rmax=1.0806    24
 C  C  Rav=1.3997 sigma=0.0257  Rmin=1.3609  Rmax=1.4831    44
 N  C  Rav=1.3284 sigma=0.1045  Rmin=1.1483  Rmax=1.4049     4
 
 selected bond angles (degree)
 --------------------
C3-C2-N1=179.96                C4-C3-C2=119.98                C41-C3-C2=119.97               C41-C3-C4=120.05               
C5-C4-C3=119.68                H42-C4-C3=119.62               H42-C4-C5=120.70               C6-C5-C4=120.61                
H43-C5-C4=120.01               H43-C5-C6=119.37               C7-C6-C5=120.37                C40-C6-C5=119.36               
C40-C6-C7=120.27               C8-C7-C6=119.66                C39-C7-C6=119.77               C39-C7-C8=120.57               
C9-C8-C7=121.82                C13-C8-C7=119.68               C13-C8-C9=118.51               C10-C9-C8=121.16               
H44-C9-C8=118.53               H44-C9-C10=120.31              C11-C10-C9=120.34              H45-C10-C9=120.34              
H45-C10-C11=119.31             
 
 selected dihedral angles (degree)
 ---------------------------------
C4-C3-C2-N1=247.13            C41-C3-C2-N1= 67.07           C5-C4-C3-C2=179.87            C5-C4-C3-C41=359.93           
H42-C4-C3-C2=359.86           H42-C4-C3-C41=179.93          C6-C5-C4-C3=  0.00            C6-C5-C4-H42=180.02           
H43-C5-C4-C3=180.04           H43-C5-C4-H42=  0.04          C7-C6-C5-C4=180.19            C7-C6-C5-H43=  0.17           
C40-C6-C5-C4=  0.06           C40-C6-C5-H43=180.04          C8-C7-C6-C5= 88.85            C8-C7-C6-C40=268.98           
C39-C7-C6-C5=268.74           C39-C7-C6-C40= 88.87          C9-C8-C7-C6=359.96            C9-C8-C7-C39=180.07           
C13-C8-C7-C6=179.89           C13-C8-C7-C39=  0.00          C10-C9-C8-C7=180.02           C10-C9-C8-C13=  0.09          
H44-C9-C8-C7=  0.00           H44-C9-C8-C13=180.09          C11-C10-C9-C8=359.97          C11-C10-C9-H44=179.97         
H45-C10-C9-C8=180.00          H45-C10-C9-H44=  0.00         
           -------------------------------------------------
          |                Final Singlepoint                |
           -------------------------------------------------

          ...................................................
          :                      SETUP                      :
          :.................................................:
          :  # basis functions                 188          :
          :  # atomic orbitals                 188          :
          :  # shells                          106          :
          :  # electrons                       190          :
          :  max. iterations                   250          :
          :  Hamiltonian                  GFN2-xTB          :
          :  restarted?                      false          :
          :  GBSA solvation                   true          :
          :  PC potential                    false          :
          :  electronic temp.          300.0000000     K    :
          :  accuracy                    1.0000000          :
          :  -> integral cutoff          0.2500000E+02      :
          :  -> integral neglect         0.1000000E-07      :
          :  -> SCF convergence          0.1000000E-05 Eh   :
          :  -> wf. convergence          0.1000000E-03 e    :
          :  Broyden damping             0.4000000          :
          :  net charge                          0          :
          :  unpaired electrons                  0          :
          ...................................................

 iter      E             dE          RMSdq      gap      omega  full diag
   1   -103.6311801 -0.103631E+03  0.611E-05    2.19       0.0  T
   2   -103.6311801 -0.443521E-10  0.466E-05    2.19     266.0  T
   3   -103.6311801 -0.109992E-09  0.206E-05    2.19     603.2  T

   *** convergence criteria satisfied after 3 iterations ***

         #    Occupation            Energy/Eh            Energy/eV
      -------------------------------------------------------------
         1        2.0000           -0.6771582             -18.4264
       ...           ...                  ...                  ...
        89        2.0000           -0.4082028             -11.1078
        90        2.0000           -0.4062435             -11.0544
        91        2.0000           -0.4026973             -10.9580
        92        2.0000           -0.4013891             -10.9224
        93        2.0000           -0.3796834             -10.3317
        94        2.0000           -0.3623920              -9.8612
        95        2.0000           -0.3618305              -9.8459 (HOMO)
        96                         -0.2814595              -7.6589 (LUMO)
        97                         -0.2748267              -7.4784
        98                         -0.2474046              -6.7322
        99                         -0.2427876              -6.6066
       100                         -0.2340918              -6.3700
       ...                                ...                  ...
       188                          1.1582916              31.5187
      -------------------------------------------------------------
                  HL-Gap            0.0803709 Eh            2.1870 eV
             Fermi-level           -0.3216450 Eh           -8.7524 eV

 SCC (total)                   0 d,  0 h,  0 min,  0.035 sec
 SCC setup                      ...        0 min,  0.001 sec (  1.585%)
 Dispersion                     ...        0 min,  0.001 sec (  2.329%)
 classical contributions        ...        0 min,  0.000 sec (  0.091%)
 integral evaluation            ...        0 min,  0.003 sec (  7.742%)
 iterations                     ...        0 min,  0.023 sec ( 64.752%)
 molecular gradient             ...        0 min,  0.008 sec ( 22.153%)
 printout                       ...        0 min,  0.000 sec (  1.108%)

         :::::::::::::::::::::::::::::::::::::::::::::::::::::
         ::                     SUMMARY                     ::
         :::::::::::::::::::::::::::::::::::::::::::::::::::::
         :: total energy            -101.636974165536 Eh    ::
         :: total w/o Gsasa/hb      -101.594990060989 Eh    ::
         :: gradient norm              0.000096292429 Eh/a0 ::
         :: HOMO-LUMO gap              2.187004624984 eV    ::
         ::.................................................::
         :: SCC energy              -103.631231758874 Eh    ::
         :: -> isotropic ES            0.016240516686 Eh    ::
         :: -> anisotropic ES          0.008675175197 Eh    ::
         :: -> anisotropic XC          0.072393368707 Eh    ::
         :: -> dispersion             -0.091985230026 Eh    ::
         :: -> Gsolv                  -0.045275929721 Eh    ::
         ::    -> Gelec               -0.003291825174 Eh    ::
         ::    -> Gsasa               -0.046507984419 Eh    ::
         ::    -> Ghb                  0.000000000000 Eh    ::
         ::    -> Gshift               0.004523879872 Eh    ::
         :: repulsion energy           1.994257593338 Eh    ::
         :: add. restraining           0.000000000000 Eh    ::
         :: total charge              -0.000000000000 e     ::
         :::::::::::::::::::::::::::::::::::::::::::::::::::::

           ------------------------------------------------- 
          |                Numerical Hessian                |
           ------------------------------------------------- 
step length          :   0.00500
SCC accuracy         :   0.30000
Hessian scale factor :   1.00000
frozen atoms in %    :   0.00000    0
RMS gradient         :   0.00010
estimated CPU  time     21.34 min
estimated wall time      0.54 min

writing file <hessian>.

 projected vibrational frequencies (cm⁻¹)
eigval :       -0.00    -0.00    -0.00     0.00     0.00     0.00
eigval :      -15.09    10.08    11.53    16.64    34.74    45.40
eigval :       57.63    62.62    64.79    75.79    99.31   106.56
eigval :      113.48   129.75   131.80   138.09   146.26   181.85
eigval :      204.80   207.04   214.37   233.74   250.05   256.49
eigval :      263.68   316.32   331.73   353.77   358.93   378.45
eigval :      386.69   389.81   395.34   397.18   412.45   429.71
eigval :      435.56   446.82   447.56   459.00   459.74   476.84
eigval :      511.48   531.71   533.71   535.73   543.33   559.92
eigval :      580.73   583.15   586.37   588.49   599.56   609.83
eigval :      621.84   626.45   642.55   648.76   668.36   681.04
eigval :      685.69   693.07   698.07   707.86   723.41   741.23
eigval :      761.29   771.77   772.79   778.91   779.50   798.02
eigval :      816.22   825.02   868.01   873.22   875.07   876.73
eigval :      878.55   883.57   888.31   897.93   899.79   904.57
eigval :      915.04   919.53   920.31   921.09   921.55   921.59
eigval :      924.15   929.97   931.90   932.04   932.48   932.83
eigval :      933.82   963.31   996.92  1017.89  1030.16  1069.90
eigval :     1077.27  1078.35  1079.15  1117.06  1118.48  1130.27
eigval :     1134.42  1136.68  1155.11  1176.72  1179.00  1179.53
eigval :     1181.13  1182.93  1184.23  1193.76  1200.47  1205.48
eigval :     1225.51  1234.54  1241.20  1244.10  1256.56  1262.25
eigval :     1263.42  1273.97  1279.07  1302.17  1303.97  1315.15
eigval :     1325.95  1341.68  1348.76  1357.66  1359.22  1377.99
eigval :     1383.77  1390.41  1416.92  1417.77  1428.31  1429.98
eigval :     1434.71  1445.53  1466.34  1479.88  1480.58  1488.31
eigval :     1495.25  1525.26  1532.31  1542.78  1545.06  1563.64
eigval :     1581.43  1582.75  1586.67  1593.28  1597.47  1607.20
eigval :     1613.35  1621.99  2361.33  3070.45  3070.54  3071.13
eigval :     3074.50  3075.21  3075.42  3075.50  3076.43  3077.44
eigval :     3080.06  3081.26  3081.47  3083.34  3083.67  3084.17
eigval :     3086.26  3089.46  3089.84  3089.97  3090.96  3091.42
eigval :     3092.26  3092.96  3096.38
           -------------------------------------------------
          |                Property Printout                |
           -------------------------------------------------

    * Orbital Energies and Occupations

         #    Occupation            Energy/Eh            Energy/eV
      -------------------------------------------------------------
         1        2.0000           -0.6771582             -18.4264
       ...           ...                  ...                  ...
        83        2.0000           -0.4227062             -11.5024
        84        2.0000           -0.4212020             -11.4615
        85        2.0000           -0.4184314             -11.3861
        86        2.0000           -0.4127585             -11.2317
        87        2.0000           -0.4115548             -11.1990
        88        2.0000           -0.4099901             -11.1564
        89        2.0000           -0.4082028             -11.1078
        90        2.0000           -0.4062435             -11.0544
        91        2.0000           -0.4026974             -10.9580
        92        2.0000           -0.4013891             -10.9224
        93        2.0000           -0.3796834             -10.3317
        94        2.0000           -0.3623920              -9.8612
        95        2.0000           -0.3618305              -9.8459 (HOMO)
        96                         -0.2814595              -7.6589 (LUMO)
        97                         -0.2748266              -7.4784
        98                         -0.2474046              -6.7322
        99                         -0.2427875              -6.6066
       100                         -0.2340918              -6.3700
       101                         -0.2331819              -6.3452
       102                         -0.2316032              -6.3022
       103                         -0.2233879              -6.0787
       104                         -0.2225470              -6.0558
       105                         -0.2134342              -5.8078
       106                         -0.1921043              -5.2274
       ...                                ...                  ...
       188                          1.1582916              31.5187
      -------------------------------------------------------------
                  HL-Gap            0.0803709 Eh            2.1870 eV
             Fermi-level           -0.3216450 Eh           -8.7524 eV

     #   Z          covCN         q      C6AA      α(0)
     1   7 N        0.911    -0.276    27.121     7.532
     2   6 C        1.912     0.118    28.188     8.574
     3   6 C        2.974     0.014    27.706     8.634
     4   6 C        2.924    -0.019    28.471     8.750
     5   6 C        2.922    -0.027    28.671     8.781
     6   6 C        2.977     0.030    27.323     8.574
     7   6 C        2.978    -0.009    28.243     8.717
     8   6 C        2.984     0.007    27.865     8.659
     9   6 C        2.917    -0.035    28.882     8.813
    10   6 C        2.914    -0.030    28.739     8.791
    11   6 C        2.914    -0.030    28.759     8.794
    12   6 C        2.917    -0.033    28.819     8.803
    13   6 C        2.984     0.006    27.883     8.662
    14   6 C        2.978    -0.002    28.075     8.691
    15   6 C        2.977     0.003    27.954     8.673
    16   6 C        2.928    -0.037    28.926     8.820
    17   6 C        2.908    -0.052    29.289     8.874
    18   6 C        3.076     0.046    26.893     8.502
    19   6 C        3.066    -0.019    28.410     8.740
    20   6 C        2.917    -0.038    28.937     8.821
    21   6 C        3.067    -0.019    28.407     8.740
    22   6 C        2.912    -0.035    28.862     8.809
    23   6 C        2.920    -0.043    29.061     8.840
    24   6 C        2.924    -0.035    28.867     8.811
    25   6 C        2.909    -0.052    29.287     8.874
    26   6 C        3.077     0.048    26.850     8.495
    27   7 N        2.802    -0.047    22.141     6.989
    28   6 C        2.913     0.064    26.565     8.452
    29   6 C        2.922    -0.042    29.045     8.838
    30   6 C        2.920    -0.028    28.700     8.785
    31   6 C        2.919    -0.033    28.816     8.803
    32   6 C        2.920    -0.028    28.699     8.785
    33   6 C        2.922    -0.042    29.044     8.838
    34   6 C        2.984     0.006    27.883     8.662
    35   6 C        2.917    -0.033    28.818     8.803
    36   6 C        2.914    -0.030    28.760     8.794
    37   6 C        2.914    -0.030    28.740     8.791
    38   6 C        2.917    -0.035    28.881     8.813
    39   6 C        2.984     0.007    27.865     8.659
[...]
    13   6 C       14   6 C                                       1.4008696
    15   6 C       16   6 C                                       1.3996270
    16   6 C       17   6 C                                       1.3808311
    17   6 C       18   6 C                                       1.3880855
    18   6 C       19   6 C                                       1.4145363
    15   6 C       20   6 C                                       1.3860421
    19   6 C       20   6 C                                       1.3881428
    19   6 C       21   6 C                                       1.4360593 (max)
    21   6 C       22   6 C                                       1.3892539
    22   6 C       23   6 C                                       1.3805843
    23   6 C       24   6 C                                       1.3939528
    24   6 C       25   6 C                                       1.3817555
    21   6 C       26   6 C                                       1.4145791
    25   6 C       26   6 C                                       1.3882470
    18   6 C       27   7 N                                       1.3800138
    26   6 C       27   7 N                                       1.3804074
    27   7 N       28   6 C                                       1.4049449
    28   6 C       29   6 C                                       1.3917434
    29   6 C       30   6 C                                       1.3831407
    30   6 C       31   6 C                                       1.3853242
    31   6 C       32   6 C                                       1.3853913
    28   6 C       33   6 C                                       1.3917528
    32   6 C       33   6 C                                       1.3830674
    14   6 C       34   6 C                                       1.4007740
    34   6 C       35   6 C                                       1.4200121
    35   6 C       36   6 C                                       1.3608924
    36   6 C       37   6 C                                       1.4102896
    37   6 C       38   6 C                                       1.3609621
     7   6 C       39   6 C                                       1.4004621
    34   6 C       39   6 C                                       1.4298696
    38   6 C       39   6 C                                       1.4202619
     6   6 C       40   6 C                                       1.3933583
     3   6 C       41   6 C                                       1.3967610
    40   6 C       41   6 C                                       1.3801462
     4   6 C       42   1 H                                       1.0803454
     5   6 C       43   1 H                                       1.0800993
     9   6 C       44   1 H                                       1.0804529
    10   6 C       45   1 H                                       1.0804709
    11   6 C       46   1 H                                       1.0803757
    12   6 C       47   1 H                                       1.0801472
    16   6 C       48   1 H                                       1.0806390
    17   6 C       49   1 H                                       1.0795208 (min)
    20   6 C       50   1 H                                       1.0801054
    22   6 C       51   1 H                                       1.0799248
    23   6 C       52   1 H                                       1.0802678
    24   6 C       53   1 H                                       1.0804384
    25   6 C       54   1 H                                       1.0796447
    29   6 C       55   1 H                                       1.0800191
    30   6 C       56   1 H                                       1.0801448
    31   6 C       57   1 H                                       1.0797071
    32   6 C       58   1 H                                       1.0801546
    33   6 C       59   1 H                                       1.0800508
    35   6 C       60   1 H                                       1.0801667
    36   6 C       61   1 H                                       1.0803968
    37   6 C       62   1 H                                       1.0804620
    38   6 C       63   1 H                                       1.0804644
    40   6 C       64   1 H                                       1.0801113
    41   6 C       65   1 H                                       1.0803463

 * 3 distinct bonds (by element types)

   Z      Z             #   av. dist./Å        max./Å        min./Å
   1 H    6 C          24     1.0801857     1.0806390     1.0795208
   6 C    6 C          41     1.3953636     1.4360593     1.3608924
   6 C    7 N           4     1.3284151     1.4049449     1.1482943

           -------------------------------------------------
          |               Frequency Printout                |
           -------------------------------------------------
 projected vibrational frequencies (cm⁻¹)
eigval :       -0.00    -0.00    -0.00     0.00     0.00     0.00
eigval :      -15.09    10.08    11.53    16.64    34.74    45.40
eigval :       57.63    62.62    64.79    75.79    99.31   106.56
eigval :      113.48   129.75   131.80   138.09   146.26   181.85
eigval :      204.80   207.04   214.37   233.74   250.05   256.49
eigval :      263.68   316.32   331.73   353.77   358.93   378.45
eigval :      386.69   389.81   395.34   397.18   412.45   429.71
eigval :      435.56   446.82   447.56   459.00   459.74   476.84
eigval :      511.48   531.71   533.71   535.73   543.33   559.92
eigval :      580.73   583.15   586.37   588.49   599.56   609.83
eigval :      621.84   626.45   642.55   648.76   668.36   681.04
eigval :      685.69   693.07   698.07   707.86   723.41   741.23
eigval :      761.29   771.77   772.79   778.91   779.50   798.02
eigval :      816.22   825.02   868.01   873.22   875.07   876.73
eigval :      878.55   883.57   888.31   897.93   899.79   904.57
eigval :      915.04   919.53   920.31   921.09   921.55   921.59
eigval :      924.15   929.97   931.90   932.04   932.48   932.83
eigval :      933.82   963.31   996.92  1017.89  1030.16  1069.90
eigval :     1077.27  1078.35  1079.15  1117.06  1118.48  1130.27
eigval :     1134.42  1136.68  1155.11  1176.72  1179.00  1179.53
eigval :     1181.13  1182.93  1184.23  1193.76  1200.47  1205.48
eigval :     1225.51  1234.54  1241.20  1244.10  1256.56  1262.25
eigval :     1263.42  1273.97  1279.07  1302.17  1303.97  1315.15
eigval :     1325.95  1341.68  1348.76  1357.66  1359.22  1377.99
eigval :     1383.77  1390.41  1416.92  1417.77  1428.31  1429.98
eigval :     1434.71  1445.53  1466.34  1479.88  1480.58  1488.31
eigval :     1495.25  1525.26  1532.31  1542.78  1545.06  1563.64
eigval :     1581.43  1582.75  1586.67  1593.28  1597.47  1607.20
eigval :     1613.35  1621.99  2361.33  3070.45  3070.54  3071.13
eigval :     3074.50  3075.21  3075.42  3075.50  3076.43  3077.44
eigval :     3080.06  3081.26  3081.47  3083.34  3083.67  3084.17
eigval :     3086.26  3089.46  3089.84  3089.97  3090.96  3091.42
eigval :     3092.26  3092.96  3096.38
 reduced masses (amu)
   1: 11.64   2: 11.18   3: 11.48   4: 11.58   5: 11.70   6: 11.41   7:  9.89   8: 10.96
   9: 11.67  10: 11.58  11: 11.94  12: 11.07  13: 10.85  14: 10.04  15: 10.77  16: 10.91
  17: 10.63  18:  9.77  19: 11.78  20: 10.33  21: 11.31  22: 11.53  23: 10.86  24: 11.19
  25: 10.53  26: 10.67  27: 10.38  28: 10.62  29: 10.71  30: 11.24  31: 10.42  32: 11.01
  33: 10.86  34: 11.16  35:  8.92  36:  9.03  37:  9.65  38: 10.05  39: 10.73  40: 10.95
  41: 11.00  42:  9.91  43: 10.84  44:  9.23  45: 10.92  46: 11.00  47:  9.91  48: 10.07
  49: 11.55  50: 11.12  51: 11.64  52: 10.73  53: 10.87  54: 10.43  55: 11.05  56: 11.18
  57: 10.92  58: 11.21  59: 11.29  60: 11.43  61: 11.24  62: 10.78  63: 10.47  64: 11.14
  65:  9.90  66: 11.63  67: 11.14  68: 11.39  69: 11.22  70: 11.54  71: 11.06  72: 11.63
  73:  4.46  74:  9.76  75:  3.69  76:  6.19  77:  3.98  78: 11.09  79:  5.01  80:  4.63
  81:  3.44  82:  3.31  83:  3.83  84:  3.86  85:  3.36  86:  3.43  87: 11.02  88: 11.06
  89:  4.11  90:  4.18  91:  3.47  92:  2.96  93:  4.09  94:  6.83  95:  3.99  96:  7.25
  97: 11.31  98:  4.10  99:  5.18 100:  8.38 101:  3.16 102:  3.17 103:  3.76 104: 11.22
 105: 10.77 106:  8.80 107:  8.26 108:  6.11 109:  6.57 110:  7.16 111:  6.80 112:  4.48
 113:  7.41 114:  3.15 115:  6.59 116:  6.64 117:  4.07 118:  2.29 119:  1.81 120:  1.36
 121:  2.58 122:  2.36 123:  2.23 124:  4.74 125:  3.70 126:  5.82 127:  3.52 128:  5.74
 129:  8.35 130:  7.02 131:  5.24 132:  3.40 133: 11.01 134:  4.62 135:  7.73 136:  8.48
 137: 11.62 138: 11.82 139:  9.23 140: 11.41 141:  6.58 142: 10.27 143: 10.65 144: 10.61
 145:  9.41 146:  9.97 147:  9.73 148: 11.01 149:  9.91 150: 10.05 151:  9.07 152: 10.44
 153: 10.07 154: 10.16 155: 10.30 156: 10.61 157: 10.90 158: 11.65 159: 11.86 160: 11.73
 161: 11.66 162: 11.64 163: 11.55 164: 11.58 165: 11.48 166: 11.48 167: 11.69 168: 11.33
 169: 11.70 170: 11.42 171: 12.79 172:  1.75 173:  1.75 174:  1.75 175:  1.79 176:  1.79
 177:  1.76 178:  1.79 179:  1.80 180:  1.79 181:  1.79 182:  1.80 183:  1.81 184:  1.86
 185:  1.86 186:  1.86 187:  1.84 188:  1.88 189:  1.87 190:  1.91 191:  1.88 192:  1.91
 193:  1.90 194:  1.89 195:  1.92
 IR intensities (km·mol⁻¹)
   1:  0.12   2:  0.01   3:  0.03   4:  0.03   5:  0.11   6:  0.04   7:  0.04   8:  0.04
   9:  0.33  10:  0.34  11:  2.11  12:  0.68  13:  0.09  14:  1.36  15:  0.31  16:  0.33
  17:  0.10  18:  0.04  19:  4.40  20:  2.23  21:  4.60  22:  1.65  23:  1.22  24:  0.73
  25:  0.50  26:  0.11  27:  0.00  28:  0.06  29:  0.34  30:  2.79  31:  1.13  32:  0.77
  33:  1.07  34:  0.13  35:  0.02  36:  1.70  37:  1.23  38:  1.67  39:  0.34  40:  0.15
  41:  1.73  42:  0.47  43:  0.39  44:  0.06  45:  0.67  46:  4.33  47:  0.09  48:  2.28
  49:  0.61  50:  4.81  51:  4.29  52:  1.93  53:  8.11  54:  2.94  55:  0.86  56:  1.26
  57:  9.20  58:  2.95  59:  4.11  60:  2.12  61:  0.99  62:  0.12  63:  0.01  64:  0.55
  65:  3.64  66:  1.46  67:  2.60  68:  0.00  69:  0.59  70:  3.64  71:  0.73  72:  0.09
  73: 29.93  74:  6.63  75: 20.77  76: 25.85  77:  0.57  78: 19.54  79: 18.14  80:  4.94
  81:  0.25  82:  0.00  83:  0.00  84:  0.08  85:  0.07  86:  0.19  87:  3.10  88:  0.02
  89:  0.42  90:  0.24  91:  0.27  92:  0.08  93:  0.08  94:  1.57  95:  0.05  96:  1.92
  97:  9.02  98:  0.03  99:  0.66 100:  1.05 101:  0.01 102:  0.29 103:  0.39 104:  2.39
 105:  1.06 106:  2.59 107:  2.00 108:  0.61 109:  0.01 110:  0.67 111:  0.32 112:  0.88
 113:  3.56 114:  0.90 115:  0.00 116: 30.43 117: 10.04 118:  5.49 119:  0.08 120:  0.10
 121:  3.62 122:  2.99 123:  4.15 124:  0.42 125:  2.09 126:  8.48 127:  0.11 128: 15.76
 129: 13.87 130: 21.53 131:  4.17 132:  0.26 133:  5.49 134: 35.73 135: 29.57 136:107.42
 137:  1.27 138:  0.10 139: 33.13 140: 26.46 141:  0.01 142: 58.66 143: 57.23 144:162.40
 145:  1.64 146:  0.13 147:  2.64 148: 25.88 149:  2.95 150:210.80 151: 14.44 152: 19.00
 153: 52.70 154:151.74 155:185.46 156:  4.34 157:  6.20 158:  0.72 159:  0.83 160:  2.45
 161:  0.50 162:  8.02 163: 13.66 164: 22.31 165: 97.18 166: 83.23 167: 53.60 168:  0.16
 169: 37.57 170:  0.08 171:577.36 172:  0.84 173:  1.47 174:  0.98 175: 27.90 176: 43.41
 177: 19.06 178: 35.12 179: 26.41 180: 23.49 181:  0.87 182:132.48 183:  8.75 184: 33.53
 185:217.74 186:179.32 187: 48.64 188: 86.31 189:147.62 190:225.55 191: 89.15 192: 16.32
 193: 69.52 194:  0.02 195: 48.05
 Raman intensities (Ä⁴*amu⁻¹)
   1:  0.00   2:  0.00   3:  0.00   4:  0.00   5:  0.00   6:  0.00   7:  0.00   8:  0.00
   9:  0.00  10:  0.00  11:  0.00  12:  0.00  13:  0.00  14:  0.00  15:  0.00  16:  0.00
  17:  0.00  18:  0.00  19:  0.00  20:  0.00  21:  0.00  22:  0.00  23:  0.00  24:  0.00
  25:  0.00  26:  0.00  27:  0.00  28:  0.00  29:  0.00  30:  0.00  31:  0.00  32:  0.00
  33:  0.00  34:  0.00  35:  0.00  36:  0.00  37:  0.00  38:  0.00  39:  0.00  40:  0.00
  41:  0.00  42:  0.00  43:  0.00  44:  0.00  45:  0.00  46:  0.00  47:  0.00  48:  0.00
  49:  0.00  50:  0.00  51:  0.00  52:  0.00  53:  0.00  54:  0.00  55:  0.00  56:  0.00
  57:  0.00  58:  0.00  59:  0.00  60:  0.00  61:  0.00  62:  0.00  63:  0.00  64:  0.00
  65:  0.00  66:  0.00  67:  0.00  68:  0.00  69:  0.00  70:  0.00  71:  0.00  72:  0.00
  73:  0.00  74:  0.00  75:  0.00  76:  0.00  77:  0.00  78:  0.00  79:  0.00  80:  0.00
  81:  0.00  82:  0.00  83:  0.00  84:  0.00  85:  0.00  86:  0.00  87:  0.00  88:  0.00
  89:  0.00  90:  0.00  91:  0.00  92:  0.00  93:  0.00  94:  0.00  95:  0.00  96:  0.00
  97:  0.00  98:  0.00  99:  0.00 100:  0.00 101:  0.00 102:  0.00 103:  0.00 104:  0.00
 105:  0.00 106:  0.00 107:  0.00 108:  0.00 109:  0.00 110:  0.00 111:  0.00 112:  0.00
 113:  0.00 114:  0.00 115:  0.00 116:  0.00 117:  0.00 118:  0.00 119:  0.00 120:  0.00
 121:  0.00 122:  0.00 123:  0.00 124:  0.00 125:  0.00 126:  0.00 127:  0.00 128:  0.00
 129:  0.00 130:  0.00 131:  0.00 132:  0.00 133:  0.00 134:  0.00 135:  0.00 136:  0.00
 137:  0.00 138:  0.00 139:  0.00 140:  0.00 141:  0.00 142:  0.00 143:  0.00 144:  0.00
 145:  0.00 146:  0.00 147:  0.00 148:  0.00 149:  0.00 150:  0.00 151:  0.00 152:  0.00
 153:  0.00 154:  0.00 155:  0.00 156:  0.00 157:  0.00 158:  0.00 159:  0.00 160:  0.00
 161:  0.00 162:  0.00 163:  0.00 164:  0.00 165:  0.00 166:  0.00 167:  0.00 168:  0.00
 169:  0.00 170:  0.00 171:  0.00 172:  0.00 173:  0.00 174:  0.00 175:  0.00 176:  0.00
 177:  0.00 178:  0.00 179:  0.00 180:  0.00 181:  0.00 182:  0.00 183:  0.00 184:  0.00
 185:  0.00 186:  0.00 187:  0.00 188:  0.00 189:  0.00 190:  0.00 191:  0.00 192:  0.00
 193:  0.00 194:  0.00 195:  0.00
 output can be read by thermo (or use thermo option).
 writing <g98.out> molden fake output.
 recommended (thermochemical) frequency scaling factor: 1.0
           -------------------------------------------------
          |             Thermodynamic Functions             |
           -------------------------------------------------

Molecule has no symmetry elements
It seems to be the C1 point group
c1  symmetry found (for desy threshold:  0.10E+00) used in thermo
 inverting freq            1   15.0919870162141     

          ...................................................
          :                      SETUP                      :
          :.................................................:
          :  # frequencies                         189      :
          :  # imaginary freq.                       0      :
          :  linear?                             false      :
          :  only rotor calc.                    false      :
          :  symmetry                               c1      :
          :  rotational number                       1      :
          :  scaling factor                  1.0000000      :
          :  rotor cutoff                   50.0000000 cm⁻¹ :
          :  imag. cutoff                  -20.0000000 cm⁻¹ :
          :.................................................:

    mode    ω/cm⁻¹     T·S(HO)/kcal·mol⁻¹    T·S(FR)/kcal·mol⁻¹   T·S(vib)
   ------------------------------------------------------------------------
       1     15.09    -2.14471 (  0.82%)    -1.41138 ( 99.18%)    -1.41741
       2     10.08    -2.38366 (  0.17%)    -1.53087 ( 99.83%)    -1.53228
       3     11.53    -2.30425 (  0.28%)    -1.49116 ( 99.72%)    -1.49345
       4     16.64    -2.08678 (  1.21%)    -1.38240 ( 98.79%)    -1.39094
       5     34.74    -1.65123 ( 18.91%)    -1.16437 ( 81.09%)    -1.25642
       6     45.40    -1.49320 ( 40.47%)    -1.08512 ( 59.53%)    -1.25028
       7     57.63    -1.35262 ( 63.83%)    -1.01447 ( 36.17%)    -1.23032
       8     62.62    -1.30380 ( 71.10%)    -0.98989 ( 28.90%)    -1.21307
       9     64.79    -1.28371 ( 73.82%)    -0.97976 ( 26.18%)    -1.20414
      10     75.79    -1.19168 ( 84.08%)    -0.93331 ( 15.92%)    -1.15054
      11     99.31    -1.03393 ( 93.96%)    -0.85326 (  6.04%)    -1.02302
      12    106.56    -0.99303 ( 95.38%)    -0.83239 (  4.62%)    -0.98560
      13    113.48    -0.95663 ( 96.37%)    -0.81375 (  3.63%)    -0.95144
      14    129.75    -0.87948 ( 97.84%)    -0.77406 (  2.16%)    -0.87721
      15    131.80    -0.87049 ( 97.97%)    -0.76941 (  2.03%)    -0.86844
      16    138.09    -0.84381 ( 98.31%)    -0.75560 (  1.69%)    -0.84232
      17    146.26    -0.81108 ( 98.65%)    -0.73858 (  1.35%)    -0.81010
      18    181.85    -0.68851 ( 99.43%)    -0.67405 (  0.57%)    -0.68843
      19    204.80    -0.62300 ( 99.65%)    -0.63884 (  0.35%)    -0.62305
      20    207.04    -0.61706 ( 99.66%)    -0.63562 (  0.34%)    -0.61713
      21    214.37    -0.59814 ( 99.70%)    -0.62532 (  0.30%)    -0.59822
      22    233.74    -0.55159 ( 99.79%)    -0.59969 (  0.21%)    -0.55169
      23    250.05    -0.51587 ( 99.84%)    -0.57971 (  0.16%)    -0.51597
      24    256.49    -0.50254 ( 99.86%)    -0.57217 (  0.14%)    -0.50264
      25    263.68    -0.48816 ( 99.87%)    -0.56398 (  0.13%)    -0.48825
   ------------------------------------------------------------------------

   temp. (K)  partition function   enthalpy   heat capacity  entropy
                                   cal/mol     cal/K/mol   cal/K/mol   J/K/mol
 298.15  VIB  0.367E+15            18341.970    117.158    114.460
         ROT  0.539E+08              888.752      2.981     38.360
         INT  0.198E+23            19230.722    120.139    152.820
         TR   0.115E+29             1481.254      4.968     44.616
         TOT                       20711.9761   125.1070   197.4359   826.0718

       T/K    H(0)-H(T)+PV         H(T)/Eh          T*S/Eh         G(T)/Eh
   ------------------------------------------------------------------------
    298.15    0.330066E-01    0.526752E+00    0.938082E-01    0.432944E+00
   ------------------------------------------------------------------------

         :::::::::::::::::::::::::::::::::::::::::::::::::::::
         ::                  THERMODYNAMIC                  ::
         :::::::::::::::::::::::::::::::::::::::::::::::::::::
         :: total free energy        -101.204030312283 Eh   ::
         ::.................................................::
         :: total energy             -101.636974165872 Eh   ::
         :: zero point energy           0.493745379975 Eh   ::
         :: G(RRHO) w/o ZPVE           -0.060801526386 Eh   ::
         :: G(RRHO) contrib.            0.432943853589 Eh   ::
         :::::::::::::::::::::::::::::::::::::::::::::::::::::
imag cut-off (cm-1) :    5.00
 found            1  significant imaginary frequency
 writing imag mode distorted coords to xtbhess.xyz
 for further optimization.

optimized geometry written to: xtbopt.xyz


           -------------------------------------------------
          | TOTAL ENERGY             -101.636974165872 Eh   |
          | TOTAL ENTHALPY           -101.110222151000 Eh   |
          | TOTAL FREE ENERGY        -101.204030312283 Eh   |
          | GRADIENT NORM               0.000096270380 Eh/α |
          | HOMO-LUMO GAP               2.187004643901 eV   |
           -------------------------------------------------

------------------------------------------------------------------------
 * finished run on 2025/09/09 at 21:55:21.427     
------------------------------------------------------------------------
 total:
 * wall-time:     0 d,  0 h,  0 min,  4.427 sec
 *  cpu-time:     0 d,  0 h,  2 min, 48.687 sec
 * ratio c/w:    38.104 speedup
 SCF:
 * wall-time:     0 d,  0 h,  0 min,  0.144 sec
 *  cpu-time:     0 d,  0 h,  0 min,  5.417 sec
 * ratio c/w:    37.731 speedup
 ANC optimizer:
 * wall-time:     0 d,  0 h,  0 min,  1.958 sec
 *  cpu-time:     0 d,  0 h,  1 min, 18.308 sec
 * ratio c/w:    39.994 speedup
 analytical hessian:
 * wall-time:     0 d,  0 h,  0 min,  2.148 sec
 *  cpu-time:     0 d,  0 h,  1 min, 18.734 sec
 * ratio c/w:    36.658 speedup

