 Entering Gaussian System
 *********************************************
 Gaussian 98:
 frequency output generated by the xtb code
 *********************************************
                         Standard orientation:
 --------------------------------------------------------------------
  Center     Atomic     Atomic              Coordinates (Angstroms)
  Number     Number      Type              X           Y           Z
 --------------------------------------------------------------------
    1          7             0      -10.427075    0.009540    0.056458
    2          6             0       -9.275456    0.026092    0.057757
    3          6             0       -7.872257    0.045978    0.058803
    4          6             0       -7.159756   -0.273082    1.224220
    5          6             0       -5.786185   -0.264524    1.216202
    6          6             0       -5.065003    0.082864    0.060181
    7          6             0       -3.614123    0.100196    0.061032
    8          6             0       -2.885516   -1.044783    0.515315
    9          6             0       -3.529268   -2.236849    0.865012
   10          6             0       -2.829412   -3.313503    1.398664
   11          6             0       -1.467826   -3.209809    1.603974
   12          6             0       -0.793079   -2.063162    1.201846
   13          6             0       -1.460812   -0.996213    0.588233
   14          6             0       -0.758689    0.134842    0.071388
   15          6             0        0.698044    0.152304    0.076904
   16          6             0        1.394145    1.229805    0.661280
   17          6             0        2.769082    1.283494    0.698479
   18          6             0        3.482795    0.244686    0.108630
   19          6             0        2.806477   -0.856646   -0.472389
   20          6             0        1.424629   -0.903091   -0.482354
   21          6             0        3.826470   -1.755090   -0.943817
   22          6             0        3.793172   -2.977790   -1.599629
   23          6             0        4.991176   -3.582948   -1.929926
   24          6             0        6.208168   -2.977615   -1.625111
   25          6             0        6.265902   -1.760619   -0.970887
   26          6             0        5.066618   -1.159399   -0.616784
   27          7             0        4.840077    0.049102    0.016146
   28          6             0        5.830716    0.931775    0.478970
   29          6             0        6.844939    0.467054    1.311120
   30          6             0        7.820073    1.338514    1.761082
   31          6             0        7.786475    2.674328    1.394757
   32          6             0        6.774087    3.138381    0.570675
   33          6             0        5.799275    2.272938    0.108366
   34          6             0       -1.484790    1.247405   -0.452257
   35          6             0       -0.837557    2.328738   -1.062376
   36          6             0       -1.536495    3.456938   -1.474972
   37          6             0       -2.901799    3.528398   -1.280513
   38          6             0       -3.580004    2.436949   -0.749211
   39          6             0       -2.910686    1.261514   -0.390985
   40          6             0       -5.793819    0.411581   -1.096465
   41          6             0       -7.167158    0.383767   -1.105841
   42          1             0       -7.702939   -0.519540    2.125546
   43          1             0       -5.244922   -0.486672    2.124326
   44          1             0       -4.593697   -2.330923    0.713892
   45          1             0       -3.358796   -4.217125    1.662292
   46          1             0       -0.918451   -4.020267    2.060026
   47          1             0        0.270544   -1.995187    1.371071
   48          1             0        0.821672    2.014527    1.133627
   49          1             0        3.275992    2.101900    1.186933
   50          1             0        0.906957   -1.725880   -0.951910
   51          1             0        2.850092   -3.440217   -1.849558
   52          1             0        4.987932   -4.534959   -2.439997
   53          1             0        7.127767   -3.468113   -1.908850
   54          1             0        7.213935   -1.293469   -0.751811
   55          1             0        6.855317   -0.570376    1.610798
   56          1             0        8.605131    0.973879    2.406907
   57          1             0        8.547842    3.351937    1.750722
   58          1             0        6.746494    4.178022    0.279587
   59          1             0        5.019782    2.626004   -0.550352
   60          1             0        0.229138    2.285976   -1.219238
   61          1             0       -1.003740    4.278982   -1.929982
   62          1             0       -3.450675    4.418179   -1.551282
   63          1             0       -4.647618    2.505812   -0.607599
   64          1             0       -5.257801    0.646936   -2.004342
   65          1             0       -7.715773    0.615626   -2.007763
 --------------------------------------------------------------------
     1 basis functions        1 primitive gaussians
     1 alpha electrons        1 beta electrons
 
 Harmonic frequencies (cm**-1), IR intensities (km*mol⁻¹),
 Raman scattering activities (A**4/amu), Raman depolarization ratios,
 reduced masses (AMU), force constants (mDyne/A) and normal coordinates:
                      1                      2                      3
                        a                      a                      a 
 Frequencies --    11.4994                16.8603                21.4566
 Red. masses --    11.7154                11.2603                11.2426
 Frc consts  --     0.0000                 0.0000                 0.0000
 IR Inten    --     0.4910                 0.3799                 0.4635
 Raman Activ --     0.0000                 0.0000                 0.0000
 Depolar     --     0.0000                 0.0000                 0.0000
 Atom AN      X      Y      Z        X      Y      Z        X      Y      Z
   1   7    -0.00   0.14   0.40     0.01  -0.29  -0.05     0.01  -0.27   0.12
   2   6    -0.00   0.10   0.28     0.01  -0.20  -0.03     0.00  -0.18   0.08
   3   6    -0.00   0.07   0.19     0.00  -0.12  -0.01     0.00  -0.10   0.05
   4   6     0.06   0.07   0.15     0.01  -0.03   0.01     0.04  -0.13   0.02
   5   6     0.06   0.04   0.06     0.01   0.04   0.03     0.04  -0.07  -0.01
   6   6    -0.00   0.01   0.01     0.00   0.00   0.01     0.00   0.02  -0.01
   7   6    -0.00  -0.02  -0.07     0.00   0.04   0.02     0.00   0.05  -0.04
   8   6     0.00  -0.02  -0.09     0.03   0.08   0.08     0.02   0.04  -0.11
   9   6    -0.00  -0.01  -0.06     0.05   0.09   0.15     0.05   0.01  -0.19
  10   6    -0.00  -0.02  -0.08     0.08   0.13   0.20     0.06  -0.01  -0.23
  11   6     0.01  -0.03  -0.11     0.08   0.16   0.17     0.06   0.02  -0.19
  12   6     0.01  -0.04  -0.13     0.06   0.15   0.10     0.03   0.06  -0.12
  13   6     0.00  -0.03  -0.12     0.03   0.11   0.06     0.02   0.07  -0.10
  14   6    -0.00  -0.04  -0.14     0.00   0.10  -0.01     0.00   0.10  -0.06
  15   6    -0.00  -0.02  -0.13     0.00   0.10  -0.04    -0.00   0.10  -0.08
  16   6    -0.03  -0.01  -0.11     0.02   0.09  -0.05     0.02   0.10  -0.11
  17   6    -0.03   0.00  -0.07     0.03   0.06  -0.06     0.02   0.08  -0.10
  18   6    -0.00   0.01  -0.04     0.00   0.04  -0.06     0.01   0.04  -0.04
  19   6     0.02   0.00  -0.06    -0.02   0.07  -0.07    -0.01   0.03  -0.02
  20   6     0.03  -0.01  -0.11    -0.02   0.09  -0.06    -0.01   0.07  -0.05
  21   6     0.05   0.01  -0.03    -0.05   0.05  -0.09    -0.03  -0.03   0.07
  22   6     0.08   0.01  -0.03    -0.08   0.06  -0.11    -0.05  -0.07   0.14
  23   6     0.10   0.02   0.02    -0.09   0.04  -0.12    -0.06  -0.14   0.24
  24   6     0.08   0.03   0.06    -0.08  -0.00  -0.10    -0.05  -0.17   0.25
  25   6     0.05   0.03   0.07    -0.05  -0.02  -0.07    -0.03  -0.13   0.17
  26   6     0.03   0.02   0.02    -0.03   0.01  -0.07    -0.02  -0.06   0.08
  27   7     0.00   0.02   0.01    -0.00   0.00  -0.05     0.00  -0.02   0.01
  28   6    -0.03   0.01   0.08     0.02  -0.07   0.03     0.02  -0.02  -0.01
  29   6    -0.07  -0.00   0.13    -0.04  -0.16   0.06    -0.02  -0.01   0.04
  30   6    -0.10  -0.01   0.21    -0.02  -0.23   0.15     0.00  -0.02   0.01
  31   6    -0.09  -0.00   0.23     0.07  -0.21   0.21     0.06  -0.04  -0.06
  32   6    -0.04   0.01   0.17     0.13  -0.12   0.18     0.10  -0.05  -0.11
  33   6    -0.00   0.01   0.10     0.11  -0.05   0.09     0.08  -0.04  -0.09
  34   6    -0.01  -0.05  -0.15    -0.02   0.07  -0.04    -0.02   0.11  -0.01
  35   6    -0.01  -0.07  -0.19    -0.04   0.06  -0.07    -0.05   0.14   0.02
  36   6    -0.01  -0.08  -0.21    -0.07   0.03  -0.11    -0.07   0.16   0.09
  37   6    -0.00  -0.06  -0.19    -0.07   0.00  -0.13    -0.07   0.13   0.13
  38   6    -0.00  -0.04  -0.14    -0.05   0.01  -0.09    -0.05   0.10   0.09
  39   6    -0.00  -0.04  -0.12    -0.02   0.04  -0.04    -0.02   0.09   0.02
  40   6    -0.07  -0.00   0.05    -0.00  -0.08  -0.01    -0.04   0.07   0.03
  41   6    -0.07   0.03   0.14     0.00  -0.14  -0.02    -0.04   0.01   0.06
  42   1     0.03   0.03   0.05     0.00  -0.00   0.01     0.02  -0.06   0.01
  43   1     0.03   0.01   0.01     0.00   0.03   0.01     0.02  -0.03  -0.01
  44   1    -0.00   0.00  -0.01     0.02   0.02   0.05     0.02  -0.00  -0.06
  45   1    -0.00  -0.00  -0.02     0.03   0.04   0.07     0.02  -0.01  -0.09
  46   1     0.00  -0.01  -0.04     0.03   0.06   0.06     0.02   0.01  -0.06
  47   1     0.00  -0.01  -0.05     0.02   0.05   0.02     0.01   0.02  -0.02
  48   1    -0.02  -0.00  -0.04     0.01   0.03  -0.02     0.01   0.04  -0.04
  49   1    -0.02   0.00  -0.02     0.01   0.01  -0.02     0.01   0.02  -0.03
  50   1     0.01  -0.01  -0.03    -0.01   0.03  -0.01    -0.01   0.02  -0.01
  51   1     0.03   0.00  -0.02    -0.03   0.03  -0.04    -0.02  -0.01   0.04
  52   1     0.04   0.01   0.00    -0.03   0.01  -0.04    -0.02  -0.05   0.09
  53   1     0.03   0.01   0.03    -0.03  -0.01  -0.03    -0.02  -0.07   0.09
  54   1     0.01   0.01   0.03    -0.01  -0.01  -0.02    -0.01  -0.04   0.05
  55   1    -0.03  -0.00   0.03    -0.03  -0.05   0.00    -0.02   0.00   0.03
  56   1    -0.04  -0.01   0.07    -0.02  -0.09   0.05    -0.01  -0.00   0.02
  57   1    -0.03  -0.00   0.08     0.02  -0.08   0.08     0.02  -0.01  -0.02
  58   1    -0.01   0.00   0.05     0.06  -0.03   0.07     0.04  -0.02  -0.05
  59   1     0.01   0.01   0.02     0.05   0.01   0.02     0.03  -0.01  -0.04
  60   1    -0.00  -0.02  -0.06    -0.01   0.03  -0.01    -0.02   0.05  -0.00
  61   1    -0.00  -0.03  -0.07    -0.03   0.01  -0.04    -0.03   0.05   0.03
  62   1     0.00  -0.02  -0.06    -0.03  -0.01  -0.05    -0.03   0.04   0.05
  63   1     0.00  -0.01  -0.03    -0.02  -0.00  -0.03    -0.01   0.02   0.03
  64   1    -0.04  -0.01   0.00    -0.00  -0.03  -0.00    -0.02   0.04   0.01
  65   1    -0.04   0.01   0.05    -0.00  -0.06  -0.01    -0.02   0.01   0.02
                      4                      5                      6
                        a                      a                      a 
 Frequencies --    37.0463                42.0026                57.2382
 Red. masses --    11.2941                11.7646                10.8477
 Frc consts  --     0.0000                 0.0000                 0.0000
 IR Inten    --     0.8672                 2.2449                 0.3893
 Raman Activ --     0.0000                 0.0000                 0.0000
 Depolar     --     0.0000                 0.0000                 0.0000
 Atom AN      X      Y      Z        X      Y      Z        X      Y      Z
   1   7     0.01   0.27  -0.22     0.02  -0.48  -0.13     0.06   0.08   0.18
   2   6     0.01   0.15  -0.13     0.02  -0.23  -0.05     0.06   0.02   0.07
   3   6     0.01   0.05  -0.06     0.01  -0.01   0.02     0.06  -0.03  -0.01
   4   6    -0.06  -0.01  -0.03     0.00   0.08   0.05     0.10  -0.04  -0.04
   5   6    -0.06  -0.07   0.03     0.00   0.18   0.09     0.10  -0.05  -0.09
   6   6     0.01  -0.06   0.08     0.01   0.19   0.10     0.06  -0.05  -0.11
   7   6     0.01  -0.05   0.12     0.01   0.13   0.08     0.06  -0.02  -0.11
   8   6     0.04  -0.04   0.09    -0.04   0.08   0.05     0.06   0.01  -0.06
   9   6     0.07  -0.03   0.17    -0.10   0.13   0.09     0.08  -0.01  -0.09
  10   6     0.11  -0.02   0.14    -0.14   0.08   0.05     0.09   0.03  -0.01
  11   6     0.12  -0.01   0.04    -0.12  -0.01  -0.03     0.06   0.10   0.11
  12   6     0.09  -0.02  -0.03    -0.07  -0.06  -0.07     0.05   0.11   0.13
  13   6     0.05  -0.03  -0.00    -0.03  -0.01  -0.02     0.05   0.06   0.04
  14   6     0.01  -0.04  -0.07     0.01  -0.05  -0.05     0.04   0.07   0.06
  15   6     0.01  -0.01  -0.14     0.01  -0.09  -0.05     0.04   0.03   0.05
  16   6     0.00   0.02  -0.19     0.00  -0.09  -0.04     0.08  -0.00   0.06
  17   6     0.00   0.04  -0.22     0.00  -0.08  -0.03     0.09  -0.05   0.02
  18   6     0.01   0.03  -0.18     0.01  -0.07  -0.04     0.03  -0.06  -0.03
  19   6     0.02   0.00  -0.14     0.02  -0.08  -0.05    -0.01  -0.04  -0.01
  20   6     0.02  -0.01  -0.13     0.02  -0.08  -0.05    -0.01   0.01   0.03
  21   6     0.03  -0.02  -0.08     0.04  -0.06  -0.04    -0.05  -0.07  -0.03
  22   6     0.05  -0.06  -0.00     0.06  -0.06  -0.04    -0.10  -0.08  -0.01
  23   6     0.06  -0.09   0.08     0.07  -0.04  -0.03    -0.13  -0.12  -0.02
  24   6     0.05  -0.08   0.09     0.06  -0.03  -0.02    -0.11  -0.15  -0.06
  25   6     0.03  -0.04   0.02     0.04  -0.03  -0.02    -0.05  -0.14  -0.09
  26   6     0.02  -0.01  -0.07     0.03  -0.04  -0.04    -0.02  -0.09  -0.07
  27   7     0.01   0.03  -0.15     0.01  -0.05  -0.04     0.03  -0.09  -0.09
  28   6    -0.02   0.02  -0.07    -0.03  -0.01  -0.02    -0.02  -0.04  -0.07
  29   6    -0.12   0.02   0.05    -0.04   0.05   0.01     0.01   0.03  -0.07
  30   6    -0.18   0.03   0.17    -0.11   0.11   0.06    -0.14   0.14   0.05
  31   6    -0.13   0.03   0.15    -0.19   0.11   0.07    -0.31   0.17   0.16
  32   6    -0.03   0.02   0.02    -0.18   0.05   0.03    -0.32   0.08   0.12
  33   6     0.03   0.01  -0.09    -0.10  -0.01  -0.02    -0.17  -0.02  -0.00
  34   6    -0.03  -0.03   0.01     0.06  -0.01  -0.02     0.05   0.07   0.04
  35   6    -0.08  -0.02  -0.03     0.10  -0.06  -0.07     0.06   0.12   0.14
  36   6    -0.12   0.01   0.08     0.15  -0.01  -0.03     0.05   0.10   0.12
  37   6    -0.10   0.01   0.23     0.17   0.08   0.05     0.02   0.03  -0.01
  38   6    -0.05  -0.01   0.24     0.12   0.13   0.08     0.02  -0.01  -0.11
  39   6    -0.02  -0.03   0.13     0.06   0.09   0.05     0.04   0.01  -0.07
  40   6     0.07  -0.01   0.05     0.02   0.18   0.09     0.02  -0.07  -0.09
  41   6     0.08   0.04  -0.02     0.02   0.08   0.05     0.02  -0.06  -0.05
  42   1    -0.03  -0.00  -0.02    -0.00   0.01   0.01     0.04  -0.01  -0.00
  43   1    -0.03  -0.03   0.02    -0.00   0.06   0.03     0.04  -0.01  -0.03
  44   1     0.02  -0.01   0.07    -0.03   0.06   0.04     0.03  -0.02  -0.05
  45   1     0.04  -0.00   0.06    -0.05   0.03   0.02     0.03   0.00  -0.01
  46   1     0.05   0.00   0.01    -0.04  -0.01  -0.02     0.02   0.04   0.05
  47   1     0.03  -0.00  -0.03    -0.02  -0.04  -0.04     0.01   0.05   0.06
  48   1    -0.00   0.01  -0.06    -0.00  -0.03  -0.01     0.03   0.00   0.03
  49   1    -0.00   0.02  -0.07    -0.00  -0.02  -0.01     0.04  -0.02   0.01
  50   1     0.01  -0.01  -0.03     0.01  -0.02  -0.02    -0.02   0.01   0.01
  51   1     0.02  -0.02  -0.00     0.02  -0.02  -0.01    -0.04  -0.01   0.01
  52   1     0.02  -0.04   0.04     0.03  -0.01  -0.01    -0.05  -0.04  -0.00
  53   1     0.02  -0.03   0.05     0.02  -0.00  -0.00    -0.04  -0.06  -0.02
  54   1     0.01  -0.01   0.01     0.01  -0.00  -0.00    -0.01  -0.05  -0.03
  55   1    -0.05   0.01   0.02     0.00   0.01   0.00     0.04   0.00  -0.04
  56   1    -0.07   0.01   0.08    -0.03   0.04   0.03    -0.03   0.06   0.02
  57   1    -0.05   0.01   0.07    -0.07   0.05   0.03    -0.13   0.07   0.08
  58   1     0.00   0.00   0.00    -0.07   0.01   0.01    -0.13   0.03   0.05
  59   1     0.03   0.00  -0.05    -0.03  -0.02  -0.02    -0.05  -0.02  -0.01
  60   1    -0.03  -0.01  -0.04     0.02  -0.04  -0.04     0.02   0.05   0.07
  61   1    -0.05   0.01   0.02     0.05  -0.01  -0.02     0.02   0.04   0.06
  62   1    -0.03   0.01   0.09     0.06   0.03   0.02     0.00   0.00  -0.01
  63   1    -0.01  -0.00   0.10     0.04   0.06   0.04     0.00  -0.02  -0.06
  64   1     0.04  -0.00   0.02     0.01   0.06   0.03    -0.00  -0.02  -0.03
  65   1     0.04   0.03  -0.01     0.01   0.01   0.01    -0.00  -0.02  -0.01
                      7                      8                      9
                        a                      a                      a 
 Frequencies --    62.5529                65.8667                71.9857
 Red. masses --    10.3631                10.0964                10.2154
 Frc consts  --     0.0000                 0.0000                 0.0000
 IR Inten    --     0.0588                 1.1196                 0.1453
 Raman Activ --     0.0000                 0.0000                 0.0000
 Depolar     --     0.0000                 0.0000                 0.0000
 Atom AN      X      Y      Z        X      Y      Z        X      Y      Z
   1   7    -0.01  -0.04  -0.00    -0.01   0.02  -0.08    -0.01   0.02  -0.00
   2   6    -0.01  -0.01   0.00    -0.01   0.01  -0.03    -0.01   0.01  -0.00
   3   6    -0.01   0.01   0.00    -0.00   0.00   0.00    -0.01  -0.01  -0.00
   4   6    -0.01  -0.14  -0.04    -0.02   0.09   0.04    -0.01  -0.32  -0.09
   5   6    -0.01  -0.13  -0.04    -0.02   0.08   0.06    -0.01  -0.30  -0.08
   6   6    -0.00   0.02   0.00    -0.01   0.00   0.05     0.00  -0.01   0.00
   7   6    -0.01   0.00   0.01    -0.00   0.01   0.04    -0.01   0.00  -0.00
   8   6    -0.02  -0.02  -0.02     0.02   0.02   0.03     0.02   0.01  -0.01
   9   6    -0.02  -0.04  -0.12     0.03   0.04   0.12     0.07  -0.03  -0.04
  10   6    -0.05  -0.04  -0.09     0.06   0.03   0.06     0.10   0.04   0.06
  11   6    -0.07  -0.01   0.05     0.08   0.00  -0.08     0.07   0.13   0.17
  12   6    -0.06   0.01   0.12     0.06  -0.01  -0.15     0.04   0.13   0.13
  13   6    -0.03  -0.01   0.07     0.02   0.00  -0.09     0.02   0.05   0.03
  14   6    -0.00  -0.02   0.07    -0.01   0.01  -0.11    -0.00   0.02  -0.07
  15   6    -0.00  -0.02   0.07    -0.00   0.02  -0.12    -0.00   0.01  -0.07
  16   6    -0.00   0.05  -0.05    -0.02  -0.01  -0.05    -0.01   0.01  -0.04
  17   6    -0.00   0.11  -0.14    -0.02  -0.03   0.02    -0.01  -0.05   0.05
  18   6     0.00   0.09  -0.11     0.01  -0.01   0.02    -0.01  -0.06   0.09
  19   6     0.00   0.00   0.06     0.02   0.02  -0.04    -0.00  -0.03   0.02
  20   6     0.00  -0.05   0.15     0.01   0.04  -0.13    -0.01  -0.00  -0.04
  21   6    -0.01  -0.01   0.07     0.02  -0.00   0.00    -0.00  -0.02   0.01
  22   6    -0.02  -0.10   0.25     0.01  -0.01   0.01    -0.00   0.05  -0.12
  23   6    -0.02  -0.09   0.21    -0.00  -0.05   0.07    -0.00   0.07  -0.15
  24   6    -0.02   0.02  -0.03     0.00  -0.07   0.10    -0.00   0.01  -0.04
  25   6    -0.01   0.11  -0.19     0.01  -0.07   0.09    -0.00  -0.06   0.09
  26   6    -0.00   0.09  -0.12     0.02  -0.04   0.06    -0.00  -0.07   0.10
  27   7     0.01   0.15  -0.23     0.02  -0.04   0.09    -0.01  -0.11   0.17
  28   6     0.02   0.08  -0.13     0.01  -0.02   0.05    -0.02  -0.06   0.10
  29   6     0.04  -0.06  -0.23     0.24  -0.06  -0.24     0.05   0.01   0.06
  30   6     0.05  -0.14  -0.09     0.25  -0.05  -0.31     0.05   0.06  -0.04
  31   6     0.03  -0.08   0.16     0.03   0.02  -0.04    -0.02   0.04  -0.08
  32   6     0.02   0.06   0.26    -0.21   0.07   0.28    -0.09  -0.02  -0.03
  33   6     0.02   0.14   0.10    -0.21   0.05   0.32    -0.08  -0.07   0.06
  34   6     0.01  -0.04   0.00    -0.03   0.02  -0.05    -0.02  -0.02  -0.11
  35   6     0.03  -0.10  -0.08    -0.07   0.04  -0.05    -0.03  -0.07  -0.21
  36   6     0.05  -0.09  -0.10    -0.09   0.04  -0.01    -0.03  -0.06  -0.17
  37   6     0.07  -0.02  -0.02    -0.09   0.02   0.02     0.00   0.01   0.01
  38   6     0.05   0.02   0.04    -0.06   0.00   0.03     0.01   0.05   0.10
  39   6     0.02  -0.00   0.02    -0.03   0.01   0.00    -0.01   0.01   0.00
  40   6    -0.01   0.16   0.05     0.01  -0.08   0.01    -0.01   0.29   0.09
  41   6    -0.01   0.16   0.05     0.01  -0.08  -0.01    -0.01   0.31   0.09
  42   1    -0.00  -0.07  -0.02    -0.01   0.04   0.01    -0.00  -0.16  -0.04
  43   1    -0.00  -0.07  -0.02    -0.01   0.04   0.02    -0.00  -0.14  -0.04
  44   1    -0.00  -0.02  -0.06     0.00   0.02   0.07     0.03  -0.03  -0.04
  45   1    -0.01  -0.02  -0.05     0.02   0.01   0.04     0.04   0.00   0.02
  46   1    -0.03  -0.00   0.03     0.03  -0.00  -0.04     0.02   0.05   0.08
  47   1    -0.02   0.01   0.06     0.02  -0.01  -0.07     0.01   0.05   0.05
  48   1    -0.00   0.02  -0.03    -0.01  -0.01  -0.01    -0.01   0.01  -0.03
  49   1    -0.00   0.05  -0.07    -0.01  -0.02   0.03    -0.00  -0.02   0.03
  50   1     0.00  -0.03   0.07     0.01   0.02  -0.05    -0.00   0.00  -0.01
  51   1    -0.01  -0.05   0.12    -0.00   0.01  -0.01    -0.00   0.03  -0.06
  52   1    -0.01  -0.05   0.10    -0.00  -0.02   0.03    -0.00   0.04  -0.08
  53   1    -0.01   0.01  -0.02    -0.00  -0.03   0.04    -0.00   0.01  -0.02
  54   1    -0.00   0.06  -0.11     0.01  -0.03   0.03    -0.00  -0.03   0.05
  55   1     0.01  -0.03  -0.12     0.12  -0.03  -0.12     0.03   0.01   0.03
  56   1     0.02  -0.08  -0.05     0.13  -0.03  -0.16     0.03   0.03  -0.02
  57   1     0.01  -0.04   0.08     0.01   0.01  -0.02    -0.01   0.02  -0.05
  58   1     0.00   0.03   0.13    -0.11   0.03   0.14    -0.04  -0.01  -0.02
  59   1     0.01   0.08   0.05    -0.11   0.03   0.15    -0.04  -0.04   0.03
  60   1     0.01  -0.04  -0.04    -0.02   0.02  -0.02    -0.01  -0.03  -0.08
  61   1     0.02  -0.04  -0.05    -0.03   0.02  -0.00    -0.01  -0.03  -0.08
  62   1     0.03  -0.00  -0.00    -0.03   0.00   0.01     0.00   0.01   0.02
  63   1     0.02   0.02   0.03    -0.02  -0.00   0.02     0.01   0.04   0.07
  64   1    -0.01   0.08   0.02     0.01  -0.04   0.00    -0.01   0.14   0.04
  65   1    -0.00   0.08   0.02     0.01  -0.04  -0.01    -0.00   0.16   0.04
                     10                     11                     12
                        a                      a                      a 
 Frequencies --    77.8330               106.5685               122.9467
 Red. masses --    10.9831                10.5521                11.1310
 Frc consts  --     0.0000                 0.0000                 0.0000
 IR Inten    --     0.4274                 0.4622                 4.5397
 Raman Activ --     0.0000                 0.0000                 0.0000
 Depolar     --     0.0000                 0.0000                 0.0000
 Atom AN      X      Y      Z        X      Y      Z        X      Y      Z
   1   7    -0.04  -0.05   0.27    -0.02  -0.02   0.07     0.09  -0.05   0.42
   2   6    -0.04  -0.02   0.07    -0.02  -0.00   0.00     0.08  -0.01  -0.03
   3   6    -0.04  -0.01  -0.05    -0.02   0.01  -0.02     0.08  -0.00  -0.20
   4   6     0.01  -0.00  -0.08    -0.02  -0.11  -0.06     0.02   0.11  -0.14
   5   6     0.01  -0.01  -0.14    -0.02  -0.10  -0.05     0.02   0.09  -0.07
   6   6    -0.04  -0.02  -0.17    -0.01  -0.00  -0.02     0.05  -0.00  -0.07
   7   6    -0.03  -0.05  -0.19    -0.01  -0.02  -0.01     0.05  -0.01   0.03
   8   6    -0.05  -0.02  -0.11    -0.03  -0.02   0.05     0.01  -0.03   0.02
   9   6    -0.07   0.02   0.02    -0.04  -0.00   0.08    -0.02  -0.02   0.00
  10   6    -0.10   0.12   0.25    -0.06  -0.00   0.10    -0.05  -0.04  -0.01
  11   6    -0.10   0.14   0.28    -0.04  -0.05   0.04    -0.05  -0.06   0.01
  12   6    -0.08   0.05   0.08    -0.02  -0.08  -0.01    -0.02  -0.07   0.03
  13   6    -0.05  -0.02  -0.08    -0.02  -0.05   0.05     0.01  -0.05   0.04
  14   6    -0.02  -0.07  -0.14    -0.01  -0.05   0.09    -0.00  -0.05   0.02
  15   6    -0.02  -0.09  -0.11    -0.00  -0.02   0.06    -0.02   0.01   0.03
  16   6    -0.05  -0.07  -0.09    -0.01  -0.08   0.18    -0.03   0.09  -0.09
  17   6    -0.05  -0.05  -0.05    -0.01  -0.01   0.06    -0.03   0.12  -0.09
  18   6    -0.01  -0.03  -0.04    -0.01   0.11  -0.14    -0.02   0.08  -0.00
  19   6     0.03  -0.06  -0.03    -0.01   0.17  -0.25    -0.02   0.07   0.02
  20   6     0.02  -0.09  -0.06    -0.01   0.11  -0.17    -0.01   0.01   0.06
  21   6     0.07  -0.03  -0.00    -0.01   0.17  -0.25    -0.06   0.06   0.02
  22   6     0.15  -0.05   0.02    -0.03   0.15  -0.22    -0.14   0.12  -0.07
  23   6     0.18   0.01   0.04    -0.04  -0.03   0.08    -0.18   0.06  -0.09
  24   6     0.15   0.08   0.02    -0.03  -0.17   0.32    -0.15  -0.05   0.02
  25   6     0.08   0.09   0.01    -0.01  -0.11   0.20    -0.08  -0.08   0.09
  26   6     0.04   0.02  -0.00    -0.01   0.07  -0.08    -0.04   0.00   0.06
  27   7    -0.01   0.02  -0.01    -0.00   0.09  -0.11    -0.02   0.03   0.04
  28   6    -0.01   0.01   0.01    -0.00   0.06  -0.05    -0.01   0.02   0.03
  29   6    -0.00  -0.03  -0.02    -0.02   0.02  -0.06     0.01   0.02   0.01
  30   6     0.04  -0.06  -0.05     0.01  -0.02  -0.04     0.02   0.02  -0.01
  31   6     0.08  -0.06  -0.04     0.05  -0.01  -0.01     0.02   0.02  -0.00
  32   6     0.06  -0.02   0.01     0.04   0.04   0.03     0.00   0.02   0.02
  33   6     0.01   0.02   0.04     0.02   0.08   0.01    -0.00   0.02   0.03
  34   6    -0.01  -0.03  -0.08     0.02  -0.04   0.07     0.03  -0.07  -0.04
  35   6     0.00   0.06   0.08     0.09  -0.04   0.14     0.02  -0.17  -0.21
  36   6     0.02   0.14   0.28     0.14  -0.05   0.05     0.04  -0.12  -0.10
  37   6     0.02   0.12   0.25     0.11  -0.06  -0.10     0.09   0.03   0.21
  38   6    -0.00   0.02   0.03     0.06  -0.05  -0.13     0.07   0.07   0.27
  39   6    -0.01  -0.02  -0.10     0.02  -0.04  -0.03     0.04   0.01   0.10
  40   6    -0.08  -0.01  -0.14    -0.02   0.10   0.01     0.12  -0.08  -0.13
  41   6    -0.09  -0.01  -0.08    -0.02   0.13   0.01     0.11  -0.11  -0.21
  42   1     0.01   0.00  -0.02    -0.00  -0.06  -0.02    -0.01   0.06  -0.04
  43   1     0.01   0.00  -0.05    -0.01  -0.05  -0.02    -0.00   0.04  -0.01
  44   1    -0.02  -0.00  -0.01    -0.01   0.00   0.02    -0.01   0.00   0.00
  45   1    -0.03   0.05   0.11    -0.02   0.01   0.04    -0.02  -0.01  -0.01
  46   1    -0.04   0.06   0.13    -0.02  -0.02   0.01    -0.02  -0.02  -0.00
  47   1    -0.02   0.02   0.02    -0.00  -0.03  -0.03    -0.01  -0.03   0.01
  48   1    -0.02  -0.03  -0.03    -0.00  -0.05   0.10    -0.01   0.04  -0.05
  49   1    -0.02  -0.01  -0.01    -0.00  -0.02   0.04    -0.02   0.05  -0.04
  50   1     0.01  -0.03  -0.01    -0.00   0.04  -0.07     0.00  -0.01   0.03
  51   1     0.05  -0.03   0.01    -0.01   0.07  -0.11    -0.05   0.06  -0.04
  52   1     0.07  -0.00   0.02    -0.02  -0.02   0.05    -0.06   0.03  -0.05
  53   1     0.05   0.04   0.01    -0.01  -0.10   0.17    -0.05  -0.03   0.01
  54   1     0.01   0.04  -0.00     0.00  -0.06   0.10    -0.01  -0.05   0.04
  55   1    -0.01  -0.01  -0.01    -0.01   0.00  -0.02     0.00   0.01   0.00
  56   1     0.02  -0.03  -0.02     0.00  -0.02  -0.02     0.01   0.00  -0.01
  57   1     0.03  -0.03  -0.02     0.02  -0.01  -0.00     0.01   0.00  -0.00
  58   1     0.02  -0.00   0.01     0.02   0.01   0.02    -0.00   0.01   0.01
  59   1    -0.00   0.02   0.02     0.00   0.03   0.01    -0.00   0.01   0.01
  60   1     0.00   0.02   0.02     0.03  -0.01   0.07    -0.00  -0.08  -0.12
  61   1     0.01   0.06   0.13     0.05  -0.01   0.03     0.01  -0.05  -0.06
  62   1     0.01   0.05   0.11     0.04  -0.02  -0.05     0.04   0.03   0.10
  63   1    -0.00  -0.00  -0.00     0.02  -0.01  -0.06     0.03   0.04   0.12
  64   1    -0.04   0.00  -0.05    -0.01   0.04   0.01     0.05  -0.03  -0.03
  65   1    -0.04   0.00  -0.02    -0.00   0.06   0.01     0.05  -0.05  -0.07
                     13                     14                     15
                        a                      a                      a 
 Frequencies --   126.5363               129.3086               136.6822
 Red. masses --    11.5992                10.9635                11.2826
 Frc consts  --     0.0000                 0.0000                 0.0000
 IR Inten    --     4.2697                 3.6462                 1.3881
 Raman Activ --     0.0000                 0.0000                 0.0000
 Depolar     --     0.0000                 0.0000                 0.0000
 Atom AN      X      Y      Z        X      Y      Z        X      Y      Z
   1   7    -0.06   0.34   0.27     0.01   0.26  -0.29     0.17   0.14  -0.17
   2   6    -0.05  -0.09  -0.03     0.02  -0.06   0.03     0.16  -0.04   0.03
   3   6    -0.04  -0.33  -0.15     0.02  -0.20   0.14     0.15  -0.12   0.09
   4   6    -0.07  -0.35  -0.13     0.06  -0.06   0.16     0.17  -0.11   0.07
   5   6    -0.08  -0.13  -0.03     0.06   0.03   0.11     0.17  -0.04   0.04
   6   6    -0.03   0.06   0.05     0.00   0.02   0.07     0.11  -0.00   0.01
   7   6    -0.03   0.17   0.14     0.00   0.06   0.00     0.09   0.00  -0.06
   8   6    -0.04   0.15   0.13    -0.03   0.03  -0.07     0.04  -0.02  -0.05
   9   6    -0.07   0.17   0.15    -0.06  -0.01  -0.27     0.04   0.01   0.06
  10   6    -0.09   0.10   0.02    -0.12  -0.00  -0.17     0.05   0.04   0.11
  11   6    -0.05  -0.02  -0.15    -0.17   0.08   0.15     0.07   0.01   0.00
  12   6    -0.03  -0.03  -0.14    -0.12   0.09   0.24     0.07  -0.03  -0.12
  13   6    -0.03   0.07   0.02    -0.04   0.04   0.08     0.03  -0.05  -0.11
  14   6     0.00   0.05   0.02    -0.01  -0.00   0.04    -0.03  -0.03  -0.13
  15   6     0.01   0.00  -0.01    -0.00  -0.03  -0.01    -0.06   0.00  -0.04
  16   6     0.03  -0.03   0.03    -0.01   0.03  -0.11    -0.13  -0.04   0.11
  17   6     0.03  -0.05   0.03    -0.01   0.04  -0.13    -0.13  -0.03   0.15
  18   6     0.02  -0.04   0.01    -0.01   0.02  -0.08    -0.15   0.01   0.06
  19   6     0.02  -0.04   0.01     0.00   0.01  -0.07    -0.10   0.02   0.00
  20   6     0.01  -0.00  -0.02    -0.00  -0.04   0.01    -0.09   0.02  -0.08
  21   6     0.03  -0.04   0.01     0.02   0.02  -0.07    -0.11   0.04   0.02
  22   6     0.07  -0.07   0.05     0.05   0.07  -0.17    -0.11  -0.02   0.12
  23   6     0.08  -0.03   0.04     0.07   0.05  -0.09    -0.10  -0.00   0.13
  24   6     0.07   0.03  -0.04     0.06  -0.03   0.11    -0.11   0.09   0.00
  25   6     0.04   0.04  -0.06     0.03  -0.06   0.16    -0.12   0.13  -0.07
  26   6     0.03  -0.01  -0.02     0.01  -0.02   0.03    -0.12   0.08  -0.02
  27   7     0.02  -0.03  -0.01    -0.01  -0.00  -0.01    -0.17   0.06   0.01
  28   6     0.02  -0.02  -0.01    -0.02  -0.00   0.01    -0.16   0.04   0.03
  29   6     0.01  -0.01  -0.00     0.01  -0.01  -0.02    -0.19  -0.02   0.03
  30   6    -0.00   0.00   0.01     0.02  -0.02  -0.04    -0.10  -0.09  -0.04
  31   6    -0.01   0.00   0.01     0.01  -0.01  -0.02     0.00  -0.10  -0.10
  32   6    -0.00  -0.01  -0.01    -0.02   0.00   0.03    -0.01  -0.03  -0.05
  33   6     0.01  -0.02  -0.02    -0.03   0.01   0.04    -0.11   0.04   0.03
  34   6     0.01   0.08   0.06     0.02   0.00   0.00     0.04  -0.02  -0.14
  35   6     0.03   0.04   0.01     0.04  -0.04  -0.06     0.09  -0.03  -0.10
  36   6     0.05   0.02  -0.09     0.07  -0.00  -0.01     0.14   0.04   0.03
  37   6     0.05   0.06  -0.10     0.08   0.06   0.06     0.15   0.08   0.08
  38   6     0.03   0.12  -0.00     0.05   0.08   0.05     0.09   0.06  -0.02
  39   6     0.01   0.13   0.09     0.02   0.06   0.03     0.05   0.01  -0.10
  40   6    -0.00  -0.04   0.00    -0.04  -0.15   0.05     0.09  -0.02   0.02
  41   6    -0.00  -0.23  -0.10    -0.03  -0.29   0.09     0.10  -0.08   0.06
  42   1    -0.03  -0.13  -0.05     0.03  -0.01   0.06     0.06  -0.04   0.02
  43   1    -0.04  -0.02   0.00     0.03   0.03   0.03     0.06  -0.00   0.00
  44   1    -0.02   0.06   0.07    -0.01  -0.01  -0.13     0.01   0.00   0.03
  45   1    -0.03   0.03   0.01    -0.04  -0.01  -0.09     0.01   0.02   0.07
  46   1    -0.01  -0.03  -0.08    -0.07   0.03   0.08     0.02   0.01   0.01
  47   1    -0.00  -0.03  -0.07    -0.04   0.04   0.12     0.02  -0.01  -0.05
  48   1     0.01  -0.01   0.01    -0.00   0.01  -0.04    -0.05  -0.03   0.04
  49   1     0.01  -0.02   0.01    -0.00   0.02  -0.05    -0.04  -0.02   0.06
  50   1     0.00   0.01  -0.02    -0.00  -0.03   0.03    -0.03   0.02  -0.05
  51   1     0.02  -0.03   0.03     0.02   0.03  -0.09    -0.03  -0.02   0.06
  52   1     0.03  -0.01   0.02     0.02   0.03  -0.05    -0.02  -0.02   0.07
  53   1     0.02   0.02  -0.02     0.02  -0.02   0.06    -0.03   0.03  -0.01
  54   1     0.01   0.03  -0.03     0.01  -0.03   0.08    -0.04   0.05  -0.04
  55   1     0.01  -0.00  -0.00     0.00  -0.00  -0.01    -0.08  -0.00   0.01
  56   1    -0.00   0.00   0.01     0.01  -0.01  -0.02    -0.03  -0.04  -0.02
  57   1    -0.01   0.00   0.01     0.01  -0.00  -0.01     0.03  -0.05  -0.05
  58   1    -0.00  -0.00  -0.00    -0.01   0.00   0.02     0.02  -0.01  -0.02
  59   1     0.00  -0.01  -0.01    -0.01   0.01   0.02    -0.04   0.02   0.02
  60   1     0.01   0.00   0.00     0.01  -0.03  -0.04     0.03  -0.03  -0.04
  61   1     0.02  -0.01  -0.04     0.02  -0.01  -0.01     0.05   0.02   0.03
  62   1     0.02   0.01  -0.05     0.03   0.03   0.03     0.05   0.04   0.05
  63   1     0.01   0.04  -0.00     0.01   0.02   0.01     0.03   0.03  -0.00
  64   1     0.01   0.02   0.01    -0.02  -0.05   0.01     0.02   0.00   0.01
  65   1     0.01  -0.07  -0.04    -0.02  -0.13   0.02     0.01  -0.03   0.03
                     16                     17                     18
                        a                      a                      a 
 Frequencies --   141.0590               160.5349               181.3573
 Red. masses --    10.8867                10.4822                10.8482
 Frc consts  --     0.0000                 0.0000                 0.0000
 IR Inten    --     1.2403                 3.1341                 1.0946
 Raman Activ --     0.0000                 0.0000                 0.0000
 Depolar     --     0.0000                 0.0000                 0.0000
 Atom AN      X      Y      Z        X      Y      Z        X      Y      Z
   1   7     0.07  -0.11   0.19     0.09  -0.02   0.02    -0.24  -0.01  -0.00
   2   6     0.06   0.04  -0.04     0.09   0.01  -0.01    -0.22  -0.00   0.00
   3   6     0.06   0.09  -0.11     0.08   0.02  -0.01    -0.21  -0.00   0.00
   4   6     0.00   0.13  -0.06     0.06  -0.08  -0.03    -0.16   0.06  -0.00
   5   6    -0.00   0.07  -0.00     0.06  -0.06  -0.01    -0.16   0.04  -0.01
   6   6     0.04   0.02   0.02     0.06   0.00   0.01    -0.10  -0.00  -0.00
   7   6     0.03   0.04   0.10     0.04   0.00   0.03    -0.07  -0.00   0.00
   8   6     0.02   0.03   0.08     0.01   0.00   0.09    -0.00   0.04   0.11
   9   6     0.07  -0.05  -0.10    -0.02   0.03   0.13     0.13  -0.03   0.11
  10   6     0.13  -0.07  -0.20    -0.03  -0.02   0.04     0.27  -0.07  -0.12
  11   6     0.09   0.03  -0.00    -0.00  -0.09  -0.07     0.27  -0.01  -0.12
  12   6     0.04   0.13   0.19     0.00  -0.09  -0.05     0.12   0.13   0.09
  13   6     0.01   0.09   0.16     0.01  -0.04   0.04     0.01   0.07   0.11
  14   6    -0.02   0.06   0.10    -0.01  -0.01   0.07     0.00  -0.00   0.01
  15   6    -0.03  -0.02   0.00    -0.03  -0.01  -0.02     0.00   0.00  -0.01
  16   6    -0.04  -0.07   0.09    -0.05   0.16  -0.30    -0.01   0.03  -0.04
  17   6    -0.05  -0.11   0.07    -0.06   0.19  -0.35    -0.01   0.04  -0.05
  18   6    -0.11  -0.08  -0.04    -0.07   0.03  -0.09    -0.02   0.01  -0.02
  19   6    -0.07  -0.07  -0.11    -0.05  -0.06   0.06    -0.01  -0.00   0.01
  20   6    -0.08  -0.02  -0.08    -0.04  -0.09   0.12    -0.01  -0.00   0.00
  21   6    -0.01  -0.03  -0.10    -0.03  -0.08   0.12    -0.01  -0.01   0.03
  22   6     0.16  -0.07  -0.05     0.01   0.01  -0.04    -0.01  -0.00   0.01
  23   6     0.24  -0.00   0.09     0.04   0.12  -0.15    -0.00   0.02  -0.01
  24   6     0.18   0.10   0.12     0.02   0.08  -0.02    -0.01   0.02  -0.01
  25   6     0.03   0.14   0.04    -0.02  -0.01   0.17    -0.01   0.01   0.02
  26   6    -0.05   0.03  -0.05    -0.05  -0.06   0.16    -0.02  -0.01   0.03
  27   7    -0.13  -0.01  -0.04    -0.09  -0.01   0.05    -0.03   0.00   0.01
  28   6    -0.16  -0.02   0.01    -0.10  -0.01   0.04    -0.03   0.00   0.02
  29   6    -0.16  -0.07  -0.02    -0.08  -0.03  -0.00    -0.04  -0.01   0.01
  30   6    -0.09  -0.12  -0.09    -0.02  -0.06  -0.07    -0.02  -0.02  -0.01
  31   6    -0.04  -0.13  -0.12    -0.02  -0.06  -0.07    -0.00  -0.02  -0.03
  32   6    -0.08  -0.07  -0.02    -0.07  -0.03   0.02    -0.02  -0.01  -0.00
  33   6    -0.15  -0.01   0.03    -0.11  -0.00   0.06    -0.04   0.00   0.02
  34   6    -0.01   0.07   0.10     0.02   0.04   0.12     0.01  -0.08  -0.09
  35   6    -0.03   0.04   0.02     0.06   0.09   0.23     0.14  -0.14  -0.07
  36   6    -0.07  -0.03  -0.10     0.07   0.06   0.15     0.28   0.01   0.13
  37   6    -0.06  -0.03  -0.08     0.03  -0.04  -0.14     0.29   0.07   0.13
  38   6    -0.03   0.03   0.06     0.02  -0.07  -0.22     0.14   0.03  -0.12
  39   6    -0.00   0.06   0.12     0.03  -0.01  -0.03     0.00  -0.05  -0.10
  40   6     0.10  -0.01  -0.03     0.08   0.06   0.02    -0.15  -0.05   0.01
  41   6     0.10   0.02  -0.10     0.08   0.11   0.01    -0.16  -0.07   0.00
  42   1    -0.02   0.05  -0.02     0.01  -0.05  -0.02    -0.04   0.03   0.01
  43   1    -0.01   0.02   0.00     0.01  -0.03  -0.00    -0.05   0.02   0.00
  44   1     0.03  -0.03  -0.05    -0.01   0.02   0.05     0.04  -0.03   0.06
  45   1     0.05  -0.04  -0.11    -0.01  -0.00   0.02     0.10  -0.05  -0.08
  46   1     0.03   0.01  -0.01    -0.00  -0.04  -0.05     0.10  -0.01  -0.08
  47   1     0.01   0.06   0.09     0.00  -0.04  -0.02     0.03   0.08   0.03
  48   1    -0.01  -0.03   0.04    -0.01   0.06  -0.12    -0.00   0.01  -0.02
  49   1    -0.00  -0.05   0.04    -0.02   0.08  -0.15    -0.00   0.01  -0.02
  50   1    -0.04   0.00  -0.02    -0.01  -0.05   0.07    -0.01  -0.00   0.01
  51   1     0.06  -0.05  -0.03     0.01   0.01  -0.04    -0.00  -0.00   0.00
  52   1     0.10  -0.01   0.05     0.02   0.06  -0.10     0.00   0.01  -0.01
  53   1     0.07   0.04   0.06     0.01   0.04  -0.02    -0.00   0.01  -0.01
  54   1    -0.01   0.07   0.02    -0.01  -0.00   0.07    -0.00   0.00   0.01
  55   1    -0.06  -0.02  -0.00    -0.03  -0.01   0.00    -0.01  -0.00   0.00
  56   1    -0.02  -0.05  -0.04     0.00  -0.02  -0.04    -0.00  -0.01  -0.01
  57   1     0.01  -0.05  -0.06     0.01  -0.02  -0.04     0.00  -0.01  -0.02
  58   1    -0.01  -0.02  -0.00    -0.02  -0.01   0.01    -0.00  -0.00  -0.00
  59   1    -0.05   0.01   0.02    -0.03   0.00   0.02    -0.01   0.00   0.01
  60   1    -0.01   0.02   0.01     0.02   0.04   0.09     0.04  -0.08  -0.03
  61   1    -0.03  -0.02  -0.06     0.03   0.03   0.07     0.11   0.01   0.08
  62   1    -0.02  -0.02  -0.05     0.00  -0.03  -0.08     0.11   0.05   0.08
  63   1    -0.01   0.01   0.03    -0.00  -0.03  -0.11     0.04   0.03  -0.07
  64   1     0.05  -0.01  -0.00     0.03   0.02   0.01    -0.05  -0.02  -0.00
  65   1     0.04  -0.00  -0.04     0.02   0.05   0.01    -0.04  -0.03  -0.01
                     19                     20                     21
                        a                      a                      a 
 Frequencies --   207.3279               221.3569               232.7936
 Red. masses --    10.6243                10.7973                10.7955
 Frc consts  --     0.0000                 0.0000                 0.0000
 IR Inten    --     2.0821                 1.0241                 0.4745
 Raman Activ --     0.0000                 0.0000                 0.0000
 Depolar     --     0.0000                 0.0000                 0.0000
 Atom AN      X      Y      Z        X      Y      Z        X      Y      Z
   1   7    -0.00   0.02  -0.08     0.06   0.02   0.14     0.15   0.00  -0.05
   2   6    -0.00  -0.02   0.06     0.06  -0.02  -0.12     0.13   0.00   0.05
   3   6    -0.00  -0.02   0.06     0.05  -0.03  -0.12     0.12   0.01   0.05
   4   6     0.07  -0.01   0.02    -0.09  -0.03  -0.03     0.14  -0.06   0.02
   5   6     0.06   0.01  -0.08    -0.09   0.03   0.17     0.12  -0.03  -0.05
   6   6     0.00  -0.01  -0.12     0.01   0.07   0.25     0.03  -0.01  -0.10
   7   6     0.00  -0.01  -0.10    -0.01   0.04   0.13    -0.02  -0.00  -0.04
   8   6     0.01   0.01  -0.02    -0.02   0.01   0.03    -0.07   0.10   0.29
   9   6     0.02   0.05   0.13     0.01  -0.03  -0.06    -0.11   0.12   0.25
  10   6     0.04   0.04   0.08     0.05  -0.04  -0.13    -0.09  -0.06  -0.14
  11   6     0.07  -0.02  -0.12     0.02   0.07   0.05    -0.08  -0.11  -0.19
  12   6     0.04  -0.00  -0.12    -0.01   0.10   0.10    -0.10   0.05   0.21
  13   6     0.00   0.02  -0.04    -0.03   0.01  -0.04    -0.07   0.12   0.29
  14   6     0.00   0.06   0.03    -0.05  -0.07  -0.21    -0.06   0.01   0.05
  15   6     0.00   0.03   0.18    -0.05  -0.13  -0.12    -0.03  -0.01   0.01
  16   6     0.02   0.02   0.17    -0.10  -0.17   0.01    -0.02  -0.01  -0.03
  17   6     0.03  -0.02   0.11    -0.11  -0.12   0.11    -0.01  -0.03   0.01
  18   6    -0.03  -0.03   0.07    -0.02  -0.03   0.07     0.01  -0.01   0.01
  19   6    -0.03  -0.09   0.18     0.01  -0.08   0.12    -0.00   0.03  -0.05
  20   6    -0.03  -0.05   0.27     0.01  -0.15   0.00    -0.02   0.01  -0.01
  21   6    -0.02  -0.06   0.09     0.02  -0.03   0.10    -0.00   0.04  -0.09
  22   6     0.08   0.05  -0.13    -0.05   0.04  -0.02     0.02   0.00  -0.03
  23   6     0.12   0.13  -0.13    -0.08   0.04  -0.11     0.02  -0.04   0.07
  24   6     0.10   0.01   0.16    -0.07  -0.05   0.03     0.02  -0.01   0.01
  25   6     0.02  -0.03   0.23    -0.02  -0.08   0.10     0.01   0.03  -0.08
  26   6    -0.03  -0.03   0.06     0.01   0.00   0.06     0.01   0.02  -0.07
  27   7    -0.05   0.04  -0.12    -0.00   0.08  -0.06     0.03  -0.04   0.04
  28   6     0.01   0.03  -0.25     0.03   0.11  -0.13     0.06  -0.06   0.04
  29   6    -0.02  -0.08  -0.28     0.02   0.06  -0.14     0.10  -0.00   0.03
  30   6    -0.09  -0.13  -0.08    -0.00   0.00   0.00     0.06   0.05   0.03
  31   6    -0.14  -0.07   0.13     0.04   0.04   0.13     0.00   0.05   0.03
  32   6    -0.01  -0.01   0.01     0.13   0.08   0.04     0.01  -0.01  -0.01
  33   6     0.06   0.03  -0.22     0.13   0.13  -0.09     0.05  -0.07   0.00
  34   6     0.00   0.02  -0.05    -0.04  -0.04  -0.18    -0.05  -0.08  -0.18
  35   6    -0.03   0.00  -0.12    -0.03   0.05  -0.01    -0.09  -0.05  -0.18
  36   6    -0.06  -0.00  -0.09    -0.01   0.11   0.14    -0.10   0.06   0.11
  37   6    -0.04   0.05   0.08    -0.05   0.01  -0.05    -0.09   0.06   0.16
  38   6    -0.02   0.03   0.08    -0.04  -0.05  -0.18    -0.09  -0.08  -0.14
  39   6    -0.00   0.00  -0.04    -0.03  -0.03  -0.12    -0.05  -0.07  -0.21
  40   6    -0.07   0.01  -0.07     0.15   0.05   0.16     0.02   0.02  -0.09
  41   6    -0.07   0.00   0.02     0.16   0.01  -0.04     0.03   0.07   0.01
  42   1     0.04   0.00   0.02    -0.06  -0.02  -0.04     0.05  -0.03   0.01
  43   1     0.04   0.01  -0.03    -0.05   0.00   0.07     0.06   0.01  -0.02
  44   1    -0.00   0.02   0.07     0.00  -0.01  -0.02    -0.03   0.05   0.08
  45   1     0.01   0.02   0.05     0.03  -0.03  -0.07    -0.02  -0.04  -0.12
  46   1     0.03  -0.01  -0.06     0.01   0.03   0.03    -0.01  -0.08  -0.15
  47   1     0.01  -0.00  -0.04    -0.01   0.05   0.05    -0.03   0.00   0.07
  48   1     0.01   0.02   0.04    -0.05  -0.06   0.00    -0.00   0.01  -0.02
  49   1     0.03  -0.00   0.01    -0.05  -0.03   0.05    -0.01  -0.01   0.01
  50   1    -0.02  -0.01   0.08     0.03  -0.06  -0.00    -0.00  -0.00   0.00
  51   1     0.03   0.02  -0.09    -0.02   0.03  -0.02     0.01  -0.00  -0.01
  52   1     0.05   0.07  -0.09    -0.03   0.03  -0.07     0.01  -0.03   0.05
  53   1     0.04   0.00   0.08    -0.02  -0.02   0.01     0.01  -0.01   0.01
  54   1    -0.00  -0.01   0.10     0.00  -0.05   0.04     0.00   0.02  -0.03
  55   1    -0.02  -0.03  -0.10    -0.01   0.01  -0.05     0.05  -0.00   0.01
  56   1    -0.04  -0.05  -0.02    -0.02  -0.02   0.01     0.02   0.03   0.01
  57   1    -0.07  -0.02   0.11    -0.00   0.00   0.08    -0.01   0.03   0.01
  58   1     0.00   0.01   0.04     0.05   0.03   0.03    -0.01  -0.01  -0.01
  59   1     0.04   0.02  -0.08     0.05   0.06  -0.03     0.01  -0.03  -0.00
  60   1    -0.01  -0.00  -0.05    -0.00   0.03   0.02    -0.03  -0.01  -0.07
  61   1    -0.03  -0.00  -0.04     0.00   0.06   0.10    -0.03   0.05   0.09
  62   1    -0.01   0.02   0.05    -0.02   0.00  -0.01    -0.02   0.04   0.11
  63   1    -0.00   0.01   0.05    -0.01  -0.02  -0.06    -0.03  -0.04  -0.04
  64   1    -0.04   0.01  -0.03     0.08   0.00   0.06    -0.00   0.00  -0.03
  65   1    -0.04   0.01   0.02     0.08  -0.01  -0.03    -0.02   0.03   0.02
                     22                     23                     24
                        a                      a                      a 
 Frequencies --   236.2594               252.0097               268.7444
 Red. masses --    10.5832                10.7138                10.9575
 Frc consts  --     0.0000                 0.0000                 0.0000
 IR Inten    --     0.2129                 7.0833                 1.8879
 Raman Activ --     0.0000                 0.0000                 0.0000
 Depolar     --     0.0000                 0.0000                 0.0000
 Atom AN      X      Y      Z        X      Y      Z        X      Y      Z
   1   7     0.02  -0.03   0.06     0.04   0.00  -0.08     0.01  -0.23  -0.04
   2   6     0.01   0.04  -0.06     0.03  -0.00   0.09     0.00   0.30   0.06
   3   6     0.01   0.04  -0.05     0.03   0.00   0.07    -0.00   0.29   0.07
   4   6    -0.07   0.00  -0.01     0.11   0.02   0.02    -0.04  -0.04   0.01
   5   6    -0.07  -0.04   0.10     0.10   0.00  -0.13    -0.04  -0.35  -0.01
   6   6     0.00  -0.04   0.14    -0.01   0.00  -0.19     0.00  -0.23   0.04
   7   6    -0.00  -0.02   0.06    -0.01   0.02  -0.02    -0.00   0.05   0.07
   8   6     0.02  -0.04  -0.05    -0.07   0.01   0.09     0.04   0.10   0.08
   9   6    -0.01  -0.04  -0.11     0.00  -0.04   0.07    -0.03   0.11  -0.05
  10   6    -0.06  -0.01   0.02     0.08  -0.05  -0.03    -0.13   0.09  -0.01
  11   6    -0.07   0.01   0.09     0.07  -0.01  -0.01    -0.12   0.03  -0.02
  12   6    -0.02  -0.05  -0.02     0.00   0.05   0.08    -0.03  -0.03  -0.04
  13   6     0.02  -0.04  -0.04    -0.07   0.01   0.10     0.04   0.07   0.06
  14   6    -0.02   0.01   0.01    -0.08  -0.06  -0.00     0.01   0.06   0.01
  15   6    -0.02   0.15  -0.00    -0.09  -0.13  -0.20     0.03   0.07  -0.05
  16   6    -0.02   0.14   0.01    -0.15  -0.18  -0.05     0.05  -0.02   0.08
  17   6    -0.01   0.11   0.01    -0.16  -0.05  -0.03     0.05  -0.04   0.04
  18   6    -0.02   0.07   0.04    -0.06   0.02  -0.03     0.01  -0.01  -0.05
  19   6    -0.04   0.13  -0.07    -0.03   0.02  -0.07     0.01  -0.02  -0.02
  20   6    -0.04   0.21  -0.12    -0.03  -0.02  -0.31     0.00   0.09  -0.14
  21   6    -0.07   0.05  -0.01    -0.01  -0.03   0.12     0.02  -0.08   0.11
  22   6     0.03   0.02   0.05    -0.04  -0.04   0.13     0.02  -0.08   0.10
  23   6     0.09   0.08   0.13    -0.05   0.05  -0.03     0.01   0.01  -0.10
  24   6     0.07   0.17   0.03    -0.06   0.09  -0.09     0.01  -0.00  -0.09
  25   6    -0.02   0.16   0.03    -0.04  -0.01   0.10     0.02  -0.10   0.09
  26   6    -0.08  -0.00   0.06    -0.03  -0.04   0.17     0.03  -0.07   0.10
  27   7    -0.04  -0.09   0.16    -0.03   0.01   0.11     0.01   0.02  -0.07
  28   6     0.12  -0.19  -0.06     0.07   0.01  -0.06    -0.05   0.09  -0.05
  29   6     0.21  -0.17  -0.17     0.15   0.02  -0.13    -0.10   0.05  -0.02
  30   6     0.04  -0.04  -0.04     0.07   0.04   0.00    -0.05  -0.02  -0.01
  31   6    -0.23   0.00   0.15    -0.02   0.08   0.17     0.05  -0.02  -0.02
  32   6    -0.10  -0.12  -0.08     0.10   0.03   0.00     0.04   0.05   0.03
  33   6     0.09  -0.25  -0.23     0.17   0.00  -0.12    -0.02   0.11   0.02
  34   6    -0.04  -0.05  -0.04    -0.01   0.06   0.18    -0.03   0.02  -0.01
  35   6     0.02  -0.07  -0.03     0.04   0.02   0.17     0.00  -0.04  -0.11
  36   6     0.09  -0.00   0.08     0.05  -0.07  -0.08     0.06   0.03  -0.01
  37   6     0.08   0.01   0.03     0.05  -0.03  -0.10     0.07   0.09   0.04
  38   6     0.01  -0.02  -0.10     0.03   0.10   0.14     0.00   0.07  -0.05
  39   6    -0.03  -0.03  -0.05    -0.00   0.09   0.18    -0.04   0.06   0.01
  40   6     0.08  -0.04   0.09    -0.08   0.00  -0.14     0.05  -0.35  -0.02
  41   6     0.09  -0.00  -0.01    -0.08  -0.02  -0.00     0.05  -0.03   0.01
  42   1    -0.04   0.00  -0.02     0.06   0.02   0.02    -0.02  -0.01  -0.00
  43   1    -0.04  -0.03   0.04     0.06   0.01  -0.05    -0.02  -0.15  -0.01
  44   1    -0.00  -0.01  -0.06     0.00  -0.03   0.02    -0.00   0.04  -0.05
  45   1    -0.02   0.01   0.02     0.04  -0.03  -0.04    -0.05   0.03  -0.01
  46   1    -0.03   0.01   0.06     0.03  -0.01  -0.02    -0.05  -0.01  -0.01
  47   1    -0.00  -0.03  -0.02     0.00   0.03   0.01    -0.00  -0.05  -0.04
  48   1    -0.00   0.04   0.01    -0.06  -0.08   0.02     0.02  -0.02   0.05
  49   1     0.00   0.03   0.00    -0.07  -0.01   0.01     0.02  -0.03   0.03
  50   1    -0.02   0.08  -0.05     0.01  -0.00  -0.12    -0.01   0.04  -0.06
  51   1     0.02  -0.02   0.01    -0.02  -0.01   0.05     0.00  -0.03   0.04
  52   1     0.04   0.01   0.05    -0.01   0.03  -0.04    -0.00   0.02  -0.07
  53   1     0.03   0.07  -0.01    -0.02   0.05  -0.07     0.00   0.02  -0.06
  54   1    -0.02   0.08   0.00    -0.01  -0.01   0.02     0.01  -0.04   0.04
  55   1     0.10  -0.05  -0.06     0.06   0.00  -0.05    -0.05   0.01  -0.01
  56   1     0.02   0.01  -0.01     0.01   0.01   0.01    -0.02  -0.02  -0.00
  57   1    -0.13   0.04   0.12    -0.04   0.04   0.11     0.03  -0.02  -0.01
  58   1    -0.05  -0.04  -0.02     0.03   0.01   0.00     0.02   0.02   0.02
  59   1     0.04  -0.11  -0.09     0.06   0.01  -0.05    -0.01   0.05   0.01
  60   1     0.00  -0.04  -0.01     0.01  -0.00   0.06    -0.00  -0.04  -0.05
  61   1     0.04   0.01   0.05     0.02  -0.05  -0.07     0.03   0.01   0.00
  62   1     0.03   0.01   0.02     0.02  -0.02  -0.09     0.03   0.04   0.03
  63   1     0.00   0.00  -0.05     0.01   0.04   0.04    -0.00   0.02  -0.04
  64   1     0.05  -0.03   0.04    -0.04   0.01  -0.05     0.03  -0.15  -0.01
  65   1     0.05  -0.00  -0.02    -0.05  -0.01   0.02     0.02  -0.00  -0.00
                     25                     26                     27
                        a                      a                      a 
 Frequencies --   276.8923               314.7234               332.9110
 Red. masses --    10.6941                11.0095                10.7391
 Frc consts  --     0.0000                 0.0000                 0.0000
 IR Inten    --     5.2551                 2.5758                 3.0970
 Raman Activ --     0.0000                 0.0000                 0.0000
 Depolar     --     0.0000                 0.0000                 0.0000
 Atom AN      X      Y      Z        X      Y      Z        X      Y      Z
   1   7    -0.00   0.13   0.03     0.13   0.01   0.02     0.03  -0.07  -0.01
   2   6     0.00  -0.17  -0.05     0.12  -0.01  -0.03     0.02   0.12   0.01
   3   6     0.00  -0.16  -0.05     0.10  -0.00  -0.02     0.02   0.08   0.02
   4   6     0.01   0.02  -0.01     0.01   0.02   0.04    -0.02  -0.05   0.00
   5   6     0.01   0.19   0.03    -0.00  -0.02   0.07    -0.02  -0.10   0.02
   6   6     0.00   0.11   0.01    -0.06  -0.01   0.05    -0.01   0.01   0.05
   7   6    -0.00  -0.05  -0.05    -0.09  -0.01  -0.04    -0.02   0.03  -0.01
   8   6     0.01  -0.03  -0.00    -0.13  -0.08  -0.12    -0.09  -0.01  -0.05
   9   6    -0.01  -0.02  -0.02    -0.02  -0.13  -0.03    -0.06   0.01   0.11
  10   6    -0.03  -0.03  -0.01     0.10  -0.01   0.11     0.05   0.01  -0.04
  11   6    -0.04  -0.03   0.02     0.11   0.04  -0.02     0.05   0.07  -0.07
  12   6    -0.01  -0.02   0.06    -0.01   0.05  -0.14    -0.05   0.14   0.01
  13   6     0.02   0.00   0.06    -0.14  -0.00  -0.07    -0.10   0.01  -0.13
  14   6     0.03   0.01   0.07    -0.16   0.08   0.14    -0.02  -0.06  -0.13
  15   6     0.06   0.11   0.06    -0.14   0.04   0.20    -0.01  -0.20   0.15
  16   6     0.10  -0.01   0.24    -0.05  -0.01   0.14    -0.05  -0.22   0.23
  17   6     0.11   0.05  -0.04    -0.03  -0.03  -0.14    -0.04   0.11  -0.13
  18   6     0.04   0.10  -0.20    -0.06  -0.05  -0.15     0.05   0.24  -0.26
  19   6     0.03   0.08  -0.14    -0.13  -0.07  -0.07     0.06   0.13  -0.06
  20   6     0.02   0.23  -0.23    -0.16   0.04   0.10     0.08  -0.14   0.17
  21   6     0.02  -0.10   0.17    -0.11  -0.13  -0.06     0.04   0.08   0.03
  22   6     0.03  -0.13   0.23     0.07  -0.17  -0.05    -0.03   0.06   0.12
  23   6     0.02   0.05  -0.13     0.12  -0.09  -0.07    -0.05   0.10   0.01
  24   6     0.03   0.07  -0.19     0.08  -0.03  -0.04    -0.02   0.07  -0.03
  25   6     0.03  -0.13   0.18    -0.07  -0.05   0.01     0.05   0.00   0.08
  26   6     0.03  -0.13   0.20    -0.10  -0.09  -0.05     0.05   0.03   0.01
  27   7     0.03   0.01  -0.08    -0.02  -0.03  -0.08     0.06   0.08  -0.13
  28   6    -0.05   0.04  -0.04     0.05  -0.03   0.04     0.09  -0.15   0.08
  29   6    -0.11   0.01   0.01     0.11   0.11   0.08     0.07  -0.13   0.11
  30   6    -0.06  -0.05  -0.02     0.12   0.16   0.05     0.02  -0.01   0.01
  31   6     0.01  -0.06  -0.06     0.17   0.16   0.05    -0.09  -0.04  -0.09
  32   6    -0.03   0.01   0.02     0.11   0.06   0.07    -0.14  -0.09  -0.05
  33   6    -0.07   0.06   0.02     0.12   0.00   0.11    -0.05  -0.19   0.03
  34   6     0.01  -0.08  -0.08    -0.16   0.03   0.04     0.05   0.01  -0.13
  35   6    -0.03  -0.04  -0.05    -0.06  -0.09  -0.04     0.03   0.12   0.03
  36   6    -0.08  -0.04   0.03     0.07  -0.02  -0.03    -0.03   0.05  -0.07
  37   6    -0.07  -0.06   0.08     0.08   0.10   0.03    -0.03   0.01  -0.05
  38   6    -0.03  -0.11  -0.00    -0.05   0.12  -0.08     0.04   0.05   0.11
  39   6     0.01  -0.11  -0.11    -0.16   0.05  -0.04     0.04  -0.00  -0.05
  40   6    -0.01   0.19   0.03     0.04   0.03   0.01     0.02  -0.09   0.01
  41   6    -0.01   0.03  -0.00     0.06  -0.01  -0.04     0.03  -0.05  -0.01
  42   1     0.00   0.01  -0.00    -0.02   0.02   0.00    -0.01  -0.02  -0.01
  43   1     0.00   0.08   0.01     0.01  -0.01   0.02    -0.01  -0.04   0.01
  44   1    -0.00   0.01  -0.01    -0.01  -0.07   0.01    -0.02  -0.00   0.08
  45   1    -0.01  -0.01  -0.01     0.04   0.00   0.09     0.03  -0.01  -0.02
  46   1    -0.01  -0.01   0.00     0.05   0.03   0.00     0.03   0.03  -0.03
  47   1    -0.00  -0.01   0.01    -0.01   0.05  -0.05    -0.02   0.08   0.04
  48   1     0.04  -0.04   0.14     0.02   0.01   0.06    -0.03  -0.11   0.12
  49   1     0.05  -0.00   0.00     0.01  -0.00  -0.07    -0.04   0.05  -0.04
  50   1    -0.01   0.09  -0.09    -0.07   0.03   0.03     0.05  -0.08   0.08
  51   1     0.01  -0.05   0.09     0.04  -0.08  -0.02    -0.01   0.02   0.06
  52   1     0.00   0.05  -0.10     0.05  -0.02  -0.03    -0.02   0.04  -0.01
  53   1     0.01   0.06  -0.14     0.04   0.02  -0.01    -0.01   0.02  -0.03
  54   1     0.01  -0.05   0.07    -0.03   0.01   0.02     0.02  -0.01   0.04
  55   1    -0.05   0.00   0.01     0.06   0.04   0.04     0.04  -0.03   0.05
  56   1    -0.02  -0.02  -0.01     0.03   0.04   0.01     0.02   0.03   0.00
  57   1     0.02  -0.03  -0.03     0.05   0.05  -0.00    -0.03   0.00  -0.05
  58   1     0.00   0.01   0.02     0.01   0.01   0.01    -0.06  -0.03  -0.02
  59   1    -0.02   0.03   0.01     0.04   0.01   0.03    -0.03  -0.10  -0.00
  60   1    -0.00   0.01   0.00    -0.02  -0.07  -0.01     0.02   0.06   0.05
  61   1    -0.03   0.00   0.02     0.04  -0.02  -0.01    -0.02   0.02  -0.03
  62   1    -0.02  -0.01   0.06     0.05   0.05   0.03    -0.02  -0.01  -0.02
  63   1    -0.00  -0.03   0.02    -0.02   0.06  -0.05     0.02   0.02   0.08
  64   1    -0.01   0.08   0.01     0.03   0.01   0.02     0.02  -0.04   0.01
  65   1    -0.00   0.01   0.00     0.01  -0.01  -0.01     0.01  -0.03  -0.01
                     28                     29                     30
                        a                      a                      a 
 Frequencies --   352.7958               367.1120               370.7524
 Red. masses --    11.1470                10.2535                 9.3136
 Frc consts  --     0.0000                 0.0000                 0.0000
 IR Inten    --     0.1514                 1.6068                 1.2480
 Raman Activ --     0.0000                 0.0000                 0.0000
 Depolar     --     0.0000                 0.0000                 0.0000
 Atom AN      X      Y      Z        X      Y      Z        X      Y      Z
   1   7     0.20   0.02  -0.00    -0.03   0.02  -0.02    -0.01  -0.00   0.00
   2   6     0.18  -0.03   0.01    -0.03  -0.04   0.03    -0.01  -0.00  -0.00
   3   6     0.14  -0.02   0.00    -0.02  -0.01   0.01    -0.01  -0.00  -0.00
   4   6     0.03   0.02   0.06     0.04   0.03  -0.02     0.00   0.37   0.10
   5   6     0.01  -0.02   0.03     0.04   0.05  -0.08     0.00  -0.42  -0.12
   6   6    -0.13  -0.00  -0.04     0.02   0.08  -0.07     0.03  -0.01   0.00
   7   6    -0.17   0.01   0.03     0.03   0.14   0.15    -0.01  -0.01  -0.01
   8   6    -0.17  -0.02  -0.01     0.08   0.13   0.14    -0.00   0.01   0.09
   9   6    -0.06  -0.09   0.02     0.15  -0.01  -0.28     0.02  -0.04  -0.00
  10   6     0.06  -0.03   0.00     0.06   0.09   0.06    -0.02  -0.04   0.04
  11   6     0.06   0.07   0.00     0.06  -0.02   0.13    -0.02  -0.06   0.02
  12   6    -0.06   0.10  -0.05     0.15  -0.20  -0.21    -0.01  -0.07  -0.01
  13   6    -0.15   0.01  -0.06     0.07  -0.01   0.16     0.00   0.01   0.09
  14   6    -0.10  -0.02  -0.03     0.00  -0.00   0.15    -0.02  -0.00  -0.01
  15   6    -0.03   0.07  -0.09    -0.01  -0.18   0.03    -0.00   0.01  -0.00
  16   6     0.03   0.05  -0.08    -0.05  -0.19   0.06     0.00   0.01  -0.00
  17   6     0.05   0.01   0.09    -0.06  -0.00  -0.05     0.00   0.01  -0.01
  18   6     0.14   0.04   0.12     0.00   0.07  -0.08     0.01  -0.01   0.02
  19   6     0.13   0.07   0.13     0.03   0.02  -0.01     0.00  -0.01   0.03
  20   6     0.12   0.11  -0.01     0.03  -0.16   0.04     0.00   0.02  -0.01
  21   6     0.15   0.08   0.09     0.04   0.05   0.02     0.00  -0.00   0.01
  22   6     0.04   0.12   0.05    -0.03   0.04   0.06     0.00   0.01  -0.01
  23   6    -0.03   0.03  -0.01    -0.05   0.06   0.01     0.00  -0.00   0.00
  24   6     0.04  -0.10  -0.01    -0.04   0.03   0.01     0.01  -0.01   0.01
  25   6     0.16  -0.07  -0.05     0.03   0.01   0.04     0.01   0.00  -0.02
  26   6     0.19   0.03  -0.02     0.03   0.05  -0.00     0.01  -0.00  -0.00
  27   7     0.13   0.03  -0.05     0.01   0.05  -0.06     0.01  -0.00  -0.00
  28   6     0.02   0.02  -0.05     0.03  -0.05   0.04     0.00   0.00  -0.00
  29   6    -0.09  -0.09  -0.00     0.04  -0.05   0.03    -0.01   0.00   0.00
  30   6    -0.10  -0.11   0.00     0.01  -0.00   0.00    -0.00  -0.00  -0.00
  31   6    -0.10  -0.14  -0.10    -0.04  -0.01  -0.02    -0.00  -0.01  -0.00
  32   6    -0.11  -0.04  -0.05    -0.04  -0.03  -0.03    -0.01   0.00   0.00
  33   6    -0.13   0.01  -0.03    -0.01  -0.07   0.01    -0.00   0.00  -0.00
  34   6    -0.22  -0.05   0.12    -0.02   0.01   0.12     0.00  -0.01  -0.10
  35   6    -0.09  -0.19   0.07    -0.12  -0.13  -0.22    -0.00   0.08   0.04
  36   6     0.09  -0.10   0.08    -0.08   0.03   0.11    -0.01   0.06  -0.03
  37   6     0.08   0.01  -0.03    -0.09   0.11   0.06    -0.01   0.03  -0.05
  38   6    -0.10   0.09  -0.07    -0.11  -0.02  -0.26     0.03   0.04   0.03
  39   6    -0.22   0.06   0.11    -0.03   0.12   0.10     0.00  -0.02  -0.10
  40   6    -0.02   0.07  -0.08    -0.03   0.07  -0.05    -0.01   0.41   0.12
  41   6     0.00   0.00  -0.07    -0.04  -0.00  -0.01     0.02  -0.37  -0.10
  42   1    -0.01   0.02   0.01     0.03   0.00   0.00     0.00   0.23   0.06
  43   1     0.03  -0.00  -0.01     0.02   0.00  -0.03    -0.00  -0.23  -0.06
  44   1    -0.02  -0.05   0.03     0.06  -0.03  -0.17     0.01  -0.03  -0.05
  45   1     0.04  -0.02   0.00    -0.01   0.05   0.04    -0.01  -0.01   0.01
  46   1     0.04   0.04   0.01    -0.01   0.00   0.08    -0.00  -0.02  -0.01
  47   1    -0.02   0.06  -0.03     0.06  -0.10  -0.14     0.00  -0.04  -0.03
  48   1     0.02   0.03  -0.04    -0.03  -0.07   0.02     0.00   0.00  -0.00
  49   1    -0.01   0.01   0.04    -0.04   0.02  -0.02     0.00   0.01  -0.01
  50   1     0.06   0.02  -0.02     0.03  -0.06   0.01     0.00   0.01  -0.01
  51   1    -0.00   0.06   0.02    -0.02   0.02   0.03     0.00   0.01  -0.01
  52   1    -0.04   0.01  -0.01    -0.02   0.02  -0.00    -0.00  -0.00   0.00
  53   1    -0.00  -0.06  -0.00    -0.02   0.00  -0.00     0.00  -0.01   0.01
  54   1     0.06  -0.05  -0.03     0.01  -0.01   0.02     0.00   0.00  -0.01
  55   1    -0.06  -0.03  -0.01     0.02  -0.01   0.01    -0.00   0.00   0.00
  56   1    -0.03  -0.02   0.01     0.01   0.01   0.00     0.00  -0.00  -0.00
  57   1    -0.02  -0.05  -0.04    -0.01   0.00  -0.01     0.00  -0.00  -0.00
  58   1    -0.01  -0.01   0.00    -0.02  -0.01  -0.01    -0.00   0.00   0.00
  59   1    -0.05  -0.01   0.00    -0.01  -0.04  -0.00     0.00   0.00  -0.00
  60   1    -0.03  -0.11   0.00    -0.05  -0.07  -0.14     0.01   0.05   0.05
  61   1     0.06  -0.05   0.03    -0.01   0.02   0.07    -0.00   0.02  -0.00
  62   1     0.06   0.02  -0.04    -0.01   0.05   0.05    -0.01   0.01  -0.01
  63   1    -0.03   0.06  -0.07    -0.04  -0.04  -0.15     0.02   0.03   0.06
  64   1     0.01   0.03  -0.01    -0.03   0.02  -0.03    -0.01   0.23   0.06
  65   1    -0.03  -0.01  -0.00    -0.02  -0.01  -0.00     0.01  -0.23  -0.06
                     31                     32                     33
                        a                      a                      a 
 Frequencies --   378.3452               387.4122               392.8283
 Red. masses --     9.0499                10.7301                11.0468
 Frc consts  --     0.0000                 0.0000                 0.0000
 IR Inten    --     0.6820                 2.2563                13.8531
 Raman Activ --     0.0000                 0.0000                 0.0000
 Depolar     --     0.0000                 0.0000                 0.0000
 Atom AN      X      Y      Z        X      Y      Z        X      Y      Z
   1   7     0.01  -0.00  -0.00     0.07  -0.02   0.00    -0.04  -0.01   0.02
   2   6     0.01   0.00   0.01     0.06   0.05  -0.00    -0.04   0.02  -0.04
   3   6     0.01   0.00   0.00     0.04   0.02   0.00    -0.02   0.01  -0.01
   4   6     0.00  -0.00   0.00    -0.01  -0.01   0.03    -0.03  -0.04  -0.02
   5   6     0.00   0.00  -0.00    -0.02  -0.05   0.04    -0.01   0.04   0.06
   6   6    -0.01   0.01  -0.01    -0.05   0.05   0.04     0.03   0.01   0.07
   7   6    -0.01   0.01   0.01    -0.07   0.00  -0.02     0.04  -0.04  -0.10
   8   6    -0.01   0.01   0.01    -0.07   0.08  -0.04    -0.08  -0.16  -0.06
   9   6    -0.01   0.00  -0.00    -0.08   0.10  -0.12    -0.00  -0.23   0.03
  10   6     0.00   0.01  -0.01     0.01   0.24   0.00     0.01  -0.19   0.16
  11   6    -0.00   0.02   0.00     0.03   0.24  -0.15     0.03  -0.16   0.00
  12   6    -0.00   0.01  -0.01     0.03   0.20  -0.16    -0.09  -0.06   0.03
  13   6    -0.01   0.00  -0.01    -0.09   0.16   0.01    -0.10  -0.01   0.09
  14   6     0.00  -0.01  -0.02     0.06   0.05   0.13    -0.06   0.08   0.19
  15   6     0.01  -0.01  -0.01     0.05  -0.13   0.11    -0.03  -0.11   0.09
  16   6     0.01  -0.01  -0.00     0.02  -0.12   0.09    -0.01  -0.08   0.02
  17   6     0.02  -0.01   0.00     0.01   0.09  -0.21    -0.01   0.03  -0.10
  18   6     0.00  -0.03   0.05    -0.02  -0.05   0.03     0.03  -0.03   0.05
  19   6    -0.00  -0.02   0.03     0.01  -0.07   0.03     0.05   0.02  -0.04
  20   6    -0.00   0.00  -0.02     0.01  -0.04  -0.12     0.03   0.00  -0.08
  21   6    -0.01   0.01  -0.03     0.04  -0.03   0.07     0.13   0.07   0.02
  22   6    -0.02  -0.01   0.02    -0.02   0.10  -0.15     0.04   0.12  -0.04
  23   6    -0.01   0.01  -0.01    -0.04  -0.06   0.10    -0.03  -0.08   0.08
  24   6    -0.01   0.01  -0.00    -0.04  -0.03   0.04     0.00  -0.07  -0.07
  25   6    -0.00   0.00   0.01     0.00   0.09  -0.16     0.10  -0.03  -0.11
  26   6    -0.01   0.03  -0.05     0.03  -0.04   0.15     0.15  -0.02   0.14
  27   7     0.00   0.00  -0.01    -0.03  -0.06   0.20     0.03  -0.07   0.23
  28   6     0.01   0.01   0.00    -0.08   0.08   0.03    -0.07   0.11   0.02
  29   6    -0.24   0.10   0.36    -0.04   0.03  -0.06    -0.09   0.02  -0.05
  30   6     0.23  -0.08  -0.32    -0.01  -0.03  -0.03    -0.02  -0.09  -0.06
  31   6     0.01   0.00  -0.00    -0.02  -0.01   0.06    -0.07  -0.06   0.04
  32   6    -0.22   0.09   0.33     0.04   0.01  -0.02    -0.00   0.01  -0.01
  33   6     0.25  -0.09  -0.35    -0.01   0.06  -0.04    -0.03   0.08  -0.10
  34   6    -0.00  -0.01  -0.00     0.08  -0.06   0.04     0.06   0.17   0.04
  35   6     0.00  -0.02   0.01     0.08  -0.09   0.03    -0.04   0.20  -0.13
  36   6     0.00  -0.01   0.02    -0.03  -0.17   0.05    -0.03   0.21  -0.21
  37   6    -0.00  -0.02  -0.00    -0.02  -0.21   0.13     0.01   0.26   0.04
  38   6    -0.01  -0.01   0.01    -0.01  -0.22   0.05     0.08   0.11  -0.10
  39   6    -0.00  -0.00   0.01     0.07  -0.15  -0.03     0.04   0.05  -0.10
  40   6    -0.00   0.00  -0.01    -0.00   0.04   0.01     0.03  -0.07   0.06
  41   6    -0.00   0.00  -0.00     0.01  -0.05  -0.04     0.03   0.02   0.03
  42   1     0.00  -0.00  -0.00    -0.02  -0.01  -0.00    -0.01  -0.03  -0.01
  43   1     0.00   0.00  -0.00    -0.00  -0.03   0.00    -0.02   0.01   0.02
  44   1    -0.00   0.00  -0.00    -0.02   0.01  -0.06    -0.00  -0.08   0.01
  45   1     0.00  -0.00  -0.01     0.02   0.07   0.04     0.00  -0.05   0.08
  46   1    -0.00   0.01   0.00     0.01   0.06  -0.06     0.04  -0.04  -0.02
  47   1     0.00   0.00  -0.01     0.01   0.06  -0.07    -0.03  -0.00   0.01
  48   1     0.00   0.00  -0.01    -0.00  -0.04   0.03    -0.00  -0.02   0.00
  49   1     0.01   0.01  -0.02     0.01   0.06  -0.13    -0.02   0.03  -0.06
  50   1     0.00   0.01  -0.02     0.00   0.02  -0.08     0.02   0.01  -0.05
  51   1    -0.01  -0.01   0.03    -0.01   0.08  -0.11    -0.00   0.08  -0.03
  52   1    -0.00   0.00   0.00    -0.01  -0.03   0.05    -0.03  -0.03   0.05
  53   1    -0.00  -0.00   0.01    -0.01  -0.01   0.01    -0.01  -0.02  -0.05
  54   1    -0.00  -0.01   0.03     0.00   0.05  -0.12     0.04  -0.02  -0.08
  55   1    -0.15   0.06   0.21    -0.02   0.00  -0.04    -0.05  -0.00  -0.03
  56   1     0.15  -0.05  -0.20     0.00  -0.02  -0.02     0.00  -0.04  -0.04
  57   1     0.00   0.00  -0.00    -0.01  -0.01   0.03    -0.02  -0.02   0.03
  58   1    -0.14   0.06   0.21     0.03   0.00  -0.01     0.03   0.01   0.01
  59   1     0.15  -0.06  -0.21     0.01   0.03  -0.02     0.01   0.03  -0.04
  60   1     0.00  -0.01   0.00     0.02  -0.01   0.02    -0.01   0.07  -0.04
  61   1     0.00  -0.00   0.01    -0.03  -0.03   0.01    -0.01   0.04  -0.09
  62   1     0.00  -0.01  -0.01    -0.01  -0.05   0.06    -0.01   0.08   0.06
  63   1    -0.00  -0.00   0.00    -0.00  -0.08   0.03     0.02   0.02  -0.05
  64   1    -0.00  -0.00  -0.00     0.01   0.00   0.01     0.01  -0.04   0.01
  65   1    -0.00  -0.00   0.00    -0.00  -0.04  -0.01     0.02   0.01   0.00
                     34                     35                     36
                        a                      a                      a 
 Frequencies --   397.0608               399.3703               413.7546
 Red. masses --    10.3251                10.5215                10.9202
 Frc consts  --     0.0000                 0.0000                 0.0000
 IR Inten    --    15.9525                 9.3122                 2.7509
 Raman Activ --     0.0000                 0.0000                 0.0000
 Depolar     --     0.0000                 0.0000                 0.0000
 Atom AN      X      Y      Z        X      Y      Z        X      Y      Z
   1   7     0.02   0.05   0.04    -0.01   0.07   0.04     0.00  -0.01  -0.02
   2   6     0.02  -0.10  -0.10    -0.01  -0.16  -0.10     0.00   0.02   0.04
   3   6     0.01  -0.04  -0.03    -0.01  -0.07  -0.04     0.00   0.00   0.01
   4   6    -0.05   0.10   0.05    -0.03   0.08   0.03     0.02   0.01  -0.01
   5   6    -0.04  -0.08   0.08    -0.03   0.01   0.08     0.02  -0.02  -0.05
   6   6    -0.01  -0.16   0.06     0.01  -0.23   0.01    -0.00   0.01  -0.04
   7   6    -0.02  -0.10  -0.22     0.01  -0.08  -0.20    -0.00   0.09   0.05
   8   6     0.08   0.01  -0.19     0.17   0.06  -0.06     0.11   0.07  -0.05
   9   6    -0.01   0.14  -0.02     0.08   0.16  -0.02     0.08   0.16   0.09
  10   6    -0.04   0.19   0.07    -0.04   0.10  -0.00     0.04   0.03  -0.13
  11   6     0.02   0.02  -0.20    -0.02  -0.09  -0.04     0.02  -0.05   0.08
  12   6     0.05   0.08   0.04     0.10  -0.09   0.13     0.07  -0.08   0.11
  13   6     0.05   0.07   0.05     0.15  -0.02   0.12     0.12  -0.16  -0.16
  14   6     0.03   0.07   0.16    -0.02  -0.01  -0.00     0.02  -0.12  -0.15
  15   6     0.02  -0.09  -0.05    -0.01  -0.03  -0.08     0.02   0.02   0.12
  16   6     0.01  -0.01  -0.20    -0.02  -0.14   0.10    -0.00   0.04   0.12
  17   6    -0.01  -0.13   0.14    -0.02   0.04  -0.12     0.01   0.03  -0.02
  18   6    -0.01   0.00  -0.06     0.02   0.02  -0.03    -0.03   0.08  -0.17
  19   6     0.00   0.07  -0.20     0.01  -0.07   0.16     0.01   0.09  -0.22
  20   6     0.01  -0.20   0.13    -0.00   0.01  -0.12     0.02  -0.04   0.21
  21   6     0.05   0.15  -0.20    -0.00  -0.10   0.23     0.04   0.00  -0.06
  22   6    -0.02  -0.04   0.18    -0.03   0.10  -0.13     0.06   0.02  -0.12
  23   6    -0.05   0.03   0.00    -0.02   0.04   0.02     0.03  -0.17   0.11
  24   6    -0.04   0.09  -0.13    -0.01  -0.04   0.15     0.01  -0.03  -0.13
  25   6     0.03  -0.08   0.19     0.00   0.12  -0.15    -0.00  -0.03  -0.10
  26   6     0.04   0.08  -0.05     0.00  -0.03   0.06     0.03  -0.12   0.23
  27   7    -0.02  -0.02   0.11     0.03   0.06  -0.14    -0.03  -0.11   0.29
  28   6    -0.04   0.04   0.03     0.06  -0.06   0.00    -0.12   0.10   0.04
  29   6    -0.00  -0.00  -0.04     0.02  -0.03   0.07    -0.07   0.06  -0.06
  30   6     0.01  -0.03  -0.03     0.01   0.02   0.02     0.01  -0.04  -0.07
  31   6    -0.04  -0.01   0.05     0.01   0.00  -0.05    -0.03  -0.01   0.09
  32   6     0.02  -0.00  -0.03    -0.05  -0.01   0.01     0.06   0.02  -0.01
  33   6     0.01   0.02  -0.04     0.01  -0.06   0.02     0.01   0.09  -0.08
  34   6    -0.04   0.03   0.17    -0.15  -0.04   0.02    -0.12  -0.12  -0.05
  35   6    -0.02  -0.06   0.06    -0.08  -0.03   0.16    -0.10  -0.12   0.04
  36   6    -0.00  -0.11  -0.07     0.01  -0.07  -0.10    -0.02  -0.03   0.11
  37   6     0.03   0.02   0.11     0.03   0.13  -0.01    -0.05   0.05  -0.12
  38   6    -0.04  -0.00  -0.04    -0.06   0.20   0.05    -0.10   0.14  -0.01
  39   6    -0.06  -0.03  -0.08    -0.17   0.04  -0.16    -0.11   0.12   0.05
  40   6     0.03   0.03   0.10     0.03  -0.06   0.06    -0.02   0.03  -0.03
  41   6     0.04   0.04   0.02     0.03   0.13   0.05    -0.02  -0.03  -0.02
  42   1    -0.03   0.07   0.01    -0.02   0.06   0.01     0.01   0.01   0.00
  43   1    -0.02  -0.02   0.03    -0.02   0.04   0.04     0.01  -0.00  -0.01
  44   1    -0.00   0.05  -0.00     0.03   0.07  -0.02     0.01   0.07   0.08
  45   1    -0.02   0.07   0.06    -0.04   0.05  -0.01    -0.01   0.01  -0.07
  46   1    -0.00  -0.02  -0.10    -0.03  -0.06  -0.04    -0.02  -0.02   0.05
  47   1     0.01   0.03   0.06     0.03  -0.05   0.04     0.01  -0.01   0.08
  48   1    -0.01   0.00  -0.08    -0.01  -0.07   0.07     0.01   0.00   0.06
  49   1    -0.01  -0.07   0.11    -0.02   0.04  -0.06     0.02  -0.02   0.02
  50   1     0.01  -0.10   0.11     0.01   0.01  -0.07    -0.01  -0.04   0.12
  51   1    -0.01  -0.05   0.15    -0.01   0.07  -0.12     0.01   0.04  -0.09
  52   1    -0.02  -0.00   0.02    -0.00   0.03  -0.02    -0.00  -0.07   0.07
  53   1    -0.02   0.03  -0.06    -0.01  -0.03   0.06     0.01   0.03  -0.09
  54   1     0.02  -0.08   0.13    -0.00   0.08  -0.12     0.00   0.01  -0.09
  55   1    -0.01  -0.00  -0.02     0.01  -0.01   0.03    -0.03   0.01  -0.04
  56   1     0.01  -0.01  -0.02     0.01   0.02   0.01     0.01  -0.04  -0.04
  57   1    -0.02  -0.00   0.03     0.01   0.00  -0.03    -0.02  -0.00   0.05
  58   1     0.02  -0.00  -0.01    -0.03  -0.00   0.01     0.04   0.01  -0.00
  59   1     0.00   0.01  -0.02    -0.00  -0.03   0.00     0.02   0.04  -0.04
  60   1    -0.01  -0.03   0.02    -0.02  -0.01   0.10    -0.03  -0.05   0.01
  61   1     0.00  -0.06  -0.06     0.03  -0.06  -0.06     0.03  -0.01   0.06
  62   1     0.02   0.02   0.06     0.04   0.05  -0.00     0.01   0.02  -0.07
  63   1    -0.01  -0.00  -0.04    -0.02   0.08   0.03    -0.03   0.05   0.01
  64   1     0.02   0.03   0.04     0.02  -0.00   0.03    -0.01   0.02  -0.01
  65   1     0.03   0.03   0.00     0.02   0.10   0.02    -0.01  -0.01  -0.00
                     37                     38                     39
                        a                      a                      a 
 Frequencies --   424.7255               434.2876               440.8026
 Red. masses --     9.9719                 9.8426                10.9679
 Frc consts  --     0.0000                 0.0000                 0.0000
 IR Inten    --     6.6907                 3.6339                 2.0235
 Raman Activ --     0.0000                 0.0000                 0.0000
 Depolar     --     0.0000                 0.0000                 0.0000
 Atom AN      X      Y      Z        X      Y      Z        X      Y      Z
   1   7     0.03  -0.01  -0.00    -0.06  -0.02  -0.01    -0.02   0.17   0.05
   2   6     0.03   0.03   0.01    -0.05   0.05   0.01    -0.01  -0.41  -0.12
   3   6     0.02   0.01   0.00    -0.03   0.01   0.00    -0.01  -0.08  -0.02
   4   6    -0.01  -0.07  -0.00     0.02   0.01  -0.03    -0.00   0.26   0.08
   5   6    -0.01   0.09   0.04     0.03  -0.05  -0.04    -0.01  -0.12  -0.03
   6   6    -0.04   0.02   0.00     0.06   0.04   0.02     0.02  -0.40  -0.11
   7   6    -0.05   0.03  -0.02     0.07   0.03  -0.04     0.02  -0.06   0.13
   8   6     0.00   0.13   0.20     0.08  -0.04  -0.22    -0.02  -0.00   0.16
   9   6     0.07   0.00  -0.16    -0.01   0.14   0.15    -0.07  -0.03   0.02
  10   6     0.04   0.06  -0.00     0.00   0.04  -0.08    -0.05  -0.03  -0.07
  11   6     0.03   0.00   0.09     0.00  -0.03  -0.04    -0.08   0.15   0.03
  12   6     0.09  -0.11  -0.13     0.02   0.04   0.20    -0.04   0.08  -0.11
  13   6     0.00   0.04   0.19     0.07  -0.13  -0.18    -0.04   0.07  -0.06
  14   6    -0.06  -0.06  -0.03     0.03  -0.06  -0.00    -0.00   0.04  -0.12
  15   6    -0.04  -0.02   0.12     0.01  -0.07   0.13    -0.01  -0.01   0.07
  16   6    -0.09   0.03   0.04    -0.06  -0.06   0.17    -0.06  -0.01   0.12
  17   6    -0.08   0.09  -0.12    -0.06   0.16  -0.22    -0.05   0.07  -0.07
  18   6    -0.03  -0.06   0.16    -0.04  -0.11   0.24    -0.03   0.02   0.01
  19   6     0.01  -0.02   0.07     0.01  -0.11   0.19     0.01  -0.00   0.02
  20   6     0.00   0.05   0.03     0.01   0.10  -0.19     0.01   0.01   0.05
  21   6     0.06   0.12  -0.20     0.03   0.07  -0.13     0.03   0.03  -0.06
  22   6     0.07  -0.05   0.11     0.03  -0.06   0.10     0.05  -0.02   0.00
  23   6     0.03  -0.05  -0.07     0.01   0.01  -0.11     0.02  -0.06  -0.02
  24   6     0.04  -0.06  -0.11     0.01  -0.05  -0.01     0.02  -0.05  -0.05
  25   6     0.04  -0.15   0.08     0.02  -0.08   0.06     0.01  -0.06  -0.01
  26   6     0.06   0.10  -0.17     0.03   0.14  -0.23     0.02   0.02  -0.03
  27   7    -0.01  -0.03   0.12    -0.03   0.01   0.04    -0.02  -0.01   0.07
  28   6    -0.05   0.04   0.05    -0.03   0.01   0.06    -0.04   0.02   0.05
  29   6    -0.00  -0.00  -0.05     0.02  -0.02  -0.03    -0.00   0.00  -0.01
  30   6    -0.00  -0.03  -0.02     0.00  -0.00  -0.01     0.01  -0.01  -0.02
  31   6    -0.04  -0.01   0.04    -0.03   0.00   0.03    -0.03   0.00   0.04
  32   6     0.03  -0.01  -0.04     0.02  -0.01  -0.04     0.02  -0.00  -0.03
  33   6    -0.02   0.03  -0.01    -0.02  -0.00   0.02    -0.00   0.01  -0.01
  34   6    -0.07  -0.15  -0.25     0.01   0.02   0.14     0.05   0.09  -0.04
  35   6     0.01   0.06   0.22    -0.05  -0.09  -0.09     0.05   0.06  -0.14
  36   6     0.00  -0.04  -0.04    -0.05  -0.02   0.06     0.07   0.14   0.05
  37   6    -0.00   0.00  -0.08    -0.05   0.04   0.02     0.05  -0.06  -0.06
  38   6     0.01   0.13   0.20    -0.06  -0.01  -0.12     0.07  -0.06   0.01
  39   6    -0.07  -0.06  -0.26     0.01   0.10   0.12     0.04   0.01   0.19
  40   6    -0.02  -0.09  -0.05     0.02   0.07   0.05     0.02  -0.12  -0.02
  41   6    -0.01   0.04  -0.01     0.02  -0.07   0.01     0.01   0.25   0.09
  42   1    -0.01  -0.05  -0.01     0.01   0.01  -0.00     0.00   0.17   0.05
  43   1     0.00   0.04   0.01    -0.00  -0.03  -0.01    -0.00   0.01   0.00
  44   1     0.03  -0.03  -0.13    -0.02   0.07   0.13    -0.02  -0.00  -0.01
  45   1     0.00   0.02  -0.01    -0.01   0.02  -0.03     0.01  -0.03  -0.05
  46   1    -0.01  -0.00   0.04    -0.02  -0.02  -0.01    -0.01   0.06   0.02
  47   1     0.04  -0.07  -0.12    -0.01   0.05   0.13    -0.01  -0.01  -0.06
  48   1    -0.02   0.02  -0.01    -0.03  -0.01   0.02    -0.02  -0.00   0.03
  49   1    -0.03   0.07  -0.10    -0.02   0.12  -0.19    -0.01   0.04  -0.05
  50   1    -0.00   0.05  -0.05    -0.01   0.09  -0.16    -0.00   0.02  -0.00
  51   1     0.02  -0.06   0.13     0.01  -0.06   0.12     0.01  -0.01   0.02
  52   1    -0.01  -0.03   0.01    -0.01  -0.00  -0.02    -0.00  -0.02   0.00
  53   1     0.01  -0.03  -0.01     0.01  -0.04   0.05     0.01  -0.01  -0.01
  54   1     0.02  -0.10   0.10     0.01  -0.08   0.10     0.01  -0.04   0.01
  55   1    -0.00  -0.00  -0.03     0.02  -0.01  -0.02     0.00  -0.00  -0.02
  56   1     0.00  -0.01  -0.01     0.01  -0.00  -0.01     0.01  -0.01  -0.02
  57   1    -0.02  -0.00   0.02    -0.01   0.00   0.01    -0.01   0.00   0.02
  58   1     0.03  -0.00  -0.02     0.02  -0.01  -0.03     0.02  -0.00  -0.02
  59   1    -0.00   0.01  -0.01     0.00  -0.00  -0.00     0.01   0.00  -0.01
  60   1     0.02   0.07   0.17    -0.02  -0.05  -0.08     0.01  -0.01  -0.08
  61   1     0.01  -0.02  -0.01    -0.00  -0.01   0.02     0.00   0.06   0.03
  62   1     0.01   0.01  -0.03    -0.00   0.02   0.00    -0.01  -0.04  -0.04
  63   1     0.02   0.08   0.17    -0.03  -0.03  -0.09     0.02  -0.02  -0.02
  64   1     0.00  -0.04  -0.01    -0.00   0.03   0.01     0.00   0.01   0.00
  65   1    -0.01   0.03   0.01     0.02  -0.04  -0.01     0.00   0.17   0.05
[...]
  30   6    -0.00   0.00  -0.00     0.00  -0.00   0.00     0.03  -0.01   0.02
  31   6    -0.01  -0.01  -0.00     0.06   0.06   0.03     0.10   0.09   0.04
  32   6    -0.00   0.00  -0.00    -0.00   0.01  -0.00    -0.00  -0.01   0.00
  33   6    -0.01   0.00  -0.01     0.06  -0.03   0.05     0.11  -0.05   0.09
  34   6     0.00  -0.00   0.00     0.00  -0.00   0.00    -0.00   0.00  -0.00
  35   6     0.01   0.00  -0.00    -0.00   0.00   0.00    -0.00  -0.00   0.00
  36   6    -0.00  -0.01   0.00    -0.00  -0.00   0.00    -0.00  -0.00   0.00
  37   6     0.01  -0.01   0.00     0.00  -0.00   0.00     0.00  -0.00   0.00
  38   6     0.02  -0.00  -0.00     0.00   0.00  -0.00    -0.00   0.00   0.00
  39   6    -0.00  -0.00   0.00    -0.00  -0.00   0.00    -0.00  -0.00   0.00
  40   6     0.08   0.03  -0.13     0.00   0.00  -0.00     0.00   0.00  -0.01
  41   6    -0.05   0.02  -0.08    -0.00   0.00  -0.00    -0.00   0.00  -0.00
  42   1     0.19   0.09  -0.32     0.01   0.00  -0.01     0.01   0.00  -0.01
  43   1    -0.30   0.13  -0.51    -0.01   0.01  -0.02    -0.01   0.00  -0.01
  44   1    -0.06  -0.00  -0.01     0.01   0.00   0.00    -0.02  -0.00  -0.00
  45   1    -0.03  -0.04   0.01    -0.01  -0.01   0.00     0.00   0.01  -0.00
  46   1     0.01  -0.02   0.01     0.01  -0.02   0.01    -0.01   0.02  -0.01
  47   1    -0.03  -0.00  -0.00     0.02   0.00   0.00    -0.03  -0.00  -0.00
  48   1    -0.00   0.00   0.00     0.01  -0.02  -0.01     0.05  -0.07  -0.04
  49   1     0.01   0.01   0.01     0.02   0.03   0.01    -0.04  -0.06  -0.04
  50   1    -0.02  -0.03  -0.02     0.10   0.16   0.09    -0.13  -0.21  -0.12
  51   1    -0.01  -0.00  -0.00    -0.42  -0.21  -0.11     0.22   0.11   0.06
  52   1    -0.00  -0.00  -0.00    -0.00  -0.30  -0.16     0.00   0.19   0.10
  53   1     0.00  -0.00  -0.00    -0.05   0.03   0.02    -0.01   0.01   0.00
  54   1     0.00   0.00   0.00    -0.46  -0.22  -0.11     0.24   0.12   0.06
  55   1    -0.00   0.02  -0.01     0.00  -0.25   0.07     0.01  -0.35   0.10
  56   1     0.00  -0.00   0.00    -0.01   0.00  -0.00    -0.09   0.04  -0.07
  57   1     0.02   0.02   0.01    -0.22  -0.19  -0.10    -0.34  -0.30  -0.16
  58   1     0.00  -0.00   0.00     0.00  -0.02   0.01    -0.00   0.04  -0.01
  59   1     0.02  -0.01   0.02    -0.21   0.10  -0.18    -0.37   0.17  -0.32
  60   1    -0.02   0.00   0.00     0.00  -0.00  -0.00     0.00  -0.00  -0.00
  61   1     0.01   0.02  -0.01     0.00   0.00  -0.00     0.00   0.00  -0.00
  62   1    -0.03   0.05  -0.01    -0.00   0.00  -0.00    -0.00   0.00  -0.00
  63   1    -0.06   0.00   0.01    -0.00   0.00   0.00     0.00  -0.00  -0.00
  64   1    -0.26  -0.12   0.44    -0.01  -0.00   0.01    -0.01  -0.01   0.02
  65   1     0.17  -0.07   0.28     0.01  -0.00   0.01     0.01  -0.00   0.01
                    181                    182                    183
                        a                      a                      a 
 Frequencies --  3089.7704              3091.7562              3092.6353
 Red. masses --     1.8333                 1.8770                 1.8732
 Frc consts  --     0.0000                 0.0000                 0.0000
 IR Inten    --    87.2673                84.0009                72.7721
 Raman Activ --     0.0000                 0.0000                 0.0000
 Depolar     --     0.0000                 0.0000                 0.0000
 Atom AN      X      Y      Z        X      Y      Z        X      Y      Z
   1   7    -0.00   0.00   0.00     0.00   0.00   0.00    -0.00  -0.00  -0.00
   2   6     0.00   0.00  -0.00    -0.00  -0.00  -0.00     0.00   0.00  -0.00
   3   6     0.00  -0.00   0.00    -0.00   0.00   0.00     0.00  -0.00   0.00
   4   6     0.00   0.00  -0.00    -0.00  -0.00   0.00     0.00   0.00  -0.00
   5   6    -0.00   0.00  -0.01     0.00  -0.00   0.00    -0.00   0.00  -0.01
   6   6    -0.00  -0.00   0.00     0.00  -0.00   0.00    -0.00  -0.00   0.00
   7   6     0.00  -0.00  -0.00    -0.00  -0.00   0.00     0.00   0.00  -0.00
   8   6     0.00  -0.00   0.00    -0.00   0.00  -0.00     0.00  -0.00   0.00
   9   6     0.02   0.00   0.00    -0.00  -0.00  -0.00     0.03   0.00   0.00
  10   6    -0.00  -0.01   0.00     0.00   0.00  -0.00    -0.00   0.00  -0.00
  11   6     0.01  -0.02   0.01    -0.00   0.00  -0.00     0.01  -0.02   0.01
  12   6     0.03   0.00   0.00    -0.00  -0.00  -0.00     0.06   0.00   0.01
  13   6     0.00   0.00  -0.00    -0.00  -0.00   0.00     0.00   0.00  -0.00
  14   6     0.00   0.00  -0.00    -0.00   0.00  -0.00     0.00  -0.00   0.00
  15   6     0.01   0.00   0.00    -0.00  -0.00   0.00     0.01   0.00   0.00
  16   6    -0.02   0.03   0.02    -0.01   0.02   0.01     0.09  -0.12  -0.07
  17   6     0.03   0.06   0.03     0.01   0.02   0.01    -0.09  -0.15  -0.09
  18   6     0.00  -0.00  -0.00     0.00  -0.00   0.00    -0.01   0.00   0.00
  19   6    -0.00   0.01   0.00    -0.00  -0.00  -0.00     0.00   0.00   0.00
  20   6     0.11   0.18   0.10    -0.00  -0.01  -0.00     0.03   0.05   0.03
  21   6     0.00  -0.00  -0.00     0.00  -0.00  -0.00    -0.00  -0.00  -0.00
  22   6     0.05   0.03   0.01     0.01   0.01   0.00    -0.01  -0.00  -0.00
  23   6    -0.00   0.02   0.01    -0.00   0.02   0.01    -0.00  -0.02  -0.01
  24   6     0.02  -0.01  -0.01    -0.01   0.01   0.00     0.03  -0.01  -0.01
  25   6     0.06   0.03   0.01     0.00   0.00   0.00     0.03   0.02   0.01
  26   6    -0.00   0.00   0.00     0.00   0.00   0.00     0.00   0.00   0.00
  27   7     0.00   0.00   0.00     0.00   0.00  -0.00     0.00  -0.00  -0.00
  28   6    -0.00  -0.00  -0.00    -0.00  -0.00  -0.00     0.00   0.00   0.00
  29   6     0.00  -0.02   0.01     0.00  -0.18   0.05     0.00  -0.02   0.01
  30   6    -0.01   0.00  -0.01     0.07  -0.03   0.06     0.01  -0.00   0.01
  31   6    -0.02  -0.02  -0.01    -0.02  -0.01  -0.01     0.01   0.01   0.00
  32   6     0.00   0.00  -0.00     0.00  -0.11   0.03    -0.00  -0.01   0.00
  33   6    -0.02   0.01  -0.02     0.10  -0.04   0.08     0.02  -0.01   0.02
  34   6    -0.00   0.00   0.00    -0.00   0.00  -0.00     0.00  -0.00   0.00
  35   6     0.00  -0.00  -0.00    -0.01   0.00   0.00     0.04  -0.00  -0.01
  36   6     0.00   0.00  -0.00    -0.00  -0.00   0.00     0.01   0.01  -0.01
  37   6    -0.00   0.00  -0.00    -0.00   0.00  -0.00    -0.00   0.00  -0.00
  38   6    -0.00   0.00   0.00    -0.00   0.00   0.00     0.01  -0.00  -0.00
  39   6    -0.00  -0.00   0.00    -0.00  -0.00   0.00     0.00   0.00  -0.00
  40   6    -0.00  -0.00   0.00     0.00   0.00  -0.00    -0.00  -0.00   0.00
  41   6     0.00  -0.00   0.00    -0.00   0.00  -0.00     0.00  -0.00   0.00
  42   1    -0.01  -0.00   0.01     0.00   0.00  -0.00    -0.00  -0.00   0.01
  43   1     0.02  -0.01   0.03    -0.00   0.00  -0.00     0.01  -0.01   0.02
  44   1    -0.07  -0.01  -0.01     0.00   0.00   0.00    -0.12  -0.01  -0.02
  45   1     0.01   0.02  -0.01    -0.00  -0.00   0.00    -0.00  -0.00   0.00
  46   1    -0.04   0.05  -0.03     0.00  -0.00   0.00    -0.04   0.06  -0.03
  47   1    -0.12  -0.01  -0.02     0.01   0.00   0.00    -0.23  -0.01  -0.03
  48   1     0.07  -0.09  -0.05     0.05  -0.06  -0.04    -0.29   0.40   0.24
  49   1    -0.12  -0.19  -0.11    -0.04  -0.06  -0.04     0.31   0.50   0.30
  50   1    -0.40  -0.63  -0.36     0.02   0.03   0.02    -0.10  -0.16  -0.09
  51   1    -0.18  -0.09  -0.05    -0.05  -0.02  -0.01     0.03   0.01   0.01
  52   1    -0.00  -0.07  -0.04    -0.00  -0.05  -0.03     0.00   0.07   0.04
  53   1    -0.06   0.03   0.02     0.04  -0.02  -0.01    -0.09   0.05   0.03
  54   1    -0.21  -0.10  -0.05    -0.02  -0.01  -0.00    -0.11  -0.05  -0.02
  55   1    -0.00   0.06  -0.02    -0.01   0.62  -0.18    -0.00   0.07  -0.02
  56   1     0.02  -0.01   0.02    -0.23   0.11  -0.19    -0.04   0.02  -0.03
  57   1     0.06   0.05   0.03     0.06   0.05   0.03    -0.02  -0.02  -0.01
  58   1     0.00  -0.00   0.00    -0.01   0.37  -0.10    -0.00   0.03  -0.01
  59   1     0.08  -0.04   0.07    -0.34   0.16  -0.29    -0.08   0.04  -0.06
  60   1    -0.01   0.00   0.00     0.03  -0.00  -0.00    -0.13   0.01   0.02
  61   1    -0.00  -0.01   0.00     0.00   0.01  -0.00    -0.02  -0.03   0.02
  62   1     0.00  -0.01   0.00     0.00  -0.00   0.00     0.00  -0.01   0.00
  63   1     0.01  -0.00  -0.00     0.02  -0.00  -0.00    -0.04   0.00   0.01
  64   1     0.01   0.00  -0.01    -0.00  -0.00   0.00     0.01   0.00  -0.02
  65   1    -0.01   0.00  -0.01     0.00  -0.00   0.00    -0.00   0.00  -0.01
                    184                    185                    186
                        a                      a                      a 
 Frequencies --  3093.5479              3094.3797              3095.1853
 Red. masses --     1.8342                 1.8368                 1.9045
 Frc consts  --     0.0000                 0.0000                 0.0000
 IR Inten    --    36.4353               134.2669               251.2662
 Raman Activ --     0.0000                 0.0000                 0.0000
 Depolar     --     0.0000                 0.0000                 0.0000
 Atom AN      X      Y      Z        X      Y      Z        X      Y      Z
   1   7    -0.00  -0.00  -0.00     0.00   0.00   0.00     0.00   0.00   0.00
   2   6     0.00  -0.00   0.00    -0.00   0.00  -0.00    -0.00  -0.00  -0.00
   3   6    -0.00   0.00  -0.00    -0.00  -0.00   0.00     0.00   0.00   0.00
   4   6    -0.00  -0.00   0.00    -0.00  -0.00   0.00     0.00   0.00  -0.00
   5   6     0.01  -0.00   0.01     0.01  -0.00   0.01    -0.00   0.00  -0.00
   6   6     0.00   0.00  -0.00     0.00  -0.00   0.00    -0.00  -0.00   0.00
   7   6    -0.00   0.00  -0.00    -0.00  -0.00   0.00     0.00  -0.00   0.00
   8   6    -0.00   0.00  -0.00    -0.00   0.00  -0.00     0.00  -0.00   0.00
   9   6    -0.17  -0.02  -0.02    -0.04  -0.00  -0.01     0.05   0.00   0.01
  10   6    -0.02  -0.04   0.01    -0.00  -0.01   0.00     0.01   0.02  -0.01
  11   6    -0.02   0.03  -0.02    -0.01   0.01  -0.01    -0.01   0.01  -0.01
  12   6    -0.17  -0.01  -0.03    -0.05  -0.00  -0.01    -0.01  -0.00  -0.00
  13   6    -0.00  -0.00   0.00    -0.00  -0.00   0.00    -0.00  -0.00   0.00
  14   6    -0.00  -0.00   0.00    -0.00   0.00  -0.00    -0.00  -0.00   0.00
  15   6     0.00  -0.00   0.00     0.00   0.00  -0.00    -0.00  -0.00  -0.00
  16   6     0.01  -0.02  -0.01     0.02  -0.03  -0.02    -0.02   0.02   0.01
  17   6    -0.01  -0.02  -0.01    -0.01  -0.02  -0.01     0.02   0.03   0.02
  18   6    -0.00  -0.00  -0.00    -0.00   0.00   0.00     0.00  -0.00  -0.00
  19   6    -0.00   0.00   0.00    -0.00   0.00   0.00     0.00  -0.00  -0.00
  20   6     0.02   0.04   0.02     0.01   0.02   0.01    -0.02  -0.03  -0.02
  21   6    -0.00   0.00   0.00    -0.00   0.00   0.00    -0.00   0.00   0.00
  22   6    -0.01  -0.00  -0.00    -0.01  -0.00  -0.00    -0.09  -0.04  -0.02
  23   6    -0.00  -0.01  -0.01    -0.00  -0.02  -0.01    -0.00  -0.11  -0.06
  24   6     0.02  -0.01  -0.01     0.02  -0.01  -0.01     0.13  -0.07  -0.04
  25   6     0.02   0.01   0.00     0.02   0.01   0.00     0.14   0.07   0.03
  26   6     0.00   0.00   0.00    -0.00   0.00   0.00    -0.00   0.01   0.00
  27   7     0.00  -0.00  -0.00     0.00  -0.00  -0.00     0.00  -0.00  -0.00
  28   6    -0.00  -0.00  -0.00    -0.00  -0.00  -0.00     0.00   0.00   0.00
  29   6     0.00  -0.01   0.00     0.00  -0.00   0.00    -0.00  -0.01   0.00
  30   6     0.00  -0.00   0.00     0.00  -0.00   0.00    -0.00   0.00  -0.00
  31   6     0.00   0.00   0.00     0.00   0.00   0.00    -0.01  -0.01  -0.00
  32   6    -0.00  -0.00   0.00    -0.00   0.00  -0.00     0.00  -0.01   0.00
  33   6     0.00  -0.00   0.00    -0.00   0.00  -0.00     0.00  -0.00   0.00
  34   6     0.00  -0.00   0.00    -0.00   0.00  -0.00    -0.00   0.00  -0.00
  35   6     0.05  -0.00  -0.01    -0.15   0.01   0.02    -0.01   0.00   0.00
  36   6     0.00   0.01  -0.00    -0.01  -0.01   0.01    -0.00  -0.01   0.00
  37   6     0.01  -0.02   0.00    -0.03   0.06  -0.02     0.01  -0.01   0.00
  38   6     0.06  -0.00  -0.01    -0.19   0.01   0.03     0.03  -0.00  -0.00
  39   6     0.00   0.00  -0.00    -0.00  -0.00   0.00     0.00   0.00  -0.00
  40   6    -0.00  -0.00   0.00     0.01   0.00  -0.02    -0.00  -0.00   0.00
  41   6    -0.00   0.00  -0.00    -0.00   0.00  -0.00     0.00  -0.00   0.00
  42   1     0.00   0.00  -0.01     0.01   0.00  -0.01    -0.00  -0.00   0.00
  43   1    -0.03   0.01  -0.04    -0.02   0.01  -0.03     0.01  -0.00   0.01
  44   1     0.60   0.05   0.08     0.14   0.01   0.02    -0.16  -0.01  -0.02
  45   1     0.08   0.13  -0.04     0.01   0.02  -0.01    -0.04  -0.07   0.02
  46   1     0.06  -0.09   0.05     0.02  -0.03   0.02     0.02  -0.03   0.02
  47   1     0.59   0.04   0.09     0.18   0.01   0.03     0.04   0.00   0.01
  48   1    -0.05   0.07   0.04    -0.07   0.09   0.05     0.06  -0.08  -0.05
  49   1     0.05   0.08   0.05     0.04   0.06   0.04    -0.06  -0.10  -0.06
  50   1    -0.09  -0.14  -0.08    -0.03  -0.06  -0.03     0.06   0.09   0.05
  51   1     0.02   0.01   0.01     0.03   0.02   0.01     0.30   0.15   0.08
  52   1     0.00   0.05   0.02     0.00   0.05   0.03     0.00   0.38   0.20
  53   1    -0.06   0.03   0.02    -0.06   0.03   0.02    -0.41   0.22   0.13
  54   1    -0.07  -0.03  -0.02    -0.07  -0.04  -0.02    -0.47  -0.23  -0.11
  55   1    -0.00   0.02  -0.01    -0.00   0.00  -0.00    -0.00   0.02  -0.01
  56   1    -0.01   0.00  -0.01    -0.00   0.00  -0.00     0.02  -0.01   0.01
  57   1    -0.00  -0.00  -0.00    -0.00  -0.00  -0.00     0.03   0.03   0.02
  58   1    -0.00   0.01  -0.00     0.00  -0.00   0.00    -0.00   0.03  -0.01
  59   1    -0.01   0.01  -0.01     0.00  -0.00   0.00    -0.01   0.00  -0.01
  60   1    -0.19   0.01   0.03     0.53  -0.02  -0.07     0.02  -0.00  -0.00
  61   1    -0.01  -0.02   0.01     0.02   0.04  -0.02     0.01   0.02  -0.01
  62   1    -0.03   0.05  -0.02     0.11  -0.18   0.06    -0.02   0.04  -0.01
  63   1    -0.20   0.01   0.03     0.69  -0.04  -0.09    -0.10   0.01   0.01
  64   1     0.00   0.00  -0.00    -0.04  -0.02   0.06     0.00   0.00  -0.01
  65   1     0.00  -0.00   0.00     0.01  -0.00   0.01    -0.00   0.00  -0.00
                    187                    188                    189
                        a                      a                      a 
 Frequencies --  3096.8063              3098.0181              3098.3967
 Red. masses --     1.8771                 1.9062                 1.8971
 Frc consts  --     0.0000                 0.0000                 0.0000
 IR Inten    --   136.1190                65.2356                42.3346
 Raman Activ --     0.0000                 0.0000                 0.0000
 Depolar     --     0.0000                 0.0000                 0.0000
 Atom AN      X      Y      Z        X      Y      Z        X      Y      Z
   1   7     0.00   0.00  -0.00     0.00   0.00   0.00    -0.00  -0.00  -0.00
   2   6    -0.00  -0.00   0.00    -0.00  -0.00  -0.00     0.00   0.00   0.00
   3   6    -0.00  -0.00  -0.00    -0.00  -0.00   0.00    -0.00   0.00  -0.00
   4   6    -0.00  -0.00   0.00    -0.00  -0.00   0.00     0.00   0.00  -0.00
   5   6     0.00  -0.00   0.01     0.00  -0.00   0.01    -0.00   0.00  -0.01
   6   6     0.00   0.00  -0.00     0.00  -0.00   0.00    -0.00   0.00  -0.00
   7   6    -0.00   0.00  -0.00    -0.00  -0.00   0.00     0.00   0.00  -0.00
   8   6    -0.00   0.00  -0.00    -0.00   0.00  -0.00     0.00  -0.00   0.00
   9   6    -0.14  -0.01  -0.02    -0.04  -0.00  -0.01     0.06   0.00   0.01
  10   6    -0.05  -0.08   0.02    -0.02  -0.03   0.01     0.02   0.03  -0.01
  11   6     0.05  -0.07   0.04     0.02  -0.02   0.01    -0.02   0.03  -0.02
  12   6     0.14   0.01   0.02     0.05   0.00   0.01    -0.06  -0.00  -0.01
  13   6     0.00   0.00  -0.00     0.00   0.00  -0.00    -0.00  -0.00   0.00
  14   6     0.00   0.00  -0.00     0.00  -0.00   0.00    -0.00   0.00  -0.00
  15   6    -0.00   0.00  -0.00    -0.00  -0.00   0.00     0.00   0.00  -0.00
  16   6    -0.00   0.00   0.00    -0.01   0.01   0.01     0.01  -0.02  -0.01
  17   6     0.00   0.01   0.00     0.00   0.01   0.00    -0.01  -0.02  -0.01
  18   6     0.00   0.00   0.00     0.00  -0.00  -0.00    -0.00  -0.00  -0.00
  19   6     0.00  -0.00  -0.00    -0.00  -0.00  -0.00    -0.00   0.00   0.00
  20   6    -0.01  -0.01  -0.01    -0.01  -0.01  -0.01     0.01   0.02   0.01
  21   6    -0.00   0.00   0.00    -0.00  -0.00  -0.00     0.00  -0.00  -0.00
  22   6    -0.01  -0.00  -0.00    -0.01  -0.00  -0.00     0.01   0.01   0.00
  23   6    -0.00  -0.01  -0.01     0.00  -0.01  -0.00     0.00   0.02   0.01
  24   6     0.01  -0.01  -0.00     0.01  -0.00  -0.00    -0.02   0.01   0.00
  25   6     0.01   0.01   0.00     0.01   0.00   0.00    -0.02  -0.01  -0.00
  26   6    -0.00   0.00   0.00    -0.00   0.00   0.00    -0.00  -0.00  -0.00
  27   7    -0.00  -0.00  -0.00    -0.00  -0.00  -0.00    -0.00  -0.00  -0.00
  28   6     0.00   0.00   0.00     0.00   0.00   0.00     0.00   0.00   0.00
  29   6    -0.00   0.00  -0.00    -0.00   0.08  -0.02    -0.00   0.07  -0.02
  30   6    -0.00   0.00  -0.00    -0.07   0.03  -0.06    -0.06   0.03  -0.05
  31   6    -0.00  -0.00  -0.00    -0.10  -0.09  -0.04    -0.07  -0.07  -0.03
  32   6     0.00  -0.00   0.00     0.00  -0.10   0.03     0.00  -0.08   0.02
  33   6     0.00  -0.00   0.00     0.06  -0.02   0.05     0.05  -0.02   0.04
  34   6    -0.00   0.00  -0.00     0.00  -0.00   0.00    -0.00   0.00  -0.00
  35   6    -0.10   0.00   0.01     0.11  -0.00  -0.02    -0.13   0.01   0.02
  36   6    -0.03  -0.04   0.02     0.03   0.04  -0.02    -0.04  -0.05   0.03
  37   6     0.03  -0.04   0.01    -0.03   0.05  -0.01     0.04  -0.05   0.02
  38   6     0.06  -0.00  -0.01    -0.07   0.00   0.01     0.09  -0.01  -0.01
  39   6     0.00   0.00  -0.00    -0.00  -0.00   0.00     0.00   0.00  -0.00
  40   6     0.00   0.00  -0.00     0.00   0.00  -0.01    -0.01  -0.00   0.01
  41   6    -0.00   0.00  -0.00    -0.00   0.00  -0.00     0.00  -0.00   0.00
  42   1     0.00   0.00  -0.01     0.01   0.00  -0.01    -0.01  -0.00   0.01
  43   1    -0.01   0.01  -0.03    -0.01   0.01  -0.02     0.02  -0.01   0.03
  44   1     0.49   0.04   0.07     0.16   0.01   0.02    -0.20  -0.02  -0.03
  45   1     0.16   0.27  -0.08     0.05   0.09  -0.03    -0.07  -0.11   0.03
  46   1    -0.15   0.22  -0.12    -0.05   0.07  -0.04     0.07  -0.10   0.05
  47   1    -0.48  -0.03  -0.07    -0.16  -0.01  -0.02     0.22   0.01   0.03
  48   1     0.01  -0.01  -0.01     0.03  -0.04  -0.02    -0.05   0.07   0.04
  49   1    -0.01  -0.02  -0.01    -0.02  -0.03  -0.02     0.04   0.06   0.04
  50   1     0.03   0.05   0.03     0.02   0.04   0.02    -0.04  -0.07  -0.04
  51   1     0.03   0.02   0.01     0.02   0.01   0.01    -0.05  -0.02  -0.01
  52   1     0.00   0.04   0.02     0.00   0.02   0.01    -0.00  -0.05  -0.03
  53   1    -0.04   0.02   0.01    -0.02   0.01   0.01     0.05  -0.03  -0.02
  54   1    -0.05  -0.02  -0.01    -0.02  -0.01  -0.00     0.06   0.03   0.01
  55   1     0.00  -0.01   0.00     0.00  -0.27   0.08     0.00  -0.22   0.06
  56   1     0.01  -0.00   0.01     0.23  -0.11   0.19     0.18  -0.08   0.15
  57   1     0.01   0.01   0.01     0.32   0.28   0.15     0.25   0.22   0.12
  58   1    -0.00   0.01  -0.00    -0.01   0.32  -0.09    -0.01   0.25  -0.07
  59   1    -0.00   0.00  -0.00    -0.19   0.08  -0.16    -0.15   0.07  -0.13
  60   1     0.35  -0.01  -0.05    -0.37   0.02   0.05     0.45  -0.02  -0.06
  61   1     0.08   0.13  -0.07    -0.09  -0.14   0.08     0.11   0.18  -0.10
  62   1    -0.08   0.13  -0.04     0.09  -0.15   0.05    -0.11   0.18  -0.05
  63   1    -0.21   0.01   0.03     0.26  -0.01  -0.03    -0.31   0.02   0.04
  64   1    -0.00  -0.00   0.01    -0.01  -0.01   0.02     0.02   0.01  -0.03
  65   1     0.00  -0.00   0.01     0.01  -0.00   0.01    -0.01   0.00  -0.01
