71
 energy: -110.398523030224 gnorm: 0.000044277303 xtb: 6.7.1 (edcfbbe)
C           -3.45920074630674       -1.82183354259690       -2.34935546319193
C           -2.32522834553720       -1.09141265807040       -2.05098052040088
C           -2.36903406051383       -0.07842874652876       -1.09419593258284
C           -1.14998612130936        0.68947931653781       -0.79874426083480
C           -1.19424479198761        1.99729069368591       -0.31040186702223
C            0.00016683344689        2.65380459037822       -0.07272171628472
C            1.19446007250289        1.99705189592152       -0.31029901468852
C            1.15000206991984        0.68923142094580       -0.79863318858865
C            2.36894503541651       -0.07891452968876       -1.09391783408924
C            2.32504296975230       -1.09217657026086       -2.05040174663001
C            3.45898444264721       -1.82269790790789       -2.34867354732915
C            4.65392271789448       -1.55702711377361       -1.70375239550107
C            4.70553825614311       -0.56030091292200       -0.73359181336262
N            5.90562684472679       -0.28744033053118       -0.06257145942425
C            6.71733453351294       -1.21562873529464        0.55883737339724
C            6.54041469818331       -2.58336673494537        0.71079796920885
C            7.50501852341769       -3.28446765501255        1.40858228812223
C            8.61762799119430       -2.64657745283454        1.95295152851486
C            8.78659518582894       -1.28250667805792        1.82582952540435
C            7.83047165942567       -0.55578565920999        1.12852636753536
C            7.67661343473226        0.83965639051100        0.82625201293014
C            8.44173375339852        1.96645788971821        1.09704092613266
C            8.00648829758782        3.19006861187870        0.62914104869212
C            6.83305656635542        3.29648117907198       -0.11431590567176
C            6.05508586288776        2.19012985763388       -0.39662067945342
C            6.47402595773496        0.96106553663568        0.09268554886622
C            3.56370370743944        0.17103450280402       -0.42834753592896
N           -0.00004284388351        0.07306396324926       -1.04337190318010
C           -3.56373772699849        0.17141732619551       -0.42849276489748
C           -4.70561328733281       -0.55980499977754       -0.73385875074263
N           -5.90565785986926       -0.28720022736732       -0.06265756098105
C           -6.47408479847719        0.96123455175744        0.09294754266962
C           -6.05522476126954        2.19043204221030       -0.39609676661705
C           -6.83320279936205        3.29668981871452       -0.11346748158846
C           -8.00656468538949        3.19006350439392        0.63007085155406
C           -8.44173464400866        1.96632432071391        1.09771114913791
C           -7.67660993800619        0.83960509323464        0.82657753224359
C           -7.83040989195038       -0.55593014466886        1.12851390463563
C           -8.78646187332802       -1.28282828321377        1.82571922039644
C           -8.61744535766638       -2.64691894737693        1.95251827031708
C           -7.50486542945204       -3.28464821227075        1.40790033752850
C           -6.54032850101944       -2.58335666358084        0.71020658265536
C           -6.71728407439024       -1.21558516070595        0.55859416046460
C           -4.65407463219842       -1.55631076226784       -1.70425509169431
H           -3.41857602855052       -2.59930467473302       -3.09786331519157
H           -1.39106212724120       -1.28849838662780       -2.55133738348999
H           -2.13545633325183        2.49737330029957       -0.14625991392696
H            0.00026184979164        3.67211295820797        0.28975857074962
H            2.13574898743939        2.49694729687508       -0.14604343490778
H            1.39083103179282       -1.28940370155100       -2.55061762775749
H            3.41829870573276       -2.60035504665472       -3.09698334122836
H            5.54882984930234       -2.10780627456679       -1.95115538526737
H            5.67237888242965       -3.08374255422180        0.30861921668816
H            7.39189704946879       -4.35079767823873        1.53809454785096
H            9.35069622762126       -3.23076069669290        2.48912317869537
H            9.64033116011526       -0.78547505624440        2.26134803190302
H            9.35990453327243        1.88132869798232        1.65849679538868
H            8.58541032765159        4.07907160288662        0.83079193391934
H            6.52704109796536        4.26502555240038       -0.48198845953093
H            5.15863271785128        2.27908795457197       -0.99223474952389
H            3.61287672200672        0.90975467905949        0.35732021699667
H           -3.61281350104028        0.90993910961682        0.35737100126708
H           -5.15881929400381        2.27955680628359       -0.99175990987403
H           -6.52724207105212        4.26533411644175       -0.48092513732344
H           -8.58549641651351        4.07900014160811        0.83198144242014
H           -9.35986037449252        1.88102557172002        1.65921192905307
H           -9.64016461229029       -0.78591204042763        2.26144119770806
H           -9.35045585407974       -3.23124212829021        2.48861754668425
H           -7.39171004799815       -4.35100559194481        1.53715040452732
H           -5.67231563428693       -3.08362059450969        0.30784108963271
H           -5.54898909154746       -2.10706724057611       -1.95168038518223
