      -----------------------------------------------------------      
     |                   =====================                   |     
     |                           x T B                           |     
     |                   =====================                   |     
     |                         S. Grimme                         |     
     |          Mulliken Center for Theoretical Chemistry        |     
     |                    University of Bonn                     |     
      -----------------------------------------------------------      

   * xtb version 6.7.1 (edcfbbe) compiled by 'albert@albert-system' on 2024-07-22

   xtb is free software: you can redistribute it and/or modify it under
   the terms of the GNU Lesser General Public License as published by
   the Free Software Foundation, either version 3 of the License, or
   (at your option) any later version.
   
   xtb is distributed in the hope that it will be useful,
   but WITHOUT ANY WARRANTY; without even the implied warranty of
   MERCHANTABILITY or FITNESS FOR A PARTICULAR PURPOSE.  See the
   GNU Lesser General Public License for more details.
   
   Cite this work as:
   * C. Bannwarth, E. Caldeweyher, S. Ehlert, A. Hansen, P. Pracht,
     J. Seibert, S. Spicher, S. Grimme, WIREs Comput. Mol. Sci., 2020, 11,
     e01493. DOI: 10.1002/wcms.1493
   
   for GFN2-xTB:
   * C. Bannwarth, S. Ehlert and S. Grimme., J. Chem. Theory Comput., 2019,
     15, 1652-1671. DOI: 10.1021/acs.jctc.8b01176
   for GFN1-xTB:
   * S. Grimme, C. Bannwarth, P. Shushkov, J. Chem. Theory Comput., 2017,
     13, 1989-2009. DOI: 10.1021/acs.jctc.7b00118
   for GFN0-xTB:
   * P. Pracht, E. Caldeweyher, S. Ehlert, S. Grimme, ChemRxiv, 2019, preprint.
     DOI: 10.26434/chemrxiv.8326202.v1
   for GFN-FF:
   * S. Spicher and S. Grimme, Angew. Chem. Int. Ed., 2020, 59, 15665-15673.
     DOI: 10.1002/anie.202004239
   
   for ALPB and GBSA implicit solvation:
   * S. Ehlert, M. Stahn, S. Spicher, S. Grimme, J. Chem. Theory Comput.,
     2021, 17, 4250-4261. DOI: 10.1021/acs.jctc.1c00471
   
   for ddCOSMO and CPCM-X implicit solvation:
   * M. Stahn, S. Ehlert, S. Grimme, J. Phys. Chem. A,
     2023, XX, XXXX-XXXX. DOI: 10.1021/acs.jpca.3c04382
   
   for DFT-D4:
   * E. Caldeweyher, C. Bannwarth and S. Grimme, J. Chem. Phys., 2017,
     147, 034112. DOI: 10.1063/1.4993215
   * E. Caldeweyher, S. Ehlert, A. Hansen, H. Neugebauer, S. Spicher,
     C. Bannwarth and S. Grimme, J. Chem. Phys., 2019, 150, 154122.
     DOI: 10.1063/1.5090222
   * E. Caldeweyher, J.-M. Mewes, S. Ehlert and S. Grimme, Phys. Chem. Chem. Phys.
     2020, 22, 8499-8512. DOI: 10.1039/D0CP00502A
   
   for sTDA-xTB:
   * S. Grimme and C. Bannwarth, J. Chem. Phys., 2016, 145, 054103.
     DOI: 10.1063/1.4959605
   
   in the mass-spec context:
   * V. Asgeirsson, C. Bauer and S. Grimme, Chem. Sci., 2017, 8, 4879.
     DOI: 10.1039/c7sc00601b
   * J. Koopman and S. Grimme, ACS Omega 2019, 4, 12, 15120-15133.
     DOI: 10.1021/acsomega.9b02011
   
   for metadynamics refer to:
   * S. Grimme, J. Chem. Theory Comput., 2019, 155, 2847-2862
     DOI: 10.1021/acs.jctc.9b00143
   
   for SPH calculations refer to:
   * S. Spicher and S. Grimme, J. Chem. Theory Comput., 2021, 17, 1701-1714
     DOI: 10.1021/acs.jctc.0c01306
   
   for ONIOM refer to:
   * C. Plett, A. Katbashev, S. Ehlert, S. Grimme, M. Bursch,
     Phys. Chem. Chem. Phys., 2023, 25, 17860-17868. DOI: 10.1039/D3CP02178E
   
   for DIPRO refer to:
   * J. Kohn, N. Gildemeister, S. Grimme, D. Fazzi, A. Hansen,
     J. Chem. Phys., 2023, just accepted.
   
   for PTB refer to:
   * S. Grimme, M. Mueller, A. Hansen, J. Chem. Phys., 2023, 158, 124111.
     DOI: 10.1063/5.0137838
   
   with help from (in alphabetical order)
   P. Atkinson, C. Bannwarth, F. Bohle, G. Brandenburg, E. Caldeweyher
   M. Checinski, S. Dohm, S. Ehlert, S. Ehrlich, I. Gerasimov, C. Hölzer
   A. Katbashev, J. Kohn, J. Koopman, C. Lavigne, S. Lehtola, F. März, M. Müller,
   F. Musil, H. Neugebauer, J. Pisarek, C. Plett, P. Pracht, F. Pultar,
   J. Seibert, P. Shushkov, S. Spicher, M. Stahn, M. Steiner, T. Strunk,
   J. Stückrath, T. Rose, and J. Unsleber
   
 * started run on 2025/08/22 at 08:36:53.024     
   ID    Z sym.   atoms
    1    6 C      1-6, 8-25
    2    5 B      7
    3    1 H      26-52

           -------------------------------------------------
          |                Calculation Setup                |
           -------------------------------------------------

          program call               : xtb data2507/toluene/N-B/N-B_toluene_S0_finalOpt.xtbopt.xyz --gfn 2 --uhf 2 --gbsa toluene --ohess vtight --parallel 40 --molden --ceasefiles --namespace data2507/toluene/N-B/N-B_toluene_T1_preOpt
          calculation namespace      : data2507/toluene/N-B/N-B_toluene_T1_preOpt
          coordinate file            : data2507/toluene/N-B/N-B_toluene_S0_finalOpt.xtbopt.xyz
          omp threads                :                    40


           -------------------------------------------------
          |                 G F N 2 - x T B                 |
           -------------------------------------------------

        Reference                      10.1021/acs.jctc.8b01176
      * Hamiltonian:
        H0-scaling (s, p, d)           1.850000    2.230000    2.230000
        zeta-weighting                 0.500000
      * Dispersion:
        s8                             2.700000
        a1                             0.520000
        a2                             5.000000
        s9                             5.000000
      * Repulsion:
        kExp                           1.500000    1.000000
        rExp                           1.000000
      * Coulomb:
        alpha                          2.000000
        third order                    shell-resolved
        anisotropic                    true
        a3                             3.000000
        a5                             4.000000
        cn-shift                       1.200000
        cn-exp                         4.000000
        max-rad                        5.000000

      * Solvation model:               GBSA
        Solvent                        toluene
        Parameter file                 internal GFN2-xTB/GBSA
        Dielectric constant                7.0000E+00
        Reference state                gsolv [1 M gas/solution]
        Free energy shift                  4.5239E-03 Eh       2.8388E+00 kcal/mol
        Temperature                        2.9815E+02 K
        Density                            8.6700E-01 kg/L
        Solvent mass                       9.2140E+01 g/mol
        Interaction kernel             Still
        Born radius scaling (c1)           1.5686E+00
        Born radii integrator          GBOBC
        Born offset                        0.0000E+00 a0       0.0000E+00 AA
        H-bond correction              false
        Ion screening                  false
        Surface tension                    1.0000E-05 Eh       1.5569E+01 dyn/cm
        Grid points                               230 per atom

          ...................................................
          :                      SETUP                      :
          :.................................................:
          :  # basis functions                 127          :
          :  # atomic orbitals                 127          :
          :  # shells                           77          :
          :  # electrons                       126          :
          :  max. iterations                   250          :
          :  Hamiltonian                  GFN2-xTB          :
          :  restarted?                      false          :
          :  GBSA solvation                   true          :
          :  PC potential                    false          :
          :  electronic temp.          300.0000000     K    :
          :  accuracy                    1.0000000          :
          :  -> integral cutoff          0.2500000E+02      :
          :  -> integral neglect         0.1000000E-07      :
          :  -> SCF convergence          0.1000000E-05 Eh   :
          :  -> wf. convergence          0.1000000E-03 e    :
          :  Broyden damping             0.4000000          :
          :  net charge                          0          :
          :  unpaired electrons                  2          :
          ...................................................

 iter      E             dE          RMSdq      gap      omega  full diag
   1    -67.3635384 -0.673635E+02  0.420E+00    0.80       0.0  T
   2    -67.4472536 -0.837152E-01  0.288E+00    1.58       1.0  T
   3    -67.3505101  0.967435E-01  0.158E+00    0.61       1.0  T
   4    -67.4470118 -0.965017E-01  0.801E-01    1.46       1.0  T
   5    -67.5058824 -0.588706E-01  0.278E-01    0.95       1.0  T
   6    -67.5078340 -0.195163E-02  0.183E-01    1.01       1.0  T
   7    -67.5074228  0.411273E-03  0.160E-01    0.95       1.0  T
   8    -67.5086514 -0.122864E-02  0.443E-02    1.01       1.0  T
   9    -67.5087333 -0.818652E-04  0.213E-02    1.02       1.0  T
  10    -67.5087580 -0.247065E-04  0.848E-03    1.01       1.6  T
  11    -67.5087609 -0.289050E-05  0.348E-03    1.02       4.0  T
  12    -67.5087613 -0.443301E-06  0.944E-04    1.01      14.7  T
  13    -67.5087613 -0.660781E-08  0.268E-04    1.01      51.8  T

   *** convergence criteria satisfied after 13 iterations ***

         #    Occupation            Energy/Eh            Energy/eV
      -------------------------------------------------------------
         1        2.0000           -0.6374152             -17.3449
       ...           ...                  ...                  ...
        58        2.0000           -0.3858834             -10.5004
        59        2.0000           -0.3843053             -10.4575
        60        2.0000           -0.3814566             -10.3800
        61        2.0000           -0.3797899             -10.3346
        62        1.9062           -0.3686611             -10.0318
        63        1.0938           -0.3643512              -9.9145
        64        1.0000           -0.2493350              -6.7848 (HOMO)
        65                         -0.2120488              -5.7701 (LUMO)
        66                         -0.2087868              -5.6814
        67                         -0.2073981              -5.6436
        68                         -0.2070725              -5.6347
        69                         -0.2036713              -5.5422
       ...                                ...                  ...
       127                          0.6781019              18.4521
      -------------------------------------------------------------
                  HL-Gap            0.0372862 Eh            1.0146 eV
             Fermi-level           -0.2986095 Eh           -8.1256 eV
 
 transition dipole moment (au) for excitation:          63          64
     X       Y       Z   
  -0.9319  -0.0057   0.0807  total (au/Debye):    0.935   2.378
 dE (eV)             :    3.130
 oscillator strength :  0.94884E-01

 SCC (total)                   0 d,  0 h,  0 min,  0.112 sec
 SCC setup                      ...        0 min,  0.001 sec (  1.069%)
 Dispersion                     ...        0 min,  0.002 sec (  1.426%)
 classical contributions        ...        0 min,  0.000 sec (  0.219%)
 integral evaluation            ...        0 min,  0.004 sec (  3.751%)
 iterations                     ...        0 min,  0.086 sec ( 77.193%)
 molecular gradient             ...        0 min,  0.006 sec (  5.212%)
 printout                       ...        0 min,  0.012 sec ( 11.064%)

         :::::::::::::::::::::::::::::::::::::::::::::::::::::
         ::                     SUMMARY                     ::
         :::::::::::::::::::::::::::::::::::::::::::::::::::::
         :: total energy             -66.303173331566 Eh    ::
         :: total w/o Gsasa/hb       -66.278171436071 Eh    ::
         :: gradient norm              0.053303445731 Eh/a0 ::
         :: HOMO-LUMO gap              1.014609457447 eV    ::
         ::.................................................::
         :: SCC energy               -67.507286545810 Eh    ::
         :: -> isotropic ES            0.029555393151 Eh    ::
         :: -> anisotropic ES          0.012285950627 Eh    ::
         :: -> anisotropic XC          0.038996657516 Eh    ::
         :: -> dispersion             -0.060740105666 Eh    ::
         :: -> Gsolv                  -0.026301647165 Eh    ::
         ::    -> Gelec               -0.001299751670 Eh    ::
         ::    -> Gsasa               -0.029525775367 Eh    ::
         ::    -> Ghb                  0.000000000000 Eh    ::
         ::    -> Gshift               0.004523879872 Eh    ::
         :: repulsion energy           1.204113214244 Eh    ::
         :: add. restraining           0.000000000000 Eh    ::
         :: total charge              -0.000000000137 e     ::
         :::::::::::::::::::::::::::::::::::::::::::::::::::::

      ----------------------------------------------------------- 
     |                   =====================                   |
     |                        A N C O P T                        |
     |                   =====================                   |
     |               Approximate Normal Coordinate               |
     |                Rational Function Optimizer                |
      ----------------------------------------------------------- 

Optimization log is written to '/dev/null'
      ----------------------------------------------------------- 
     |                   =====================                   |
     |                        A N C O P T                        |
     |                   =====================                   |
     |               Approximate Normal Coordinate               |
     |                Rational Function Optimizer                |
      ----------------------------------------------------------- 

          ...................................................
          :                      SETUP                      :
          :.................................................:
          :   optimization level         verytight          :
          :   max. optcycles                  1040          :
          :   ANC micro-cycles                  20          :
          :   degrees of freedom               150          :
          :.................................................:
          :   RF solver                   davidson          :
          :   write xtbopt.log                true          :
          :   linear?                        false          :
          :   energy convergence         0.1000000E-06 Eh   :
          :   grad. convergence          0.2000000E-03 Eh/α :
          :   maxmium RF displ.          1.0000000          :
          :   Hlow (freq-cutoff)         0.1000000E-01      :
          :   Hmax (freq-cutoff)         5.0000000          :
          :   S6 in model hess.         20.0000000          :
          ...................................................

generating ANC from exact Hessian ...
Using Lindh-Hessian (1995)
 Shifting diagonal of input Hessian by   9.666106985372590E-003
 Lowest  eigenvalues of input Hessian
    0.000000    0.000000    0.000000    0.000000    0.000000    0.000000
    0.010000    0.010040    0.010116    0.010142    0.010359    0.010605
    0.011459    0.011545    0.013721    0.014278    0.014489    0.014520
 Highest eigenvalues
    1.946496    1.946714    1.973365    1.973590    1.979672    1.999588
 

........................................................................
.............................. CYCLE    1 ..............................
........................................................................

 iter      E             dE          RMSdq      gap      omega  full diag
   1    -67.5087613 -0.675088E+02  0.111E-04    1.01       0.0  T
   2    -67.5087613 -0.213163E-11  0.878E-05    1.01     157.9  T
   3    -67.5087613 -0.224119E-09  0.546E-05    1.01     253.9  T
     SCC iter.                  ...        0 min,  0.017 sec
     gradient                   ...        0 min,  0.005 sec
 * total energy  :   -66.3031733 Eh     change       -0.3968481E-08 Eh
   gradient norm :     0.0533034 Eh/α   predicted     0.0000000E+00 (-100.00%)
   displ. norm   :     0.1998571 α      lambda       -0.3685401E-02
   maximum displ.:     0.1051948 α      in ANC's #29, #6, #8, ...

........................................................................
.............................. CYCLE    2 ..............................
........................................................................

 iter      E             dE          RMSdq      gap      omega  full diag
   1    -67.5008451 -0.675008E+02  0.152E-01    0.99       0.0  T
   2    -67.5008570 -0.118992E-04  0.940E-02    0.98       1.0  T
   3    -67.5006711  0.185837E-03  0.590E-02    0.98       1.0  T
   4    -67.5008762 -0.205056E-03  0.112E-02    0.99       1.2  T
   5    -67.5008844 -0.817599E-05  0.603E-03    0.98       2.3  T
   6    -67.5008868 -0.244096E-05  0.179E-03    0.98       7.8  T
   7    -67.5008868 -0.405366E-07  0.100E-03    0.98      13.9  T
   8    -67.5008869 -0.200573E-07  0.709E-04    0.98      19.6  T
   9    -67.5008869 -0.332739E-07  0.130E-04    0.98     106.7  T
     SCC iter.                  ...        0 min,  0.034 sec
     gradient                   ...        0 min,  0.005 sec
 * total energy  :   -66.3057835 Eh     change       -0.2610133E-02 Eh
   gradient norm :     0.0225731 Eh/α   predicted    -0.1916805E-02 ( -26.56%)
   displ. norm   :     0.2645988 α      lambda       -0.1545018E-02
   maximum displ.:     0.1238373 α      in ANC's #29, #8, #6, ...

........................................................................
.............................. CYCLE    3 ..............................
........................................................................

 iter      E             dE          RMSdq      gap      omega  full diag
   1    -67.4979746 -0.674980E+02  0.119E-01    0.96       0.0  T
   2    -67.4979754 -0.834387E-06  0.719E-02    0.97       1.0  T
   3    -67.4978380  0.137358E-03  0.434E-02    0.95       1.0  T
   4    -67.4979817 -0.143641E-03  0.867E-03    0.96       1.6  T
   5    -67.4979878 -0.614505E-05  0.306E-03    0.96       4.5  T
   6    -67.4979882 -0.385729E-06  0.169E-03    0.96       8.2  T
   7    -67.4979883 -0.103244E-06  0.888E-04    0.96      15.6  T
   8    -67.4979884 -0.381259E-07  0.304E-04    0.96      45.7  T
     SCC iter.                  ...        0 min,  0.030 sec
     gradient                   ...        0 min,  0.005 sec
 * total energy  :   -66.3066566 Eh     change       -0.8731749E-03 Eh
   gradient norm :     0.0055520 Eh/α   predicted    -0.8265947E-03 (  -5.33%)
   displ. norm   :     0.1740157 α      lambda       -0.3028253E-03
   maximum displ.:     0.0880842 α      in ANC's #8, #6, #15, ...

........................................................................
.............................. CYCLE    4 ..............................
........................................................................

 iter      E             dE          RMSdq      gap      omega  full diag
   1    -67.4992602 -0.674993E+02  0.450E-02    0.96       0.0  T
   2    -67.4992599  0.306209E-06  0.266E-02    0.97       1.0  T
   3    -67.4992391  0.208080E-04  0.166E-02    0.96       1.0  T
   4    -67.4992609 -0.217674E-04  0.217E-03    0.96       6.4  T
   5    -67.4992612 -0.312583E-06  0.801E-04    0.96      17.3  T
   6    -67.4992612 -0.110042E-07  0.593E-04    0.96      23.4  T
     SCC iter.                  ...        0 min,  0.023 sec
     gradient                   ...        0 min,  0.005 sec
 * total energy  :   -66.3069181 Eh     change       -0.2615013E-03 Eh
   gradient norm :     0.0062901 Eh/α   predicted    -0.1560041E-03 ( -40.34%)
   displ. norm   :     0.4313507 α      lambda       -0.6465924E-03
   maximum displ.:     0.2156245 α      in ANC's #6, #8, #15, ...

........................................................................
.............................. CYCLE    5 ..............................
........................................................................

 iter      E             dE          RMSdq      gap      omega  full diag
   1    -67.5010733 -0.675011E+02  0.104E-01    0.98       0.0  T
   2    -67.5010729  0.379448E-06  0.612E-02    0.98       1.0  T
   3    -67.5009803  0.926349E-04  0.365E-02    0.96       1.0  T
   4    -67.5010765 -0.962187E-04  0.636E-03    0.98       2.2  T
   5    -67.5010795 -0.303064E-05  0.188E-03    0.98       7.4  T
   6    -67.5010796 -0.727823E-07  0.135E-03    0.98      10.3  T
   7    -67.5010797 -0.720582E-07  0.625E-04    0.98      22.2  T
   8    -67.5010797 -0.226411E-07  0.178E-04    0.98      77.9  T
     SCC iter.                  ...        0 min,  0.030 sec
     gradient                   ...        0 min,  0.005 sec
 * total energy  :   -66.3074111 Eh     change       -0.4929066E-03 Eh
   gradient norm :     0.0075659 Eh/α   predicted    -0.3834690E-03 ( -22.20%)
   displ. norm   :     0.4440206 α      lambda       -0.4671933E-03
   maximum displ.:     0.2322415 α      in ANC's #6, #8, #1, ...

........................................................................
.............................. CYCLE    6 ..............................
........................................................................

 iter      E             dE          RMSdq      gap      omega  full diag
   1    -67.5005157 -0.675005E+02  0.105E-01    1.00       0.0  T
   2    -67.5005167 -0.104389E-05  0.614E-02    1.00       1.0  T
   3    -67.5004907  0.259559E-04  0.197E-02    0.99       1.0  T
   4    -67.5005159 -0.251401E-04  0.585E-03    1.00       2.4  T
   5    -67.5005184 -0.253049E-05  0.156E-03    1.00       8.9  T
   6    -67.5005184 -0.349058E-07  0.105E-03    1.00      13.2  T
   7    -67.5005185 -0.369464E-07  0.517E-04    1.00      26.8  T
   8    -67.5005185 -0.154150E-07  0.148E-04    1.00      93.6  T
     SCC iter.                  ...        0 min,  0.030 sec
     gradient                   ...        0 min,  0.005 sec
 * total energy  :   -66.3077697 Eh     change       -0.3586930E-03 Eh
   gradient norm :     0.0088792 Eh/α   predicted    -0.2796644E-03 ( -22.03%)
   displ. norm   :     0.4126693 α      lambda       -0.4209766E-03
   maximum displ.:     0.2235065 α      in ANC's #6, #1, #4, ...

........................................................................
.............................. CYCLE    7 ..............................
........................................................................

 iter      E             dE          RMSdq      gap      omega  full diag
   1    -67.5003934 -0.675004E+02  0.949E-02    1.02       0.0  T
   2    -67.5003937 -0.355097E-06  0.560E-02    1.02       1.0  T
   3    -67.5003679  0.257997E-04  0.181E-02    1.02       1.0  T
   4    -67.5003942 -0.263118E-04  0.376E-03    1.02       3.7  T
   5    -67.5003952 -0.928255E-06  0.134E-03    1.02      10.4  T
   6    -67.5003952 -0.177504E-07  0.105E-03    1.02      13.3  T
   7    -67.5003952 -0.586952E-07  0.298E-04    1.02      46.6  T
   8    -67.5003952 -0.308472E-08  0.894E-05    1.02     155.2  T
     SCC iter.                  ...        0 min,  0.031 sec
     gradient                   ...        0 min,  0.005 sec
 * total energy  :   -66.3081090 Eh     change       -0.3392408E-03 Eh
   gradient norm :     0.0076416 Eh/α   predicted    -0.2463349E-03 ( -27.39%)
   displ. norm   :     0.4465653 α      lambda       -0.5103958E-03
   maximum displ.:     0.2369688 α      in ANC's #6, #1, #4, ...

........................................................................
.............................. CYCLE    8 ..............................
........................................................................

 iter      E             dE          RMSdq      gap      omega  full diag
   1    -67.5015215 -0.675015E+02  0.961E-02    1.04       0.0  T
   2    -67.5015195  0.204032E-05  0.575E-02    1.03       1.0  T
   3    -67.5014114  0.108091E-03  0.359E-02    1.06       1.0  T
   4    -67.5015253 -0.113864E-03  0.295E-03    1.04       4.7  T
   5    -67.5015257 -0.467605E-06  0.138E-03    1.04      10.1  T
   6    -67.5015257  0.185180E-07  0.117E-03    1.04      11.8  T
   7    -67.5015258 -0.797686E-07  0.355E-04    1.04      39.1  T
   8    -67.5015258 -0.500779E-08  0.165E-04    1.04      84.2  T
     SCC iter.                  ...        0 min,  0.031 sec
     gradient                   ...        0 min,  0.005 sec
 * total energy  :   -66.3085060 Eh     change       -0.3970345E-03 Eh
   gradient norm :     0.0053376 Eh/α   predicted    -0.3060920E-03 ( -22.91%)
   displ. norm   :     0.4693004 α      lambda       -0.4156993E-03
   maximum displ.:     0.2389793 α      in ANC's #1, #6, #4, ...

........................................................................
.............................. CYCLE    9 ..............................
........................................................................

 iter      E             dE          RMSdq      gap      omega  full diag
   1    -67.5005003 -0.675005E+02  0.888E-02    1.06       0.0  T
   2    -67.5004977  0.254232E-05  0.534E-02    1.05       1.0  T
   3    -67.5003791  0.118635E-03  0.381E-02    1.08       1.0  T
   4    -67.5005049 -0.125799E-03  0.271E-03    1.06       5.1  T
   5    -67.5005053 -0.401418E-06  0.137E-03    1.06      10.1  T
   6    -67.5005053 -0.562030E-07  0.747E-04    1.06      18.6  T
   7    -67.5005053  0.139924E-07  0.648E-04    1.06      21.4  T
     SCC iter.                  ...        0 min,  0.027 sec
     gradient                   ...        0 min,  0.005 sec
 * total energy  :   -66.3088208 Eh     change       -0.3147406E-03 Eh
   gradient norm :     0.0069011 Eh/α   predicted    -0.2536282E-03 ( -19.42%)
   displ. norm   :     0.3691696 α      lambda       -0.3569113E-03
   maximum displ.:     0.2146704 α      in ANC's #1, #4, #13, ...

........................................................................
.............................. CYCLE   10 ..............................
........................................................................

 iter      E             dE          RMSdq      gap      omega  full diag
   1    -67.5039376 -0.675039E+02  0.583E-02    1.07       0.0  T
   2    -67.5039366  0.100730E-05  0.349E-02    1.06       1.0  T
   3    -67.5038806  0.559574E-04  0.257E-02    1.08       1.0  T
   4    -67.5039402 -0.595253E-04  0.213E-03    1.07       6.5  T
   5    -67.5039403 -0.178018E-06  0.106E-03    1.07      13.1  T
   6    -67.5039403  0.460048E-08  0.754E-04    1.07      18.4  T
   7    -67.5039403 -0.125563E-07  0.522E-04    1.07      26.6  T
     SCC iter.                  ...        0 min,  0.027 sec
     gradient                   ...        0 min,  0.005 sec
 * total energy  :   -66.3090473 Eh     change       -0.2265270E-03 Eh
   gradient norm :     0.0071650 Eh/α   predicted    -0.2027788E-03 ( -10.48%)
   displ. norm   :     0.4495732 α      lambda       -0.2920752E-03
   maximum displ.:     0.2497273 α      in ANC's #1, #4, #6, ...

........................................................................
.............................. CYCLE   11 ..............................
........................................................................

 iter      E             dE          RMSdq      gap      omega  full diag
   1    -67.4988168 -0.674988E+02  0.730E-02    1.08       0.0  T
   2    -67.4988197 -0.290960E-05  0.429E-02    1.08       1.0  T
   3    -67.4988032  0.164607E-04  0.158E-02    1.08       1.0  T
   4    -67.4988186 -0.153988E-04  0.557E-03    1.08       2.5  T
   5    -67.4988210 -0.240450E-05  0.171E-03    1.08       8.1  T
   6    -67.4988211 -0.968234E-07  0.967E-04    1.08      14.3  T
   7    -67.4988211  0.168327E-07  0.857E-04    1.08      16.2  T
     SCC iter.                  ...        0 min,  0.027 sec
     gradient                   ...        0 min,  0.005 sec
 * total energy  :   -66.3091782 Eh     change       -0.1309013E-03 Eh
   gradient norm :     0.0082458 Eh/α   predicted    -0.1755595E-03 (  34.12%)
   displ. norm   :     0.1303893 α      lambda       -0.2225782E-03
   maximum displ.:     0.0748796 α      in ANC's #1, #8, #6, ...

........................................................................
.............................. CYCLE   12 ..............................
........................................................................

 iter      E             dE          RMSdq      gap      omega  full diag
   1    -67.5027432 -0.675027E+02  0.296E-02    1.07       0.0  T
   2    -67.5027444 -0.114629E-05  0.174E-02    1.08       1.0  T
   3    -67.5027405  0.387864E-05  0.822E-03    1.07       1.7  T
   4    -67.5027442 -0.374941E-05  0.272E-03    1.08       5.1  T
   5    -67.5027448 -0.516011E-06  0.118E-03    1.07      11.7  T
   6    -67.5027448 -0.824272E-07  0.481E-04    1.07      28.8  T
   7    -67.5027448  0.764301E-08  0.455E-04    1.07      30.5  T
     SCC iter.                  ...        0 min,  0.027 sec
     gradient                   ...        0 min,  0.005 sec
 * total energy  :   -66.3093381 Eh     change       -0.1598835E-03 Eh
   gradient norm :     0.0030117 Eh/α   predicted    -0.1131814E-03 ( -29.21%)
   displ. norm   :     0.2369567 α      lambda       -0.1646244E-03
   maximum displ.:     0.1538007 α      in ANC's #1, #15, #8, ...

........................................................................
.............................. CYCLE   13 ..............................
........................................................................

 iter      E             dE          RMSdq      gap      omega  full diag
   1    -67.5048097 -0.675048E+02  0.411E-02    1.07       0.0  T
   2    -67.5048100 -0.272875E-06  0.245E-02    1.08       1.0  T
   3    -67.5047919  0.180778E-04  0.166E-02    1.07       1.0  T
   4    -67.5048109 -0.190429E-04  0.301E-03    1.07       4.6  T
   5    -67.5048117 -0.732237E-06  0.876E-04    1.07      15.8  T
   6    -67.5048117 -0.311708E-07  0.488E-04    1.07      28.4  T
     SCC iter.                  ...        0 min,  0.023 sec
     gradient                   ...        0 min,  0.005 sec
 * total energy  :   -66.3094620 Eh     change       -0.1239303E-03 Eh
   gradient norm :     0.0033748 Eh/α   predicted    -0.8693462E-04 ( -29.85%)
   displ. norm   :     0.2877333 α      lambda       -0.1459406E-03
   maximum displ.:     0.1923399 α      in ANC's #1, #4, #15, ...

........................................................................
.............................. CYCLE   14 ..............................
........................................................................

 iter      E             dE          RMSdq      gap      omega  full diag
   1    -67.5051645 -0.675052E+02  0.516E-02    1.07       0.0  T
   2    -67.5051649 -0.374706E-06  0.305E-02    1.08       1.0  T
   3    -67.5051452  0.196569E-04  0.169E-02    1.07       1.0  T
   4    -67.5051653 -0.200755E-04  0.369E-03    1.08       3.8  T
   5    -67.5051663 -0.106473E-05  0.108E-03    1.07      12.8  T
   6    -67.5051664 -0.405908E-07  0.714E-04    1.07      19.4  T
   7    -67.5051664 -0.230940E-07  0.287E-04    1.08      48.4  T
     SCC iter.                  ...        0 min,  0.027 sec
     gradient                   ...        0 min,  0.005 sec
 * total energy  :   -66.3095770 Eh     change       -0.1149768E-03 Eh
   gradient norm :     0.0044427 Eh/α   predicted    -0.7901228E-04 ( -31.28%)
   displ. norm   :     0.3727850 α      lambda       -0.1758085E-03
   maximum displ.:     0.2535180 α      in ANC's #1, #4, #15, ...

........................................................................
.............................. CYCLE   15 ..............................
........................................................................

 iter      E             dE          RMSdq      gap      omega  full diag
   1    -67.5040542 -0.675041E+02  0.731E-02    1.08       0.0  T
   2    -67.5040555 -0.125739E-05  0.431E-02    1.08       1.0  T
   3    -67.5040365  0.189171E-04  0.165E-02    1.07       1.0  T
   4    -67.5040551 -0.185496E-04  0.468E-03    1.08       3.0  T
   5    -67.5040568 -0.171964E-05  0.152E-03    1.08       9.1  T
   6    -67.5040569 -0.856631E-07  0.908E-04    1.08      15.3  T
   7    -67.5040569 -0.353813E-07  0.437E-04    1.08      31.8  T
     SCC iter.                  ...        0 min,  0.027 sec
     gradient                   ...        0 min,  0.005 sec
 * total energy  :   -66.3096970 Eh     change       -0.1199959E-03 Eh
   gradient norm :     0.0055837 Eh/α   predicted    -0.1001224E-03 ( -16.56%)
   displ. norm   :     0.3963226 α      lambda       -0.2124282E-03
   maximum displ.:     0.2710789 α      in ANC's #1, #4, #6, ...

........................................................................
.............................. CYCLE   16 ..............................
........................................................................

 iter      E             dE          RMSdq      gap      omega  full diag
   1    -67.5022243 -0.675022E+02  0.854E-02    1.08       0.0  T
   2    -67.5022262 -0.193051E-05  0.502E-02    1.08       1.0  T
   3    -67.5022213  0.495766E-05  0.920E-03    1.08       1.5  T
   4    -67.5022265 -0.521580E-05  0.264E-03    1.08       5.3  T
   5    -67.5022268 -0.350688E-06  0.161E-03    1.08       8.6  T
   6    -67.5022270 -0.152196E-06  0.720E-04    1.08      19.3  T
   7    -67.5022270  0.113747E-07  0.586E-04    1.08      23.7  T
     SCC iter.                  ...        0 min,  0.027 sec
     gradient                   ...        0 min,  0.005 sec
 * total energy  :   -66.3098282 Eh     change       -0.1312491E-03 Eh
   gradient norm :     0.0060509 Eh/α   predicted    -0.1229000E-03 (  -6.36%)
   displ. norm   :     0.2576969 α      lambda       -0.1781991E-03
   maximum displ.:     0.1668757 α      in ANC's #1, #6, #4, ...

........................................................................
.............................. CYCLE   17 ..............................
........................................................................

 iter      E             dE          RMSdq      gap      omega  full diag
   1    -67.5027685 -0.675028E+02  0.615E-02    1.08       0.0  T
   2    -67.5027688 -0.236898E-06  0.362E-02    1.08       1.0  T
   3    -67.5027591  0.961669E-05  0.111E-02    1.09       1.3  T
   4    -67.5027692 -0.100144E-04  0.185E-03    1.08       7.5  T
   5    -67.5027694 -0.208828E-06  0.864E-04    1.08      16.1  T
   6    -67.5027694 -0.261516E-07  0.520E-04    1.08      26.6  T
     SCC iter.                  ...        0 min,  0.023 sec
     gradient                   ...        0 min,  0.005 sec
 * total energy  :   -66.3099757 Eh     change       -0.1475198E-03 Eh
   gradient norm :     0.0051530 Eh/α   predicted    -0.9501727E-04 ( -35.59%)
   displ. norm   :     0.4236943 α      lambda       -0.2828386E-03
   maximum displ.:     0.2659382 α      in ANC's #1, #4, #6, ...

........................................................................
.............................. CYCLE   18 ..............................
........................................................................

 iter      E             dE          RMSdq      gap      omega  full diag
   1    -67.5021061 -0.675021E+02  0.942E-02    1.08       0.0  T
   2    -67.5021070 -0.889781E-06  0.553E-02    1.08       1.0  T
   3    -67.5020874  0.195591E-04  0.160E-02    1.09       1.0  T
   4    -67.5021070 -0.196347E-04  0.398E-03    1.08       3.5  T
   5    -67.5021081 -0.102002E-05  0.171E-03    1.08       8.1  T
   6    -67.5021082 -0.144195E-06  0.819E-04    1.08      16.9  T
   7    -67.5021082 -0.116870E-07  0.564E-04    1.08      24.6  T
     SCC iter.                  ...        0 min,  0.027 sec
     gradient                   ...        0 min,  0.005 sec
 * total energy  :   -66.3101800 Eh     change       -0.2042920E-03 Eh
   gradient norm :     0.0057434 Eh/α   predicted    -0.1668118E-03 ( -18.35%)
   displ. norm   :     0.3250936 α      lambda       -0.2461443E-03
   maximum displ.:     0.1892815 α      in ANC's #6, #1, #8, ...

........................................................................
.............................. CYCLE   19 ..............................
........................................................................

 iter      E             dE          RMSdq      gap      omega  full diag
   1    -67.5055944 -0.675056E+02  0.793E-02    1.08       0.0  T
   2    -67.5055957 -0.128001E-05  0.463E-02    1.08       1.0  T
   3    -67.5055886  0.712393E-05  0.108E-02    1.08       1.3  T
   4    -67.5055949 -0.633343E-05  0.440E-03    1.08       3.1  T
   5    -67.5055963 -0.138751E-05  0.153E-03    1.08       9.0  T
   6    -67.5055964 -0.108846E-06  0.666E-04    1.08      20.8  T
   7    -67.5055964  0.884577E-08  0.530E-04    1.08      26.1  T
     SCC iter.                  ...        0 min,  0.027 sec
     gradient                   ...        0 min,  0.005 sec
 * total energy  :   -66.3103111 Eh     change       -0.1311032E-03 Eh
   gradient norm :     0.0058847 Eh/α   predicted    -0.1360811E-03 (   3.80%)
   displ. norm   :     0.4597047 α      lambda       -0.1740685E-03
   maximum displ.:     0.3039168 α      in ANC's #1, #4, #6, ...

........................................................................
.............................. CYCLE   20 ..............................
........................................................................

 iter      E             dE          RMSdq      gap      omega  full diag
   1    -67.5010573 -0.675011E+02  0.973E-02    1.08       0.0  T
   2    -67.5010579 -0.577445E-06  0.572E-02    1.08       1.0  T
   3    -67.5010143  0.435777E-04  0.222E-02    1.07       1.0  T
   4    -67.5010594 -0.450211E-04  0.373E-03    1.08       3.7  T
   5    -67.5010601 -0.717711E-06  0.199E-03    1.08       7.0  T
   6    -67.5010603 -0.219426E-06  0.102E-03    1.08      13.6  T
   7    -67.5010604 -0.441126E-07  0.427E-04    1.08      32.5  T
   8    -67.5010604 -0.541039E-08  0.118E-04    1.08     117.2  T
     SCC iter.                  ...        0 min,  0.031 sec
     gradient                   ...        0 min,  0.005 sec
 * total energy  :   -66.3104181 Eh     change       -0.1069949E-03 Eh
   gradient norm :     0.0055997 Eh/α   predicted    -0.1054280E-03 (  -1.46%)
   displ. norm   :     0.2162059 α      lambda       -0.9216683E-04
   maximum displ.:     0.1291201 α      in ANC's #1, #6, #4, ...
 * RMSD in coord.:     0.7250052 α      energy gain  -0.7244803E-02 Eh

generating ANC from exact Hessian ...
Using Lindh-Hessian (1995)
 Shifting diagonal of input Hessian by   9.658395481423122E-003
 Lowest  eigenvalues of input Hessian
    0.000000    0.000000    0.000000    0.000000    0.000000    0.000000
    0.010000    0.010055    0.010118    0.010173    0.010476    0.010817
    0.011511    0.011664    0.014041    0.014355    0.014442    0.014519
 Highest eigenvalues
    1.923169    1.924523    1.952631    1.966197    1.972053    1.994219
 

........................................................................
.............................. CYCLE   21 ..............................
........................................................................

 iter      E             dE          RMSdq      gap      omega  full diag
   1    -67.5021169 -0.675021E+02  0.496E-02    1.08       0.0  T
   2    -67.5021158  0.109757E-05  0.301E-02    1.08       1.0  T
   3    -67.5020711  0.446598E-04  0.250E-02    1.07       1.0  T
   4    -67.5021196 -0.484448E-04  0.346E-03    1.08       4.0  T
   5    -67.5021205 -0.965015E-06  0.100E-03    1.08      13.8  T
   6    -67.5021206 -0.555905E-07  0.523E-04    1.08      26.5  T
   7    -67.5021206 -0.127184E-07  0.249E-04    1.08      55.6  T
     SCC iter.                  ...        0 min,  0.029 sec
     gradient                   ...        0 min,  0.005 sec
 * total energy  :   -66.3104916 Eh     change       -0.7351315E-04 Eh
   gradient norm :     0.0043305 Eh/α   predicted     0.0000000E+00 (-100.00%)
   displ. norm   :     0.0356054 α      lambda       -0.4853590E-04
   maximum displ.:     0.0155797 α      in ANC's #13, #6, #11, ...

........................................................................
.............................. CYCLE   22 ..............................
........................................................................

 iter      E             dE          RMSdq      gap      omega  full diag
   1    -67.5045250 -0.675045E+02  0.136E-02    1.08       0.0  T
   2    -67.5045252 -0.256188E-06  0.869E-03    1.08       1.6  T
   3    -67.5045239  0.135432E-05  0.651E-03    1.08       2.1  T
   4    -67.5045258 -0.193290E-05  0.193E-03    1.08       7.2  T
   5    -67.5045261 -0.293922E-06  0.619E-04    1.08      22.4  T
   6    -67.5045261 -0.288700E-07  0.207E-04    1.08      67.0  T
     SCC iter.                  ...        0 min,  0.024 sec
     gradient                   ...        0 min,  0.005 sec
 * total energy  :   -66.3105268 Eh     change       -0.3517472E-04 Eh
   gradient norm :     0.0018012 Eh/α   predicted    -0.2485430E-04 ( -29.34%)
   displ. norm   :     0.0824494 α      lambda       -0.2722280E-04
   maximum displ.:     0.0402732 α      in ANC's #6, #13, #4, ...

........................................................................
.............................. CYCLE   23 ..............................
........................................................................

 iter      E             dE          RMSdq      gap      omega  full diag
   1    -67.5065670 -0.675066E+02  0.262E-02    1.07       0.0  T
   2    -67.5065664  0.584380E-06  0.166E-02    1.08       1.0  T
   3    -67.5065576  0.883780E-05  0.144E-02    1.07       1.0  T
   4    -67.5065695 -0.119268E-04  0.318E-03    1.08       4.4  T
   5    -67.5065704 -0.872229E-06  0.709E-04    1.08      19.6  T
   6    -67.5065704 -0.335061E-07  0.299E-04    1.08      46.4  T
     SCC iter.                  ...        0 min,  0.026 sec
     gradient                   ...        0 min,  0.005 sec
 * total energy  :   -66.3105475 Eh     change       -0.2066725E-04 Eh
   gradient norm :     0.0017321 Eh/α   predicted    -0.1365329E-04 ( -33.94%)
   displ. norm   :     0.0433146 α      lambda       -0.8961639E-05
   maximum displ.:     0.0261543 α      in ANC's #6, #4, #13, ...

........................................................................
.............................. CYCLE   24 ..............................
........................................................................

 iter      E             dE          RMSdq      gap      omega  full diag
   1    -67.5057836 -0.675058E+02  0.123E-02    1.07       0.0  T
   2    -67.5057834  0.195992E-06  0.743E-03    1.08       1.9  T
   3    -67.5057796  0.376726E-05  0.721E-03    1.07       1.9  T
   4    -67.5057839 -0.422516E-05  0.596E-04    1.08      23.3  T
   5    -67.5057839 -0.199086E-07  0.317E-04    1.08      43.8  T
   6    -67.5057839 -0.562638E-08  0.159E-04    1.08      87.4  T
     SCC iter.                  ...        0 min,  0.024 sec
     gradient                   ...        0 min,  0.005 sec
 * total energy  :   -66.3105585 Eh     change       -0.1097934E-04 Eh
   gradient norm :     0.0010138 Eh/α   predicted    -0.4531743E-05 ( -58.72%)
   displ. norm   :     0.0736850 α      lambda       -0.1068939E-04
   maximum displ.:     0.0458478 α      in ANC's #4, #6, #13, ...

........................................................................
.............................. CYCLE   25 ..............................
........................................................................

 iter      E             dE          RMSdq      gap      omega  full diag
   1    -67.5048103 -0.675048E+02  0.199E-02    1.07       0.0  T
   2    -67.5048101  0.204521E-06  0.119E-02    1.08       1.2  T
   3    -67.5048025  0.760237E-05  0.957E-03    1.07       1.4  T
   4    -67.5048106 -0.809645E-05  0.812E-04    1.07      17.1  T
   5    -67.5048106 -0.278281E-07  0.500E-04    1.07      27.7  T
   6    -67.5048107 -0.161256E-07  0.207E-04    1.07      66.9  T
     SCC iter.                  ...        0 min,  0.025 sec
     gradient                   ...        0 min,  0.005 sec
 * total energy  :   -66.3105705 Eh     change       -0.1201909E-04 Eh
   gradient norm :     0.0006625 Eh/α   predicted    -0.5358653E-05 ( -55.42%)
   displ. norm   :     0.0796701 α      lambda       -0.7800797E-05
   maximum displ.:     0.0512665 α      in ANC's #4, #6, #23, ...

........................................................................
.............................. CYCLE   26 ..............................
........................................................................

 iter      E             dE          RMSdq      gap      omega  full diag
   1    -67.5043820 -0.675044E+02  0.211E-02    1.07       0.0  T
   2    -67.5043819  0.114612E-06  0.125E-02    1.07       1.1  T
   3    -67.5043761  0.577958E-05  0.835E-03    1.07       1.7  T
   4    -67.5043821 -0.603205E-05  0.100E-03    1.07      13.9  T
   5    -67.5043822 -0.664475E-07  0.374E-04    1.07      37.1  T
   6    -67.5043822 -0.735470E-08  0.197E-04    1.07      70.5  T
     SCC iter.                  ...        0 min,  0.025 sec
     gradient                   ...        0 min,  0.005 sec
 * total energy  :   -66.3105801 Eh     change       -0.9630322E-05 Eh
   gradient norm :     0.0010606 Eh/α   predicted    -0.3917541E-05 ( -59.32%)
   displ. norm   :     0.1126921 α      lambda       -0.1005963E-04
   maximum displ.:     0.0722797 α      in ANC's #4, #6, #23, ...

........................................................................
.............................. CYCLE   27 ..............................
........................................................................

 iter      E             dE          RMSdq      gap      omega  full diag
   1    -67.5042600 -0.675043E+02  0.298E-02    1.07       0.0  T
   2    -67.5042598  0.215719E-06  0.178E-02    1.07       1.0  T
   3    -67.5042483  0.114845E-04  0.119E-02    1.07       1.2  T
   4    -67.5042602 -0.118525E-04  0.171E-03    1.07       8.1  T
   5    -67.5042604 -0.212333E-06  0.454E-04    1.07      30.5  T
   6    -67.5042604 -0.981338E-08  0.263E-04    1.07      52.8  T
     SCC iter.                  ...        0 min,  0.024 sec
     gradient                   ...        0 min,  0.005 sec
 * total energy  :   -66.3105920 Eh     change       -0.1190005E-04 Eh
   gradient norm :     0.0012469 Eh/α   predicted    -0.5059828E-05 ( -57.48%)
   displ. norm   :     0.1127297 α      lambda       -0.8843052E-05
   maximum displ.:     0.0750398 α      in ANC's #4, #6, #11, ...

........................................................................
.............................. CYCLE   28 ..............................
........................................................................

 iter      E             dE          RMSdq      gap      omega  full diag
   1    -67.5045191 -0.675045E+02  0.293E-02    1.07       0.0  T
   2    -67.5045190  0.127924E-06  0.176E-02    1.07       1.0  T
   3    -67.5045088  0.101698E-04  0.114E-02    1.07       1.2  T
   4    -67.5045192 -0.104076E-04  0.211E-03    1.07       6.6  T
   5    -67.5045196 -0.337436E-06  0.518E-04    1.07      26.8  T
   6    -67.5045196 -0.147606E-07  0.271E-04    1.07      51.1  T
     SCC iter.                  ...        0 min,  0.025 sec
     gradient                   ...        0 min,  0.005 sec
 * total energy  :   -66.3106019 Eh     change       -0.9861187E-05 Eh
   gradient norm :     0.0009752 Eh/α   predicted    -0.4450931E-05 ( -54.86%)
   displ. norm   :     0.0770252 α      lambda       -0.5319052E-05
   maximum displ.:     0.0554294 α      in ANC's #4, #6, #11, ...

........................................................................
.............................. CYCLE   29 ..............................
........................................................................

 iter      E             dE          RMSdq      gap      omega  full diag
   1    -67.5049906 -0.675050E+02  0.194E-02    1.07       0.0  T
   2    -67.5049905  0.875735E-07  0.117E-02    1.07       1.2  T
   3    -67.5049840  0.653185E-05  0.933E-03    1.07       1.5  T
   4    -67.5049906 -0.661281E-05  0.205E-03    1.07       6.8  T
   5    -67.5049909 -0.321142E-06  0.402E-04    1.07      34.5  T
   6    -67.5049909 -0.953459E-08  0.202E-04    1.07      68.5  T
     SCC iter.                  ...        0 min,  0.024 sec
     gradient                   ...        0 min,  0.005 sec
 * total energy  :   -66.3106077 Eh     change       -0.5804547E-05 Eh
   gradient norm :     0.0004219 Eh/α   predicted    -0.2667876E-05 ( -54.04%)
   displ. norm   :     0.0507271 α      lambda       -0.2980477E-05
   maximum displ.:     0.0391859 α      in ANC's #4, #11, #18, ...

........................................................................
.............................. CYCLE   30 ..............................
........................................................................

 iter      E             dE          RMSdq      gap      omega  full diag
   1    -67.5053480 -0.675053E+02  0.117E-02    1.07       0.0  T
   2    -67.5053480 -0.416595E-07  0.707E-03    1.07       2.0  T
   3    -67.5053468  0.123637E-05  0.436E-03    1.07       3.2  T
   4    -67.5053480 -0.119701E-05  0.137E-03    1.07      10.1  T
   5    -67.5053481 -0.151574E-06  0.288E-04    1.07      48.1  T
   6    -67.5053481 -0.489349E-08  0.131E-04    1.07     105.5  T
     SCC iter.                  ...        0 min,  0.024 sec
     gradient                   ...        0 min,  0.005 sec
 * total energy  :   -66.3106110 Eh     change       -0.3341087E-05 Eh
   gradient norm :     0.0002629 Eh/α   predicted    -0.1496539E-05 ( -55.21%)
   displ. norm   :     0.0416787 α      lambda       -0.2237276E-05
   maximum displ.:     0.0321102 α      in ANC's #4, #11, #18, ...

........................................................................
.............................. CYCLE   31 ..............................
........................................................................

 iter      E             dE          RMSdq      gap      omega  full diag
   1    -67.5054814 -0.675055E+02  0.876E-03    1.07       0.0  T
   2    -67.5054813  0.426791E-07  0.531E-03    1.07       2.6  T
   3    -67.5054793  0.201997E-05  0.519E-03    1.07       2.7  T
   4    -67.5054814 -0.206947E-05  0.102E-03    1.07      13.6  T
   5    -67.5054815 -0.747868E-07  0.137E-04    1.07     100.9  T
   6    -67.5054815 -0.551111E-09  0.876E-05    1.07     158.3  T
     SCC iter.                  ...        0 min,  0.025 sec
     gradient                   ...        0 min,  0.005 sec
 * total energy  :   -66.3106138 Eh     change       -0.2766425E-05 Eh
   gradient norm :     0.0004136 Eh/α   predicted    -0.1123877E-05 ( -59.37%)
   displ. norm   :     0.0435421 α      lambda       -0.2293769E-05
   maximum displ.:     0.0326923 α      in ANC's #4, #6, #13, ...

........................................................................
.............................. CYCLE   32 ..............................
........................................................................

 iter      E             dE          RMSdq      gap      omega  full diag
   1    -67.5054167 -0.675054E+02  0.797E-03    1.07       0.0  T
   2    -67.5054166  0.160135E-07  0.479E-03    1.07       2.9  T
   3    -67.5054154  0.125366E-05  0.405E-03    1.07       3.4  T
   4    -67.5054166 -0.126437E-05  0.880E-04    1.07      15.8  T
   5    -67.5054167 -0.563151E-07  0.111E-04    1.07     125.3  T
   6    -67.5054167 -0.192927E-09  0.656E-05    1.07     211.5  T
     SCC iter.                  ...        0 min,  0.025 sec
     gradient                   ...        0 min,  0.005 sec
 * total energy  :   -66.3106169 Eh     change       -0.3072948E-05 Eh
   gradient norm :     0.0004107 Eh/α   predicted    -0.1151242E-05 ( -62.54%)
   displ. norm   :     0.0534144 α      lambda       -0.2826454E-05
   maximum displ.:     0.0384441 α      in ANC's #4, #6, #13, ...

........................................................................
.............................. CYCLE   33 ..............................
........................................................................

 iter      E             dE          RMSdq      gap      omega  full diag
   1    -67.5052564 -0.675053E+02  0.879E-03    1.08       0.0  T
   2    -67.5052563  0.543048E-07  0.532E-03    1.08       2.6  T
   3    -67.5052541  0.217862E-05  0.522E-03    1.08       2.7  T
   4    -67.5052564 -0.225931E-05  0.621E-04    1.08      22.3  T
   5    -67.5052564 -0.233355E-07  0.143E-04    1.08      97.3  T
   6    -67.5052564 -0.175220E-09  0.978E-05    1.08     141.8  T
     SCC iter.                  ...        0 min,  0.024 sec
     gradient                   ...        0 min,  0.005 sec
 * total energy  :   -66.3106204 Eh     change       -0.3578146E-05 Eh
   gradient norm :     0.0003758 Eh/α   predicted    -0.1415485E-05 ( -60.44%)
   displ. norm   :     0.0723636 α      lambda       -0.3411683E-05
   maximum displ.:     0.0503861 α      in ANC's #4, #6, #1, ...

........................................................................
.............................. CYCLE   34 ..............................
........................................................................

 iter      E             dE          RMSdq      gap      omega  full diag
   1    -67.5050372 -0.675050E+02  0.123E-02    1.08       0.0  T
   2    -67.5050371  0.109199E-06  0.746E-03    1.08       1.9  T
   3    -67.5050328  0.428980E-05  0.729E-03    1.08       1.9  T
   4    -67.5050373 -0.444350E-05  0.931E-04    1.08      14.9  T
   5    -67.5050373 -0.559507E-07  0.224E-04    1.08      61.9  T
   6    -67.5050373 -0.147909E-08  0.137E-04    1.08     101.4  T
     SCC iter.                  ...        0 min,  0.025 sec
     gradient                   ...        0 min,  0.005 sec
 * total energy  :   -66.3106232 Eh     change       -0.2782433E-05 Eh
   gradient norm :     0.0004377 Eh/α   predicted    -0.1710610E-05 ( -38.52%)
   displ. norm   :     0.0355261 α      lambda       -0.1273004E-05
   maximum displ.:     0.0251667 α      in ANC's #4, #6, #17, ...

........................................................................
.............................. CYCLE   35 ..............................
........................................................................

 iter      E             dE          RMSdq      gap      omega  full diag
   1    -67.5050535 -0.675051E+02  0.608E-03    1.08       0.0  T
   2    -67.5050535  0.451314E-07  0.370E-03    1.08       3.7  T
   3    -67.5050521  0.136616E-05  0.414E-03    1.08       3.3  T
   4    -67.5050536 -0.143105E-05  0.337E-04    1.08      41.1  T
   5    -67.5050536 -0.677645E-08  0.112E-04    1.08     123.8  T
   6    -67.5050536 -0.475808E-09  0.635E-05    1.08     218.5  T
     SCC iter.                  ...        0 min,  0.024 sec
     gradient                   ...        0 min,  0.005 sec
 * total energy  :   -66.3106246 Eh     change       -0.1348376E-05 Eh
   gradient norm :     0.0003135 Eh/α   predicted    -0.6388600E-06 ( -52.62%)
   displ. norm   :     0.0282762 α      lambda       -0.9479563E-06
   maximum displ.:     0.0200707 α      in ANC's #4, #17, #6, ...

........................................................................
.............................. CYCLE   36 ..............................
........................................................................

 iter      E             dE          RMSdq      gap      omega  full diag
   1    -67.5051064 -0.675051E+02  0.490E-03    1.08       0.0  T
   2    -67.5051064  0.373755E-08  0.292E-03    1.08       4.8  T
   3    -67.5051062  0.263714E-06  0.180E-03    1.08       7.7  T
   4    -67.5051064 -0.270024E-06  0.247E-04    1.08      56.1  T
   5    -67.5051064 -0.366482E-08  0.732E-05    1.08     189.5  T
     SCC iter.                  ...        0 min,  0.020 sec
     gradient                   ...        0 min,  0.005 sec
 * total energy  :   -66.3106257 Eh     change       -0.1125075E-05 Eh
   gradient norm :     0.0001920 Eh/α   predicted    -0.4776116E-06 ( -57.55%)
   displ. norm   :     0.0343822 α      lambda       -0.1097619E-05
   maximum displ.:     0.0237235 α      in ANC's #4, #17, #1, ...

........................................................................
.............................. CYCLE   37 ..............................
........................................................................

 iter      E             dE          RMSdq      gap      omega  full diag
   1    -67.5051268 -0.675051E+02  0.583E-03    1.08       0.0  T
   2    -67.5051268 -0.225742E-08  0.347E-03    1.08       4.0  T
   3    -67.5051266  0.180103E-06  0.158E-03    1.08       8.8  T
   4    -67.5051268 -0.175421E-06  0.438E-04    1.08      31.6  T
   5    -67.5051268 -0.145763E-07  0.993E-05    1.08     139.7  T
     SCC iter.                  ...        0 min,  0.020 sec
     gradient                   ...        0 min,  0.005 sec
 * total energy  :   -66.3106271 Eh     change       -0.1352913E-05 Eh
   gradient norm :     0.0003313 Eh/α   predicted    -0.5536023E-06 ( -59.08%)
   displ. norm   :     0.0529379 α      lambda       -0.1577617E-05
   maximum displ.:     0.0352276 α      in ANC's #4, #17, #18, ...

........................................................................
.............................. CYCLE   38 ..............................
........................................................................

 iter      E             dE          RMSdq      gap      omega  full diag
   1    -67.5050889 -0.675051E+02  0.910E-03    1.08       0.0  T
   2    -67.5050889  0.107476E-07  0.544E-03    1.08       2.5  T
   3    -67.5050880  0.878870E-06  0.337E-03    1.08       4.1  T
   4    -67.5050889 -0.925662E-06  0.393E-04    1.08      35.3  T
   5    -67.5050889 -0.109005E-07  0.138E-04    1.08     100.3  T
     SCC iter.                  ...        0 min,  0.020 sec
     gradient                   ...        0 min,  0.005 sec
 * total energy  :   -66.3106289 Eh     change       -0.1826073E-05 Eh
   gradient norm :     0.0004577 Eh/α   predicted    -0.7905334E-06 ( -56.71%)
   displ. norm   :     0.0781137 α      lambda       -0.1792667E-05
   maximum displ.:     0.0519632 α      in ANC's #4, #17, #18, ...

........................................................................
.............................. CYCLE   39 ..............................
........................................................................

 iter      E             dE          RMSdq      gap      omega  full diag
   1    -67.5049618 -0.675050E+02  0.139E-02    1.08       0.0  T
   2    -67.5049617  0.662201E-07  0.835E-03    1.09       1.7  T
   3    -67.5049584  0.330885E-05  0.654E-03    1.08       2.1  T
   4    -67.5049619 -0.343820E-05  0.107E-03    1.08      12.9  T
   5    -67.5049619 -0.809038E-07  0.333E-04    1.08      41.7  T
   6    -67.5049619 -0.598230E-08  0.171E-04    1.08      81.1  T
     SCC iter.                  ...        0 min,  0.029 sec
     gradient                   ...        0 min,  0.005 sec
 * total energy  :   -66.3106306 Eh     change       -0.1684428E-05 Eh
   gradient norm :     0.0004885 Eh/α   predicted    -0.9014248E-06 ( -46.48%)
   displ. norm   :     0.0311830 α      lambda       -0.7307873E-06
   maximum displ.:     0.0205632 α      in ANC's #4, #17, #18, ...

........................................................................
.............................. CYCLE   40 ..............................
........................................................................

 iter      E             dE          RMSdq      gap      omega  full diag
   1    -67.5049959 -0.675050E+02  0.639E-03    1.08       0.0  T
   2    -67.5049959  0.113317E-07  0.383E-03    1.09       3.6  T
   3    -67.5049952  0.658530E-06  0.292E-03    1.08       4.7  T
   4    -67.5049959 -0.678285E-06  0.519E-04    1.08      26.7  T
   5    -67.5049959 -0.192865E-07  0.150E-04    1.08      92.6  T
     SCC iter.                  ...        0 min,  0.020 sec
     gradient                   ...        0 min,  0.005 sec
 * total energy  :   -66.3106313 Eh     change       -0.7498737E-06 Eh
   gradient norm :     0.0002480 Eh/α   predicted    -0.3662510E-06 ( -51.16%)
   displ. norm   :     0.0249177 α      lambda       -0.5839453E-06
   maximum displ.:     0.0149249 α      in ANC's #4, #17, #6, ...

........................................................................
.............................. CYCLE   41 ..............................
........................................................................

 iter      E             dE          RMSdq      gap      omega  full diag
   1    -67.5050255 -0.675050E+02  0.594E-03    1.08       0.0  T
   2    -67.5050254  0.624192E-07  0.367E-03    1.09       3.8  T
   3    -67.5050240  0.144062E-05  0.436E-03    1.08       3.2  T
   4    -67.5050255 -0.152752E-05  0.506E-04    1.08      27.4  T
   5    -67.5050255 -0.169695E-07  0.124E-04    1.09     111.5  T
   6    -67.5050255 -0.902673E-09  0.664E-05    1.08     209.0  T
     SCC iter.                  ...        0 min,  0.024 sec
     gradient                   ...        0 min,  0.005 sec
 * total energy  :   -66.3106319 Eh     change       -0.6199348E-06 Eh
   gradient norm :     0.0001406 Eh/α   predicted    -0.2965147E-06 ( -52.17%)
   displ. norm   :     0.0209512 α      lambda       -0.3979915E-06
   maximum displ.:     0.0097310 α      in ANC's #4, #6, #11, ...

........................................................................
.............................. CYCLE   42 ..............................
........................................................................

 iter      E             dE          RMSdq      gap      omega  full diag
   1    -67.5050107 -0.675050E+02  0.509E-03    1.08       0.0  T
   2    -67.5050107  0.330448E-07  0.312E-03    1.08       4.4  T
   3    -67.5050097  0.974616E-06  0.352E-03    1.08       3.9  T
   4    -67.5050108 -0.102173E-05  0.355E-04    1.08      39.1  T
   5    -67.5050108 -0.778513E-08  0.798E-05    1.08     173.7  T
   6    -67.5050108 -0.192415E-09  0.559E-05    1.08     247.9  T
     SCC iter.                  ...        0 min,  0.024 sec
     gradient                   ...        0 min,  0.005 sec
 * total energy  :   -66.3106324 Eh     change       -0.4439998E-06 Eh
   gradient norm :     0.0002439 Eh/α   predicted    -0.2025479E-06 ( -54.38%)
   displ. norm   :     0.0257084 α      lambda       -0.3998575E-06
   maximum displ.:     0.0104137 α      in ANC's #6, #11, #4, ...
 * RMSD in coord.:     0.1328588 α      energy gain  -0.2142414E-03 Eh

generating ANC from exact Hessian ...
Using Lindh-Hessian (1995)
 Shifting diagonal of input Hessian by   9.656860761599941E-003
 Lowest  eigenvalues of input Hessian
    0.000000    0.000000    0.000000    0.000000    0.000000    0.000000
    0.010000    0.010042    0.010117    0.010175    0.010471    0.010832
    0.011476    0.011634    0.014045    0.014364    0.014447    0.014514
 Highest eigenvalues
    1.923342    1.923477    1.959892    1.967167    1.973203    1.996827
 

........................................................................
.............................. CYCLE   43 ..............................
........................................................................

 iter      E             dE          RMSdq      gap      omega  full diag
   1    -67.5050379 -0.675050E+02  0.590E-03    1.08       0.0  T
   2    -67.5050379  0.469419E-07  0.363E-03    1.08       3.8  T
   3    -67.5050365  0.137529E-05  0.417E-03    1.08       3.3  T
   4    -67.5050379 -0.144289E-05  0.344E-04    1.08      40.3  T
   5    -67.5050379 -0.719258E-08  0.898E-05    1.08     154.4  T
   6    -67.5050379 -0.164661E-09  0.644E-05    1.08     215.4  T
     SCC iter.                  ...        0 min,  0.025 sec
     gradient                   ...        0 min,  0.005 sec
 * total energy  :   -66.3106328 Eh     change       -0.4544228E-06 Eh
   gradient norm :     0.0002538 Eh/α   predicted     0.0000000E+00 (-100.00%)
   displ. norm   :     0.0044644 α      lambda       -0.2260497E-06
   maximum displ.:     0.0016615 α      in ANC's #4, #8, #23, ...

........................................................................
.............................. CYCLE   44 ..............................
........................................................................

 iter      E             dE          RMSdq      gap      omega  full diag
   1    -67.5050863 -0.675051E+02  0.165E-03    1.08       0.0  T
   2    -67.5050863  0.516775E-08  0.103E-03    1.08      13.5  T
   3    -67.5050862  0.113598E-06  0.124E-03    1.08      11.2  T
   4    -67.5050863 -0.121156E-06  0.155E-04    1.08      89.3  T
   5    -67.5050863 -0.144338E-08  0.304E-05    1.08     455.8  T
     SCC iter.                  ...        0 min,  0.020 sec
     gradient                   ...        0 min,  0.005 sec
 * total energy  :   -66.3106331 Eh     change       -0.2529087E-06 Eh
   gradient norm :     0.0000797 Eh/α   predicted    -0.1198989E-06 ( -52.59%)
   displ. norm   :     0.0077853 α      lambda       -0.1425756E-06
   maximum displ.:     0.0035188 α      in ANC's #4, #23, #24, ...

........................................................................
.............................. CYCLE   45 ..............................
........................................................................

 iter      E             dE          RMSdq      gap      omega  full diag
   1    -67.5050997 -0.675051E+02  0.218E-03    1.08       0.0  T
   2    -67.5050997  0.205115E-07  0.142E-03    1.08       9.8  T
   3    -67.5050995  0.213239E-06  0.178E-03    1.08       7.8  T
   4    -67.5050997 -0.242241E-06  0.205E-04    1.08      67.5  T
   5    -67.5050997 -0.235568E-08  0.461E-05    1.08     300.6  T
     SCC iter.                  ...        0 min,  0.020 sec
     gradient                   ...        0 min,  0.005 sec
 * total energy  :   -66.3106333 Eh     change       -0.2003357E-06 Eh
   gradient norm :     0.0001333 Eh/α   predicted    -0.9940152E-07 ( -50.38%)
   displ. norm   :     0.0077853 α      lambda        0.0000000E+00
   maximum displ.:     0.0035188 α      in ANC's #4, #23, #24, ...

........................................................................
.............................. CYCLE   46 ..............................
........................................................................

 iter      E             dE          RMSdq      gap      omega  full diag
   1    -67.5051118 -0.675051E+02  0.218E-03    1.08       0.0  T
   2    -67.5051118  0.207069E-07  0.142E-03    1.08       9.8  T
   3    -67.5051116  0.213305E-06  0.179E-03    1.08       7.8  T
   4    -67.5051118 -0.242565E-06  0.206E-04    1.08      67.5  T
   5    -67.5051118 -0.236274E-08  0.470E-05    1.08     295.3  T
     SCC iter.                  ...        0 min,  0.020 sec
     gradient                   ...        0 min,  0.005 sec
 * total energy  :   -66.3106333 Eh     change       -0.4182283E-08 Eh
   gradient norm :     0.0003086 Eh/α   predicted    -0.1115489E-08 ( -73.33%)
   displ. norm   :     0.0033691 α      lambda       -0.1560463E-06
   maximum displ.:     0.0015377 α      in ANC's #4, #24, #11, ...

........................................................................
.............................. CYCLE   47 ..............................
........................................................................

 iter      E             dE          RMSdq      gap      omega  full diag
   1    -67.5050973 -0.675051E+02  0.104E-03    1.08       0.0  T
   2    -67.5050973 -0.886757E-11  0.626E-04    1.08      22.2  T
   3    -67.5050972  0.109130E-07  0.385E-04    1.08      36.1  T
     SCC iter.                  ...        0 min,  0.012 sec
     gradient                   ...        0 min,  0.005 sec
 * total energy  :   -66.3106335 Eh     change       -0.1769944E-06 Eh
   gradient norm :     0.0001981 Eh/α   predicted    -0.7826634E-07 ( -55.78%)
   displ. norm   :     0.0159354 α      lambda       -0.3776523E-06
   maximum displ.:     0.0078859 α      in ANC's #4, #24, #11, ...

........................................................................
.............................. CYCLE   48 ..............................
........................................................................

 iter      E             dE          RMSdq      gap      omega  full diag
   1    -67.5050754 -0.675051E+02  0.326E-03    1.08       0.0  T
   2    -67.5050754  0.130634E-07  0.204E-03    1.08       6.8  T
   3    -67.5050751  0.321494E-06  0.212E-03    1.08       6.5  T
   4    -67.5050754 -0.336240E-06  0.498E-04    1.08      27.9  T
   5    -67.5050754 -0.180323E-07  0.987E-05    1.08     140.5  T
     SCC iter.                  ...        0 min,  0.020 sec
     gradient                   ...        0 min,  0.005 sec
 * total energy  :   -66.3106339 Eh     change       -0.4094392E-06 Eh
   gradient norm :     0.0001278 Eh/α   predicted    -0.1903562E-06 ( -53.51%)
   displ. norm   :     0.0252171 α      lambda       -0.3234905E-06
   maximum displ.:     0.0125093 α      in ANC's #4, #24, #11, ...

........................................................................
.............................. CYCLE   49 ..............................
........................................................................

 iter      E             dE          RMSdq      gap      omega  full diag
   1    -67.5050579 -0.675051E+02  0.472E-03    1.08       0.0  T
   2    -67.5050579  0.466456E-07  0.297E-03    1.08       4.7  T
   3    -67.5050569  0.961457E-06  0.357E-03    1.08       3.9  T
   4    -67.5050579 -0.102630E-05  0.441E-04    1.08      31.5  T
   5    -67.5050579 -0.127636E-07  0.103E-04    1.08     134.1  T
   6    -67.5050579 -0.491355E-09  0.605E-05    1.08     229.4  T
     SCC iter.                  ...        0 min,  0.025 sec
     gradient                   ...        0 min,  0.005 sec
 * total energy  :   -66.3106342 Eh     change       -0.3705172E-06 Eh
   gradient norm :     0.0002248 Eh/α   predicted    -0.1628150E-06 ( -56.06%)
   displ. norm   :     0.0393983 α      lambda       -0.4026821E-06
   maximum displ.:     0.0191409 α      in ANC's #4, #24, #11, ...

........................................................................
.............................. CYCLE   50 ..............................
........................................................................

 iter      E             dE          RMSdq      gap      omega  full diag
   1    -67.5050484 -0.675050E+02  0.707E-03    1.08       0.0  T
   2    -67.5050483  0.125521E-06  0.447E-03    1.08       3.1  T
   3    -67.5050461  0.224936E-05  0.551E-03    1.08       2.5  T
   4    -67.5050485 -0.242352E-05  0.644E-04    1.08      21.5  T
   5    -67.5050485 -0.273908E-07  0.151E-04    1.08      92.0  T
   6    -67.5050485 -0.103157E-08  0.876E-05    1.08     158.3  T
     SCC iter.                  ...        0 min,  0.024 sec
     gradient                   ...        0 min,  0.005 sec
 * total energy  :   -66.3106347 Eh     change       -0.4114405E-06 Eh
   gradient norm :     0.0002534 Eh/α   predicted    -0.2042753E-06 ( -50.35%)
   displ. norm   :     0.0298768 α      lambda       -0.2588966E-06
   maximum displ.:     0.0135492 α      in ANC's #4, #24, #11, ...

........................................................................
.............................. CYCLE   51 ..............................
........................................................................

 iter      E             dE          RMSdq      gap      omega  full diag
   1    -67.5050731 -0.675051E+02  0.510E-03    1.08       0.0  T
   2    -67.5050731  0.570440E-07  0.320E-03    1.08       4.3  T
   3    -67.5050719  0.115877E-05  0.393E-03    1.08       3.5  T
   4    -67.5050731 -0.123878E-05  0.419E-04    1.08      33.1  T
   5    -67.5050731 -0.113808E-07  0.103E-04    1.08     135.1  T
   6    -67.5050731 -0.392518E-09  0.631E-05    1.08     219.7  T
     SCC iter.                  ...        0 min,  0.024 sec
     gradient                   ...        0 min,  0.005 sec
 * total energy  :   -66.3106350 Eh     change       -0.2981558E-06 Eh
   gradient norm :     0.0001540 Eh/α   predicted    -0.1332894E-06 ( -55.30%)
   displ. norm   :     0.0359437 α      lambda       -0.3313123E-06
   maximum displ.:     0.0161520 α      in ANC's #24, #11, #18, ...

........................................................................
.............................. CYCLE   52 ..............................
........................................................................

 iter      E             dE          RMSdq      gap      omega  full diag
   1    -67.5051055 -0.675051E+02  0.580E-03    1.08       0.0  T
   2    -67.5051055  0.617911E-07  0.360E-03    1.08       3.8  T
   3    -67.5051040  0.147164E-05  0.438E-03    1.08       3.2  T
   4    -67.5051056 -0.155980E-05  0.385E-04    1.08      36.0  T
   5    -67.5051056 -0.923066E-08  0.112E-04    1.08     124.2  T
   6    -67.5051056 -0.398586E-09  0.704E-05    1.08     197.1  T
     SCC iter.                  ...        0 min,  0.024 sec
     gradient                   ...        0 min,  0.005 sec
 * total energy  :   -66.3106353 Eh     change       -0.3718338E-06 Eh
   gradient norm :     0.0001022 Eh/α   predicted    -0.1669102E-06 ( -55.11%)
   displ. norm   :     0.0505917 α      lambda       -0.4319162E-06
   maximum displ.:     0.0247754 α      in ANC's #18, #24, #11, ...

........................................................................
.............................. CYCLE   53 ..............................
........................................................................

 iter      E             dE          RMSdq      gap      omega  full diag
   1    -67.5051129 -0.675051E+02  0.790E-03    1.08       0.0  T
   2    -67.5051128  0.890187E-07  0.488E-03    1.08       2.8  T
   3    -67.5051103  0.250886E-05  0.568E-03    1.08       2.4  T
   4    -67.5051129 -0.263817E-05  0.515E-04    1.08      26.9  T
   5    -67.5051129 -0.163413E-07  0.155E-04    1.08      89.3  T
   6    -67.5051129 -0.822212E-09  0.952E-05    1.08     145.6  T
     SCC iter.                  ...        0 min,  0.028 sec
     gradient                   ...        0 min,  0.006 sec
 * total energy  :   -66.3106358 Eh     change       -0.4521334E-06 Eh
   gradient norm :     0.0002638 Eh/α   predicted    -0.2182029E-06 ( -51.74%)
   displ. norm   :     0.0458860 α      lambda        0.5001797E-07
   maximum displ.:     0.0223818 α      in ANC's #18, #24, #11, ...

........................................................................
.............................. CYCLE   54 ..............................
........................................................................

 iter      E             dE          RMSdq      gap      omega  full diag
   1    -67.5050610 -0.675051E+02  0.719E-03    1.08       0.0  T
   2    -67.5050609  0.712435E-07  0.444E-03    1.08       3.1  T
   3    -67.5050588  0.206313E-05  0.516E-03    1.08       2.7  T
   4    -67.5050610 -0.216952E-05  0.469E-04    1.08      29.6  T
   5    -67.5050610 -0.130846E-07  0.154E-04    1.08      90.0  T
   6    -67.5050610 -0.972250E-09  0.884E-05    1.08     156.9  T
     SCC iter.                  ...        0 min,  0.024 sec
     gradient                   ...        0 min,  0.005 sec
 * total energy  :   -66.3106356 Eh     change        0.1326126E-06 Eh
   gradient norm :     0.0005158 Eh/α   predicted     0.2378287E-07 ( -82.07%)
   displ. norm   :     0.0238449 α      lambda       -0.6455699E-06
   maximum displ.:     0.0132910 α      in ANC's #4, #24, #11, ...

........................................................................
.............................. CYCLE   55 ..............................
........................................................................

 iter      E             dE          RMSdq      gap      omega  full diag
   1    -67.5052128 -0.675052E+02  0.445E-03    1.08       0.0  T
   2    -67.5052128  0.384330E-07  0.278E-03    1.08       5.0  T
   3    -67.5052120  0.816619E-06  0.334E-03    1.08       4.2  T
   4    -67.5052129 -0.879212E-06  0.434E-04    1.08      32.0  T
   5    -67.5052129 -0.107742E-07  0.179E-04    1.08      77.6  T
     SCC iter.                  ...        0 min,  0.020 sec
     gradient                   ...        0 min,  0.005 sec
 * total energy  :   -66.3106362 Eh     change       -0.5836329E-06 Eh
   gradient norm :     0.0003563 Eh/α   predicted    -0.3240168E-06 ( -44.48%)
   displ. norm   :     0.0107070 α      lambda       -0.4017452E-06
   maximum displ.:     0.0070480 α      in ANC's #4, #24, #11, ...

........................................................................
.............................. CYCLE   56 ..............................
........................................................................

 iter      E             dE          RMSdq      gap      omega  full diag
   1    -67.5051754 -0.675052E+02  0.216E-03    1.08       0.0  T
   2    -67.5051754  0.111385E-09  0.128E-03    1.08      10.9  T
   3    -67.5051753  0.369322E-07  0.680E-04    1.08      20.4  T
   4    -67.5051754 -0.374246E-07  0.152E-04    1.08      91.5  T
     SCC iter.                  ...        0 min,  0.016 sec
     gradient                   ...        0 min,  0.005 sec
 * total energy  :   -66.3106367 Eh     change       -0.4651028E-06 Eh
   gradient norm :     0.0001628 Eh/α   predicted    -0.2033732E-06 ( -56.27%)
   displ. norm   :     0.0275665 α      lambda       -0.5822234E-06
   maximum displ.:     0.0194073 α      in ANC's #18, #17, #4, ...

........................................................................
.............................. CYCLE   57 ..............................
........................................................................

 iter      E             dE          RMSdq      gap      omega  full diag
   1    -67.5051493 -0.675051E+02  0.430E-03    1.08       0.0  T
   2    -67.5051493  0.113263E-07  0.264E-03    1.08       5.3  T
   3    -67.5051487  0.512041E-06  0.252E-03    1.08       5.5  T
   4    -67.5051493 -0.529732E-06  0.269E-04    1.08      51.5  T
   5    -67.5051493 -0.414080E-08  0.607E-05    1.08     228.6  T
     SCC iter.                  ...        0 min,  0.020 sec
     gradient                   ...        0 min,  0.005 sec
 * total energy  :   -66.3106374 Eh     change       -0.6659627E-06 Eh
   gradient norm :     0.0001635 Eh/α   predicted    -0.2918658E-06 ( -56.17%)
   displ. norm   :     0.0314158 α      lambda       -0.4031450E-06
   maximum displ.:     0.0212865 α      in ANC's #18, #17, #11, ...

........................................................................
.............................. CYCLE   58 ..............................
[...]
    30   1 H        0.924     0.055     2.255     2.348
    31   1 H        0.925     0.048     2.344     2.394
    32   1 H        0.925     0.041     2.438     2.442
    33   1 H        0.926     0.017     2.778     2.606
    34   1 H        0.925     0.012     2.853     2.641
    35   1 H        0.926     0.010     2.895     2.661
    36   1 H        0.925     0.012     2.854     2.642
    37   1 H        0.926     0.017     2.776     2.606
    38   1 H        0.924     0.049     2.338     2.391
    39   1 H        0.925     0.039     2.460     2.453
    40   1 H        0.925     0.047     2.352     2.398
    41   1 H        0.925     0.025     2.662     2.551
    42   1 H        0.925     0.042     2.416     2.431
    43   1 H        0.924     0.051     2.306     2.375
    44   1 H        0.925     0.044     2.390     2.418
    45   1 H        0.925     0.025     2.655     2.548
    46   1 H        0.924     0.056     2.248     2.345
    47   1 H        0.925     0.041     2.435     2.440
    48   1 H        0.925     0.048     2.343     2.394
    49   1 H        0.925     0.039     2.461     2.453
    50   1 H        0.925     0.047     2.353     2.399
    51   1 H        0.924     0.049     2.336     2.390
    52   1 H        0.925     0.024     2.674     2.557

 Mol. C6AA /au·bohr⁶  :      29517.640794
 Mol. C8AA /au·bohr⁸  :     717480.416095
 Mol. α(0) /au        :        272.840292


MOs/occ written to file <molden.input>


molecular dipole:
                 x           y           z       tot (Debye)
 q only:        0.017      -1.218       0.014
   full:        0.012      -1.202       0.025       3.055
molecular quadrupole (traceless):
                xx          xy          yy          xz          yz          zz
 q only:        6.241      -0.093      -7.816       2.059      -0.179       1.574
  q+dip:        9.427      -0.113      -5.209       1.614      -0.260      -4.218
   full:        7.351      -0.123      -6.218       1.498      -0.259      -1.133

           -------------------------------------------------
          |                Geometry Summary                 |
           -------------------------------------------------

      molecular mass/u    :      326.2830899
   center of mass at/Å    :        0.0002299       0.0052231      -0.0011845
  moments of inertia/u·Å² :        0.1968617E+04   0.2479597E+04   0.3756205E+04
rotational constants/cm⁻¹ :        0.8563184E-02   0.6798536E-02   0.4487943E-02

 * 48 selected distances

     #   Z          #   Z                                           value/Å
     2   6 C        3   6 C                                       1.3956073
     3   6 C        4   6 C                                       1.3779443
     4   6 C        6   6 C                                       1.4277310
     6   6 C        7   5 B                                       1.5500304
     7   5 B        8   6 C                                       1.5580627 (max)
     8   6 C        9   6 C                                       1.4075893
     9   6 C       10   6 C                                       1.3782736
    10   6 C       11   6 C                                       1.3893645
    11   6 C       12   6 C                                       1.3894123
     8   6 C       13   6 C                                       1.4074077
    12   6 C       13   6 C                                       1.3782715
     7   5 B       14   6 C                                       1.5511778
    14   6 C       15   6 C                                       1.4216031
    15   6 C       17   6 C                                       1.3798543
    17   6 C       18   6 C                                       1.3953571
    18   6 C       20   6 C                                       1.3943581
    14   6 C       21   6 C                                       1.4271752
    20   6 C       21   6 C                                       1.3788180
     6   6 C       23   6 C                                       1.4221112
     2   6 C       25   6 C                                       1.3943062
    23   6 C       25   6 C                                       1.3803608
     1   6 C       26   1 H                                       1.0905090
     1   6 C       27   1 H                                       1.0873210
     1   6 C       28   1 H                                       1.0906053
     3   6 C       29   1 H                                       1.0821000
     5   6 C       30   1 H                                       1.0904229
     5   6 C       31   1 H                                       1.0888227
     5   6 C       32   1 H                                       1.0878021
     9   6 C       33   1 H                                       1.0809140
    10   6 C       34   1 H                                       1.0826263
    11   6 C       35   1 H                                       1.0806055 (min)
    12   6 C       36   1 H                                       1.0826036
    13   6 C       37   1 H                                       1.0809175
    16   6 C       38   1 H                                       1.0905171
    16   6 C       39   1 H                                       1.0882549
    16   6 C       40   1 H                                       1.0881859
    17   6 C       41   1 H                                       1.0821054
    19   6 C       42   1 H                                       1.0877324
    19   6 C       43   1 H                                       1.0919999
    19   6 C       44   1 H                                       1.0887318
    20   6 C       45   1 H                                       1.0821144
    22   6 C       46   1 H                                       1.0904979
    22   6 C       47   1 H                                       1.0877867
    22   6 C       48   1 H                                       1.0888758
    24   6 C       49   1 H                                       1.0882678
    24   6 C       50   1 H                                       1.0881911
    24   6 C       51   1 H                                       1.0905915
    25   6 C       52   1 H                                       1.0821384

 * 3 distinct bonds (by element types)

   Z      Z             #   av. dist./Å        max./Å        min./Å
   1 H    6 C          27     1.0867126     1.0919999     1.0806055
   5 B    6 C           3     1.5530903     1.5580627     1.5500304
   6 C    6 C          18     1.3969748     1.4277310     1.3779443

           -------------------------------------------------
          |               Frequency Printout                |
           -------------------------------------------------
 projected vibrational frequencies (cm⁻¹)
eigval :       -0.00    -0.00    -0.00    -0.00     0.00     0.00
eigval :      -49.95   -14.73    30.43    31.45    36.95    41.48
eigval :       62.57    83.55    90.47   121.22   130.30   146.66
eigval :      152.53   162.67   167.69   173.43   188.02   193.55
eigval :      199.86   202.49   204.82   210.83   270.61   274.08
eigval :      289.45   317.05   319.63   341.96   379.16   394.86
eigval :      461.41   466.99   472.05   473.39   482.48   494.39
eigval :      497.01   508.14   511.95   536.69   546.58   575.92
eigval :      591.16   593.55   622.03   628.18   659.09   666.72
eigval :      736.47   838.71   840.24   848.76   850.98   858.06
eigval :      861.48   872.63   874.86   916.45   924.55   957.47
eigval :      958.18   959.65   970.51   970.62   974.30  1006.88
eigval :     1011.88  1015.47  1016.02  1020.30  1022.63  1025.95
eigval :     1026.72  1033.68  1039.05  1040.03  1062.65  1075.00
eigval :     1095.32  1113.45  1134.43  1175.20  1176.62  1189.13
eigval :     1204.59  1223.00  1224.88  1255.24  1276.85  1304.26
eigval :     1317.88  1319.57  1322.28  1386.09  1394.68  1396.21
eigval :     1397.70  1399.96  1400.51  1401.93  1406.13  1407.34
eigval :     1409.94  1412.54  1432.13  1444.68  1445.18  1460.23
eigval :     1462.73  1463.72  1464.63  1470.30  1473.53  1476.34
eigval :     1479.67  1480.62  1482.75  1485.82  1488.07  1500.14
eigval :     1535.54  1550.94  1567.12  2972.93  2985.89  2986.84
eigval :     2987.91  2988.90  2989.96  3001.67  3015.57  3016.68
eigval :     3018.79  3022.81  3023.15  3023.75  3024.88  3030.62
eigval :     3030.78  3033.45  3038.46  3042.06  3042.55  3052.04
eigval :     3052.20  3054.63  3055.57  3063.27  3064.83  3073.79
 reduced masses (amu)
   1: 10.89   2: 10.61   3: 10.86   4: 10.94   5: 10.84   6: 10.58   7:  1.09   8:  1.21
   9:  9.95  10: 10.11  11:  9.71  12:  9.57  13: 10.19  14:  9.51  15:  9.94  16:  9.75
  17:  3.27  18:  3.54  19:  4.40  20:  6.75  21:  3.12  22:  7.15  23:  8.25  24:  9.03
  25:  9.47  26:  9.09  27:  9.59  28:  9.56  29:  8.83  30:  8.25  31:  9.53  32:  8.44
  33:  8.97  34: 10.06  35:  9.24  36:  9.84  37:  9.35  38: 10.67  39:  9.73  40:  9.72
  41:  9.32  42: 10.21  43: 10.44  44: 10.16  45:  9.89  46: 10.19  47:  9.96  48: 11.19
  49: 10.21  50: 10.23  51: 10.91  52: 10.21  53: 10.93  54: 10.99  55:  3.43  56:  3.88
  57:  3.41  58:  3.34  59:  9.08  60:  5.00  61:  9.18  62:  3.84  63:  4.01  64:  2.92
  65:  3.83  66:  7.66  67:  9.56  68:  8.77  69:  8.54  70:  9.47  71:  8.27  72:  4.60
  73:  4.46  74:  4.65  75:  4.70  76:  4.78  77:  4.71  78:  4.54  79:  4.50  80:  6.21
  81:  6.40  82:  6.59  83:  8.66  84:  7.86  85: 10.39  86:  4.75  87:  9.84  88:  4.19
  89:  2.52  90:  4.54  91:  2.41  92:  5.34  93:  5.17  94:  9.33  95:  3.79  96: 10.54
  97: 10.95  98: 10.11  99: 10.31 100:  7.64 101:  5.18 102:  4.52 103:  3.57 104:  3.93
 105:  3.39 106:  6.02 107:  7.40 108:  7.63 109:  8.26 110:  9.04 111:  8.02 112:  8.99
 113:  9.25 114:  1.74 115:  1.97 116:  1.98 117:  2.26 118:  1.57 119:  2.00 120:  2.20
 121:  2.70 122:  2.46 123:  2.78 124:  2.96 125:  3.17 126: 10.74 127: 10.64 128: 11.03
 129: 11.28 130:  1.80 131:  1.93 132:  1.86 133:  1.85 134:  1.85 135:  1.85 136:  1.53
 137:  1.61 138:  1.61 139:  1.66 140:  1.36 141:  1.53 142:  1.92 143:  1.74 144:  1.67
 145:  1.65 146:  1.67 147:  1.68 148:  1.78 149:  1.76 150:  1.81 151:  1.81 152:  1.81
 153:  1.81 154:  1.82 155:  1.85 156:  1.89
 IR intensities (km·mol⁻¹)
   1:  0.04   2:  0.16   3:  0.36   4:  0.23   5:  2.86   6:  0.04   7:  2.33   8:  0.39
   9:  0.11  10:  0.47  11:  1.12  12:  0.47  13:  0.05  14:  1.02  15:  0.72  16:  0.03
  17:  2.36  18:  0.32  19:  1.16  20:  1.76  21:  2.23  22: 23.41  23:  1.15  24:  0.45
  25:  1.79  26:  5.05  27:  5.31  28:  0.44  29:  0.44  30:  2.07  31:  2.28  32:  7.86
  33:  0.46  34:  5.04  35:  1.22  36:  2.78  37: 14.82  38: 17.96  39: 11.35  40: 18.30
  41: 13.10  42:  6.18  43: 12.31  44:  8.26  45:  6.63  46:  4.71  47: 27.55  48:  0.09
  49:  1.34  50: 11.90  51:  1.26  52: 20.08  53: 43.40  54:  0.09  55: 11.85  56:  1.50
  57: 10.56  58:  0.07  59: 22.54  60:  1.01  61:  4.51  62: 18.19  63:  5.71  64: 18.41
  65:  0.27  66: 30.44  67:  2.56  68: 24.17  69:  3.65  70:  4.14  71: 21.85  72:  4.00
  73: 42.89  74: 25.60  75:  8.64  76: 36.19  77:  3.33  78: 25.69  79: 54.54  80:  5.48
  81:  5.93  82: 16.62  83: 42.58  84: 24.77  85: 14.18  86:  8.55  87:724.76  88:  4.56
  89:  0.96  90: 57.75  91: 60.29  92: 37.10  93: 28.55  94:437.17  95:  0.15  96:  1.76
  97:  0.45  98:  2.94  99:  6.23 100: 32.75 101: 30.35 102: 19.46 103:  6.13 104: 15.62
 105:  6.14 106:  0.49 107:  2.21 108:  2.48 109: 73.13 110:138.10 111: 33.04 112:  6.78
 113: 18.87 114:  1.64 115:  0.59 116:  1.14 117: 15.19 118:  2.89 119: 15.43 120:  6.58
 121: 13.97 122:  3.05 123:  0.77 124:  4.06 125:  0.64 126:  1.29 127:138.25 128:390.10
 129:465.02 130: 60.07 131: 26.26 132: 50.51 133: 39.07 134:  9.64 135:  9.24 136: 78.09
 137: 18.76 138: 14.93 139: 48.19 140: 89.76 141: 15.45 142: 27.69 143:  4.49 144: 38.35
 145: 44.01 146: 44.14 147: 51.88 148: 53.05 149: 56.17 150:184.83 151:149.48 152:400.02
 153: 69.62 154: 76.94 155:144.60 156:179.19
 Raman intensities (Ä⁴*amu⁻¹)
   1:  0.00   2:  0.00   3:  0.00   4:  0.00   5:  0.00   6:  0.00   7:  0.00   8:  0.00
   9:  0.00  10:  0.00  11:  0.00  12:  0.00  13:  0.00  14:  0.00  15:  0.00  16:  0.00
  17:  0.00  18:  0.00  19:  0.00  20:  0.00  21:  0.00  22:  0.00  23:  0.00  24:  0.00
  25:  0.00  26:  0.00  27:  0.00  28:  0.00  29:  0.00  30:  0.00  31:  0.00  32:  0.00
  33:  0.00  34:  0.00  35:  0.00  36:  0.00  37:  0.00  38:  0.00  39:  0.00  40:  0.00
  41:  0.00  42:  0.00  43:  0.00  44:  0.00  45:  0.00  46:  0.00  47:  0.00  48:  0.00
  49:  0.00  50:  0.00  51:  0.00  52:  0.00  53:  0.00  54:  0.00  55:  0.00  56:  0.00
  57:  0.00  58:  0.00  59:  0.00  60:  0.00  61:  0.00  62:  0.00  63:  0.00  64:  0.00
  65:  0.00  66:  0.00  67:  0.00  68:  0.00  69:  0.00  70:  0.00  71:  0.00  72:  0.00
  73:  0.00  74:  0.00  75:  0.00  76:  0.00  77:  0.00  78:  0.00  79:  0.00  80:  0.00
  81:  0.00  82:  0.00  83:  0.00  84:  0.00  85:  0.00  86:  0.00  87:  0.00  88:  0.00
  89:  0.00  90:  0.00  91:  0.00  92:  0.00  93:  0.00  94:  0.00  95:  0.00  96:  0.00
  97:  0.00  98:  0.00  99:  0.00 100:  0.00 101:  0.00 102:  0.00 103:  0.00 104:  0.00
 105:  0.00 106:  0.00 107:  0.00 108:  0.00 109:  0.00 110:  0.00 111:  0.00 112:  0.00
 113:  0.00 114:  0.00 115:  0.00 116:  0.00 117:  0.00 118:  0.00 119:  0.00 120:  0.00
 121:  0.00 122:  0.00 123:  0.00 124:  0.00 125:  0.00 126:  0.00 127:  0.00 128:  0.00
 129:  0.00 130:  0.00 131:  0.00 132:  0.00 133:  0.00 134:  0.00 135:  0.00 136:  0.00
 137:  0.00 138:  0.00 139:  0.00 140:  0.00 141:  0.00 142:  0.00 143:  0.00 144:  0.00
 145:  0.00 146:  0.00 147:  0.00 148:  0.00 149:  0.00 150:  0.00 151:  0.00 152:  0.00
 153:  0.00 154:  0.00 155:  0.00 156:  0.00
 output can be read by thermo (or use thermo option).
 writing <g98.out> molden fake output.
 recommended (thermochemical) frequency scaling factor: 1.0
           -------------------------------------------------
          |             Thermodynamic Functions             |
           -------------------------------------------------

Molecule has no symmetry elements
It seems to be the C1 point group
c1  symmetry found (for desy threshold:  0.10E+00) used in thermo
 inverting freq            2   14.7335235005998     

          ...................................................
          :                      SETUP                      :
          :.................................................:
          :  # frequencies                         149      :
          :  # imaginary freq.                       1      :
          :  linear?                             false      :
          :  only rotor calc.                    false      :
          :  symmetry                               c1      :
          :  rotational number                       1      :
          :  scaling factor                  1.0000000      :
          :  rotor cutoff                   50.0000000 cm⁻¹ :
          :  imag. cutoff                  -20.0000000 cm⁻¹ :
          :.................................................:

    mode    ω/cm⁻¹     T·S(HO)/kcal·mol⁻¹    T·S(FR)/kcal·mol⁻¹   T·S(vib)
   ------------------------------------------------------------------------
       1     14.73    -2.15895 (  0.75%)    -1.41840 ( 99.25%)    -1.42395
       2     30.43    -1.72959 ( 12.07%)    -1.20359 ( 87.93%)    -1.26706
       3     31.45    -1.71015 ( 13.53%)    -1.19385 ( 86.47%)    -1.26372
       4     36.95    -1.61491 ( 22.97%)    -1.14613 ( 77.03%)    -1.25379
       5     41.48    -1.54653 ( 32.14%)    -1.11185 ( 67.86%)    -1.25157
       6     62.57    -1.30420 ( 71.04%)    -0.99006 ( 28.96%)    -1.21322
       7     83.55    -1.13465 ( 88.63%)    -0.90442 ( 11.37%)    -1.10848
       8     90.47    -1.08820 ( 91.47%)    -0.88085 (  8.53%)    -1.07050
       9    121.22    -0.91856 ( 97.19%)    -0.79419 (  2.81%)    -0.91506
      10    130.30    -0.87704 ( 97.88%)    -0.77279 (  2.12%)    -0.87483
      11    146.66    -0.80952 ( 98.67%)    -0.73776 (  1.33%)    -0.80856
      12    152.53    -0.78725 ( 98.86%)    -0.72613 (  1.14%)    -0.78655
      13    162.67    -0.75088 ( 99.12%)    -0.70705 (  0.88%)    -0.75049
      14    167.69    -0.73380 ( 99.22%)    -0.69805 (  0.78%)    -0.73352
      15    173.43    -0.71495 ( 99.31%)    -0.68808 (  0.69%)    -0.71477
      16    188.02    -0.67002 ( 99.50%)    -0.66416 (  0.50%)    -0.66999
      17    193.55    -0.65401 ( 99.56%)    -0.65557 (  0.44%)    -0.65402
      18    199.86    -0.63638 ( 99.61%)    -0.64607 (  0.39%)    -0.63641
      19    202.49    -0.62920 ( 99.63%)    -0.64220 (  0.37%)    -0.62925
      20    204.82    -0.62294 ( 99.65%)    -0.63881 (  0.35%)    -0.62300
      21    210.83    -0.60718 ( 99.68%)    -0.63024 (  0.32%)    -0.60725
      22    270.61    -0.47475 ( 99.88%)    -0.55629 (  0.12%)    -0.47484
      23    274.08    -0.46819 ( 99.89%)    -0.55252 (  0.11%)    -0.46828
      24    289.45    -0.44042 ( 99.91%)    -0.53636 (  0.09%)    -0.44051
   ------------------------------------------------------------------------

   temp. (K)  partition function   enthalpy   heat capacity  entropy
                                   cal/mol     cal/K/mol   cal/K/mol   J/K/mol
 298.15  VIB  0.698E+11            14496.152     88.057     90.050
         ROT  0.103E+08              888.752      2.981     35.079
         INT  0.722E+18            15384.904     91.038    125.129
         TR   0.570E+28             1481.254      4.968     43.223
         TOT                       16866.1582    96.0060   168.3525   704.3868

       T/K    H(0)-H(T)+PV         H(T)/Eh          T*S/Eh         G(T)/Eh
   ------------------------------------------------------------------------
    298.15    0.268779E-01    0.453429E+00    0.799897E-01    0.373439E+00
   ------------------------------------------------------------------------

         :::::::::::::::::::::::::::::::::::::::::::::::::::::
         ::                  THERMODYNAMIC                  ::
         :::::::::::::::::::::::::::::::::::::::::::::::::::::
         :: total free energy         -65.937200190128 Eh   ::
         ::.................................................::
         :: total energy              -66.310639493439 Eh   ::
         :: zero point energy           0.426551064650 Eh   ::
         :: G(RRHO) w/o ZPVE           -0.053111761339 Eh   ::
         :: G(RRHO) contrib.            0.373439303311 Eh   ::
         :::::::::::::::::::::::::::::::::::::::::::::::::::::
imag cut-off (cm-1) :    5.00
 found            2  significant imaginary frequencies
 writing imag mode distorted coords to xtbhess.xyz
 for further optimization.

optimized geometry written to: xtbopt.xyz


           -------------------------------------------------
          | TOTAL ENERGY              -66.310639493439 Eh   |
          | TOTAL ENTHALPY            -65.857210494865 Eh   |
          | TOTAL FREE ENERGY         -65.937200190128 Eh   |
          | GRADIENT NORM               0.000044009571 Eh/α |
          | HOMO-LUMO GAP               1.082021674452 eV   |
           -------------------------------------------------

------------------------------------------------------------------------
 * finished run on 2025/08/22 at 08:36:56.636     
------------------------------------------------------------------------
 total:
 * wall-time:     0 d,  0 h,  0 min,  3.610 sec
 *  cpu-time:     0 d,  0 h,  2 min, 21.037 sec
 * ratio c/w:    39.069 speedup
 SCF:
 * wall-time:     0 d,  0 h,  0 min,  0.112 sec
 *  cpu-time:     0 d,  0 h,  0 min,  4.163 sec
 * ratio c/w:    37.038 speedup
 ANC optimizer:
 * wall-time:     0 d,  0 h,  0 min,  2.388 sec
 *  cpu-time:     0 d,  0 h,  1 min, 35.388 sec
 * ratio c/w:    39.945 speedup
 analytical hessian:
 * wall-time:     0 d,  0 h,  0 min,  1.015 sec
 *  cpu-time:     0 d,  0 h,  0 min, 38.168 sec
 * ratio c/w:    37.610 speedup

