$hessian                                                                        
        0.0451533848   0.0133189700   0.0132265301  -0.0553820120  -0.0143715268
       -0.0121709552   0.0090690604  -0.0001193573  -0.0006657958   0.0055962479
        0.0141110371   0.0100456682  -0.0033304755   0.0030289796  -0.0019259738
       -0.0011368392   0.0010093203   0.0003723347   0.0019146528  -0.0014518174
        0.0005602226  -0.0014848342   0.0014167809  -0.0003178727   0.0002659444
        0.0000775732   0.0004052552  -0.0001019977   0.0000150114  -0.0000324803
       -0.0000257054  -0.0000217022   0.0000455512   0.0000267161   0.0000128428
       -0.0000380445   0.0000358806   0.0000400994   0.0000537731  -0.0000491617
        0.0000184523  -0.0001432746   0.0000422138   0.0000851703   0.0000243515
       -0.0000071988  -0.0000204302  -0.0000905063   0.0000164238   0.0001667331
        0.0000362035  -0.0000058691  -0.0000342585  -0.0000544179   0.0000408262
        0.0000336254  -0.0000069691  -0.0000231821  -0.0000448715   0.0000329481
       -0.0000758306   0.0000837728   0.0000599992  -0.0000035922  -0.0004336352
       -0.0003307531   0.0002420188   0.0006522667   0.0013276586   0.0000998346
        0.0009616370   0.0000786453   0.0036663961  -0.0160312145  -0.0112627758
       -0.0015521042  -0.0027275082   0.0019679320  -0.0021987513  -0.0000527435
        0.0005353639   0.0024798286   0.0022791560  -0.0008404363  -0.0019189962
       -0.0018946536   0.0005119711   0.0001300465   0.0000852658  -0.0005437318
       -0.0000905764  -0.0000467096   0.0000953673   0.0000455519  -0.0000509833
       -0.0000191960  -0.0000010384   0.0000070540   0.0000194460  -0.0000026394
       -0.0000066696  -0.0000748201  -0.0000823646   0.0000351489   0.0001893712
       -0.0000488824   0.0000227480  -0.0001068017  -0.0000081946   0.0000374720
        0.0001140582  -0.0001422154   0.0000246933  -0.0001472766   0.0000209266
        0.0000122627   0.0000678214  -0.0000052128  -0.0000036041  -0.0000133831
        0.0000570177  -0.0000449892   0.0000171897  -0.0001356890  -0.0000680739
       -0.0000453477   0.0003172450   0.0001570036   0.0004336640  -0.0014292239
        0.0003100517  -0.0007903636   0.0006214428  -0.0006220035  -0.0016351432
        0.0000404053   0.0001994550   0.0000615276  -0.0004273974   0.0003286105
        0.0001304080   0.0000094821  -0.0000370130   0.0000510458  -0.0000054007
       -0.0000114505  -0.0000340381  -0.0000171273  -0.0000129050  -0.0000153840
       -0.0000332100  -0.0000241521   0.0000032476  -0.0000143164  -0.0000379210
        0.0000112625  -0.0000100166  -0.0000140307   0.0000419439  -0.0000180422
        0.0000044678   0.0000350334  -0.0000062933   0.0000235365   0.0000190221
        0.0000134736   0.0000412057   0.0000137594  -0.0000155586  -0.0000659179
       -0.0000013192  -0.0000030518  -0.0001041407  -0.0000088618   0.0001840721
        0.0005222629   0.0009035994   0.0002358305  -0.0003867171  -0.0000208911
       -0.0004940297  -0.0000538501  -0.0000287732   0.0000674782   0.0000029574
       -0.0000446420  -0.0000134943   0.0000266228   0.0000267770  -0.0000135048
       -0.0000097419   0.0000354070   0.0000006267  -0.0000443681   0.0000349016
        0.0000297085  -0.0000386624   0.0000232382   0.0000191710  -0.0000377815
       -0.0000321741  -0.0000104710  -0.0000473153  -0.0000290093  -0.0000202741
       -0.0000140197  -0.0000304917  -0.0000220642   0.0000227022  -0.0000261445
        0.0000783792   0.0000009303   0.0000211979  -0.0001399689   0.0000271009
        0.0001193862  -0.0000134783  -0.0002162414  -0.0002250356
        0.0133189700   0.3139802256   0.2252074494  -0.0111614107  -0.3003333363
       -0.1953621601   0.0001171647   0.0157002502  -0.0046969781  -0.0034024119
       -0.0121692680  -0.0140604996   0.0053494798  -0.0022372657   0.0026045557
        0.0013698409  -0.0013515471  -0.0001209760  -0.0040549679   0.0030048391
       -0.0006767027   0.0031484301  -0.0023419958   0.0005967450  -0.0005101302
       -0.0002407690  -0.0007095460   0.0001637709   0.0000269980   0.0001458345
        0.0000370099   0.0000785572  -0.0000635675  -0.0000332429   0.0000044444
        0.0000530312  -0.0000608113  -0.0000312992  -0.0000822847   0.0001289509
       -0.0000268477   0.0002841637  -0.0000719211  -0.0000996313  -0.0000806720
        0.0000069838   0.0000235702   0.0001574095  -0.0000632979  -0.0002651725
       -0.0000828053   0.0000135575   0.0000926720   0.0001076496  -0.0000197160
       -0.0000099761   0.0000125839   0.0000534204   0.0000972186  -0.0000288606
        0.0001413474  -0.0001621630  -0.0000299246  -0.0000463499   0.0006371729
        0.0005221355   0.0004125732  -0.0012859564  -0.0009084804  -0.0022037630
       -0.0001420577  -0.0026622381  -0.0003237864  -0.0094492690  -0.0117393525
       -0.0016030681  -0.0029976525   0.0031114664  -0.0020528701  -0.0002062608
        0.0002625353   0.0039092029   0.0028683104  -0.0009772362  -0.0030051476
       -0.0022782431   0.0007745224   0.0002385134   0.0000371202  -0.0008393867
       -0.0000654972  -0.0001461969   0.0001694876   0.0000840637  -0.0000469377
       -0.0000565275  -0.0000264249   0.0000944327   0.0000319624  -0.0000201371
        0.0000088154  -0.0001112695  -0.0001406460   0.0000347732   0.0002792161
       -0.0000756198   0.0000383883  -0.0001321751  -0.0000383894   0.0000666093
        0.0001432792  -0.0002196318   0.0000289069  -0.0002052413   0.0000239309
        0.0000355213   0.0001206082  -0.0000304751   0.0000776169  -0.0000143168
        0.0000984443  -0.0000417238   0.0000552781  -0.0001513759  -0.0001716041
       -0.0000498490   0.0005152934   0.0001296175   0.0006332551  -0.0016280572
       -0.0000274419  -0.0008097529   0.0004825693   0.0003807133  -0.0028097495
       -0.0001447729   0.0006163561   0.0006336539   0.0005385298  -0.0005868145
        0.0000529998  -0.0000574611   0.0000082035  -0.0000971666  -0.0000010557
       -0.0000139408   0.0000676862   0.0000289676   0.0000004720   0.0000341669
        0.0000655598   0.0000210934  -0.0000023169   0.0000559036   0.0000507338
       -0.0000183025   0.0000133438   0.0000126274  -0.0000668904   0.0000339150
       -0.0000182276  -0.0000627995  -0.0000039954  -0.0000279552  -0.0000260601
       -0.0000403293  -0.0000316998  -0.0000123911  -0.0000438158   0.0000892722
       -0.0000297148   0.0002725693  -0.0000339046   0.0002148871   0.0004338418
       -0.0002759158   0.0006771964   0.0005361396  -0.0001998855   0.0004810175
       -0.0006195387  -0.0002383868  -0.0000033068   0.0000319435  -0.0000161909
       -0.0000474408  -0.0000318695   0.0000109119   0.0000760575  -0.0000124392
       -0.0000239694   0.0000388382   0.0000162770  -0.0000488611   0.0000354661
        0.0000514214  -0.0000423671   0.0000184718   0.0000415311  -0.0000356315
       -0.0000348519   0.0000027131  -0.0000498259  -0.0000351167  -0.0000158346
       -0.0000211849  -0.0000316339  -0.0000406633   0.0000108791  -0.0000554663
        0.0000639363  -0.0000073890   0.0000094679  -0.0001964046  -0.0001250899
        0.0002375921   0.0004172197  -0.0004074672  -0.0000166593
        0.0132265301   0.2252074494   0.2494744934  -0.0092372896  -0.1930523202
       -0.2221330715  -0.0017205247  -0.0290545339  -0.0328545898  -0.0022760190
       -0.0022635868   0.0003000072   0.0005547654   0.0000843423   0.0021564203
        0.0008253361  -0.0002434221   0.0002845591  -0.0021855919   0.0018194407
       -0.0004299079   0.0016663984  -0.0012690487   0.0004812037  -0.0002452460
       -0.0001272199  -0.0003958560   0.0001222061   0.0000683682   0.0000706407
        0.0000117870   0.0000609542  -0.0000264633  -0.0000426165   0.0000105490
        0.0000515405  -0.0000341662  -0.0000275984  -0.0000464376   0.0000863840
       -0.0000148683   0.0001400143  -0.0000322690  -0.0000408008  -0.0000392904
        0.0000052228   0.0000103435   0.0000809450  -0.0000240133  -0.0001362083
       -0.0000475998   0.0000062485   0.0000517711   0.0000687092  -0.0000261662
       -0.0000045994   0.0000320870   0.0000285269   0.0000471190  -0.0000105348
        0.0001057643  -0.0000558949  -0.0000260839  -0.0000136793   0.0003282793
        0.0002073615   0.0009518523  -0.0007201455   0.0000592056  -0.0026578331
        0.0002527107  -0.0017308997  -0.0006598990  -0.0013197663   0.0010001137
        0.0004544154  -0.0006745851   0.0017462936  -0.0008295602  -0.0002970221
        0.0008092169   0.0023683942   0.0017433456  -0.0005013600  -0.0016829317
       -0.0013259011   0.0006040897   0.0001021966   0.0000266391  -0.0004925792
       -0.0000042729  -0.0000837311   0.0001288869   0.0000655657  -0.0000169400
       -0.0000130116  -0.0000107778   0.0000597727   0.0000287818  -0.0000009329
        0.0000072235  -0.0000544379  -0.0000822142   0.0000062972   0.0001634007
       -0.0000262756   0.0000215121  -0.0000627067  -0.0000235622   0.0000353254
        0.0000806235  -0.0001095745   0.0000257728  -0.0001241334   0.0000211399
        0.0000162653   0.0000752867  -0.0000111285   0.0000470020   0.0000081262
        0.0000435331  -0.0000250447   0.0000321535  -0.0000744646  -0.0000926275
        0.0000098871   0.0002527479   0.0000573693   0.0002755026  -0.0013645336
       -0.0005488746   0.0002534731   0.0008391800   0.0010511905  -0.0030165763
       -0.0002453801   0.0006434570   0.0004319111   0.0002790631  -0.0001208036
       -0.0000529875  -0.0000336242  -0.0000416920  -0.0000388706   0.0000108232
       -0.0000119804   0.0000495291   0.0000122512  -0.0000015378   0.0000102713
        0.0000192899   0.0000101769  -0.0000060919   0.0000187162   0.0000223514
       -0.0000145660  -0.0000062251   0.0000089365  -0.0000239722   0.0000070643
       -0.0000014556  -0.0000281918  -0.0000089511  -0.0000059625  -0.0000087963
       -0.0000235646  -0.0000145859  -0.0000119546  -0.0000405925   0.0000110094
       -0.0000148558   0.0002712838  -0.0000875116   0.0001698833   0.0009487295
        0.0006092123   0.0009160954   0.0006811868   0.0002954688   0.0004811120
       -0.0001901706  -0.0000773441   0.0000149980  -0.0000214716   0.0000029459
       -0.0000469452  -0.0000333011   0.0000070893   0.0000423554  -0.0000118600
       -0.0000141670   0.0000186952   0.0000042274  -0.0000238425   0.0000140239
        0.0000279314  -0.0000379428   0.0000139526   0.0000202881  -0.0000195899
       -0.0000169958   0.0000051973  -0.0000320936  -0.0000172692  -0.0000021378
       -0.0000087622  -0.0000092236  -0.0000026140   0.0000055701  -0.0000233995
        0.0000248301   0.0000155378  -0.0000275005  -0.0002600853  -0.0001284234
        0.0002318129   0.0001864436  -0.0006483637   0.0013294961
       -0.0553820120  -0.0111614107  -0.0092372896   0.3612995835   0.0109573533
        0.0135597854  -0.0538286484  -0.0010519576   0.0001068486  -0.1062518756
        0.0421853453  -0.0139478444  -0.0067433872   0.0123990654   0.0078673813
        0.0089520370  -0.0007260357   0.0030543006  -0.0118322830   0.0091543253
       -0.0029963248   0.0090790662  -0.0079155078   0.0021469093  -0.0014380081
       -0.0004827722  -0.0020385846   0.0005592176   0.0000228628   0.0002506367
        0.0001421335   0.0001774593  -0.0002137037  -0.0002030281  -0.0000658572
        0.0001642526  -0.0002254970  -0.0001840527  -0.0003114945   0.0003565342
       -0.0000500914   0.0007956285  -0.0002218884  -0.0004003190  -0.0002051553
        0.0000429150   0.0001221587   0.0004736180  -0.0000489039  -0.0008441281
       -0.0002720610   0.0000262669   0.0002565459   0.0003263251  -0.0002261661
       -0.0001057742   0.0000965709   0.0001268289   0.0002314324  -0.0002006262
        0.0003592048  -0.0004419361  -0.0003676275  -0.0001234046   0.0021387873
        0.0016191013   0.0040035913  -0.0053185409  -0.0059589580  -0.0192136679
        0.0070557160  -0.0104885610  -0.1130946558  -0.0395897883   0.0124887220
       -0.0185920472  -0.0112303143  -0.0062071500   0.0055630414   0.0001450446
       -0.0074819635  -0.0120239418  -0.0104069956   0.0024923259   0.0091099208
        0.0084884808  -0.0024649978  -0.0006110437  -0.0003879120   0.0024951406
        0.0003420336   0.0002820910  -0.0004822794  -0.0002403430   0.0002011619
        0.0001218304   0.0000207271  -0.0001085327  -0.0000444972   0.0000082568
       -0.0000302445   0.0003652483   0.0003801257  -0.0001460575  -0.0008731332
        0.0002172136  -0.0001121099   0.0004510959   0.0000463397  -0.0001801672
       -0.0004769636   0.0006809677  -0.0000426802   0.0006698686  -0.0001444603
       -0.0000719280  -0.0003511654   0.0000416904  -0.0001112349   0.0000381327
       -0.0002595235   0.0001994325  -0.0000416039   0.0004807521   0.0003225265
        0.0002460065  -0.0014435621  -0.0006965468  -0.0019166534   0.0091529352
        0.0021179314   0.0031740601  -0.0100187327  -0.0057239722   0.0142851011
       -0.0004723965  -0.0020972401  -0.0005125351   0.0006867893  -0.0004550164
       -0.0006247549  -0.0000909125   0.0001035694  -0.0001779177   0.0000121887
        0.0000362351   0.0001964604   0.0000844978   0.0000443040   0.0000930307
        0.0001645699   0.0001158915  -0.0000051176   0.0000771471   0.0001647406
       -0.0000459106   0.0000409814   0.0000696325  -0.0001819987   0.0000965778
       -0.0000178921  -0.0001762422   0.0000233775  -0.0001128321  -0.0000938919
       -0.0000901784  -0.0001922072  -0.0000658696  -0.0000063211   0.0002346394
        0.0000314811   0.0003200259   0.0004997078   0.0000286807  -0.0000158609
       -0.0002900469   0.0015698981   0.0000720975   0.0014010666   0.0011392253
        0.0003428163  -0.0002213739   0.0003994707  -0.0002016693  -0.0000238926
        0.0001663848   0.0000618727  -0.0001123741  -0.0001410349   0.0000523902
        0.0000365015  -0.0001496193  -0.0000152398   0.0001851234  -0.0001507675
       -0.0001352162   0.0001650617  -0.0001064258  -0.0000921426   0.0001712873
        0.0001263279   0.0000304708   0.0002044969   0.0001195682   0.0000830187
        0.0000611647   0.0001172623   0.0000854391  -0.0000878442   0.0001236026
       -0.0002639438  -0.0000441503  -0.0000568839   0.0005927292  -0.0000268155
       -0.0006688796  -0.0002674111   0.0013174103  -0.0016637960
       -0.0143715268  -0.3003333363  -0.1930523202   0.0109573533   0.5524438935
        0.0725264073   0.0000889361  -0.0925662306   0.1025414355   0.0513072932
       -0.0721064859   0.0080427407   0.0131700425  -0.0194066760  -0.0011635266
       -0.0028757858   0.0003056199  -0.0064579443   0.0100025865  -0.0075048370
        0.0012987342  -0.0079853582   0.0054892345  -0.0012837813   0.0011421465
        0.0004584148   0.0017204127  -0.0003915581   0.0000170154  -0.0003061283
       -0.0000272136  -0.0001577943   0.0002059503   0.0000653391  -0.0000056011
       -0.0001011880   0.0001584785   0.0000912319   0.0002297245  -0.0002550029
        0.0000316185  -0.0007259543   0.0001714605   0.0002491153   0.0001844550
       -0.0000209445  -0.0000758410  -0.0003486561   0.0001564139   0.0006818670
        0.0002367980  -0.0000650949  -0.0002399926  -0.0002320439   0.0000751150
        0.0000476528  -0.0000257414  -0.0000828691  -0.0002331855   0.0000721804
       -0.0002435403   0.0003662643   0.0000937777   0.0000614349  -0.0015745672
       -0.0011063722  -0.0026494357   0.0057948137  -0.0013165602   0.0067773920
        0.0010331360   0.0094800640  -0.0469586719  -0.0645309928   0.0084376442
       -0.0113009312  -0.0094096111  -0.0050992190   0.0003131230   0.0048671537
       -0.0039134660  -0.0090807212  -0.0064946884   0.0019879097   0.0073304036
        0.0048788671  -0.0018094042  -0.0004189494  -0.0002825695   0.0019588775
        0.0000741374   0.0003861557  -0.0003705450  -0.0001866959   0.0001100115
        0.0000812028   0.0000739907  -0.0002502412  -0.0000584241   0.0000011999
       -0.0000186820   0.0003466032   0.0003192203  -0.0000297566  -0.0005774410
        0.0001809392  -0.0000874784   0.0002789790   0.0000690542  -0.0001338363
       -0.0003063341   0.0005117934   0.0000260624   0.0004086627  -0.0001355428
       -0.0000699300  -0.0003220226   0.0000958222  -0.0002498519   0.0000467205
       -0.0001972768   0.0001113133  -0.0000222260   0.0002089833   0.0004185501
        0.0002280410  -0.0010833810  -0.0005293442  -0.0015653955   0.0022738200
        0.0056664190   0.0022107497  -0.0059753358  -0.0084706412   0.0102201828
       -0.0005109441   0.0000015955   0.0004313251   0.0003547702   0.0001119987
       -0.0000184851   0.0001247006  -0.0000396837   0.0001765576   0.0000022397
        0.0000180607  -0.0001635849  -0.0000800573  -0.0000168715  -0.0000927695
       -0.0001859183  -0.0000656712  -0.0000089067  -0.0001506160  -0.0001410891
        0.0000381032  -0.0000640106  -0.0000418384   0.0001680631  -0.0001039394
        0.0000469599   0.0001550575  -0.0000085780   0.0000738812   0.0000665287
        0.0000839107   0.0000811880   0.0000223058   0.0001088546  -0.0001779059
        0.0000367508  -0.0007881714   0.0005151728  -0.0007648130  -0.0026762989
       -0.0002092521  -0.0014772355   0.0015362290  -0.0003123764   0.0004066133
        0.0000538385   0.0005997069   0.0002400465  -0.0000558173  -0.0000250538
        0.0000624157   0.0000573727  -0.0000380297  -0.0001856971   0.0000323701
        0.0000455926  -0.0000945779  -0.0000469507   0.0001066965  -0.0000926622
       -0.0001139473   0.0000783677  -0.0000411524  -0.0000925128   0.0000791409
        0.0000679436  -0.0000125108   0.0001115489   0.0000803491   0.0000533439
        0.0000525858   0.0000695243   0.0001098423  -0.0000284595   0.0001441257
       -0.0000925248  -0.0000444173  -0.0000483506   0.0000644721   0.0007351806
       -0.0004139241   0.0011202105  -0.0002292672  -0.0014371101
       -0.0121709552  -0.1953621601  -0.2221330715   0.0135597854   0.0725264073
        0.7558870883  -0.0041176720   0.1053574362  -0.4300511760  -0.0129157172
        0.0079325770  -0.0431040924   0.0082609554  -0.0015118295   0.0029728701
        0.0006212929  -0.0047283497   0.0007481168  -0.0032021275   0.0014142948
       -0.0006154230   0.0022094017  -0.0014226686  -0.0003774588  -0.0001894298
        0.0000030048  -0.0002956974   0.0000123175  -0.0001243255   0.0000420903
       -0.0000036257  -0.0000115525  -0.0000752065   0.0000237229   0.0000021932
       -0.0000092714  -0.0000143627  -0.0000298567  -0.0000881757  -0.0000097633
        0.0000272086   0.0002092754  -0.0000437669  -0.0000907277  -0.0000123581
        0.0000092114   0.0000756101   0.0000679483  -0.0000577526  -0.0002319444
       -0.0000581319   0.0000167709   0.0000517850   0.0000221072   0.0000112460
       -0.0000183309  -0.0000546362  -0.0000150189   0.0000911910  -0.0000314851
        0.0000304242  -0.0001558130  -0.0000473445   0.0000113677   0.0005285506
        0.0004341579  -0.0033626542  -0.0032417694  -0.0012357490  -0.0103215009
        0.0082058531  -0.0037365389   0.0182129835   0.0084921237  -0.0445128627
       -0.0065334634  -0.0039922473   0.0059527135  -0.0038356105  -0.0019776810
       -0.0015958545   0.0027696844   0.0024529403  -0.0013631289  -0.0024190019
       -0.0020373363   0.0000693275   0.0001819703   0.0000744645  -0.0004397998
       -0.0000920719  -0.0000790263  -0.0000043855   0.0000154662  -0.0000392584
       -0.0000502298  -0.0000308366   0.0000384305   0.0000028158   0.0000049585
       -0.0000243399  -0.0001294862  -0.0000664724   0.0000718144   0.0001802354
       -0.0001017478   0.0000517778  -0.0000701741   0.0000337229   0.0000248380
        0.0001113932  -0.0002209275  -0.0000098523  -0.0001499358   0.0000427346
        0.0000152714   0.0000734840  -0.0000296449   0.0000471008  -0.0000669210
        0.0001077884  -0.0000083823  -0.0000206623  -0.0000913724  -0.0001427083
       -0.0001655521   0.0004511815   0.0002282955   0.0007358374  -0.0002735061
        0.0006285897  -0.0048400525   0.0152230299   0.0099100515  -0.0050535671
        0.0008489231  -0.0014490862  -0.0015390625   0.0004705950  -0.0010631937
        0.0001043390  -0.0000331840   0.0001062376  -0.0000152214  -0.0000246118
        0.0000216085  -0.0000133803   0.0000146154   0.0000175808   0.0000117777
        0.0000707285   0.0000188409   0.0000110827   0.0000457522   0.0000400895
       -0.0000058366   0.0000666806  -0.0000053627  -0.0000740403   0.0000539895
       -0.0000385087  -0.0000426808   0.0000140232  -0.0000527902  -0.0000172205
       -0.0000230060  -0.0000604352   0.0000172524   0.0000014062   0.0000798905
        0.0000536508  -0.0007628359   0.0002369788  -0.0000706828  -0.0007434760
        0.0004507833  -0.0017633849  -0.0020312135  -0.0015657496  -0.0017473522
       -0.0010313829  -0.0007820595  -0.0001795955   0.0000980757   0.0000426076
        0.0000552102   0.0000340703   0.0000145689   0.0000059534   0.0000105245
       -0.0000053559   0.0000140285   0.0000159889  -0.0000366094   0.0000358297
        0.0000425348  -0.0000196754   0.0000127298   0.0000217360  -0.0000747842
       -0.0000330834  -0.0000115487  -0.0000525381  -0.0000219261  -0.0000446137
       -0.0000256529  -0.0000231480  -0.0000833739   0.0000163739  -0.0000454171
        0.0000271395   0.0000243597   0.0001138977   0.0007055112   0.0006207569
       -0.0004043111   0.0005559380   0.0005294749  -0.0015604404
        0.0090690604   0.0001171647  -0.0017205247  -0.0538286484   0.0000889361
       -0.0041176720   0.0440021533   0.0014162381   0.0025864696   0.0042058715
        0.0066725558  -0.0173632441   0.0003944585  -0.0005916651  -0.0017502337
       -0.0015600962  -0.0004959688  -0.0002611119   0.0024630683  -0.0022581126
        0.0004547873  -0.0019762447   0.0018306100  -0.0005463908   0.0003306932
        0.0001206397   0.0004702560  -0.0001102045  -0.0000005645  -0.0000595976
       -0.0000441761  -0.0000380420   0.0000444195   0.0000474006   0.0000150749
       -0.0000442403   0.0000450115   0.0000461078   0.0000621857  -0.0000787559
        0.0000200767  -0.0001764555   0.0000506277   0.0000977281   0.0000491460
       -0.0000097915  -0.0000175823  -0.0001113982   0.0000011368   0.0001859608
        0.0000542147  -0.0000083344  -0.0000482595  -0.0000730253   0.0000562500
        0.0000358705  -0.0000229364  -0.0000325009  -0.0000451578   0.0000492070
       -0.0000626658   0.0001011057   0.0000813787   0.0000323787  -0.0004842810
       -0.0003760676  -0.0020129158   0.0006533821   0.0007160430  -0.0007181115
        0.0028404050  -0.0000126081   0.0049242072  -0.0063964604   0.0177825439
        0.0002772710  -0.0007986072   0.0008362388  -0.0000807015   0.0004377647
        0.0015125638   0.0020820520   0.0018770459  -0.0003254195  -0.0016270722
       -0.0015312723   0.0005281653   0.0000942206   0.0000875709  -0.0005382420
       -0.0000834134  -0.0000695442   0.0000948892   0.0000459424  -0.0000412871
       -0.0000251834   0.0000000942  -0.0000010261   0.0000247160  -0.0000002772
        0.0000000626  -0.0000625781  -0.0000812080   0.0000440441   0.0001596157
       -0.0000438009   0.0000204078  -0.0000949492  -0.0000161551   0.0000411760
        0.0000943753  -0.0001256455   0.0000210461  -0.0001170930   0.0000329250
        0.0000042775   0.0000685408  -0.0000131582   0.0000032679  -0.0000167647
        0.0000394493  -0.0000416080   0.0000084461  -0.0000981472  -0.0000608872
       -0.0000200702   0.0002743302   0.0001596850   0.0003902801  -0.0014858267
       -0.0004695626   0.0008247101  -0.0035373140  -0.0036549643  -0.0000167576
        0.0000265655   0.0001693106  -0.0002491329  -0.0001699857   0.0000681639
        0.0001273914   0.0000064984  -0.0000358996   0.0000617542  -0.0000053714
       -0.0000107212  -0.0000445524  -0.0000223358  -0.0000116813  -0.0000233191
       -0.0000381225  -0.0000278061   0.0000026525  -0.0000161484  -0.0000389818
        0.0000119912  -0.0000063090  -0.0000184454   0.0000415417  -0.0000205155
        0.0000032153   0.0000390728  -0.0000080160   0.0000271906   0.0000220017
        0.0000166154   0.0000459620   0.0000157289  -0.0000157716  -0.0000693095
       -0.0000010538  -0.0004420601   0.0000354873  -0.0000024536   0.0002399889
        0.0002649110  -0.0002971585  -0.0000727916   0.0000945502   0.0009759774
       -0.0000143130   0.0000537854  -0.0000824145   0.0000542507  -0.0000032802
       -0.0000488614  -0.0000145404   0.0000214989   0.0000288858  -0.0000122324
       -0.0000082539   0.0000306300   0.0000008347  -0.0000385704   0.0000319239
        0.0000285549  -0.0000360512   0.0000248605   0.0000198706  -0.0000370043
       -0.0000292689  -0.0000078989  -0.0000419054  -0.0000259673  -0.0000159229
       -0.0000109472  -0.0000240157  -0.0000094030   0.0000212612  -0.0000217154
        0.0000770556   0.0000093445   0.0000044471  -0.0004806159  -0.0001609549
        0.0002796875   0.0000686829  -0.0001582200   0.0001107379
       -0.0001193573   0.0157002502  -0.0290545339  -0.0010519576  -0.0925662306
        0.1053574362   0.0014162381   0.0811236736  -0.1082845766  -0.0001764860
       -0.0004621884   0.0136429546   0.0001657894   0.0002565042   0.0007184111
        0.0007956676   0.0007280292   0.0003848380  -0.0021419715   0.0016669436
       -0.0001915419   0.0017335765  -0.0012846040   0.0003518469  -0.0003102453
       -0.0001623558  -0.0003806824   0.0000701227  -0.0000002121   0.0000705003
        0.0000265331   0.0000390218  -0.0000385632  -0.0000097581   0.0000094058
        0.0000285869  -0.0000349906  -0.0000202736  -0.0000604697   0.0000541658
       -0.0000208015   0.0001479352  -0.0000408685  -0.0000594603  -0.0000354416
        0.0000036714   0.0000172303   0.0000819644  -0.0000225300  -0.0001466524
       -0.0000365610   0.0000119469   0.0000551174   0.0000480741  -0.0000098602
       -0.0000133264   0.0000020964   0.0000276970   0.0000429749  -0.0000281262
        0.0000417706  -0.0000880782  -0.0000241628  -0.0000521989   0.0003549749
        0.0003291134   0.0014602284  -0.0000880838  -0.0000621508   0.0009162693
       -0.0028809620  -0.0000590657   0.0007011737   0.0000940094   0.0133263212
        0.0000891728   0.0003767297   0.0009350930   0.0000490396   0.0001174058
        0.0009766218   0.0018489451   0.0013346269  -0.0004219231  -0.0015096737
       -0.0010547360   0.0003940104   0.0001173774   0.0000116893  -0.0004193204
       -0.0000535840  -0.0000720126   0.0000675870   0.0000336955  -0.0000329427
       -0.0000375317  -0.0000130886   0.0000394372   0.0000106302  -0.0000128764
        0.0000089467  -0.0000596996  -0.0000692593   0.0000152433   0.0001309452
       -0.0000493591   0.0000277414  -0.0000588024  -0.0000117421   0.0000268696
        0.0000732493  -0.0001217714  -0.0000083650  -0.0000950770   0.0000090206
        0.0000170223   0.0000544209  -0.0000196430   0.0000496129  -0.0000131223
        0.0000489333  -0.0000276148   0.0000140473  -0.0000686343  -0.0000785566
       -0.0000614035   0.0002667360   0.0000921666   0.0003495453  -0.0006430941
       -0.0003903650   0.0007553771  -0.0036891990  -0.0018752514   0.0001235006
       -0.0001398781   0.0005281690   0.0006132059   0.0000365158  -0.0000675186
       -0.0000445472  -0.0000239199   0.0000273121  -0.0000630500  -0.0000027736
        0.0000009283   0.0000319240   0.0000200154   0.0000043963   0.0000212062
        0.0000431779   0.0000161888   0.0000035803   0.0000357066   0.0000325866
       -0.0000071708   0.0000144385   0.0000066365  -0.0000398960   0.0000244499
       -0.0000117807  -0.0000359903   0.0000019917  -0.0000203004  -0.0000154265
       -0.0000207161  -0.0000155232  -0.0000041889  -0.0000169040   0.0000631448
       -0.0000125505   0.0004612100  -0.0001254882   0.0000685159  -0.0000747957
       -0.0003351001   0.0002250454   0.0002303534  -0.0003847189   0.0004717311
       -0.0000376560  -0.0000402665  -0.0000760627   0.0000395392  -0.0000173651
       -0.0000138475  -0.0000091391   0.0000067677   0.0000362145  -0.0000031785
       -0.0000107527   0.0000226212   0.0000106774  -0.0000214748   0.0000208777
        0.0000283102  -0.0000139982   0.0000097207   0.0000215121  -0.0000166746
       -0.0000151952   0.0000055115  -0.0000266293  -0.0000151850  -0.0000127706
       -0.0000166651  -0.0000154853  -0.0000289188   0.0000008269  -0.0000314201
        0.0000392260  -0.0000131208   0.0000287654  -0.0002983427  -0.0003280719
        0.0001695957   0.0000007357  -0.0000940617  -0.0002853389
       -0.0006657958  -0.0046969781  -0.0328545898   0.0001068486   0.1025414355
       -0.4300511760   0.0025864696  -0.1082845766   0.4820832870  -0.0008231591
        0.0023165274  -0.0085742634   0.0003647112  -0.0033434001  -0.0025758348
       -0.0021574446   0.0003573945  -0.0004036851   0.0043038601  -0.0030407900
        0.0005733723  -0.0031904000   0.0025048282  -0.0003784915   0.0005474117
        0.0002303828   0.0006186222  -0.0001854540   0.0000372135  -0.0000452221
       -0.0000312916  -0.0000467200   0.0000744423   0.0000105462   0.0000156398
       -0.0000227464   0.0000721893   0.0000291372   0.0001274647  -0.0000587554
        0.0000179389  -0.0002786374   0.0000705423   0.0001194402   0.0000602593
       -0.0000033200  -0.0000526774  -0.0001231048   0.0000350521   0.0002869679
        0.0000770198  -0.0000279892  -0.0001227368  -0.0000761962   0.0000353121
        0.0000431858   0.0000224123  -0.0000084184  -0.0000731314   0.0000757260
       -0.0001150363   0.0001418403   0.0001331883   0.0000785822  -0.0007007091
       -0.0006896093  -0.0018085181   0.0009865006   0.0006632593   0.0000535009
        0.0038124223   0.0011161825  -0.0027991820   0.0024692501  -0.0113007467
       -0.0030954465  -0.0020451968  -0.0024033057   0.0013059260   0.0005645633
       -0.0010737847  -0.0038655893  -0.0030959594   0.0009246554   0.0029976946
        0.0024084654  -0.0005462920  -0.0002218798  -0.0000984868   0.0007808199