$hessian                                                                        
        0.0487797462  -0.0253318960  -0.0486890311  -0.0589354932   0.0259767430
        0.0447744150   0.0086736583  -0.0003966203   0.0024512036   0.0069178152
       -0.0092452600  -0.0126119881  -0.0029978291  -0.0037170633   0.0000371989
       -0.0008815073  -0.0003111487  -0.0010091287   0.0003570975   0.0005950963
       -0.0001442907  -0.0001334349  -0.0004428711  -0.0000635007   0.0002721852
       -0.0001588682  -0.0000542247  -0.0000375510   0.0001058523  -0.0000686871
       -0.0000315583  -0.0000814588  -0.0000135156   0.0000423064   0.0000455375
       -0.0000022321   0.0000866135  -0.0000846865  -0.0000072933  -0.0000621870
        0.0001335601   0.0000206510   0.0001128911  -0.0001718339  -0.0000484983
       -0.0001500861   0.0000913995   0.0000439517   0.0001235825  -0.0000512180
        0.0000314906  -0.0000412434   0.0000564732   0.0000123166   0.0000669176
        0.0000445395   0.0000334549  -0.0000494334  -0.0000856256  -0.0000621450
        0.0000412886  -0.0000228709   0.0000106779  -0.0002049427   0.0002237799
        0.0000687376   0.0001190646   0.0005070535  -0.0010668019  -0.0001534035
       -0.0011849863  -0.0003101029   0.0026996134   0.0102879578   0.0165101857
       -0.0014708704   0.0037306606  -0.0009655247  -0.0022612923   0.0004143880
       -0.0006415672   0.0026738388  -0.0027771371   0.0000526975  -0.0021042633
        0.0021179905   0.0000565538   0.0001120649  -0.0002762396   0.0005547061
       -0.0000718719   0.0001112127  -0.0000737075   0.0000533238   0.0000380178
        0.0000462816  -0.0000079646  -0.0000148572  -0.0000386467  -0.0000069947
       -0.0000306642   0.0000972098  -0.0000916991   0.0000210654  -0.0002642102
       -0.0000772142  -0.0000719193   0.0001611301   0.0000206394   0.0000501667
       -0.0001895103  -0.0002076461  -0.0001300197   0.0001342088   0.0000435142
        0.0000331273  -0.0000947492  -0.0000200051  -0.0000183256   0.0000078209
        0.0000710519   0.0000488602   0.0000003737  -0.0001334418   0.0000870801
        0.0000609387   0.0004073254   0.0000588926  -0.0004547760  -0.0016915251
       -0.0004044814   0.0004936407   0.0005587299  -0.0001659619   0.0021202469
        0.0000431007  -0.0002565224  -0.0001112546  -0.0003105876  -0.0002902715
       -0.0001192209   0.0000550211   0.0000024066   0.0000768369   0.0000407699
        0.0000173557   0.0000093794  -0.0000225684   0.0000129464   0.0000132935
       -0.0000256858  -0.0000235253   0.0000087358  -0.0000345354  -0.0000138905
       -0.0000074510  -0.0000160220  -0.0000391313  -0.0000056005  -0.0000145466
       -0.0000235226  -0.0000129015   0.0000056521  -0.0000385874  -0.0000147520
        0.0000118296  -0.0000292930   0.0000066153  -0.0001375914   0.0001107481
       -0.0000187850   0.0000494470   0.0000332797   0.0000226225   0.0002128126
        0.0001743826  -0.0010311809   0.0003053992   0.0003451860   0.0001090134
       -0.0005357468   0.0000757851  -0.0000007423   0.0000574962  -0.0000306207
        0.0000551823  -0.0000127244  -0.0000094844  -0.0000453477  -0.0000073664
        0.0000208574  -0.0000318831   0.0000093874   0.0000594098  -0.0000162424
        0.0000407664   0.0000463741  -0.0000063757   0.0000244217   0.0000183353
        0.0000495226  -0.0000111035   0.0000346462   0.0000509800  -0.0000225779
        0.0000005351   0.0000296275  -0.0000293517  -0.0000289550   0.0000180165
        0.0000795852  -0.0000069374  -0.0000138363  -0.0001756336   0.0000385020
       -0.0001525835   0.0000105422   0.0001965503   0.0002323712
       -0.0253318960   0.1586959963   0.1928224766   0.0246294507  -0.1634437038
       -0.1750813155  -0.0024307690   0.0203480636   0.0152778868   0.0034309243
       -0.0051562214  -0.0165324953  -0.0047348610  -0.0040752224   0.0004012668
       -0.0003539419  -0.0005637434  -0.0012724784   0.0009079608   0.0009850691
        0.0001814818  -0.0004684215  -0.0005191829   0.0000322001   0.0005622780
       -0.0002359915  -0.0001512454  -0.0001052542   0.0001262725   0.0000022773
       -0.0000196419  -0.0000996645   0.0000388927   0.0000555734   0.0000577963
       -0.0000118046   0.0000884810   0.0000020785   0.0000054917  -0.0001338719
        0.0000612879  -0.0000216152   0.0001494305  -0.0000794430  -0.0000547814
       -0.0002238869   0.0000809905   0.0000383267   0.0002122749  -0.0000472231
        0.0000347632  -0.0001474141   0.0001225542   0.0000156142   0.0000927924
        0.0001380489   0.0000695814  -0.0001224240  -0.0001166788  -0.0000441144
        0.0000544950   0.0000032040   0.0000826950  -0.0002972765   0.0002265800
        0.0000444935   0.0003167337   0.0001953208  -0.0007086331   0.0000402773
       -0.0002217328  -0.0014590723   0.0008222932  -0.0026144409  -0.0128103209
        0.0014868402  -0.0033379893   0.0013060083   0.0015662946  -0.0001348131
       -0.0000337922  -0.0026748758   0.0022658896  -0.0000874449   0.0021068805
       -0.0016822102   0.0000347994  -0.0001339765   0.0002310298  -0.0005191480
        0.0000357634  -0.0001356316   0.0000396919  -0.0000454420  -0.0000171936
       -0.0000486045   0.0000231840   0.0000497910   0.0000311482   0.0000310774
        0.0000406537  -0.0000483873   0.0000738139  -0.0000609132   0.0001796713
        0.0000720665   0.0000562306  -0.0000462302   0.0000330907   0.0000163075
        0.0000921277   0.0001616776   0.0000478864  -0.0001135066  -0.0000044120
       -0.0000059730   0.0000779196   0.0000209296   0.0000444083   0.0000088714
       -0.0000682224  -0.0000299238   0.0000093998   0.0000904581  -0.0001183273
       -0.0000752890  -0.0004016887  -0.0000848422   0.0004158976   0.0010585061
        0.0004059860  -0.0006370112  -0.0000321700   0.0006577412  -0.0013692010
        0.0000278397   0.0000178665   0.0006033994  -0.0004011795  -0.0005050298
       -0.0000490772   0.0001263294  -0.0001474654   0.0000007021  -0.0000347274
        0.0000340090  -0.0000197196  -0.0000625914   0.0000107107   0.0000156964
       -0.0000370960  -0.0000301632   0.0000147561  -0.0000549384  -0.0000310331
       -0.0000097491  -0.0000149921  -0.0000538958  -0.0000047709  -0.0000243081
       -0.0000457347  -0.0000200819   0.0000276937  -0.0000418206  -0.0000219496
        0.0000282892   0.0000458687   0.0000036480  -0.0000059329   0.0000760208
       -0.0000982511  -0.0000925996  -0.0001059554   0.0000460023   0.0001608522
       -0.0005218641  -0.0001620354  -0.0002546326  -0.0003461727   0.0001461550
        0.0005025227  -0.0002252255  -0.0000350687  -0.0000340067   0.0000060574
       -0.0000462828   0.0000146419  -0.0000137623   0.0000494610   0.0000018412
       -0.0000214466   0.0000210910  -0.0000207815  -0.0000425342   0.0000027392
       -0.0000426879  -0.0000238688   0.0000002232  -0.0000310102  -0.0000115666
       -0.0000337449  -0.0000050603  -0.0000222941  -0.0000415279   0.0000151386
       -0.0000060510  -0.0000277760   0.0000392223   0.0000195580  -0.0000336202
       -0.0000516993  -0.0000095432   0.0000063221   0.0000846201  -0.0001107553
        0.0000930988  -0.0002538481   0.0000279702  -0.0005161314
       -0.0486890311   0.1928224766   0.4092708796   0.0414581565  -0.1729105561
       -0.3646169940   0.0047529068  -0.0095568415  -0.0371215152   0.0041336759
       -0.0039974005  -0.0075724380  -0.0028250776  -0.0030765929   0.0018118302
       -0.0005881398  -0.0002836755  -0.0006847522   0.0009822693   0.0012667628
        0.0002452036  -0.0004796132  -0.0005649013   0.0002680021   0.0005532133
       -0.0002417882  -0.0002452032  -0.0000988747   0.0000799708   0.0000890956
       -0.0000081068  -0.0000684803   0.0000638137   0.0000560827   0.0000745301
       -0.0000144978   0.0000994376  -0.0000424550   0.0000365850  -0.0001031638
        0.0001248708  -0.0000214676   0.0001540359  -0.0001223349  -0.0000405740
       -0.0002195405   0.0000961911   0.0000527449   0.0002192336  -0.0000443070
        0.0000390897  -0.0001300079   0.0001275964   0.0000278639   0.0001040989
        0.0001320925   0.0000775824  -0.0001033198  -0.0000939724  -0.0000032957
       -0.0000841784  -0.0001014852   0.0000554556  -0.0002919228   0.0003456091
        0.0000441861  -0.0004271627  -0.0001511210   0.0000029672   0.0016684903
        0.0006644238  -0.0016604347   0.0008772078  -0.0013894252  -0.0030063391
       -0.0002270524  -0.0024177337   0.0019672715   0.0013102411  -0.0007434413
        0.0007505327  -0.0033283691   0.0027674776  -0.0000422759   0.0024640886
       -0.0020846407   0.0002408175  -0.0001226844   0.0003031220  -0.0006745951
       -0.0000150316  -0.0001955434   0.0000523715  -0.0000765785  -0.0000046415
       -0.0000320377   0.0000204003   0.0000585058   0.0000714577   0.0000203409
        0.0000360360  -0.0000683631   0.0000983682  -0.0000685673   0.0002169427
        0.0000639626   0.0000671967  -0.0000509060   0.0000480964   0.0000211714
        0.0001097056   0.0001802278   0.0000977805  -0.0001254301  -0.0000254235
       -0.0000215851   0.0001009166   0.0000325683   0.0000539190   0.0000224571
       -0.0000739827  -0.0000265065   0.0000206708   0.0000651524  -0.0001776483
       -0.0000432967  -0.0004535918  -0.0000790166   0.0004283226   0.0017581064
       -0.0006008628  -0.0001345091  -0.0006823449   0.0023392648  -0.0030925406
        0.0002966017   0.0004940944   0.0010093005  -0.0003998564  -0.0003500055
       -0.0000321195   0.0000977255  -0.0000682350  -0.0000645038  -0.0000131678
        0.0000345547  -0.0000357666  -0.0000501509   0.0000114985   0.0000058800
       -0.0000324806  -0.0000314220   0.0000042892  -0.0000481425  -0.0000241365
       -0.0000222366  -0.0000085270  -0.0000432857  -0.0000108063  -0.0000104586
       -0.0000313239  -0.0000244053   0.0000311405  -0.0000223866  -0.0000237588
        0.0000643949   0.0000081355  -0.0000204599   0.0000012807   0.0000356167
       -0.0001431022  -0.0002429305  -0.0002742448   0.0000879441  -0.0010831943
       -0.0004937430   0.0010321440  -0.0008503497  -0.0000095303   0.0005876606
        0.0003653264  -0.0001860035  -0.0000163136   0.0000156103   0.0000274592
       -0.0000634204   0.0000373215  -0.0000239110   0.0000687833   0.0000106347
       -0.0000321737   0.0000112461  -0.0000180207  -0.0000510687   0.0000009156
       -0.0000538130  -0.0000541964  -0.0000086207  -0.0000374891  -0.0000165295
       -0.0000441453  -0.0000066865  -0.0000249864  -0.0000508165   0.0000052348
        0.0000040153  -0.0000248240   0.0000244168   0.0000168394  -0.0000342124
       -0.0000366385   0.0000302965  -0.0000152686   0.0002817500  -0.0002611399
        0.0002183571  -0.0004066954  -0.0010776611   0.0007929596
       -0.0589354932   0.0246294507   0.0414581565   0.3536552494  -0.0246433021
       -0.0425743325  -0.0540913184  -0.0013557803   0.0052977931  -0.1002111085
       -0.0431798544  -0.0062971792  -0.0023764484  -0.0049058189  -0.0087327749
        0.0061008935  -0.0005868076  -0.0001846702  -0.0028372999  -0.0041948182
        0.0000426651   0.0008591842   0.0025655577  -0.0001032953  -0.0015445942
        0.0007204322   0.0005337056   0.0003265094  -0.0004518584   0.0001646477
        0.0000625755   0.0003679644   0.0000275601  -0.0002234590  -0.0002556287
        0.0000240192  -0.0004397447   0.0003031978  -0.0000091783   0.0002997688
       -0.0005926911  -0.0000310735  -0.0005755788   0.0007062925   0.0002357889
        0.0008148462  -0.0004289810  -0.0001967454  -0.0007846907   0.0001859535
       -0.0002086735   0.0003355992  -0.0003675342  -0.0000567986  -0.0004170843
       -0.0003765433  -0.0002649571   0.0002225223   0.0004929258   0.0002778948
        0.0000526961   0.0002364617   0.0000337063   0.0010271960  -0.0008409994
       -0.0003888725   0.0028758132  -0.0008576840   0.0047596349  -0.0114940444
       -0.0084640001   0.0056237838  -0.1148579903   0.0432324920  -0.0012170392
       -0.0207193684   0.0091149087   0.0086645903   0.0046949473  -0.0036034573
        0.0074532911  -0.0117956042   0.0111721643   0.0009346040   0.0090903519
       -0.0088297067  -0.0001142301  -0.0004639067   0.0011408262  -0.0022649738
        0.0002547158  -0.0005005270   0.0003071637  -0.0002467816  -0.0001242840
       -0.0002107044   0.0000529505   0.0001070543   0.0001378450   0.0000157168
        0.0001622700  -0.0004265126   0.0003826567  -0.0000800237   0.0010969471
        0.0003040189   0.0002726326  -0.0006710120  -0.0000949280  -0.0002073818
        0.0007412253   0.0008735304   0.0004772380  -0.0005807077  -0.0002401981
       -0.0001499029   0.0004167276   0.0001015970   0.0001518855   0.0000058108
       -0.0002843815  -0.0001721480  -0.0000415596   0.0004465002  -0.0002989849
       -0.0003060341  -0.0016454226  -0.0002270145   0.0018151192   0.0095119621
       -0.0016968473  -0.0030241312  -0.0084000366   0.0105369785  -0.0122048056
       -0.0005696582   0.0017842461   0.0008350857   0.0005029588   0.0004727147
        0.0003500230  -0.0000945528   0.0000622039  -0.0002058689  -0.0001060895
       -0.0000587895   0.0000149352   0.0001313231  -0.0000459967  -0.0000539611
        0.0001243294   0.0001114816  -0.0000361323   0.0001651137   0.0000770550
        0.0000477982   0.0000685521   0.0001821787   0.0000211017   0.0000721461
        0.0001249509   0.0000595111  -0.0000441398   0.0001654576   0.0000682756
       -0.0000955822   0.0000811953  -0.0000259362   0.0003540258  -0.0003240461
        0.0000904553   0.0000924019   0.0000253238  -0.0001810126  -0.0004475010
        0.0009977086  -0.0008485096   0.0000474559  -0.0007635509  -0.0013912692
        0.0002873799   0.0004332531  -0.0001789778  -0.0001657256   0.0001038055
       -0.0001805519   0.0000539155   0.0000215204   0.0001766203   0.0000260489
       -0.0000781622   0.0001117315  -0.0000400417  -0.0002271592   0.0000609578
       -0.0001629263  -0.0001668647   0.0000212234  -0.0001048994  -0.0000754788
       -0.0001890481   0.0000308521  -0.0001263029  -0.0002007561   0.0000738316
       -0.0000026371  -0.0001067452   0.0000956370   0.0001090715  -0.0000772031
       -0.0002466471   0.0000484419   0.0000450117   0.0006079278  -0.0002343617
        0.0006506890  -0.0003384550  -0.0018813652   0.0011801337
        0.0259767430  -0.1634437038  -0.1729105561  -0.0246433021   0.5337491239
       -0.0177053303  -0.0034322671  -0.2025006400   0.1929061308  -0.0498290301
       -0.0777924516  -0.0046580264  -0.0061966538  -0.0117057447  -0.0084602268
       -0.0005134886   0.0032513764  -0.0030922293  -0.0035475785  -0.0034787009
       -0.0006039836   0.0025787261   0.0008424720   0.0004865562  -0.0017398300
        0.0009391120   0.0005814041   0.0004634152  -0.0001839888  -0.0000247587
       -0.0000404032   0.0002688655  -0.0000380571  -0.0002047872  -0.0001981990
        0.0000569581  -0.0003370608  -0.0000021575  -0.0000252730   0.0004741947
       -0.0002480896   0.0000429629  -0.0005393178   0.0002353569   0.0001976393
        0.0007651577  -0.0002908199  -0.0001064987  -0.0007132809   0.0000692410
       -0.0001713735   0.0004822521  -0.0004488006  -0.0000434311  -0.0003812041
       -0.0004919117  -0.0002697201   0.0003610445   0.0003684441   0.0001505663
       -0.0002143344  -0.0000056035  -0.0001831830   0.0007257497  -0.0006122699
       -0.0002776240  -0.0019240622   0.0042781263   0.0001798898  -0.0077449710
       -0.0054544179   0.0068050745   0.0501462116  -0.0666072755   0.0031937243
        0.0094153689  -0.0048031304  -0.0091552756  -0.0014815623   0.0064005245
       -0.0010895536   0.0092537705  -0.0078259037   0.0002161582  -0.0076402184
        0.0056489656  -0.0002418667   0.0002991933  -0.0009835310   0.0016473893
       -0.0000338428   0.0004944589  -0.0000946248   0.0001572346   0.0000671067
        0.0001064946  -0.0000854871  -0.0001922751  -0.0001057797  -0.0000598788
       -0.0001669183   0.0002531445  -0.0002388675   0.0002135214  -0.0005334555
       -0.0002384841  -0.0001790325   0.0001119354  -0.0000914156  -0.0000579886
       -0.0002726074  -0.0005306112  -0.0000642104   0.0003611184   0.0001077330
        0.0000375864  -0.0002916990  -0.0000941029  -0.0001969435  -0.0000439492
        0.0001974136   0.0000549547   0.0000656598  -0.0001776953   0.0003754616
        0.0003631429   0.0012549801   0.0000862509  -0.0016046463  -0.0026493769
        0.0033173815   0.0056785157   0.0114185828  -0.0165725701   0.0072942108
        0.0010419155   0.0004859279   0.0009627604   0.0002021926   0.0003205138
        0.0001009669  -0.0002241073   0.0003036791  -0.0000634557   0.0001225544
       -0.0001402356   0.0000298690   0.0001945295  -0.0000545209  -0.0000586545
        0.0001369980   0.0000958130  -0.0000638392   0.0001889872   0.0001005579
        0.0000251247   0.0000632700   0.0001913699   0.0000109735   0.0000996072
        0.0001560681   0.0000531244  -0.0000782897   0.0001536039   0.0000715798
       -0.0000596973  -0.0001231643  -0.0000121238  -0.0000206364   0.0000021094
        0.0002456265   0.0003623827   0.0005811593  -0.0001354625   0.0022305752
        0.0004375340  -0.0005487043  -0.0023325654  -0.0002139751   0.0007541971
       -0.0003561430   0.0007758416   0.0005459763   0.0000758943  -0.0000711905
        0.0000712790  -0.0000364805   0.0000323195  -0.0001788830  -0.0000117911
        0.0000686340  -0.0000724074   0.0000743669   0.0001448225  -0.0000258839
        0.0001348076   0.0000796176  -0.0000041908   0.0000966118   0.0000617239
        0.0001129223   0.0000139443   0.0000825325   0.0001441177  -0.0000736651
        0.0000207464   0.0000888064  -0.0001511154  -0.0000750596   0.0001176651
        0.0000995617  -0.0000337698  -0.0000769909   0.0002973302   0.0004502383
        0.0000486217  -0.0008456948  -0.0000239486  -0.0008379614
        0.0447744150  -0.1750813155  -0.3646169940  -0.0425743325  -0.0177053303
        0.7970113275   0.0081156469   0.1953238124  -0.3324269053  -0.0097408473
       -0.0052416867  -0.0412870917  -0.0112479748  -0.0101198826  -0.0013354385
        0.0006380254  -0.0031667015  -0.0032417427   0.0000130951  -0.0006715349
       -0.0006746871  -0.0000342070   0.0005020137  -0.0006203418  -0.0001580910
        0.0000281995   0.0001260371  -0.0000462899  -0.0000955077  -0.0001127629
        0.0000389648   0.0000475970  -0.0001027362  -0.0000271407  -0.0000327415
       -0.0000121469  -0.0000616017   0.0000397545  -0.0000266881   0.0000285346
       -0.0000535846   0.0000414796  -0.0000749510   0.0000917545   0.0000025207
        0.0000715916  -0.0000501102  -0.0000582553  -0.0001008819   0.0000541736
        0.0000164286   0.0000262562  -0.0000435746  -0.0000384963  -0.0000382613
       -0.0000599113  -0.0000417565   0.0000419652   0.0000269203  -0.0000746095
        0.0000565029   0.0001981538  -0.0000799717   0.0001853644  -0.0001507534
        0.0000213094   0.0036979794   0.0001014550  -0.0022848440   0.0079938827
        0.0082540408   0.0029914931  -0.0045544816   0.0026651935  -0.0418766437
        0.0088195194  -0.0079664035   0.0018082788   0.0040332512   0.0007585581
       -0.0020858152  -0.0000356590   0.0008788949  -0.0003800723   0.0002294479
       -0.0004704600  -0.0006355360  -0.0000633153  -0.0000832020   0.0001327962
        0.0000948631   0.0000701171  -0.0000464740   0.0000330056  -0.0000159512
       -0.0000374973  -0.0000021850  -0.0000216562  -0.0000383208  -0.0000023674
       -0.0000153197  -0.0000285356  -0.0000256088   0.0000448859   0.0000625733
        0.0000385666   0.0000071903  -0.0000058324  -0.0000647644  -0.0000224773
        0.0000259137   0.0000700322   0.0000055075  -0.0000451651   0.0000007612
        0.0000076513  -0.0000252602  -0.0000116054  -0.0000200658  -0.0000461527
       -0.0000402019   0.0000182030  -0.0000239132   0.0000599558   0.0000431329
       -0.0000682821  -0.0001107035  -0.0000469325   0.0002020813   0.0003466093
        0.0038087378  -0.0026199827  -0.0124713130   0.0072083157  -0.0001874902
       -0.0009338762  -0.0011245422  -0.0017201017  -0.0005323661  -0.0008900751
       -0.0002358793  -0.0000294754   0.0000018058   0.0001503353  -0.0000184414
       -0.0000169010   0.0000664174   0.0000398430  -0.0000039140   0.0000098517
        0.0000250562   0.0000190193   0.0000118246   0.0000312537   0.0000079111
        0.0000186083   0.0000053156   0.0000044373   0.0000163606   0.0000015366
       -0.0000045695   0.0000212660  -0.0000068939  -0.0000140263   0.0000193429
       -0.0000239489   0.0000046705   0.0000556899   0.0000095497  -0.0000196430
        0.0001762071   0.0007430309   0.0008303612  -0.0001709783   0.0017857474
        0.0015956401  -0.0017572107   0.0015048597  -0.0009327459  -0.0019047069
        0.0009634627  -0.0004651948  -0.0002001458  -0.0000805280   0.0000065849
        0.0000503065  -0.0000409227   0.0000274158  -0.0000429356  -0.0000174307
        0.0000118068  -0.0000139955  -0.0000019382  -0.0000110791   0.0000059326
       -0.0000042094   0.0000025259   0.0000057958   0.0000049796  -0.0000463690
       -0.0000327878   0.0000173350  -0.0000258939  -0.0000064633   0.0000263947
       -0.0000069797  -0.0000082973   0.0000384537  -0.0000002841   0.0000137520
       -0.0000207445  -0.0000250165   0.0000763423  -0.0005523286   0.0010107229
       -0.0001405492  -0.0008551666   0.0010151722  -0.0017197789
        0.0086736583  -0.0024307690   0.0047529068  -0.0540913184  -0.0034322671
        0.0081156469   0.0430574722   0.0035823407  -0.0101463064   0.0055644077
       -0.0112944894   0.0139807345  -0.0001101157  -0.0005996964   0.0011222186
       -0.0009599304   0.0008807679   0.0000422349   0.0004334656   0.0009359090
        0.0002447429  -0.0000904067  -0.0005944609   0.0000605923   0.0003302975
       -0.0001587012  -0.0000953519  -0.0000422951   0.0001453915  -0.0000540151
       -0.0000214806  -0.0000968224  -0.0000019441   0.0000400889   0.0000379878
        0.0000004353   0.0000972464  -0.0000798317  -0.0000035161  -0.0000743483
        0.0001329191   0.0000118027   0.0001349864  -0.0001857567  -0.0000555810
       -0.0001791943   0.0001027208   0.0000501683   0.0001582958  -0.0000621349
        0.0000342391  -0.0000588933   0.0000697864   0.0000161037   0.0000809766
        0.0000594400   0.0000449660  -0.0000609771  -0.0001004994  -0.0000653686
        0.0000423864  -0.0000406910   0.0000113760  -0.0002475952   0.0002257622
        0.0000854224  -0.0017125759   0.0002072907  -0.0001352690  -0.0021895202
       -0.0033096705  -0.0009239647   0.0058784647   0.0111085639  -0.0142235834
        0.0000541538   0.0009366807  -0.0003092338   0.0000944678   0.0001515588
       -0.0014630808   0.0018671759  -0.0017981659  -0.0002554838  -0.0014504714
        0.0014896529  -0.0000471346   0.0000519175  -0.0002288755   0.0004445912
       -0.0000615891   0.0001013396  -0.0000562122   0.0000428143   0.0000262963
        0.0000431537  -0.0000047794   0.0000015448  -0.0000329713  -0.0000011004
       -0.0000255243   0.0000752647  -0.0000807480  -0.0000073280  -0.0002029358
       -0.0000600297  -0.0000539922   0.0001449230   0.0000169488   0.0000452381
       -0.0001551869  -0.0001585442  -0.0001032283   0.0000908795   0.0000501388
        0.0000342118  -0.0000773402  -0.0000246616  -0.0000165401   0.0000106893
        0.0000441899   0.0000393393   0.0000055989  -0.0000885895   0.0000612671
        0.0000323833   0.0002909851   0.0000289604  -0.0003487545  -0.0012329177
        0.0008536388  -0.0007730186  -0.0037848854   0.0036563410   0.0009668697
       -0.0000663216  -0.0001513687   0.0002666105  -0.0000814240  -0.0000792086
       -0.0000342592   0.0000434671  -0.0000067888   0.0000468162   0.0000389552
        0.0000187732  -0.0000098065  -0.0000306716   0.0000111973   0.0000111140
       -0.0000286333  -0.0000278396   0.0000072765  -0.0000393569  -0.0000177554
       -0.0000093809  -0.0000167105  -0.0000437949  -0.0000060943  -0.0000145847
       -0.0000281266  -0.0000144813   0.0000087028  -0.0000420136  -0.0000165540
        0.0000154866  -0.0000276580   0.0000050808  -0.0001358353   0.0001179322
       -0.0000307569  -0.0003022424  -0.0002599603   0.0000083154   0.0002842221
       -0.0003283262   0.0000512347   0.0003992616   0.0001219948  -0.0011166009
       -0.0000166323  -0.0000865255   0.0000383552   0.0000449558  -0.0000183096
        0.0000533475  -0.0000109324  -0.0000034371  -0.0000326745  -0.0000059790
        0.0000156444  -0.0000217859   0.0000060318   0.0000448039  -0.0000119343
        0.0000324913   0.0000367372  -0.0000069145   0.0000209345   0.0000134394
        0.0000404528  -0.0000067822   0.0000246785   0.0000398501  -0.0000125260
       -0.0000010608   0.0000206474  -0.0000104005  -0.0000207755   0.0000113108
        0.0000691346  -0.0000116125  -0.0000004051  -0.0004516200   0.0002826148
       -0.0002006857   0.0000494388   0.0001712417  -0.0000497691
       -0.0003966203   0.0203480636  -0.0095568415  -0.0013557803  -0.2025006400
        0.1953238124   0.0035823407   0.2021723723  -0.2175666283   0.0010642955
       -0.0069003578   0.0153389627  -0.0006813224  -0.0000449460   0.0014213251
       -0.0006204260   0.0007458026   0.0002387109   0.0009935794   0.0011477668
        0.0002711742  -0.0004364164  -0.0006414480  -0.0000427883   0.0006411828
       -0.0002480346  -0.0001333338  -0.0001368236   0.0001096877  -0.0000511916
       -0.0000033820  -0.0001197883   0.0000067574   0.0000713275   0.0000782427
       -0.0000189388   0.0001059615  -0.0000034511  -0.0000013303  -0.0001237258
        0.0000976963  -0.0000131616   0.0001650759  -0.0000969014  -0.0000687423
       -0.0002569150   0.0000891401   0.0000300854   0.0002369428  -0.0000529294
        0.0000475849  -0.0001662321   0.0001273436   0.0000027114   0.0001016146
        0.0001389129   0.0000718645  -0.0001095843  -0.0001495792  -0.0000767632
        0.0000534610   0.0000237119   0.0000376386  -0.0003328825   0.0002197072
        0.0000938395  -0.0014723221   0.0001769664   0.0005469843  -0.0026788360
       -0.0043192999  -0.0015747571  -0.0026530976  -0.0054498118   0.0142848320
       -0.0013864477   0.0003620630   0.0019075191   0.0002506222  -0.0006179185
        0.0010785841  -0.0029587216   0.0025409374   0.0000208876   0.0023559983
       -0.0018725251   0.0000329689  -0.0001242694   0.0002640154  -0.0005444876
        0.0000666820  -0.0001496248   0.0000190994  -0.0000418970  -0.0000267698
       -0.0000677861   0.0000202316   0.0000475843   0.0000162697   0.0000342606
        0.0000541524  -0.0000633163   0.0000733612  -0.0000550226   0.0001910112
        0.0000918516   0.0000655014  -0.0000394017   0.0000190300   0.0000135241
        0.0000944293   0.0001879402   0.0000220030  -0.0001314969  -0.0000102009
       -0.0000068570   0.0000718862   0.0000284944   0.0000613941   0.0000058167
       -0.0000714366  -0.0000237590  -0.0000238395   0.0000862799  -0.0000928292
       -0.0001259757  -0.0004259374  -0.0000566957   0.0005170622   0.0010278634
       -0.0009762283   0.0005364562   0.0046134654  -0.0021527284  -0.0011904781
        0.0003157561  -0.0001570618   0.0005196246  -0.0001121585  -0.0001496753
       -0.0000518000   0.0000978727  -0.0001545828   0.0000698365  -0.0000449609
        0.0000392187  -0.0000006287  -0.0000647920   0.0000139572   0.0000242745
       -0.0000395525  -0.0000324799   0.0000210309  -0.0000569555  -0.0000333739
       -0.0000067455  -0.0000162210  -0.0000608850   0.0000011146  -0.0000265409
       -0.0000513615  -0.0000175972   0.0000290167  -0.0000468499  -0.0000186245
        0.0000291316   0.0000543047   0.0000185082  -0.0000113424   0.0001072758
       -0.0000423425  -0.0004330415  -0.0004474509  -0.0000240586   0.0003926542
       -0.0003870100  -0.0003251457   0.0001636210  -0.0005482386  -0.0003004671
        0.0001651624  -0.0000905112  -0.0001428897  -0.0000599966   0.0000067663
       -0.0000349948   0.0000059676  -0.0000086766   0.0000494890  -0.0000016984
       -0.0000216667   0.0000205929  -0.0000244068  -0.0000490457   0.0000072588
       -0.0000478814  -0.0000253211   0.0000047535  -0.0000334062  -0.0000238363
       -0.0000388068  -0.0000063701  -0.0000283602  -0.0000418010   0.0000220114
       -0.0000092324  -0.0000276454   0.0000511094   0.0000173887  -0.0000309170
       -0.0000579799  -0.0000124353   0.0000397916   0.0004106001  -0.0005013033
        0.0000462759  -0.0000741844   0.0002520038  -0.0006351015
        0.0024512036   0.0152778868  -0.0371215152   0.0052977931   0.1929061308
       -0.3324269053  -0.0101463064  -0.2175666283   0.3731943603   0.0002282978
        0.0019272750  -0.0025090538   0.0002919915  -0.0011491507  -0.0022715720
        0.0006070674   0.0001664579   0.0005157548  -0.0010314474  -0.0010428468
       -0.0001094600   0.0003288059   0.0004538733   0.0002742085  -0.0004493335
        0.0001700025   0.0000635234   0.0001664132  -0.0000327840   0.0000889320
       -0.0000318908   0.0000706021   0.0000452204  -0.0000687442  -0.0000678353
        0.0000095116  -0.0000855444  -0.0000009419   0.0000178907   0.0001008766
       -0.0000705267  -0.0000016600  -0.0001227174   0.0000639123   0.0000652072
        0.0001843378  -0.0000845273  -0.0000230085  -0.0001524325   0.0000540820
       -0.0000490669   0.0001070193  -0.0001064954   0.0000089814  -0.0000646970
       -0.0000956922  -0.0000467540   0.0000603608   0.0001062925   0.0000935569
       -0.0000040532   0.0000084066   0.0000637170   0.0002199023  -0.0001480441
       -0.0001375448   0.0006192123   0.0002113118   0.0000550259   0.0005845967
        0.0023033894   0.0016173976   0.0032636730   0.0041246145  -0.0050859714
        0.0031730420  -0.0007613997  -0.0023359626  -0.0011269370   0.0009399804
       -0.0005886775   0.0031982785  -0.0029790194  -0.0000564043  -0.0024603435
        0.0021108460   0.0001541698   0.0001103772  -0.0002781068   0.0004796607