60
 energy: -95.638229517936 gnorm: 0.000075460875 xtb: 6.7.1 (edcfbbe)
C            2.34527862314476        2.92548158677617        0.81427771662036
C            3.50556605334246        1.98952659741775        0.93647304811505
C            4.71061041855085        2.45642417077090        1.44989043204888
C            5.81732823415856        1.63892522777242        1.63231910108932
C            5.75435888043524        0.28606316227257        1.34093663374130
C            4.57178378985853       -0.21615921797967        0.82905909522347
C            4.16232434485654       -1.54514186124291        0.46237510729097
C            4.79232332549627       -2.77875484661423        0.47088223528132
C            4.09033986215993       -3.88354884545542        0.01888461477019
C            2.78446944489309       -3.76397471098824       -0.45105230701405
C            2.13785455789199       -2.54295178666759       -0.46882474960604
C            2.82944966465392       -1.43589613009726        0.00379851671499
N            2.42579918625202       -0.11968891913471        0.07410776928236
C            1.20593475633567        0.34693878674101       -0.42464106707340
C           -0.00014104804811       -0.12345567373898        0.06364812134109
C           -1.20617574572676        0.34685393589790       -0.42482181725430
N           -2.42609306188392       -0.11986213478439        0.07371501432662
C           -2.82967356448922       -1.43608529956415        0.00327925617827
C           -2.13789970098044       -2.54311550108348       -0.46914073542599
C           -2.78447468461759       -3.76416274276355       -0.45156179696327
C           -4.09047919036524       -3.88378566952808        0.01798572192694
C           -4.79263548276270       -2.77901756157738        0.46978468109363
C           -4.16267732540599       -1.54538485908534        0.46147192289716
C           -4.57229118920953       -0.21641842075602        0.82805836596676
C           -5.75502972599204        0.28576007109425        1.33959246707206
C           -5.81812326297531        1.63861839992065        1.63097961583177
C           -4.71137337837855        2.45614957417935        1.44890215764015
C           -3.50616426152020        1.98929420262691        0.93583333583170
C           -2.34585311484332        2.92526916993316        0.81402618738733
C           -3.46319553282618        0.63546895527909        0.58533865960756
C           -1.21076716416504        1.25539882304596       -1.57097062922533
C           -2.41749647606559        1.63807568741104       -2.14739272842854
N           -3.42529070432590        1.96777985296504       -2.60736571888736
C           -0.00003764775452        1.66002993680016       -2.11384514207125
C            1.21063697189678        1.25546469086574       -1.57080256132364
C            2.41742408625329        1.63819346554777       -2.14706930838767
N            3.42526549576585        1.96792389071252       -2.60692050573732
C            3.46273363673963        0.63569121821055        0.58600593833115
H            1.40083016666851        2.40953918414831        0.97676732119229
H            2.32266921106387        3.37199302565911       -0.18000288611993
H            2.43836159946368        3.73010057608371        1.54053516959138
H            4.78085767122640        3.49974029379503        1.72003890686441
H            6.72961587298421        2.06282662041827        2.02357032825314
H            6.59987476506179       -0.36202733192369        1.51078527692767
H            5.81017835657043       -2.87335131918630        0.81665300614093
H            4.56325566187889       -4.85394899925526        0.01975939355266
H            2.26933607312982       -4.64123869096960       -0.81219582151119
H            1.13257789463611       -2.45154613784677       -0.84953647742854
H           -0.00017952924626       -0.81313143192433        0.89719885721543
H           -1.13251049981837       -2.45167493107515       -0.84954601907988
H           -2.26919947992669       -4.64140767633134       -0.81255075502464
H           -4.56336165728615       -4.85420173509902        0.01871641864528
H           -5.81058818656189       -2.87365288484333        0.81525463664246
H           -6.60057919940094       -0.36235440825472        1.50917685970284
H           -6.73053987343207        2.06248676194399        2.02196447990168
H           -4.78172699635952        3.49945812589938        1.71905523177181
H           -2.32298615143363        3.37187347153827       -0.18020718078262
H           -2.43913385282894        3.72982058033536        1.54033388458627
H           -1.40144388126638        2.40931843731144        0.97671781595736
H            0.00000677876690        2.30435579155881       -2.98230953586368
