$hessian                                                                        
        0.6610442782  -0.0238800497   0.0012049857  -0.3355158971  -0.0273971113
        0.0387955009  -0.0420244557   0.0600492526  -0.0546607510  -0.0440352346
       -0.0209610119   0.0213278996   0.0591666225  -0.0179473993   0.0152540326
       -0.1452532188  -0.0423051930   0.0413633876  -0.0057196205   0.0030289363
       -0.0024240872   0.0012145990  -0.0011051816   0.0009665024  -0.0004486163
        0.0019563217  -0.0018246417   0.0022166702  -0.0011145555   0.0010719606
       -0.0024118971  -0.0012143398   0.0011191865   0.0003764015   0.0021620760
       -0.0020250744  -0.0009664035  -0.0022330355   0.0021356904   0.0028524736
        0.0015128681  -0.0016401746   0.0006937830  -0.0003530179  -0.0000267336
        0.0000711528   0.0004810480   0.0000208359   0.0000919380  -0.0000942152
       -0.0000718074   0.0003376042   0.0009817426   0.0004543632  -0.0000906741
       -0.0007664002  -0.0003684848   0.0001697132  -0.0001455001  -0.0000418748
       -0.0003338837   0.0003292434   0.0001582687   0.0000964873  -0.0001850624
       -0.0000967488  -0.0002179491   0.0000865942   0.0000321016   0.0002058230
        0.0000033644  -0.0000039073  -0.0001680108   0.0000318478   0.0000099168
        0.0005907356  -0.0003692847  -0.0001605583  -0.0003534143   0.0010529633
        0.0003796949   0.0007171630  -0.0020265175  -0.0008080335  -0.0007016245
        0.0016217468   0.0006882053   0.0001102317  -0.0003705718  -0.0001629002
       -0.0002138018  -0.0000988577  -0.0000463018  -0.0001737924  -0.0000850129
       -0.0000439990  -0.0001901112   0.0003174572   0.0001375354   0.0011895491
       -0.0012905914  -0.0005305906  -0.0015261874   0.0017993327   0.0007596977
        0.0006268264  -0.0010175652  -0.0004711611  -0.1178044249   0.0876136631
       -0.0786782827  -0.0166532355  -0.0020438688   0.0021308513  -0.0007744320
        0.0022036399  -0.0017578777  -0.0160676434  -0.0184103762   0.0178468614
       -0.0000154618  -0.0000116884   0.0000107572  -0.0000047665   0.0000205042
       -0.0000185368  -0.0000073117   0.0000254975  -0.0000319577  -0.0000407531
        0.0000187887  -0.0000631757  -0.0001206346   0.0001932739   0.0000990909
       -0.0000181849  -0.0000694363  -0.0000518238  -0.0000008005  -0.0000579001
       -0.0000237028  -0.0000559102  -0.0000361041  -0.0000136328  -0.0000326632
       -0.0000385475  -0.0000156885  -0.0000163856  -0.0000628450  -0.0000239192
       -0.0000615102   0.0000687945   0.0000334504   0.0001016167  -0.0000747808
       -0.0000347105   0.0001117255   0.0000044536   0.0000089870   0.0000578495
        0.0000835793   0.0000433167  -0.0000243331   0.0001190317   0.0000680573
       -0.0238800497   0.4089445730  -0.2764554286   0.0297310866  -0.0704484977
        0.0221124931   0.0177507410   0.0129857590  -0.0113119019  -0.0227021288
       -0.0051383998   0.0016120340   0.0233332169  -0.0371970175   0.0321985712
       -0.0985964071  -0.1655299356   0.1167148049   0.0003531342   0.0033632746
        0.0024798907   0.0008750549  -0.0024931134   0.0035698154   0.0000482276
        0.0011186567  -0.0010620524   0.0010835809  -0.0009491605   0.0006841498
       -0.0012374473  -0.0004516181   0.0004367638   0.0002148115   0.0007120387
       -0.0007560594   0.0000196051   0.0000433423  -0.0001439428   0.0032700061
       -0.0032495602   0.0026411258  -0.0001790429  -0.0001303812   0.0000445150
        0.0001770812   0.0001124360   0.0000025850  -0.0000312715   0.0000113878
       -0.0000232065   0.0000682853   0.0002986564   0.0001415158  -0.0000067859
       -0.0002223860  -0.0000689212   0.0000394444   0.0000191880  -0.0000053533
       -0.0001260811   0.0001211401   0.0000624137   0.0000218827  -0.0000712657
       -0.0000403626  -0.0000796825   0.0000254458   0.0000060293   0.0000874361
        0.0000013042  -0.0000020088  -0.0000277084  -0.0000231563  -0.0000167130
        0.0002180449  -0.0000911364  -0.0000500505  -0.0003485984   0.0003574619
        0.0001008649   0.0004693323  -0.0007936581  -0.0002768090  -0.0002467006
        0.0006352955   0.0002518281   0.0000414227  -0.0001442988  -0.0000424398
       -0.0000854721  -0.0000267372  -0.0000135071  -0.0000552502  -0.0000432010
       -0.0000175455  -0.0000415844   0.0001001026   0.0000471097   0.0004735400
       -0.0003926721  -0.0001768056  -0.0005993956   0.0005874474   0.0002469656
        0.0002297353  -0.0003604018  -0.0001512106   0.0877002509  -0.1417246915
        0.0988927146  -0.0190818935  -0.0008774702   0.0019046471   0.0027126260
        0.0012514687   0.0055100283  -0.0016924057  -0.0004229362   0.0008521828
        0.0000131642  -0.0000039025   0.0000369892   0.0000041561  -0.0000031220
        0.0000080625  -0.0000035455   0.0000260126   0.0000137878  -0.0000533408
        0.0000292255  -0.0000512947   0.0000323879  -0.0000096760   0.0000384657
        0.0000402174  -0.0000368154  -0.0000105542   0.0000071628   0.0000286456
        0.0000279056  -0.0000018351   0.0000040411   0.0000062550  -0.0000050252
       -0.0000096935  -0.0000032617  -0.0000030256  -0.0000174696  -0.0000060034
       -0.0000247624   0.0000350742   0.0000158058   0.0000314419  -0.0000309094
       -0.0000132666   0.0000494193   0.0000026157   0.0000011863   0.0000258832
        0.0000357525   0.0000171987  -0.0000129394   0.0000429377   0.0000199939
        0.0012049857  -0.2764554286   0.3682306443  -0.0155608039   0.0242612512
       -0.0686054140  -0.0148708055  -0.0128131511   0.0146826240   0.0224124292
        0.0017659966  -0.0066793531  -0.0236007977   0.0332491830  -0.0324346616
        0.0945939504   0.1154193190  -0.1525807976  -0.0000440299   0.0022598828
        0.0037239438  -0.0008564114   0.0037037696  -0.0018316002  -0.0000261180
       -0.0011413118   0.0010093795  -0.0010953522   0.0007151377  -0.0009003402
        0.0012479417   0.0004811810  -0.0004418887  -0.0002127897  -0.0008332558
        0.0007034713   0.0000738806   0.0000465724  -0.0000348561  -0.0031601650
        0.0027109929  -0.0023704791   0.0002044017   0.0000813613   0.0000558866
       -0.0001617511  -0.0001772209   0.0000337379   0.0000605572  -0.0000327234
        0.0000419360  -0.0001047804  -0.0002979467  -0.0001597908   0.0000130772
        0.0002677076   0.0000746592  -0.0000852366   0.0000181890  -0.0000047389
        0.0001463786  -0.0001421747  -0.0000669716  -0.0000366304   0.0000785931
        0.0000466034   0.0000941155  -0.0000297826  -0.0000088347  -0.0001001984
       -0.0000055918   0.0000004068   0.0000379857   0.0000249692   0.0000122431
       -0.0002427799   0.0000878124   0.0000587445   0.0003248794  -0.0003647059
       -0.0000973337  -0.0004630746   0.0008173956   0.0002918879   0.0002691561
       -0.0006524617  -0.0002578849  -0.0000443039   0.0001533838   0.0000420253
        0.0000900890   0.0000332200   0.0000170980   0.0000653662   0.0000430745
        0.0000146602   0.0000447174  -0.0001058160  -0.0000518801  -0.0004844617
        0.0004104452   0.0002004522   0.0006220838  -0.0005959087  -0.0002695794
       -0.0002346576   0.0003534916   0.0001398433  -0.0787957015   0.0988543870
       -0.1219732660   0.0188506574   0.0012032602  -0.0015706935  -0.0021079024
        0.0056696871   0.0020430723   0.0019777031   0.0009546591  -0.0010646392
       -0.0000129025   0.0000351493  -0.0000021006  -0.0000039644   0.0000117630
        0.0000038758   0.0000028058   0.0000136118   0.0000315603   0.0000531754
       -0.0000338665   0.0000427099   0.0000130355  -0.0000167798  -0.0000349305
       -0.0000313888   0.0000398553   0.0000049438  -0.0000131926  -0.0000105761
       -0.0000297480   0.0000077364  -0.0000012255  -0.0000076143   0.0000066921
        0.0000144812   0.0000044923   0.0000043756   0.0000196495   0.0000087506
        0.0000264777  -0.0000358883  -0.0000168463  -0.0000342631   0.0000336399
        0.0000123292  -0.0000519492  -0.0000032213  -0.0000000262  -0.0000263292
       -0.0000368496  -0.0000181678   0.0000140872  -0.0000471859  -0.0000175446
       -0.3355158971   0.0297310866  -0.0155608039   0.6622702636  -0.0014750629
       -0.0230468236  -0.1585946083   0.0517685344  -0.0436200800   0.0564947870
        0.0228836793  -0.0238639597  -0.0490518124   0.0193513019  -0.0168460856
       -0.0336530825  -0.0610056855   0.0587044902   0.0044522669  -0.0001328854
       -0.0000769967  -0.0009050551   0.0023078277  -0.0020358799   0.0002408821
       -0.0022165332   0.0020601672  -0.0024175024   0.0012733535  -0.0012269735
        0.0024302520   0.0011693234  -0.0010822048  -0.0006200397  -0.0021561734
        0.0019819529   0.0017138112   0.0015839566  -0.0014163781  -0.0044386658
       -0.0046856312   0.0050576748  -0.0010254119   0.0006566604  -0.0003055427
       -0.0003001131  -0.0004208977  -0.0001396141   0.0003022260   0.0000547286
       -0.0000287273  -0.0004286789  -0.0010780822  -0.0005148613   0.0000826659
        0.0008987820   0.0003964784   0.0000721253  -0.0000391858  -0.0001363303
        0.0004183867  -0.0004438546  -0.0002096800  -0.0001014348   0.0002465635
        0.0001267926   0.0002849676  -0.0000941203  -0.0000344442  -0.0002608030
        0.0000200066   0.0000152306   0.0001851212  -0.0000390189  -0.0000149952
       -0.0007009505   0.0004526484   0.0002104789   0.0003791750  -0.0012627073
       -0.0004465169  -0.0008339675   0.0024884929   0.0009952900   0.0008163038
       -0.0019988490  -0.0008288885  -0.0001326636   0.0004439259   0.0001926889
        0.0002456272   0.0001350507   0.0000647430   0.0002200172   0.0000746077
        0.0000380472   0.0002231400  -0.0003854882  -0.0001682005  -0.0014647626
        0.0015458770   0.0006490528   0.0018444419  -0.0022346772  -0.0009690372
       -0.0006080089   0.0012963320   0.0005986304  -0.0181992152   0.0018247690
       -0.0009945966  -0.1038431725  -0.0773640627   0.0773895127  -0.0190750863
        0.0187766807  -0.0167526567  -0.0004028054  -0.0019755788   0.0018869823
       -0.0000018193   0.0000272588  -0.0000260544   0.0000097648  -0.0000125324
        0.0000111448   0.0000092206  -0.0000402117   0.0000520165   0.0000431521
       -0.0000327118   0.0000746687  -0.0000001849  -0.0000602445  -0.0001654158
       -0.0000120347   0.0001327136   0.0000571576  -0.0000665001   0.0000906862
        0.0000313019   0.0000468169   0.0000415819   0.0000120029   0.0000312536
        0.0000422556   0.0000165070   0.0000273186   0.0000674679   0.0000253134
        0.0000799029  -0.0000791838  -0.0000402972  -0.0001168370   0.0000835542
        0.0000369185  -0.0001194154  -0.0000072941  -0.0000091644  -0.0000631702
       -0.0000911723  -0.0000482655   0.0000298090  -0.0001378620  -0.0000757696
       -0.0273971113  -0.0704484977   0.0242612512  -0.0014750629   0.4037428753
       -0.2755717822   0.1077597138  -0.1626095280   0.1085884907  -0.0172862656
       -0.0360178484   0.0332205710   0.0216823187  -0.0057608253   0.0006420430
       -0.0196138196   0.0125829324  -0.0096209199  -0.0031621238  -0.0023893846
        0.0022684829   0.0004158227  -0.0002204730   0.0001518553  -0.0001389598
        0.0008128416  -0.0008252873   0.0012342923  -0.0004815516   0.0004854097
       -0.0011885358  -0.0008869397   0.0006164712   0.0000357325   0.0010790231
       -0.0011156210  -0.0010168744  -0.0021720189   0.0032521418  -0.0007086582
        0.0034825571   0.0013926406   0.0002072692   0.0000321042   0.0003188495
       -0.0000079151   0.0002416443  -0.0001649904   0.0001141984  -0.0000096429
       -0.0000186261   0.0002086448   0.0005351463   0.0002575895  -0.0002006475
       -0.0003866309  -0.0002133655  -0.0000155486  -0.0002023687  -0.0000394629
       -0.0001463099   0.0001399117   0.0000530184  -0.0000036435  -0.0000900715
       -0.0000520188  -0.0000995770   0.0000205239   0.0000048600   0.0000830660
       -0.0000179773  -0.0000110105  -0.0000332198   0.0000344755   0.0000114831
        0.0001911167  -0.0001747099  -0.0000692843   0.0001173113   0.0003616076
        0.0000965078   0.0000307625  -0.0007180784  -0.0002361058  -0.0001924748
        0.0005641273   0.0002026993   0.0000132950  -0.0001064078  -0.0000409933
       -0.0000890572  -0.0000928878  -0.0000433946  -0.0001388719  -0.0000018309
       -0.0000030042  -0.0000009658   0.0001046149   0.0000473065   0.0003152621
       -0.0003931228  -0.0001347263  -0.0004959686   0.0005280832   0.0001927653
        0.0001762063  -0.0002311090  -0.0000951117   0.0191755308  -0.0008849795
        0.0002611406  -0.0779097290  -0.1406579121   0.1051800421   0.0017262756
       -0.0004769303   0.0007571328  -0.0021756180   0.0010164759   0.0058403187
        0.0000577125   0.0000146688  -0.0000227122   0.0000008621   0.0000188216
        0.0000183824  -0.0000068796   0.0000104634   0.0000007009  -0.0000318555
        0.0000145606  -0.0000161741   0.0000065311   0.0000616509   0.0001308527
       -0.0000173307  -0.0000364967  -0.0000336426   0.0000110720   0.0000174366
        0.0000392867  -0.0000096013  -0.0000155588  -0.0000009928  -0.0000070126
        0.0000041285   0.0000016822  -0.0000178758  -0.0000088704  -0.0000019830
       -0.0000364749   0.0000292303   0.0000126541   0.0000247715  -0.0000260508
       -0.0000147860   0.0000347075   0.0000022670   0.0000030139   0.0000151519
        0.0000282833   0.0000131028  -0.0000136389   0.0000382484   0.0000232488
        0.0387955009   0.0221124931  -0.0686054140  -0.0230468236  -0.2755717822
        0.3745908729  -0.0967375108   0.1107246068  -0.1436947667   0.0141090933
        0.0321660615  -0.0324507055  -0.0187547099   0.0004311057  -0.0045535981
        0.0196909598  -0.0081162689   0.0088099640   0.0027784002   0.0021187659
       -0.0021511841  -0.0003861979   0.0001489510  -0.0001438283   0.0001186689
       -0.0007624366   0.0006598535  -0.0010927321   0.0004289292  -0.0004119400
        0.0010512594   0.0006060549  -0.0007593037  -0.0000088535  -0.0010333483
        0.0008717776   0.0008344699   0.0032342378  -0.0018078090   0.0016180219
        0.0014902429   0.0036254126  -0.0004186234   0.0002400267   0.0004774361
       -0.0000083649  -0.0003076613  -0.0000514098   0.0000389153  -0.0000065531
       -0.0000350457  -0.0002287018  -0.0003504374  -0.0001654136  -0.0000016318
        0.0003831294   0.0001476352  -0.0000455704   0.0000525383   0.0000603303
        0.0001431789  -0.0001496953  -0.0000738365  -0.0000057343   0.0000948105
        0.0000597822   0.0001050765  -0.0000231912  -0.0000066388  -0.0000842350
        0.0000112532   0.0000077722   0.0000338590  -0.0000242676  -0.0000138376
       -0.0001844729   0.0001293807   0.0000636003  -0.0001573823  -0.0002739079
       -0.0000580539   0.0000153280   0.0005985049   0.0002001047   0.0001684544
       -0.0004637734  -0.0001671760  -0.0000157482   0.0000847380   0.0000283263
        0.0000747934   0.0000985085   0.0000474215   0.0001440372  -0.0000069244
       -0.0000042910  -0.0000173709  -0.0000959313  -0.0000446528  -0.0002309456
        0.0003085388   0.0001140147   0.0004012203  -0.0003775222  -0.0001480213
       -0.0001288160   0.0001252207   0.0000538113  -0.0172985149   0.0009093848
       -0.0000452819   0.0772476600   0.1053710283  -0.1365553995  -0.0007356646
       -0.0001303968   0.0004804335   0.0022074628   0.0058000720   0.0017108574
       -0.0000545315  -0.0000213604   0.0000154072  -0.0000018693   0.0000151184
        0.0000176972   0.0000069567   0.0000074403   0.0000143803   0.0000298704
        0.0000117182   0.0000312631  -0.0000112161  -0.0000279113  -0.0001068621
        0.0000405532   0.0000498740   0.0000166075  -0.0000193581   0.0000210379
       -0.0000224152   0.0000122151   0.0000235883  -0.0000022791   0.0000071146
       -0.0000015786  -0.0000019854   0.0000180224   0.0000058857   0.0000035464
        0.0000323791  -0.0000275494  -0.0000124931  -0.0000205053   0.0000242258
        0.0000102564  -0.0000292268  -0.0000015378  -0.0000008299  -0.0000110960
       -0.0000220643  -0.0000106123   0.0000129362  -0.0000313725  -0.0000134797
       -0.0420244557   0.0177507410  -0.0148708055  -0.1585946083   0.1077597138
       -0.0967375108   0.6686058338  -0.0227647384  -0.0074676174  -0.1500209665
       -0.0915535843   0.0926358664  -0.0232253110  -0.0193064479   0.0188662192
        0.0028765968   0.0041511954  -0.0041087326  -0.0084517346   0.0005159261
       -0.0001787229   0.0011522980  -0.0010123776   0.0009057196   0.0000669728
        0.0003307321  -0.0002788394   0.0003863215  -0.0002313325   0.0002179278
       -0.0006309476  -0.0000240091   0.0000234890   0.0003564014   0.0011509108
       -0.0010628388  -0.0027241153   0.0012109689  -0.0014474439   0.0140004268
        0.0088379415  -0.0086884262  -0.0002801330   0.0018305178  -0.0012436956
       -0.0006812860   0.0001995173  -0.0008872716   0.0005545591  -0.0000649427
       -0.0000474228  -0.0004579223  -0.0000940967  -0.0000132069  -0.0003820093
        0.0001714026   0.0002825966   0.0007470367  -0.0002346971  -0.0001417406
        0.0001682558  -0.0002067801  -0.0000832123  -0.0000273890   0.0001078657
        0.0000694052   0.0000917121  -0.0000751306  -0.0000383431  -0.0000676555
       -0.0000068581  -0.0000022833   0.0000844719  -0.0000118559  -0.0000168750
       -0.0002316697   0.0001486320   0.0000663489  -0.0000496301  -0.0003915068
       -0.0001953640  -0.0000653840   0.0008246551   0.0004125536   0.0002579245
       -0.0006835029  -0.0003581128  -0.0000851556   0.0001372427   0.0000662778
        0.0000285412   0.0000861013   0.0000404810   0.0001362629   0.0000040528
        0.0000021000   0.0000515138  -0.0001708605  -0.0000646407  -0.0004731195
        0.0006038867   0.0002730199   0.0006142890  -0.0008338764  -0.0003465849
       -0.0001735575   0.0004088277   0.0001768400  -0.0059046492   0.0003656491
        0.0002551434   0.0064015437  -0.0082702182   0.0072946281  -0.3032791005
       -0.0007331512   0.0170895803   0.0008717088   0.0000588126  -0.0000507319
        0.0000528269   0.0000389334  -0.0000362160   0.0000014603  -0.0000084833
        0.0000039304   0.0000449955   0.0000383024  -0.0000333901   0.0000611299
        0.0000031399  -0.0000089399   0.0001039644  -0.0000728086  -0.0001216201
        0.0000496401   0.0000678270  -0.0000701239   0.0000483569  -0.0000387886
       -0.0000487507   0.0000503109   0.0000300177   0.0000070371   0.0000140119
        0.0000072900   0.0000008183   0.0000053688   0.0000168161   0.0000087867
        0.0000230850  -0.0000206949  -0.0000152016  -0.0000414770   0.0000220563
        0.0000070297  -0.0000211656   0.0000001584  -0.0000012577  -0.0000112693
       -0.0000172923  -0.0000104144  -0.0000031092  -0.0000517994  -0.0000294618
        0.0600492526   0.0129857590  -0.0128131511   0.0517685344  -0.1626095280
        0.1107246068  -0.0227647384   0.3930102449  -0.2720303023  -0.0428799975
       -0.1488042943   0.1013283112  -0.0563130290   0.0053594302  -0.0050866623
       -0.0004723066  -0.0310147131   0.0260915939   0.0057501259   0.0080745064
       -0.0015410991   0.0006089792  -0.0005031183   0.0003887119   0.0002622941
       -0.0015305323   0.0012061286  -0.0021907503   0.0007553103  -0.0008292265
        0.0021766608   0.0010751628  -0.0010590755  -0.0011631543  -0.0030503518
        0.0026358301   0.0051372770   0.0027930602  -0.0012838554  -0.0057814259
       -0.0282461254   0.0295257614  -0.0013503350  -0.0009540551   0.0003362378
        0.0000871407  -0.0010343718  -0.0000776430  -0.0000964465   0.0000856551
        0.0000769904  -0.0004595987  -0.0010369682  -0.0004981449   0.0002263092
        0.0007459739   0.0005496758  -0.0005562931   0.0007378298   0.0000873933
        0.0002776426  -0.0002174361  -0.0000622227  -0.0000916893   0.0001573957
        0.0000737049   0.0001737982  -0.0000544638  -0.0000217615  -0.0001333552
        0.0000489425   0.0000267918   0.0001320136  -0.0000581816  -0.0000296789
       -0.0004523570   0.0004298917   0.0001880125   0.0001374430  -0.0010682458
       -0.0003867113  -0.0004415531   0.0020919200   0.0008463932   0.0005351130
       -0.0016772939  -0.0007100402  -0.0001175433   0.0003212138   0.0001219310
        0.0001726392   0.0001587786   0.0000750928   0.0002616177   0.0000529879
        0.0000221352   0.0000798095  -0.0003344562  -0.0001569682  -0.0011669743
        0.0011539253   0.0005178873   0.0014817458  -0.0017360510  -0.0007862084
       -0.0004903791   0.0010483361   0.0004578189   0.0000808552   0.0039931492
        0.0030231748   0.0089066873  -0.0135745791   0.0130117483  -0.0011478270
       -0.0375881734   0.0055066550  -0.0000250599  -0.0004698715   0.0000614357
       -0.0000857176  -0.0000454122   0.0000122008  -0.0000233530   0.0000283159
        0.0000225327  -0.0000631345  -0.0000492015   0.0001527718  -0.0001478769
        0.0000700590  -0.0000270298   0.0000603195   0.0001926536   0.0001428888
        0.0000612232   0.0001256743   0.0000902814  -0.0000328092   0.0002225159
        0.0001216301   0.0000534250   0.0000679867   0.0000322306   0.0000234429
        0.0000135727   0.0000070797   0.0000324300   0.0000314548   0.0000144936
        0.0000800757  -0.0000756679  -0.0000371096  -0.0000784483   0.0000633691
        0.0000299297  -0.0000814020  -0.0000028186  -0.0000010013  -0.0000349264
       -0.0000632019  -0.0000295476   0.0000256260  -0.0000959626  -0.0000426223
       -0.0546607510  -0.0113119019   0.0146826240  -0.0436200800   0.1085884907
       -0.1436947667  -0.0074676174  -0.2720303023   0.3673750418   0.0473074623
        0.1038596731  -0.1471106545   0.0533062255  -0.0062751522   0.0019675978
        0.0000993569   0.0258301425  -0.0277064828  -0.0050479201  -0.0016047224
        0.0079508793  -0.0006365943   0.0004433021  -0.0004854681  -0.0002555939
        0.0011786513  -0.0014010801   0.0020310415  -0.0007808384   0.0006837208
       -0.0019890131  -0.0011028562   0.0008929522   0.0010606433   0.0026240159
       -0.0025753064  -0.0046280271  -0.0014081476   0.0026701642   0.0045503724
        0.0287542714  -0.0246387513   0.0011118542   0.0002598496  -0.0011694435
       -0.0006327775   0.0009498425  -0.0007661483   0.0004154343  -0.0000797727
       -0.0002926880   0.0003776130   0.0010202840   0.0005136774  -0.0003595781
       -0.0007718649  -0.0005026251   0.0006959147  -0.0005816237  -0.0000703272
       -0.0002556376   0.0002595074   0.0001058054   0.0000239820  -0.0001587309
       -0.0000603306  -0.0001730845   0.0000670883   0.0000336742   0.0001297042
       -0.0000419299  -0.0000216206  -0.0001005914   0.0000513652   0.0000263077
        0.0004125978  -0.0004120457  -0.0001730111  -0.0001583088   0.0009926537
        0.0003574951   0.0004096281  -0.0019406144  -0.0007851665  -0.0004937512
        0.0015752998   0.0006801792   0.0001137402  -0.0002956686  -0.0001222093
       -0.0001637169  -0.0001446987  -0.0000685255  -0.0002345472  -0.0000494107
       -0.0000258806  -0.0000805574   0.0003053656   0.0001345871   0.0011451173
       -0.0011317140  -0.0004777697  -0.0014212743   0.0017271310   0.0007499891
        0.0004670438  -0.0009818912  -0.0004252949   0.0005411649   0.0029914624
        0.0043984630  -0.0087676966   0.0134664800  -0.0125572966   0.0171797066
        0.0053799244  -0.0376894839  -0.0000202289   0.0002633559  -0.0002383537
        0.0000770287   0.0000065524  -0.0000451130   0.0000219362   0.0000330192
        0.0000428359   0.0000542701   0.0001346690  -0.0000397369   0.0001510471
       -0.0000579497   0.0000284336  -0.0005236775   0.0003641573  -0.0001108832
       -0.0000567579  -0.0000710270  -0.0000315582   0.0000415419   0.0000021724
       -0.0000358773  -0.0000278321  -0.0000326496  -0.0000386538  -0.0000165008
       -0.0000057274  -0.0000066950  -0.0000225147  -0.0000277790  -0.0000144131
       -0.0000692748   0.0000657234   0.0000297444   0.0000718081  -0.0000566729
       -0.0000286762   0.0000743651   0.0000041835   0.0000045379   0.0000332254
        0.0000611429   0.0000291609  -0.0000199204   0.0000959153   0.0000524206
       -0.0440352346  -0.0227021288   0.0224124292   0.0564947870  -0.0172862656
        0.0141090933  -0.1500209665  -0.0428799975   0.0473074623   0.6348179960
        0.0159469367  -0.0270367126  -0.2736955791  -0.0311600290   0.0309079794
       -0.0314975539   0.0554925784  -0.0514072598  -0.0338492570  -0.0064010076
        0.0073056083   0.0023949826  -0.0033135583   0.0029432100   0.0013150118
        0.0010801917  -0.0007710569  -0.0009889132  -0.0000014870  -0.0000760870
        0.0017364598   0.0010465246  -0.0008610490  -0.0027584989  -0.0051194552
        0.0046221344   0.0141500908  -0.0012010749  -0.0004765111  -0.1234578718
        0.0533022420  -0.0498175120  -0.0284070519   0.0191995887  -0.0158413690
        0.0006445844   0.0008671525  -0.0003550381  -0.0001734030  -0.0001635751
        0.0005363361  -0.0000587787  -0.0013426753  -0.0006154554  -0.0010924539
        0.0011877785   0.0023643205  -0.0014909794  -0.0012076951  -0.0011464653
        0.0004541954  -0.0007510656  -0.0002879572  -0.0000304591   0.0003682688
        0.0001653703   0.0004057428  -0.0000708286  -0.0000415852  -0.0003086928
        0.0000628217   0.0000353887   0.0001373893  -0.0000597323  -0.0000610252
       -0.0008002801   0.0006553508   0.0001610544   0.0003026481  -0.0014232855
       -0.0004053545  -0.0005886792   0.0029619659   0.0011483284   0.0006486248
       -0.0023914859  -0.0009844253  -0.0001311121   0.0004282728   0.0002034776
        0.0002546406   0.0003210255   0.0001505529   0.0004052068  -0.0000489969
       -0.0000117646   0.0001130582  -0.0004725328  -0.0001993969  -0.0017782785
        0.0016091282   0.0005704272   0.0021904988  -0.0024326446  -0.0010317668
       -0.0007027568   0.0014735391   0.0005619040  -0.0002359730  -0.0003794555
        0.0003472380  -0.0009377237   0.0025171616  -0.0022513584  -0.0185061151
       -0.0193005041   0.0189461938  -0.0005598307   0.0016232250  -0.0010459053
       -0.0000363457  -0.0000147056   0.0000066325  -0.0000888826  -0.0000830763
        0.0000427174  -0.0000848097  -0.0003254142   0.0003331670  -0.0002544837
        0.0000205804   0.0000073139  -0.0000087868  -0.0001126949  -0.0004645906
        0.0002448136   0.0001900563   0.0002328048  -0.0001180280   0.0003623528
       -0.0002096456  -0.0000059363   0.0001005077   0.0000803176   0.0000189051
       -0.0000146142   0.0000052170   0.0000710936   0.0000236889   0.0000216090
        0.0001170119  -0.0000948045  -0.0000519168  -0.0001060530   0.0000829807
        0.0000412051  -0.0000909617   0.0000014296  -0.0000118887  -0.0000414981
       -0.0000600884  -0.0000342034   0.0000244870  -0.0001104694  -0.0000721924
       -0.0209610119  -0.0051383998   0.0017659966   0.0228836793  -0.0360178484
        0.0321660615  -0.0915535843  -0.1488042943   0.1038596731   0.0159469367
        0.3969414090  -0.2675977581   0.0255792386  -0.0531336517   0.0020283539
        0.0185291631   0.0058493806  -0.0075191511  -0.0340175143  -0.0200969308
        0.0223265519  -0.0026065692   0.0079295173  -0.0076937364  -0.0008677271
       -0.0005768022   0.0002903317   0.0022842265   0.0000042165   0.0000491433
       -0.0016156606  -0.0022678143   0.0032383320  -0.0011396179   0.0028413763
       -0.0013945655   0.0012260546  -0.0293410729   0.0244594120   0.0540122752
       -0.1188939959   0.0839458323   0.0158131918  -0.0015722442  -0.0025525500
       -0.0033835957  -0.0000666395   0.0019315387  -0.0003819266  -0.0006917840
        0.0005865524   0.0007170253   0.0017639686   0.0007488590   0.0006811975
       -0.0017169611  -0.0011451291  -0.0019923329   0.0012854638   0.0007897601
       -0.0006891155   0.0007640996   0.0003869780   0.0000340936  -0.0005035391
       -0.0002130929  -0.0004534529   0.0001207306   0.0000583901   0.0002998001
       -0.0001595092  -0.0000724152  -0.0002382703   0.0002142964   0.0001218074
        0.0008581703  -0.0010418405  -0.0003883000   0.0005662067   0.0020412002
        0.0006830995  -0.0000287997  -0.0041509841  -0.0016659476  -0.0007823331
        0.0033063399   0.0014447697   0.0001752288  -0.0005619291  -0.0002897082
       -0.0002442870  -0.0005231493  -0.0002452316  -0.0007245206   0.0001092869
        0.0000291798  -0.0000218229   0.0007630436   0.0003157652   0.0020852843
       -0.0022632866  -0.0008041613  -0.0026515419   0.0033370265   0.0014039189
        0.0006961979  -0.0018180034  -0.0010375734  -0.0005869906   0.0002975440
        0.0000851056   0.0022368792   0.0015176382   0.0055059852  -0.0025531754
       -0.0005322752   0.0002422459   0.0023763712   0.0014289604   0.0059411490
        0.0004857515   0.0002763770  -0.0001890640   0.0001084448   0.0000300006
       -0.0001072983  -0.0001108973  -0.0000652958  -0.0000945611   0.0000919838
       -0.0000244562  -0.0001039232  -0.0000971468  -0.0000685324  -0.0003805080
       -0.0003218593  -0.0002303541  -0.0003489766   0.0003693955  -0.0006058892
       -0.0005937247  -0.0000160905  -0.0001910948  -0.0001144865  -0.0000199846
        0.0000277738  -0.0000003676  -0.0000974522  -0.0000212720  -0.0000164145
       -0.0001591213   0.0001372467   0.0000617078   0.0001427843  -0.0000997657
       -0.0000507480   0.0000955338  -0.0000079963   0.0000160576   0.0000421483
        0.0000614299   0.0000366808  -0.0000208598   0.0001392858   0.0001001540
        0.0213278996   0.0016120340  -0.0066793531  -0.0238639597   0.0332205710
       -0.0324507055   0.0926358664   0.1013283112  -0.1471106545  -0.0270367126
       -0.2675977581   0.3696585845  -0.0219933127   0.0035372255  -0.0534622642
       -0.0164867874  -0.0089430415   0.0073548107   0.0321743430   0.0222045921
       -0.0166910086   0.0018495626  -0.0079371075   0.0064768447   0.0007891073
        0.0005264070  -0.0003625895  -0.0021463457  -0.0001172043  -0.0000311362