      -----------------------------------------------------------      
     |                   =====================                   |     
     |                           x T B                           |     
     |                   =====================                   |     
     |                         S. Grimme                         |     
     |          Mulliken Center for Theoretical Chemistry        |     
     |                    University of Bonn                     |     
      -----------------------------------------------------------      

   * xtb version 6.7.1 (edcfbbe) compiled by 'albert@albert-system' on 2024-07-22

   xtb is free software: you can redistribute it and/or modify it under
   the terms of the GNU Lesser General Public License as published by
   the Free Software Foundation, either version 3 of the License, or
   (at your option) any later version.
   
   xtb is distributed in the hope that it will be useful,
   but WITHOUT ANY WARRANTY; without even the implied warranty of
   MERCHANTABILITY or FITNESS FOR A PARTICULAR PURPOSE.  See the
   GNU Lesser General Public License for more details.
   
   Cite this work as:
   * C. Bannwarth, E. Caldeweyher, S. Ehlert, A. Hansen, P. Pracht,
     J. Seibert, S. Spicher, S. Grimme, WIREs Comput. Mol. Sci., 2020, 11,
     e01493. DOI: 10.1002/wcms.1493
   
   for GFN2-xTB:
   * C. Bannwarth, S. Ehlert and S. Grimme., J. Chem. Theory Comput., 2019,
     15, 1652-1671. DOI: 10.1021/acs.jctc.8b01176
   for GFN1-xTB:
   * S. Grimme, C. Bannwarth, P. Shushkov, J. Chem. Theory Comput., 2017,
     13, 1989-2009. DOI: 10.1021/acs.jctc.7b00118
   for GFN0-xTB:
   * P. Pracht, E. Caldeweyher, S. Ehlert, S. Grimme, ChemRxiv, 2019, preprint.
     DOI: 10.26434/chemrxiv.8326202.v1
   for GFN-FF:
   * S. Spicher and S. Grimme, Angew. Chem. Int. Ed., 2020, 59, 15665-15673.
     DOI: 10.1002/anie.202004239
   
   for ALPB and GBSA implicit solvation:
   * S. Ehlert, M. Stahn, S. Spicher, S. Grimme, J. Chem. Theory Comput.,
     2021, 17, 4250-4261. DOI: 10.1021/acs.jctc.1c00471
   
   for ddCOSMO and CPCM-X implicit solvation:
   * M. Stahn, S. Ehlert, S. Grimme, J. Phys. Chem. A,
     2023, XX, XXXX-XXXX. DOI: 10.1021/acs.jpca.3c04382
   
   for DFT-D4:
   * E. Caldeweyher, C. Bannwarth and S. Grimme, J. Chem. Phys., 2017,
     147, 034112. DOI: 10.1063/1.4993215
   * E. Caldeweyher, S. Ehlert, A. Hansen, H. Neugebauer, S. Spicher,
     C. Bannwarth and S. Grimme, J. Chem. Phys., 2019, 150, 154122.
     DOI: 10.1063/1.5090222
   * E. Caldeweyher, J.-M. Mewes, S. Ehlert and S. Grimme, Phys. Chem. Chem. Phys.
     2020, 22, 8499-8512. DOI: 10.1039/D0CP00502A
   
   for sTDA-xTB:
   * S. Grimme and C. Bannwarth, J. Chem. Phys., 2016, 145, 054103.
     DOI: 10.1063/1.4959605
   
   in the mass-spec context:
   * V. Asgeirsson, C. Bauer and S. Grimme, Chem. Sci., 2017, 8, 4879.
     DOI: 10.1039/c7sc00601b
   * J. Koopman and S. Grimme, ACS Omega 2019, 4, 12, 15120-15133.
     DOI: 10.1021/acsomega.9b02011
   
   for metadynamics refer to:
   * S. Grimme, J. Chem. Theory Comput., 2019, 155, 2847-2862
     DOI: 10.1021/acs.jctc.9b00143
   
   for SPH calculations refer to:
   * S. Spicher and S. Grimme, J. Chem. Theory Comput., 2021, 17, 1701-1714
     DOI: 10.1021/acs.jctc.0c01306
   
   for ONIOM refer to:
   * C. Plett, A. Katbashev, S. Ehlert, S. Grimme, M. Bursch,
     Phys. Chem. Chem. Phys., 2023, 25, 17860-17868. DOI: 10.1039/D3CP02178E
   
   for DIPRO refer to:
   * J. Kohn, N. Gildemeister, S. Grimme, D. Fazzi, A. Hansen,
     J. Chem. Phys., 2023, just accepted.
   
   for PTB refer to:
   * S. Grimme, M. Mueller, A. Hansen, J. Chem. Phys., 2023, 158, 124111.
     DOI: 10.1063/5.0137838
   
   with help from (in alphabetical order)
   P. Atkinson, C. Bannwarth, F. Bohle, G. Brandenburg, E. Caldeweyher
   M. Checinski, S. Dohm, S. Ehlert, S. Ehrlich, I. Gerasimov, C. Hölzer
   A. Katbashev, J. Kohn, J. Koopman, C. Lavigne, S. Lehtola, F. März, M. Müller,
   F. Musil, H. Neugebauer, J. Pisarek, C. Plett, P. Pracht, F. Pultar,
   J. Seibert, P. Shushkov, S. Spicher, M. Stahn, M. Steiner, T. Strunk,
   J. Stückrath, T. Rose, and J. Unsleber
   
 * started run on 2025/07/18 at 17:10:44.428     
   ID    Z sym.   atoms
    1    6 C      1-7, 9, 11-23, 25-36, 38-48
    2    7 N      8, 10, 24, 37
    3    1 H      49-80

           -------------------------------------------------
          |                Calculation Setup                |
           -------------------------------------------------

          program call               : xtb data2507/toluene/2DPA-DPQ/2DPA-DPQ_toluene_T1_crest.xyz --gfn 2 --uhf 2 --gbsa toluene --ohess vtight --parallel 40 --molden --ceasefiles --namespace data2507/toluene/2DPA-DPQ/2DPA-DPQ_toluene_T1_finalOpt
          calculation namespace      : data2507/toluene/2DPA-DPQ/2DPA-DPQ_toluene_T1_finalOpt
          coordinate file            : data2507/toluene/2DPA-DPQ/2DPA-DPQ_toluene_T1_crest.xyz
          omp threads                :                    40


           -------------------------------------------------
          |                 G F N 2 - x T B                 |
           -------------------------------------------------

        Reference                      10.1021/acs.jctc.8b01176
      * Hamiltonian:
        H0-scaling (s, p, d)           1.850000    2.230000    2.230000
        zeta-weighting                 0.500000
      * Dispersion:
        s8                             2.700000
        a1                             0.520000
        a2                             5.000000
        s9                             5.000000
      * Repulsion:
        kExp                           1.500000    1.000000
        rExp                           1.000000
      * Coulomb:
        alpha                          2.000000
        third order                    shell-resolved
        anisotropic                    true
        a3                             3.000000
        a5                             4.000000
        cn-shift                       1.200000
        cn-exp                         4.000000
        max-rad                        5.000000

      * Solvation model:               GBSA
        Solvent                        toluene
        Parameter file                 internal GFN2-xTB/GBSA
        Dielectric constant                7.0000E+00
        Reference state                gsolv [1 M gas/solution]
        Free energy shift                  4.5239E-03 Eh       2.8388E+00 kcal/mol
        Temperature                        2.9815E+02 K
        Density                            8.6700E-01 kg/L
        Solvent mass                       9.2140E+01 g/mol
        Interaction kernel             Still
        Born radius scaling (c1)           1.5686E+00
        Born radii integrator          GBOBC
        Born offset                        0.0000E+00 a0       0.0000E+00 AA
        H-bond correction              false
        Ion screening                  false
        Surface tension                    1.0000E-05 Eh       1.5569E+01 dyn/cm
        Grid points                               230 per atom

          ...................................................
          :                      SETUP                      :
          :.................................................:
          :  # basis functions                 224          :
          :  # atomic orbitals                 224          :
          :  # shells                          128          :
          :  # electrons                       228          :
          :  max. iterations                   250          :
          :  Hamiltonian                  GFN2-xTB          :
          :  restarted?                      false          :
          :  GBSA solvation                   true          :
          :  PC potential                    false          :
          :  electronic temp.          300.0000000     K    :
          :  accuracy                    1.0000000          :
          :  -> integral cutoff          0.2500000E+02      :
          :  -> integral neglect         0.1000000E-07      :
          :  -> SCF convergence          0.1000000E-05 Eh   :
          :  -> wf. convergence          0.1000000E-03 e    :
          :  Broyden damping             0.4000000          :
          :  net charge                          0          :
          :  unpaired electrons                  2          :
          ...................................................

 iter      E             dE          RMSdq      gap      omega  full diag
   1   -124.3635334 -0.124364E+03  0.398E+00    0.88       0.0  T
   2   -124.4501463 -0.866129E-01  0.249E+00    0.53       1.0  T
   3   -124.3254510  0.124695E+00  0.146E+00    0.92       1.0  T
   4   -124.4857393 -0.160288E+00  0.493E-01    0.94       1.0  T
   5   -124.5090022 -0.232629E-01  0.222E-01    1.05       1.0  T
   6   -124.5114901 -0.248795E-02  0.130E-01    0.97       1.0  T
   7   -124.5133007 -0.181060E-02  0.406E-02    1.01       1.0  T
   8   -124.5133633 -0.625829E-04  0.191E-02    1.01       1.0  T
   9   -124.5133691 -0.577791E-05  0.904E-03    1.01       1.2  T
  10   -124.5133785 -0.937177E-05  0.196E-03    1.01       5.7  T
  11   -124.5133785 -0.356919E-07  0.119E-03    1.01       9.4  T
  12   -124.5133785  0.344808E-07  0.101E-03    1.01      11.1  T
  13   -124.5133786 -0.111940E-06  0.277E-04    1.01      40.4  T
  14   -124.5133786 -0.418460E-08  0.144E-04    1.01      77.8  T

   *** convergence criteria satisfied after 14 iterations ***

         #    Occupation            Energy/Eh            Energy/eV
      -------------------------------------------------------------
         1        2.0000           -0.6908484             -18.7989
       ...           ...                  ...                  ...
       109        2.0000           -0.4023605             -10.9488
       110        2.0000           -0.3905809             -10.6282
       111        2.0000           -0.3876233             -10.5478
       112        2.0000           -0.3780349             -10.2869
       113        1.9412           -0.3656323              -9.9494
       114        1.0588           -0.3603644              -9.8060
       115        1.0000           -0.2932398              -7.9795 (HOMO)
       116                         -0.2562947              -6.9741 (LUMO)
       117                         -0.2467880              -6.7154
       118                         -0.2410338              -6.5589
       119                         -0.2404929              -6.5441
       120                         -0.2375697              -6.4646
       ...                                ...                  ...
       224                          0.7031875              19.1347
      -------------------------------------------------------------
                  HL-Gap            0.0369451 Eh            1.0053 eV
             Fermi-level           -0.3188828 Eh           -8.6772 eV
 
 transition dipole moment (au) for excitation:         114         115
     X       Y       Z   
  -0.0082   0.0344  -0.1288  total (au/Debye):    0.134   0.340
 dE (eV)             :    1.827
 oscillator strength :  0.11293E-02

 SCC (total)                   0 d,  0 h,  0 min,  0.191 sec
 SCC setup                      ...        0 min,  0.008 sec (  4.088%)
 Dispersion                     ...        0 min,  0.003 sec (  1.713%)
 classical contributions        ...        0 min,  0.000 sec (  0.070%)
 integral evaluation            ...        0 min,  0.008 sec (  4.195%)
 iterations                     ...        0 min,  0.131 sec ( 68.898%)
 molecular gradient             ...        0 min,  0.012 sec (  6.458%)
 printout                       ...        0 min,  0.028 sec ( 14.527%)

         :::::::::::::::::::::::::::::::::::::::::::::::::::::
         ::                     SUMMARY                     ::
         :::::::::::::::::::::::::::::::::::::::::::::::::::::
         :: total energy            -122.229628332104 Eh    ::
         :: total w/o Gsasa/hb      -122.184495877892 Eh    ::
         :: gradient norm              0.008385187195 Eh/a0 ::
         :: HOMO-LUMO gap              1.005327705016 eV    ::
         ::.................................................::
         :: SCC energy              -124.510481443467 Eh    ::
         :: -> isotropic ES            0.034492623305 Eh    ::
         :: -> anisotropic ES          0.010575508109 Eh    ::
         :: -> anisotropic XC          0.074215514369 Eh    ::
         :: -> dispersion             -0.122814100978 Eh    ::
         :: -> Gsolv                  -0.052031666813 Eh    ::
         ::    -> Gelec               -0.006899212601 Eh    ::
         ::    -> Gsasa               -0.049656334084 Eh    ::
         ::    -> Ghb                  0.000000000000 Eh    ::
         ::    -> Gshift               0.004523879872 Eh    ::
         :: repulsion energy           2.280853111363 Eh    ::
         :: add. restraining           0.000000000000 Eh    ::
         :: total charge              -0.000000000000 e     ::
         :::::::::::::::::::::::::::::::::::::::::::::::::::::

      ----------------------------------------------------------- 
     |                   =====================                   |
     |                        A N C O P T                        |
     |                   =====================                   |
     |               Approximate Normal Coordinate               |
     |                Rational Function Optimizer                |
      ----------------------------------------------------------- 

Optimization log is written to '/dev/null'
      ----------------------------------------------------------- 
     |                   =====================                   |
     |                        A N C O P T                        |
     |                   =====================                   |
     |               Approximate Normal Coordinate               |
     |                Rational Function Optimizer                |
      ----------------------------------------------------------- 

          ...................................................
          :                      SETUP                      :
          :.................................................:
          :   optimization level         verytight          :
          :   max. optcycles                  1600          :
          :   ANC micro-cycles                  20          :
          :   degrees of freedom               234          :
          :.................................................:
          :   RF solver                   davidson          :
          :   write xtbopt.log                true          :
          :   linear?                        false          :
          :   energy convergence         0.1000000E-06 Eh   :
          :   grad. convergence          0.2000000E-03 Eh/α :
          :   maxmium RF displ.          1.0000000          :
          :   Hlow (freq-cutoff)         0.1000000E-01      :
          :   Hmax (freq-cutoff)         5.0000000          :
          :   S6 in model hess.         20.0000000          :
          ...................................................

generating ANC from exact Hessian ...
Using Lindh-Hessian (1995)
 Shifting diagonal of input Hessian by   9.879970439705250E-003
 Lowest  eigenvalues of input Hessian
    0.000000    0.000000    0.000000    0.000000    0.000000    0.000000
    0.010000    0.010052    0.010162    0.010332    0.010441    0.010653
    0.010778    0.011074    0.011221    0.011255    0.011342    0.011394
 Highest eigenvalues
    2.077880    2.123801    2.143465    2.162162    2.198244    2.315225
 

........................................................................
.............................. CYCLE    1 ..............................
........................................................................

 iter      E             dE          RMSdq      gap      omega  full diag
   1   -124.5133786 -0.124513E+03  0.729E-05    1.01       0.0  T
   2   -124.5133786  0.644093E-09  0.926E-05    1.01     120.8  T
   3   -124.5133786 -0.936026E-09  0.345E-05    1.01     323.9  T
     SCC iter.                  ...        0 min,  0.029 sec
     gradient                   ...        0 min,  0.011 sec
 * total energy  :  -122.2296283 Eh     change       -0.1622098E-08 Eh
   gradient norm :     0.0083937 Eh/α   predicted     0.0000000E+00 (-100.00%)
   displ. norm   :     0.0491091 α      lambda       -0.7529722E-04
   maximum displ.:     0.0250321 α      in ANC's #6, #26, #7, ...

........................................................................
.............................. CYCLE    2 ..............................
........................................................................

 iter      E             dE          RMSdq      gap      omega  full diag
   1   -124.5082749 -0.124508E+03  0.194E-02    1.01       0.0  T
   2   -124.5082290  0.459099E-04  0.231E-02    1.01       1.0  T
   3   -124.5082899 -0.608284E-04  0.959E-03    1.01       1.2  T
   4   -124.5082935 -0.362630E-05  0.333E-03    1.01       3.4  T
   5   -124.5082948 -0.131664E-05  0.826E-04    1.01      13.5  T
   6   -124.5082949 -0.867181E-07  0.311E-04    1.01      35.9  T
   7   -124.5082949 -0.872011E-08  0.151E-04    1.01      74.0  T
     SCC iter.                  ...        0 min,  0.061 sec
     gradient                   ...        0 min,  0.010 sec
 * total energy  :  -122.2297104 Eh     change       -0.8204330E-04 Eh
   gradient norm :     0.0046612 Eh/α   predicted    -0.5503942E-04 ( -32.91%)
   displ. norm   :     0.0854569 α      lambda       -0.8106797E-04
   maximum displ.:     0.0540206 α      in ANC's #6, #7, #26, ...

........................................................................
.............................. CYCLE    3 ..............................
........................................................................

 iter      E             dE          RMSdq      gap      omega  full diag
   1   -124.5040557 -0.124504E+03  0.268E-02    1.03       0.0  T
   2   -124.5039552  0.100508E-03  0.337E-02    1.01       1.0  T
   3   -124.5040890 -0.133876E-03  0.124E-02    1.02       1.0  T
   4   -124.5040942 -0.518082E-05  0.436E-03    1.02       2.6  T
   5   -124.5040967 -0.245657E-05  0.109E-03    1.02      10.3  T
   6   -124.5040968 -0.156702E-06  0.385E-04    1.02      29.1  T
   7   -124.5040968 -0.102772E-07  0.207E-04    1.02      54.0  T
     SCC iter.                  ...        0 min,  0.061 sec
     gradient                   ...        0 min,  0.010 sec
 * total energy  :  -122.2297604 Eh     change       -0.4997476E-04 Eh
   gradient norm :     0.0015857 Eh/α   predicted    -0.4083054E-04 ( -18.30%)
   displ. norm   :     0.0914445 α      lambda       -0.2233058E-04
   maximum displ.:     0.0615004 α      in ANC's #6, #7, #8, ...

........................................................................
.............................. CYCLE    4 ..............................
........................................................................

 iter      E             dE          RMSdq      gap      omega  full diag
   1   -124.5036376 -0.124504E+03  0.211E-02    1.03       0.0  T
   2   -124.5036006  0.369910E-04  0.218E-02    1.02       1.0  T
   3   -124.5036414 -0.408359E-04  0.124E-02    1.03       1.0  T
   4   -124.5036503 -0.894333E-05  0.267E-03    1.03       4.2  T
   5   -124.5036514 -0.106552E-05  0.565E-04    1.03      19.8  T
   6   -124.5036515 -0.409354E-07  0.248E-04    1.03      45.1  T
   7   -124.5036515 -0.221166E-08  0.144E-04    1.03      77.7  T
     SCC iter.                  ...        0 min,  0.061 sec
     gradient                   ...        0 min,  0.010 sec
 * total energy  :  -122.2297856 Eh     change       -0.2525013E-04 Eh
   gradient norm :     0.0022860 Eh/α   predicted    -0.1120706E-04 ( -55.62%)
   displ. norm   :     0.0698038 α      lambda       -0.2433000E-04
   maximum displ.:     0.0448557 α      in ANC's #6, #7, #8, ...

........................................................................
.............................. CYCLE    5 ..............................
........................................................................

 iter      E             dE          RMSdq      gap      omega  full diag
   1   -124.5047763 -0.124505E+03  0.147E-02    1.03       0.0  T
   2   -124.5047753  0.908449E-06  0.902E-03    1.03       1.2  T
   3   -124.5047575  0.178168E-04  0.124E-02    1.03       1.0  T
   4   -124.5047766 -0.190641E-04  0.690E-04    1.03      16.2  T
   5   -124.5047766 -0.373528E-07  0.186E-04    1.03      60.0  T
   6   -124.5047766 -0.705995E-10  0.143E-04    1.03      78.0  T
     SCC iter.                  ...        0 min,  0.052 sec
     gradient                   ...        0 min,  0.010 sec
 * total energy  :  -122.2298071 Eh     change       -0.2148282E-04 Eh
   gradient norm :     0.0020697 Eh/α   predicted    -0.1222487E-04 ( -43.09%)
   displ. norm   :     0.1308048 α      lambda       -0.3803682E-04
   maximum displ.:     0.0817677 α      in ANC's #6, #7, #8, ...

........................................................................
.............................. CYCLE    6 ..............................
........................................................................

 iter      E             dE          RMSdq      gap      omega  full diag
   1   -124.5062620 -0.124506E+03  0.283E-02    1.03       0.0  T
   2   -124.5062620  0.213351E-07  0.167E-02    1.03       1.0  T
   3   -124.5062559  0.609769E-05  0.728E-03    1.03       1.5  T
   4   -124.5062620 -0.610722E-05  0.131E-03    1.03       8.5  T
   5   -124.5062622 -0.216049E-06  0.281E-04    1.03      39.8  T
   6   -124.5062622  0.132530E-08  0.228E-04    1.03      48.9  T
     SCC iter.                  ...        0 min,  0.052 sec
     gradient                   ...        0 min,  0.010 sec
 * total energy  :  -122.2298383 Eh     change       -0.3119136E-04 Eh
   gradient norm :     0.0020254 Eh/α   predicted    -0.1934510E-04 ( -37.98%)
   displ. norm   :     0.1608415 α      lambda       -0.3441486E-04
   maximum displ.:     0.1002139 α      in ANC's #6, #7, #8, ...

........................................................................
.............................. CYCLE    7 ..............................
........................................................................

 iter      E             dE          RMSdq      gap      omega  full diag
   1   -124.5070030 -0.124507E+03  0.351E-02    1.03       0.0  T
   2   -124.5070002  0.281576E-05  0.214E-02    1.03       1.0  T
   3   -124.5069219  0.783017E-04  0.256E-02    1.03       1.0  T
   4   -124.5070041 -0.821596E-04  0.102E-03    1.03      10.9  T
   5   -124.5070042 -0.103582E-06  0.330E-04    1.03      33.9  T
   6   -124.5070042  0.101933E-08  0.274E-04    1.03      40.9  T
     SCC iter.                  ...        0 min,  0.052 sec
     gradient                   ...        0 min,  0.010 sec
 * total energy  :  -122.2298663 Eh     change       -0.2802055E-04 Eh
   gradient norm :     0.0021499 Eh/α   predicted    -0.1765288E-04 ( -37.00%)
   displ. norm   :     0.1663489 α      lambda       -0.2817263E-04
   maximum displ.:     0.1039557 α      in ANC's #6, #7, #8, ...

........................................................................
.............................. CYCLE    8 ..............................
........................................................................

 iter      E             dE          RMSdq      gap      omega  full diag
   1   -124.5070069 -0.124507E+03  0.360E-02    1.03       0.0  T
   2   -124.5070000  0.697596E-05  0.228E-02    1.03       1.0  T
   3   -124.5069004  0.995198E-04  0.301E-02    1.02       1.0  T
   4   -124.5070093 -0.108870E-03  0.155E-03    1.03       7.2  T
   5   -124.5070096 -0.290676E-06  0.400E-04    1.03      28.0  T
   6   -124.5070096 -0.109530E-07  0.250E-04    1.03      44.8  T
     SCC iter.                  ...        0 min,  0.052 sec
     gradient                   ...        0 min,  0.010 sec
 * total energy  :  -122.2298890 Eh     change       -0.2268160E-04 Eh
   gradient norm :     0.0017836 Eh/α   predicted    -0.1447700E-04 ( -36.17%)
   displ. norm   :     0.2357776 α      lambda       -0.2069196E-04
   maximum displ.:     0.1482461 α      in ANC's #6, #7, #3, ...

........................................................................
.............................. CYCLE    9 ..............................
........................................................................

 iter      E             dE          RMSdq      gap      omega  full diag
   1   -124.5063489 -0.124506E+03  0.494E-02    1.03       0.0  T
   2   -124.5063293  0.196614E-04  0.324E-02    1.04       1.0  T
   3   -124.5061630  0.166320E-03  0.408E-02    1.02       1.0  T
   4   -124.5063556 -0.192687E-03  0.300E-03    1.03       3.7  T
   5   -124.5063568 -0.112767E-05  0.682E-04    1.03      16.4  T
   6   -124.5063568 -0.480530E-07  0.352E-04    1.03      31.8  T
   7   -124.5063568 -0.675021E-08  0.178E-04    1.03      62.8  T
     SCC iter.                  ...        0 min,  0.061 sec
     gradient                   ...        0 min,  0.010 sec
 * total energy  :  -122.2299083 Eh     change       -0.1929545E-04 Eh
   gradient norm :     0.0006904 Eh/α   predicted    -0.1060293E-04 ( -45.05%)
   displ. norm   :     0.0692845 α      lambda       -0.4136767E-05
   maximum displ.:     0.0436339 α      in ANC's #6, #7, #3, ...

........................................................................
.............................. CYCLE   10 ..............................
........................................................................

 iter      E             dE          RMSdq      gap      omega  full diag
   1   -124.5063682 -0.124506E+03  0.117E-02    1.03       0.0  T
   2   -124.5063668  0.141378E-05  0.793E-03    1.03       1.4  T
   3   -124.5063587  0.814906E-05  0.955E-03    1.03       1.2  T
   4   -124.5063687 -0.100253E-04  0.115E-03    1.03       9.7  T
   5   -124.5063689 -0.183162E-06  0.252E-04    1.03      44.4  T
   6   -124.5063689 -0.899136E-08  0.919E-05    1.03     121.6  T
     SCC iter.                  ...        0 min,  0.053 sec
     gradient                   ...        0 min,  0.010 sec
 * total energy  :  -122.2299131 Eh     change       -0.4800208E-05 Eh
   gradient norm :     0.0003575 Eh/α   predicted    -0.2080006E-05 ( -56.67%)
   displ. norm   :     0.0640259 α      lambda       -0.4081786E-05
   maximum displ.:     0.0354525 α      in ANC's #6, #3, #7, ...

........................................................................
.............................. CYCLE   11 ..............................
........................................................................

 iter      E             dE          RMSdq      gap      omega  full diag
   1   -124.5061797 -0.124506E+03  0.875E-03    1.03       0.0  T
   2   -124.5061792  0.499687E-06  0.571E-03    1.03       2.0  T
   3   -124.5061739  0.528476E-05  0.716E-03    1.03       1.6  T
   4   -124.5061799 -0.595253E-05  0.832E-04    1.03      13.4  T
   5   -124.5061800 -0.952415E-07  0.192E-04    1.03      58.1  T
   6   -124.5061800 -0.486924E-08  0.785E-05    1.03     142.4  T
     SCC iter.                  ...        0 min,  0.055 sec
     gradient                   ...        0 min,  0.011 sec
 * total energy  :  -122.2299179 Eh     change       -0.4794322E-05 Eh
   gradient norm :     0.0005902 Eh/α   predicted    -0.2048093E-05 ( -57.28%)
   displ. norm   :     0.0648468 α      lambda       -0.3591466E-05
   maximum displ.:     0.0385407 α      in ANC's #3, #6, #11, ...

........................................................................
.............................. CYCLE   12 ..............................
........................................................................

 iter      E             dE          RMSdq      gap      omega  full diag
   1   -124.5060809 -0.124506E+03  0.861E-03    1.03       0.0  T
   2   -124.5060808  0.301375E-07  0.512E-03    1.03       2.2  T
   3   -124.5060789  0.191390E-05  0.396E-03    1.03       2.8  T
   4   -124.5060809 -0.196473E-05  0.452E-04    1.03      24.7  T
   5   -124.5060809 -0.231737E-07  0.149E-04    1.03      74.9  T
   6   -124.5060809 -0.149262E-08  0.889E-05    1.03     125.8  T
     SCC iter.                  ...        0 min,  0.053 sec
     gradient                   ...        0 min,  0.011 sec
 * total energy  :  -122.2299222 Eh     change       -0.4326339E-05 Eh
   gradient norm :     0.0006569 Eh/α   predicted    -0.1799463E-05 ( -58.41%)
   displ. norm   :     0.0617348 α      lambda       -0.3144111E-05
   maximum displ.:     0.0389424 α      in ANC's #3, #11, #6, ...

........................................................................
.............................. CYCLE   13 ..............................
........................................................................

 iter      E             dE          RMSdq      gap      omega  full diag
   1   -124.5061217 -0.124506E+03  0.870E-03    1.03       0.0  T
   2   -124.5061216  0.567225E-07  0.513E-03    1.03       2.2  T
   3   -124.5061191  0.256584E-05  0.462E-03    1.03       2.4  T
   4   -124.5061217 -0.264530E-05  0.478E-04    1.03      23.4  T
   5   -124.5061218 -0.255682E-07  0.127E-04    1.03      87.7  T
   6   -124.5061218 -0.469740E-09  0.904E-05    1.03     123.6  T
     SCC iter.                  ...        0 min,  0.053 sec
     gradient                   ...        0 min,  0.011 sec
 * total energy  :  -122.2299260 Eh     change       -0.3795712E-05 Eh
   gradient norm :     0.0004496 Eh/α   predicted    -0.1575001E-05 ( -58.51%)
   displ. norm   :     0.0541997 α      lambda       -0.2480039E-05
   maximum displ.:     0.0358584 α      in ANC's #3, #11, #8, ...

........................................................................
.............................. CYCLE   14 ..............................
........................................................................

 iter      E             dE          RMSdq      gap      omega  full diag
   1   -124.5062732 -0.124506E+03  0.834E-03    1.03       0.0  T
   2   -124.5062729  0.227652E-06  0.508E-03    1.03       2.2  T
   3   -124.5062682  0.472127E-05  0.648E-03    1.03       1.7  T
   4   -124.5062732 -0.501311E-05  0.659E-04    1.03      17.0  T
   5   -124.5062733 -0.596809E-07  0.144E-04    1.03      77.7  T
   6   -124.5062733 -0.162089E-08  0.748E-05    1.03     149.5  T
     SCC iter.                  ...        0 min,  0.055 sec
     gradient                   ...        0 min,  0.010 sec
 * total energy  :  -122.2299289 Eh     change       -0.2874632E-05 Eh
   gradient norm :     0.0001928 Eh/α   predicted    -0.1241886E-05 ( -56.80%)
   displ. norm   :     0.0380307 α      lambda       -0.1481270E-05
   maximum displ.:     0.0266667 α      in ANC's #3, #8, #11, ...

........................................................................
.............................. CYCLE   15 ..............................
........................................................................

 iter      E             dE          RMSdq      gap      omega  full diag
   1   -124.5063638 -0.124506E+03  0.621E-03    1.03       0.0  T
   2   -124.5063636  0.133898E-06  0.381E-03    1.03       2.9  T
   3   -124.5063610  0.265444E-05  0.486E-03    1.03       2.3  T
   4   -124.5063638 -0.282497E-05  0.499E-04    1.03      22.4  T
   5   -124.5063638 -0.365886E-07  0.995E-05    1.03     112.4  T
   6   -124.5063638 -0.925070E-09  0.472E-05    1.03     237.1  T
     SCC iter.                  ...        0 min,  0.053 sec
     gradient                   ...        0 min,  0.010 sec
 * total energy  :  -122.2299306 Eh     change       -0.1755137E-05 Eh
   gradient norm :     0.0002215 Eh/α   predicted    -0.7431388E-06 ( -57.66%)
   displ. norm   :     0.0266583 α      lambda       -0.1046835E-05
   maximum displ.:     0.0197257 α      in ANC's #3, #8, #7, ...

........................................................................
.............................. CYCLE   16 ..............................
........................................................................

 iter      E             dE          RMSdq      gap      omega  full diag
   1   -124.5064204 -0.124506E+03  0.445E-03    1.03       0.0  T
   2   -124.5064204  0.282830E-08  0.263E-03    1.03       4.2  T
   3   -124.5064200  0.332598E-06  0.162E-03    1.03       6.9  T
   4   -124.5064204 -0.334808E-06  0.318E-04    1.03      35.1  T
   5   -124.5064204 -0.136663E-07  0.652E-05    1.03     171.4  T
     SCC iter.                  ...        0 min,  0.045 sec
     gradient                   ...        0 min,  0.011 sec
 * total energy  :  -122.2299319 Eh     change       -0.1325153E-05 Eh
   gradient norm :     0.0002783 Eh/α   predicted    -0.5257993E-06 ( -60.32%)
   displ. norm   :     0.0252624 α      lambda       -0.1063087E-05
   maximum displ.:     0.0180365 α      in ANC's #3, #7, #8, ...

........................................................................
.............................. CYCLE   17 ..............................
........................................................................

 iter      E             dE          RMSdq      gap      omega  full diag
   1   -124.5064340 -0.124506E+03  0.447E-03    1.03       0.0  T
   2   -124.5064340  0.175654E-07  0.265E-03    1.03       4.2  T
   3   -124.5064332  0.752803E-06  0.246E-03    1.03       4.5  T
   4   -124.5064340 -0.779181E-06  0.226E-04    1.03      49.4  T
   5   -124.5064340 -0.554019E-08  0.699E-05    1.03     160.0  T
     SCC iter.                  ...        0 min,  0.045 sec
     gradient                   ...        0 min,  0.011 sec
 * total energy  :  -122.2299333 Eh     change       -0.1389403E-05 Eh
   gradient norm :     0.0002561 Eh/α   predicted    -0.5326823E-06 ( -61.66%)
   displ. norm   :     0.0311520 α      lambda       -0.1216731E-05
   maximum displ.:     0.0214720 α      in ANC's #3, #7, #13, ...

........................................................................
.............................. CYCLE   18 ..............................
........................................................................

 iter      E             dE          RMSdq      gap      omega  full diag
   1   -124.5063942 -0.124506E+03  0.574E-03    1.03       0.0  T
   2   -124.5063941  0.869436E-07  0.346E-03    1.03       3.2  T
   3   -124.5063920  0.213228E-05  0.428E-03    1.03       2.6  T
   4   -124.5063942 -0.225582E-05  0.276E-04    1.03      40.5  T
   5   -124.5063942 -0.617680E-08  0.105E-04    1.03     106.5  T
   6   -124.5063942 -0.853944E-09  0.562E-05    1.03     198.8  T
     SCC iter.                  ...        0 min,  0.053 sec
     gradient                   ...        0 min,  0.011 sec
 * total energy  :  -122.2299349 Eh     change       -0.1601535E-05 Eh
   gradient norm :     0.0001796 Eh/α   predicted    -0.6129860E-06 ( -61.73%)
   displ. norm   :     0.0336968 α      lambda       -0.1189757E-05
   maximum displ.:     0.0234230 α      in ANC's #3, #7, #13, ...

........................................................................
.............................. CYCLE   19 ..............................
........................................................................

 iter      E             dE          RMSdq      gap      omega  full diag
   1   -124.5063336 -0.124506E+03  0.625E-03    1.03       0.0  T
   2   -124.5063336  0.535136E-07  0.372E-03    1.03       3.0  T
   3   -124.5063318  0.179121E-05  0.390E-03    1.03       2.9  T
   4   -124.5063337 -0.186838E-05  0.351E-04    1.03      31.8  T
   5   -124.5063337 -0.108760E-07  0.120E-04    1.03      92.8  T
   6   -124.5063337 -0.123892E-08  0.598E-05    1.03     187.1  T
     SCC iter.                  ...        0 min,  0.054 sec
     gradient                   ...        0 min,  0.011 sec
 * total energy  :  -122.2299365 Eh     change       -0.1534093E-05 Eh
   gradient norm :     0.0001457 Eh/α   predicted    -0.5964433E-06 ( -61.12%)
   displ. norm   :     0.0315129 α      lambda       -0.1023436E-05
   maximum displ.:     0.0225246 α      in ANC's #3, #7, #13, ...

........................................................................
.............................. CYCLE   20 ..............................
........................................................................

 iter      E             dE          RMSdq      gap      omega  full diag
   1   -124.5062607 -0.124506E+03  0.578E-03    1.03       0.0  T
   2   -124.5062607  0.540892E-08  0.340E-03    1.03       3.3  T
   3   -124.5062602  0.472387E-06  0.201E-03    1.03       5.6  T
   4   -124.5062607 -0.484022E-06  0.284E-04    1.03      39.4  T
   5   -124.5062607 -0.813590E-08  0.858E-05    1.03     130.4  T
     SCC iter.                  ...        0 min,  0.044 sec
     gradient                   ...        0 min,  0.010 sec
 * total energy  :  -122.2299378 Eh     change       -0.1341643E-05 Eh
   gradient norm :     0.0001701 Eh/α   predicted    -0.5124023E-06 ( -61.81%)
   displ. norm   :     0.0274613 α      lambda       -0.8780723E-06
   maximum displ.:     0.0203604 α      in ANC's #3, #7, #2, ...
 * RMSD in coord.:     0.1315418 α      energy gain  -0.3094798E-03 Eh

generating ANC from exact Hessian ...
Using Lindh-Hessian (1995)
 Shifting diagonal of input Hessian by   9.878794578138797E-003
 Lowest  eigenvalues of input Hessian
    0.000000    0.000000    0.000000    0.000000    0.000000    0.000000
    0.010000    0.010053    0.010149    0.010320    0.010430    0.010614
    0.010737    0.011064    0.011210    0.011240    0.011328    0.011366
 Highest eigenvalues
    2.069143    2.117791    2.136183    2.154412    2.192093    2.302910
 

........................................................................
.............................. CYCLE   21 ..............................
........................................................................

 iter      E             dE          RMSdq      gap      omega  full diag
   1   -124.5062365 -0.124506E+03  0.488E-03    1.03       0.0  T
   2   -124.5062365  0.610909E-08  0.289E-03    1.03       3.9  T
   3   -124.5062360  0.417642E-06  0.185E-03    1.03       6.1  T
   4   -124.5062365 -0.429624E-06  0.185E-04    1.03      60.5  T
   5   -124.5062365 -0.313592E-08  0.713E-05    1.03     156.7  T
     SCC iter.                  ...        0 min,  0.045 sec
     gradient                   ...        0 min,  0.010 sec
 * total energy  :  -122.2299390 Eh     change       -0.1171732E-05 Eh
   gradient norm :     0.0001856 Eh/α   predicted     0.0000000E+00 (-100.00%)
   displ. norm   :     0.0092144 α      lambda       -0.3842297E-06
   maximum displ.:     0.0078399 α      in ANC's #3, #8, #19, ...

........................................................................
.............................. CYCLE   22 ..............................
........................................................................

 iter      E             dE          RMSdq      gap      omega  full diag
   1   -124.5062662 -0.124506E+03  0.130E-03    1.03       0.0  T
   2   -124.5062662  0.285170E-07  0.921E-04    1.03      12.1  T
   3   -124.5062662  0.695686E-07  0.103E-03    1.03      10.9  T
   4   -124.5062663 -0.107933E-06  0.119E-04    1.03      93.6  T
     SCC iter.                  ...        0 min,  0.036 sec
     gradient                   ...        0 min,  0.011 sec
 * total energy  :  -122.2299396 Eh     change       -0.6175791E-06 Eh
   gradient norm :     0.0001118 Eh/α   predicted    -0.2193917E-06 ( -64.48%)
   displ. norm   :     0.0192302 α      lambda       -0.7847758E-06
   maximum displ.:     0.0144260 α      in ANC's #3, #8, #19, ...

........................................................................
.............................. CYCLE   23 ..............................
........................................................................

 iter      E             dE          RMSdq      gap      omega  full diag
   1   -124.5063145 -0.124506E+03  0.299E-03    1.03       0.0  T
   2   -124.5063144  0.843201E-07  0.195E-03    1.03       5.7  T
   3   -124.5063138  0.608490E-06  0.253E-03    1.03       4.4  T
   4   -124.5063145 -0.723122E-06  0.189E-04    1.03      59.1  T
   5   -124.5063145 -0.406463E-08  0.478E-05    1.03     233.9  T
     SCC iter.                  ...        0 min,  0.046 sec
     gradient                   ...        0 min,  0.010 sec
 * total energy  :  -122.2299407 Eh     change       -0.1075599E-05 Eh
   gradient norm :     0.0000897 Eh/α   predicted    -0.4045939E-06 ( -62.38%)
   displ. norm   :     0.0264653 α      lambda       -0.9007316E-06
   maximum displ.:     0.0198202 α      in ANC's #3, #8, #19, ...

........................................................................
.............................. CYCLE   24 ..............................
........................................................................

 iter      E             dE          RMSdq      gap      omega  full diag
   1   -124.5063327 -0.124506E+03  0.399E-03    1.03       0.0  T
   2   -124.5063326  0.869285E-07  0.251E-03    1.03       4.5  T
   3   -124.5063313  0.122482E-05  0.335E-03    1.03       3.3  T
   4   -124.5063327 -0.134490E-05  0.201E-04    1.03      55.6  T
   5   -124.5063327 -0.383949E-08  0.648E-05    1.03     172.5  T
   6   -124.5063327 -0.254147E-09  0.385E-05    1.03     290.6  T
     SCC iter.                  ...        0 min,  0.054 sec
     gradient                   ...        0 min,  0.011 sec
 * total energy  :  -122.2299418 Eh     change       -0.1159023E-05 Eh
   gradient norm :     0.0001443 Eh/α   predicted    -0.4509838E-06 ( -61.09%)
   displ. norm   :     0.0239223 α      lambda       -0.6649848E-06
   maximum displ.:     0.0184982 α      in ANC's #3, #8, #11, ...

........................................................................
.............................. CYCLE   25 ..............................
........................................................................

 iter      E             dE          RMSdq      gap      omega  full diag
   1   -124.5063393 -0.124506E+03  0.339E-03    1.03       0.0  T
   2   -124.5063393  0.906027E-08  0.202E-03    1.03       5.5  T
   3   -124.5063389  0.407944E-06  0.184E-03    1.03       6.1  T
   4   -124.5063393 -0.421195E-06  0.201E-04    1.03      55.6  T
   5   -124.5063393 -0.424630E-08  0.594E-05    1.03     188.2  T
     SCC iter.                  ...        0 min,  0.050 sec
     gradient                   ...        0 min,  0.011 sec
 * total energy  :  -122.2299427 Eh     change       -0.8985604E-06 Eh
   gradient norm :     0.0001676 Eh/α   predicted    -0.3357642E-06 ( -62.63%)
   displ. norm   :     0.0186363 α      lambda       -0.5122087E-06
   maximum displ.:     0.0149108 α      in ANC's #3, #8, #11, ...

........................................................................
.............................. CYCLE   26 ..............................
........................................................................

 iter      E             dE          RMSdq      gap      omega  full diag
   1   -124.5063500 -0.124506E+03  0.257E-03    1.03       0.0  T
   2   -124.5063500  0.114795E-07  0.154E-03    1.03       7.3  T
   3   -124.5063497  0.368763E-06  0.176E-03    1.03       6.4  T
   4   -124.5063500 -0.386019E-06  0.104E-04    1.03     107.8  T
   5   -124.5063501 -0.101807E-08  0.328E-05    1.03     341.4  T
     SCC iter.                  ...        0 min,  0.044 sec
     gradient                   ...        0 min,  0.011 sec
 * total energy  :  -122.2299435 Eh     change       -0.7271621E-06 Eh
   gradient norm :     0.0001407 Eh/α   predicted    -0.2566339E-06 ( -64.71%)
   displ. norm   :     0.0167702 α      lambda       -0.5041128E-06
   maximum displ.:     0.0136694 α      in ANC's #3, #8, #2, ...

........................................................................
.............................. CYCLE   27 ..............................
........................................................................

 iter      E             dE          RMSdq      gap      omega  full diag
   1   -124.5063572 -0.124506E+03  0.239E-03    1.03       0.0  T
   2   -124.5063572  0.443795E-07  0.153E-03    1.03       7.3  T
   3   -124.5063567  0.423859E-06  0.205E-03    1.03       5.5  T
   4   -124.5063572 -0.485594E-06  0.102E-04    1.03     109.9  T
   5   -124.5063572 -0.968669E-09  0.342E-05    1.03     326.7  T
     SCC iter.                  ...        0 min,  0.045 sec
     gradient                   ...        0 min,  0.011 sec
 * total energy  :  -122.2299442 Eh     change       -0.7247694E-06 Eh
   gradient norm :     0.0000912 Eh/α   predicted    -0.2534555E-06 ( -65.03%)
   displ. norm   :     0.0179771 α      lambda       -0.5598879E-06
   maximum displ.:     0.0145591 α      in ANC's #3, #8, #2, ...

........................................................................
.............................. CYCLE   28 ..............................
........................................................................

 iter      E             dE          RMSdq      gap      omega  full diag
   1   -124.5063617 -0.124506E+03  0.281E-03    1.03       0.0  T
   2   -124.5063617  0.564961E-07  0.178E-03    1.03       6.3  T
   3   -124.5063611  0.591420E-06  0.240E-03    1.03       4.7  T
   4   -124.5063617 -0.670206E-06  0.110E-04    1.03     102.1  T
   5   -124.5063617 -0.111869E-08  0.293E-05    1.03     381.0  T
     SCC iter.                  ...        0 min,  0.045 sec
     gradient                   ...        0 min,  0.011 sec
 * total energy  :  -122.2299450 Eh     change       -0.7925993E-06 Eh
   gradient norm :     0.0000625 Eh/α   predicted    -0.2811616E-06 ( -64.53%)
   displ. norm   :     0.0204365 α      lambda       -0.6074137E-06
   maximum displ.:     0.0164443 α      in ANC's #3, #8, #13, ...

........................................................................
.............................. CYCLE   29 ..............................
........................................................................

 iter      E             dE          RMSdq      gap      omega  full diag
   1   -124.5063673 -0.124506E+03  0.343E-03    1.03       0.0  T
   2   -124.5063672  0.439772E-07  0.210E-03    1.03       5.3  T
   3   -124.5063664  0.849813E-06  0.274E-03    1.03       4.1  T
   4   -124.5063673 -0.912452E-06  0.136E-04    1.03      82.4  T
   5   -124.5063673 -0.154697E-08  0.400E-05    1.03     279.5  T
     SCC iter.                  ...        0 min,  0.045 sec
     gradient                   ...        0 min,  0.011 sec
 * total energy  :  -122.2299458 Eh     change       -0.8529900E-06 Eh
   gradient norm :     0.0000852 Eh/α   predicted    -0.3073885E-06 ( -63.96%)
   displ. norm   :     0.0207485 α      lambda       -0.5807366E-06
   maximum displ.:     0.0167835 α      in ANC's #3, #13, #8, ...

........................................................................
.............................. CYCLE   30 ..............................
........................................................................

 iter      E             dE          RMSdq      gap      omega  full diag
   1   -124.5063697 -0.124506E+03  0.361E-03    1.03       0.0  T
   2   -124.5063696  0.122751E-07  0.214E-03    1.03       5.2  T
   3   -124.5063692  0.499496E-06  0.203E-03    1.03       5.5  T
   4   -124.5063697 -0.518546E-06  0.156E-04    1.03      71.8  T
   5   -124.5063697 -0.208479E-08  0.531E-05    1.03     210.4  T
     SCC iter.                  ...        0 min,  0.045 sec
     gradient                   ...        0 min,  0.011 sec
 * total energy  :  -122.2299466 Eh     change       -0.8163294E-06 Eh
   gradient norm :     0.0001053 Eh/α   predicted    -0.2931662E-06 ( -64.09%)
   displ. norm   :     0.0189633 α      lambda       -0.5179196E-06
   maximum displ.:     0.0155069 α      in ANC's #3, #13, #2, ...

........................................................................
.............................. CYCLE   31 ..............................
........................................................................

 iter      E             dE          RMSdq      gap      omega  full diag
   1   -124.5063708 -0.124506E+03  0.334E-03    1.03       0.0  T
   2   -124.5063708  0.788560E-10  0.196E-03    1.03       5.7  T
   3   -124.5063707  0.892665E-07  0.877E-04    1.03      12.8  T
   4   -124.5063708 -0.910747E-07  0.139E-04    1.03      80.6  T
     SCC iter.                  ...        0 min,  0.036 sec
     gradient                   ...        0 min,  0.011 sec
 * total energy  :  -122.2299474 Eh     change       -0.7356183E-06 Eh
   gradient norm :     0.0001145 Eh/α   predicted    -0.2610210E-06 ( -64.52%)
   displ. norm   :     0.0171251 α      lambda       -0.4774540E-06
   maximum displ.:     0.0141468 α      in ANC's #3, #13, #2, ...

........................................................................
.............................. CYCLE   32 ..............................
........................................................................

 iter      E             dE          RMSdq      gap      omega  full diag
   1   -124.5063651 -0.124506E+03  0.301E-03    1.03       0.0  T
   2   -124.5063651  0.420603E-08  0.178E-03    1.03       6.3  T
   3   -124.5063649  0.231426E-06  0.138E-03    1.03       8.1  T
   4   -124.5063651 -0.238512E-06  0.126E-04    1.03      88.4  T
   5   -124.5063651 -0.151876E-08  0.358E-05    1.03     312.2  T
     SCC iter.                  ...        0 min,  0.045 sec
     gradient                   ...        0 min,  0.011 sec
 * total energy  :  -122.2299481 Eh     change       -0.6876357E-06 Eh
   gradient norm :     0.0000917 Eh/α   predicted    -0.2401545E-06 ( -65.08%)
   displ. norm   :     0.0161157 α      lambda       -0.4623659E-06
   maximum displ.:     0.0134208 α      in ANC's #3, #13, #2, ...

........................................................................
.............................. CYCLE   33 ..............................
........................................................................

 iter      E             dE          RMSdq      gap      omega  full diag
   1   -124.5063639 -0.124506E+03  0.273E-03    1.03       0.0  T
   2   -124.5063639  0.572265E-08  0.162E-03    1.03       6.9  T
   3   -124.5063636  0.245658E-06  0.142E-03    1.03       7.9  T
   4   -124.5063639 -0.254521E-06  0.124E-04    1.03      90.0  T
   5   -124.5063639 -0.144036E-08  0.485E-05    1.03     230.7  T
     SCC iter.                  ...        0 min,  0.045 sec
     gradient                   ...        0 min,  0.011 sec
 * total energy  :  -122.2299487 Eh     change       -0.6653653E-06 Eh
   gradient norm :     0.0000730 Eh/α   predicted    -0.2322760E-06 ( -65.09%)
   displ. norm   :     0.0157221 α      lambda       -0.4546533E-06
   maximum displ.:     0.0131813 α      in ANC's #3, #13, #2, ...

........................................................................
.............................. CYCLE   34 ..............................
........................................................................

 iter      E             dE          RMSdq      gap      omega  full diag
   1   -124.5063579 -0.124506E+03  0.250E-03    1.03       0.0  T
   2   -124.5063579  0.100857E-07  0.151E-03    1.03       7.4  T
   3   -124.5063576  0.328992E-06  0.165E-03    1.03       6.8  T
   4   -124.5063579 -0.343682E-06  0.105E-04    1.03     106.8  T
   5   -124.5063579 -0.103475E-08  0.392E-05    1.03     285.0  T
     SCC iter.                  ...        0 min,  0.045 sec
     gradient                   ...        0 min,  0.011 sec
 * total energy  :  -122.2299494 Eh     change       -0.6535433E-06 Eh
   gradient norm :     0.0000567 Eh/α   predicted    -0.2278857E-06 ( -65.13%)
   displ. norm   :     0.0153041 α      lambda       -0.4350012E-06
   maximum displ.:     0.0129398 α      in ANC's #3, #2, #13, ...

........................................................................
.............................. CYCLE   35 ..............................
........................................................................

 iter      E             dE          RMSdq      gap      omega  full diag
   1   -124.5063515 -0.124506E+03  0.223E-03    1.03       0.0  T
   2   -124.5063515  0.955137E-08  0.134E-03    1.03       8.3  T
   3   -124.5063512  0.285047E-06  0.154E-03    1.03       7.3  T
   4   -124.5063515 -0.298748E-06  0.963E-05    1.03     116.1  T
   5   -124.5063515 -0.970246E-09  0.331E-05    1.03     337.8  T
     SCC iter.                  ...        0 min,  0.045 sec
     gradient                   ...        0 min,  0.011 sec
 * total energy  :  -122.2299500 Eh     change       -0.6259728E-06 Eh
   gradient norm :     0.0000526 Eh/α   predicted    -0.2178759E-06 ( -65.19%)
   displ. norm   :     0.0144449 α      lambda       -0.4004274E-06
   maximum displ.:     0.0123165 α      in ANC's #3, #2, #13, ...

........................................................................
.............................. CYCLE   36 ..............................
........................................................................

 iter      E             dE          RMSdq      gap      omega  full diag
   1   -124.5063484 -0.124506E+03  0.190E-03    1.03       0.0  T
   2   -124.5063484  0.438973E-08  0.114E-03    1.03       9.8  T
   3   -124.5063482  0.160871E-06  0.115E-03    1.03       9.7  T
   4   -124.5063484 -0.167306E-06  0.873E-05    1.03     128.1  T
   5   -124.5063484 -0.861675E-09  0.304E-05    1.03     367.6  T
     SCC iter.                  ...        0 min,  0.045 sec
     gradient                   ...        0 min,  0.011 sec
 * total energy  :  -122.2299506 Eh     change       -0.5769363E-06 Eh
   gradient norm :     0.0000557 Eh/α   predicted    -0.2006582E-06 ( -65.22%)
   displ. norm   :     0.0133390 α      lambda       -0.3620498E-06
   maximum displ.:     0.0114399 α      in ANC's #3, #2, #8, ...

........................................................................
.............................. CYCLE   37 ..............................
........................................................................

 iter      E             dE          RMSdq      gap      omega  full diag
   1   -124.5063452 -0.124506E+03  0.159E-03    1.03       0.0  T
   2   -124.5063452  0.273050E-08  0.951E-04    1.03      11.8  T
   3   -124.5063450  0.106590E-06  0.933E-04    1.03      12.0  T
     SCC iter.                  ...        0 min,  0.028 sec
     gradient                   ...        0 min,  0.011 sec
 * total energy  :  -122.2299510 Eh     change       -0.4121789E-06 Eh
   gradient norm :     0.0001049 Eh/α   predicted    -0.1818334E-06 ( -55.88%)
   displ. norm   :     0.0130086 α      lambda       -0.3520040E-06
   maximum displ.:     0.0111580 α      in ANC's #3, #2, #8, ...

........................................................................
.............................. CYCLE   38 ..............................
........................................................................

 iter      E             dE          RMSdq      gap      omega  full diag
   1   -124.5063191 -0.124506E+03  0.156E-03    1.03       0.0  T
   2   -124.5063190  0.925989E-07  0.134E-03    1.03       8.4  T
   3   -124.5063191 -0.469388E-07  0.101E-03    1.03      11.1  T
   4   -124.5063191 -0.783931E-07  0.181E-04    1.03      61.7  T
   5   -124.5063191 -0.395420E-08  0.570E-05    1.03     196.3  T
     SCC iter.                  ...        0 min,  0.045 sec
     gradient                   ...        0 min,  0.011 sec
 * total energy  :  -122.2299516 Eh     change       -0.6032965E-06 Eh
   gradient norm :     0.0001339 Eh/α   predicted    -0.1772091E-06 ( -70.63%)
   displ. norm   :     0.0120751 α      lambda       -0.3144813E-06
   maximum displ.:     0.0103898 α      in ANC's #3, #2, #8, ...

........................................................................
.............................. CYCLE   39 ..............................
........................................................................

 iter      E             dE          RMSdq      gap      omega  full diag
   1   -124.5063267 -0.124506E+03  0.132E-03    1.03       0.0  T
   2   -124.5063267 -0.348663E-09  0.772E-04    1.03      14.5  T
   3   -124.5063267  0.197561E-08  0.150E-04    1.03      74.8  T
     SCC iter.                  ...        0 min,  0.027 sec
     gradient                   ...        0 min,  0.011 sec
 * total energy  :  -122.2299521 Eh     change       -0.4637836E-06 Eh
   gradient norm :     0.0001244 Eh/α   predicted    -0.1593219E-06 ( -65.65%)
   displ. norm   :     0.0115032 α      lambda       -0.3030910E-06
   maximum displ.:     0.0098664 α      in ANC's #3, #2, #1, ...

........................................................................
.............................. CYCLE   40 ..............................
........................................................................

 iter      E             dE          RMSdq      gap      omega  full diag
   1   -124.5063375 -0.124506E+03  0.128E-03    1.03       0.0  T
   2   -124.5063375  0.647258E-08  0.802E-04    1.03      13.9  T
   3   -124.5063374  0.114767E-06  0.101E-03    1.03      11.1  T
   4   -124.5063375 -0.123740E-06  0.998E-05    1.03     112.0  T
     SCC iter.                  ...        0 min,  0.036 sec
     gradient                   ...        0 min,  0.011 sec
 * total energy  :  -122.2299525 Eh     change       -0.4431647E-06 Eh
   gradient norm :     0.0001060 Eh/α   predicted    -0.1523839E-06 ( -65.61%)
   displ. norm   :     0.0117169 α      lambda       -0.3041057E-06
   maximum displ.:     0.0100332 α      in ANC's #3, #2, #1, ...

........................................................................
.............................. CYCLE   41 ..............................
........................................................................

 iter      E             dE          RMSdq      gap      omega  full diag
   1   -124.5063490 -0.124506E+03  0.137E-03    1.03       0.0  T
   2   -124.5063489  0.198776E-07  0.924E-04    1.03      12.1  T
   3   -124.5063488  0.118886E-06  0.114E-03    1.03       9.8  T
   4   -124.5063490 -0.146417E-06  0.759E-05    1.03     147.4  T
     SCC iter.                  ...        0 min,  0.036 sec
     gradient                   ...        0 min,  0.012 sec
 * total energy  :  -122.2299530 Eh     change       -0.4442438E-06 Eh
   gradient norm :     0.0000777 Eh/α   predicted    -0.1525195E-06 ( -65.67%)
   displ. norm   :     0.0119957 α      lambda       -0.3026513E-06
   maximum displ.:     0.0102729 α      in ANC's #3, #2, #1, ...

........................................................................
.............................. CYCLE   42 ..............................
........................................................................

 iter      E             dE          RMSdq      gap      omega  full diag
   1   -124.5063590 -0.124506E+03  0.148E-03    1.03       0.0  T
   2   -124.5063590  0.251798E-07  0.101E-03    1.03      11.1  T
   3   -124.5063589  0.134707E-06  0.123E-03    1.03       9.1  T
   4   -124.5063591 -0.169568E-06  0.675E-05    1.03     165.6  T
   5   -124.5063591 -0.464098E-09  0.167E-05    1.03     668.2  T
     SCC iter.                  ...        0 min,  0.046 sec
     gradient                   ...        0 min,  0.011 sec
 * total energy  :  -122.2299534 Eh     change       -0.4415625E-06 Eh
   gradient norm :     0.0000519 Eh/α   predicted    -0.1516244E-06 ( -65.66%)
   displ. norm   :     0.0120419 α      lambda       -0.2840245E-06
   maximum displ.:     0.0103581 α      in ANC's #3, #2, #1, ...
 * RMSD in coord.:     0.0351887 α      energy gain  -0.1558965E-04 Eh

generating ANC from exact Hessian ...
Using Lindh-Hessian (1995)
 Shifting diagonal of input Hessian by   9.878705841689966E-003
 Lowest  eigenvalues of input Hessian
    0.000000    0.000000    0.000000    0.000000    0.000000    0.000000
    0.010000    0.010054    0.010148    0.010321    0.010432    0.010612
    0.010735    0.011063    0.011210    0.011241    0.011333    0.011364
 Highest eigenvalues
    2.069058    2.118042    2.135997    2.154558    2.191910    2.302723
 

........................................................................
.............................. CYCLE   43 ..............................
........................................................................

 iter      E             dE          RMSdq      gap      omega  full diag
   1   -124.5063676 -0.124506E+03  0.153E-03    1.03       0.0  T
   2   -124.5063675  0.193396E-07  0.998E-04    1.03      11.2  T
   3   -124.5063674  0.164738E-06  0.128E-03    1.03       8.7  T
   4   -124.5063676 -0.191594E-06  0.711E-05    1.03     157.3  T
     SCC iter.                  ...        0 min,  0.036 sec
     gradient                   ...        0 min,  0.011 sec
 * total energy  :  -122.2299538 Eh     change       -0.4274054E-06 Eh
   gradient norm :     0.0000448 Eh/α   predicted     0.0000000E+00 (-100.00%)
   displ. norm   :     0.0000672 α      lambda        0.0000000E+00
   maximum displ.:     0.0000598 α      in ANC's #3, #229, #8, ...

........................................................................
.............................. CYCLE   44 ..............................
........................................................................

 iter      E             dE          RMSdq      gap      omega  full diag
   1   -124.5063656 -0.124506E+03  0.789E-05    1.03       0.0  T
   2   -124.5063656  0.162527E-08  0.135E-04    1.03      83.0  T
   3   -124.5063656 -0.223352E-08  0.189E-05    1.03     591.9  T
     SCC iter.                  ...        0 min,  0.026 sec
     gradient                   ...        0 min,  0.011 sec
 * total energy  :  -122.2299538 Eh     change       -0.3159059E-08 Eh
   gradient norm :     0.0000422 Eh/α   predicted    -0.1727820E-08 ( -45.31%)
   displ. norm   :     0.0000672 α      lambda        0.0000000E+00
   maximum displ.:     0.0000598 α      in ANC's #3, #229, #8, ...

   *** GEOMETRY OPTIMIZATION CONVERGED AFTER 44 ITERATIONS ***

------------------------------------------------------------------------
 total energy gain   :        -0.0003255 Eh       -0.2043 kcal/mol
 total RMSD          :         0.1512006 a0        0.0800 Å
 total power (kW/mol):        -0.0194227 (step)   -0.2831 (real)
------------------------------------------------------------------------

 ANCopt (total)                0 d,  0 h,  0 min,  3.019 sec
 optimizer setup                ...        0 min,  0.000 sec (  0.009%)
 model hessian                  ...        0 min,  0.165 sec (  5.454%)
 ANC generation                 ...        0 min,  0.019 sec (  0.614%)
 coordinate transformation      ...        0 min,  0.003 sec (  0.108%)
 single point calculation       ...        0 min,  2.805 sec ( 92.906%)
 optimization log               ...        0 min,  0.012 sec (  0.398%)
 hessian update                 ...        0 min,  0.005 sec (  0.176%)
 rational function              ...        0 min,  0.005 sec (  0.171%)

================
 final structure:
================
80
 xtb: 6.7.1 (edcfbbe)
C            7.23209683498547       -2.98429949562441        0.42998292365592
C            7.04123448203126       -2.12523495205631       -0.64032864634160
C            5.88530268687582       -1.37329602414374       -0.73307658267770
C            4.89824578074153       -1.46729274098203        0.24678907598062
C            3.65498928757478       -0.68727044760609        0.14588011481456
C            2.43719082508378       -1.34911992647670        0.31673370756065
C            1.21743645842857       -0.69623710584376        0.19310096708558
N            0.05005611724404       -1.30102079774213        0.43224840700544
C           -1.10673303300788       -0.66023445127454        0.24042791850451
N           -2.28838079902816       -1.34634668259232        0.51800345781076
C           -3.25825208825631       -0.74827195685748        1.32941051508127
C           -4.61475865916180       -1.01069516140435        1.12848282848285
C           -5.56290621407553       -0.40454902537834        1.92842877474043
C           -5.18119962979715        0.47980640091563        2.92609433648302
C           -3.83646203982738        0.74390041037144        3.12963242791542
C           -2.87998582763894        0.13110485827962        2.34322801561083
C           -2.38475836550244       -2.68449616894375        0.12295646517203
C           -1.72591743031493       -3.12933442542496       -1.02346699726465
C           -1.79526610739851       -4.45619367212806       -1.40070930459533
C           -2.52213160353631       -5.36351104121781       -0.64752846803337
C           -3.16806863604559       -4.93091996594346        0.49999978614435
C           -3.10002213295567       -3.60768339559686        0.88871940848244
C           -1.10622005321904        0.66291290210325       -0.23300059551765
N           -2.28740990628791        1.35042127742622       -0.50918432254817
C           -2.38188265428660        2.68856365184636       -0.11367150911125
C           -3.09661649441888        3.61287232345206       -0.87856373644365
C           -3.16287488890601        4.93602935698319       -0.48925205999212
C           -2.51565671850156        5.36740858038852        0.65800968014179
C           -1.78922050851364        4.45897359176887        1.41026002003297
C           -1.72161067250787        3.13220578266235        1.03238724695584
C           -3.25863123857221        0.75355584605582       -1.31984355294611
C           -4.61467547144319        1.01759690089672       -1.11790607794035
C           -5.56415411261719        0.41240595296486       -1.91699895880795
C           -5.18427270919575       -0.47255412717780       -2.91482369036410
C           -3.83999895548767       -0.73819243658418       -3.11941822287998
C           -2.88219752750047       -0.12639256484041       -2.33385875791526
N            0.05110667333761        1.30216800367514       -0.42666322394375
C            1.21808643463821        0.69554541439147       -0.19023152377308
C            2.43858174693877        1.34639060772158       -0.31720203309653
C            3.65575749713068        0.68242495786786       -0.15007402768605
C            4.90015255960896        1.46006009098682       -0.25511917807148
C            5.89059424678760        1.36372585178880        0.72109890534531
C            7.04787981068749        2.11305214971442        0.62418668084469
C            7.23670555049599        2.97188589728797       -0.44667261925617
C            6.25477564964867        3.08283952872126       -1.41739369593441
C            5.09415848802385        2.33764182539361       -1.32042475491786
C            5.09425825426912       -2.34504273404915        1.31158266279941
C            6.25355867911998       -3.09281948692248        1.40440411528648
H            8.13780402026511       -3.56830238565317        0.50283136869714
H            7.79640924484546       -2.04174716376471       -1.40862696889101
H            5.73670415825599       -0.71371047345060       -1.57552559909853
H            2.42121064526345       -2.40986087364339        0.51752214575298
H           -4.91297833541833       -1.68129103039598        0.33695932797502
H           -6.60856923591193       -0.61560773380125        1.76365618953514
H           -5.92637672527318        0.95791582857088        3.54278483063956
H           -3.52779942314837        1.42335622028337        3.90995337483306
H           -1.82872520190738        0.31047260028797        2.51974732789597
H           -1.15802201057396       -2.43124948089401       -1.61870939120893
H           -1.27994955353684       -4.78074350360365       -2.29263934260748
H           -2.57866531287099       -6.39853159717110       -0.94751282150879
H           -3.72153209442096       -5.63209581911659        1.10669854362657
H           -3.58199200109909       -3.28786851734786        1.80029547744518
H           -3.57957596812158        3.29397626338045       -1.78993891130883
H           -3.71592501092588        5.63809773380294       -1.09529474895510
H           -2.57084734249387        6.40236075930579        0.95848376617380
H           -1.27288222205000        4.78256412964061        2.30194857591687
H           -1.15399054426620        2.43322390477222        1.62683885429698
H           -4.91151375706790        1.68865368155492       -0.32625592306599
H           -6.60944124619912        0.62469195255559       -1.75141854857157
H           -5.93049385419036       -0.94993420615953       -3.53081700845332
H           -3.53273541611134       -1.41812174494677       -3.89988125324609
H           -1.83128601190858       -0.30702868150037       -2.51118129876162
H            2.42381028481110        2.40715563816648       -0.51794790951240
H            5.74361012085635        0.70433775060503        1.56398567249849
H            7.80574657855696        2.02769746281272        1.38962562385592
H            8.14347431856833        3.55381388022537       -0.52282982090568
H            6.39405344228423        3.75220983044736       -2.25435542905074
H            4.33471466047518        2.41622758637393       -2.08583790170603
H            4.33744853385381       -2.42178208644701        2.07979387793375
H            6.39446265759877       -3.76231304184159        2.24099357519740
 
 Bond Distances (Angstroems)
 ---------------------------
C1-C2=1.3856         C1-C48=1.3852        C1-H49=1.0801        C2-C1=1.3856         C2-C3=1.3821         C2-H50=1.0805        
C3-C2=1.3821         C3-C4=1.3940         C3-H51=1.0802        C4-C3=1.3940         C4-C5=1.4712         C4-C47=1.3938        
C5-C4=1.4712         C5-C6=1.3965         C5-C40=1.4013        C6-C5=1.3965         C6-C7=1.3890         C6-H52=1.0797        
C7-C6=1.3890         C7-N8=1.3363         C7-C38=1.4436        N8-C7=1.3363         N8-C9=1.3362         C9-N8=1.3362         
C9-N10=1.3943        C9-C23=1.4053        N10-C9=1.3943        N10-C11=1.3988       N10-C17=1.3986       C11-N10=1.3988       
C11-C12=1.3962       C11-C16=1.3944       C12-C11=1.3962       C12-C13=1.3807       C12-H53=1.0794       C13-C12=1.3807       
C13-C14=1.3868       C13-H54=1.0794       C14-C13=1.3868       C14-C15=1.3855       C14-H55=1.0790       C15-C14=1.3855       
C15-C16=1.3816       C15-H56=1.0797       C16-C11=1.3944       C16-C15=1.3816       C16-H57=1.0810       C17-N10=1.3986       
C17-C18=1.3951       C17-C22=1.3965       C18-C17=1.3951       C18-C19=1.3812       C18-H58=1.0790       C19-C18=1.3812       
C19-C20=1.3852       C19-H59=1.0800       C20-C19=1.3852       C20-C21=1.3861       C20-H60=1.0791       C21-C20=1.3861       
C21-C22=1.3808       C21-H61=1.0798       C22-C17=1.3965       C22-C21=1.3808       C22-H62=1.0796       C23-C9=1.4053        
C23-N24=1.3943       C23-N37=1.3362       N24-C23=1.3943       N24-C25=1.3986       N24-C31=1.3988       C25-N24=1.3986       
C25-C26=1.3965       C25-C30=1.3951       C26-C25=1.3965       C26-C27=1.3808       C26-H63=1.0796       C27-C26=1.3808       
C27-C28=1.3861       C27-H64=1.0798       C28-C27=1.3861       C28-C29=1.3852       C28-H65=1.0791       C29-C28=1.3852       
C29-C30=1.3812       C29-H66=1.0800       C30-C25=1.3951       C30-C29=1.3812       C30-H67=1.0790       C31-N24=1.3988       
C31-C32=1.3962       C31-C36=1.3944       C32-C31=1.3962       C32-C33=1.3807       C32-H68=1.0794       C33-C32=1.3807       
C33-C34=1.3868       C33-H69=1.0794       C34-C33=1.3868       C34-C35=1.3855       C34-H70=1.0790       C35-C34=1.3855       
C35-C36=1.3816       C35-H71=1.0797       C36-C31=1.3944       C36-C35=1.3816       C36-H72=1.0810       N37-C23=1.3362       
N37-C38=1.3363       C38-C7=1.4436        C38-N37=1.3363       C38-C39=1.3890       C39-C38=1.3890       C39-C40=1.3965       
C39-H73=1.0797       C40-C5=1.4013        C40-C39=1.3965       C40-C41=1.4711       C41-C40=1.4711       C41-C42=1.3940       
C41-C46=1.3938       C42-C41=1.3940       C42-C43=1.3821       C42-H74=1.0802       C43-C42=1.3821       C43-C44=1.3856       
C43-H75=1.0805       C44-C43=1.3856       C44-C45=1.3852       C44-H76=1.0801       C45-C44=1.3852       C45-C46=1.3827       
C45-H77=1.0807       C46-C41=1.3938       C46-C45=1.3827       C46-H78=1.0811       C47-C4=1.3938        C47-C48=1.3827       
C47-H79=1.0811       C48-C1=1.3852        C48-C47=1.3827       C48-H80=1.0807       H49-C1=1.0801        H50-C2=1.0805        
H51-C3=1.0802        H52-C6=1.0797        H53-C12=1.0794       H54-C13=1.0794       H55-C14=1.0790       H56-C15=1.0797       
H57-C16=1.0810       H58-C18=1.0790       H59-C19=1.0800       H60-C20=1.0791       H61-C21=1.0798       H62-C22=1.0796       
H63-C26=1.0796       H64-C27=1.0798       H65-C28=1.0791       H66-C29=1.0800       H67-C30=1.0790       H68-C32=1.0794       
H69-C33=1.0794       H70-C34=1.0790       H71-C35=1.0797       H72-C36=1.0810       H73-C39=1.0797       H74-C42=1.0802       
H75-C43=1.0805       H76-C44=1.0801       H77-C45=1.0807       H78-C46=1.0811       H79-C47=1.0811       H80-C48=1.0807       
 C  H  Rav=1.0799 sigma=0.0007  Rmin=1.0790  Rmax=1.0811    32
 C  C  Rav=1.3936 sigma=0.0196  Rmin=1.3807  Rmax=1.4712    45
 N  C  Rav=1.3729 sigma=0.0299  Rmin=1.3362  Rmax=1.3988    10
 
 selected bond angles (degree)
 --------------------
C48-C1-C2=119.65               H49-C1-C2=120.19               H49-C1-C48=120.17              C3-C2-C1=120.29                
H50-C2-C1=120.06               H50-C2-C3=119.65               C4-C3-C2=120.55                H51-C3-C2=119.97               
H51-C3-C4=119.47               C5-C4-C3=120.96                C47-C4-C3=118.68               C47-C4-C5=120.34               
C6-C5-C4=118.51                C40-C5-C4=122.16               C40-C5-C6=119.31               C7-C6-C5=122.15                
H52-C6-C5=120.08               H52-C6-C7=117.73               N8-C7-C6=122.58                C38-C7-C6=118.45               
C38-C7-N8=118.96               C9-N8-C7=120.90                N10-C9-N8=117.98               C23-C9-N8=119.97               
C23-C9-N10=122.05              C11-N10-C9=119.52              C17-N10-C9=118.23              C17-N10-C11=121.68             
 
 selected dihedral angles (degree)
 ---------------------------------
C3-C2-C1-C48=  0.41           C3-C2-C1-H49=180.24           H50-C2-C1-C48=180.53          H50-C2-C1-H49=  0.36          
C4-C3-C2-C1=  0.06            C4-C3-C2-H50=179.94           H51-C3-C2-C1=180.71           H51-C3-C2-H50=  0.59          
C5-C4-C3-C2=180.99            C5-C4-C3-H51=  0.35           C47-C4-C3-C2=359.27           C47-C4-C3-H51=178.63          
C6-C5-C4-C3=130.55            C6-C5-C4-C47=312.30           C40-C5-C4-C3=312.30           C40-C5-C4-C47=134.05          
C7-C6-C5-C4=182.20            C7-C6-C5-C40=  0.50           H52-C6-C5-C4=359.97           H52-C6-C5-C40=178.28          
N8-C7-C6-C5=184.07            N8-C7-C6-H52=  6.25           C38-C7-C6-C5=  3.15           C38-C7-C6-H52=185.32          
C9-N8-C7-C6=183.27            C9-N8-C7-C38=  4.20           N10-C9-N8-C7=180.44           C23-C9-N8-C7=  0.71           
C11-N10-C9-N8=129.70          C11-N10-C9-C23=309.42         C17-N10-C9-N8=318.25          C17-N10-C9-C23=137.97         
           -------------------------------------------------
          |                Final Singlepoint                |
           -------------------------------------------------

          ...................................................
          :                      SETUP                      :
          :.................................................:
          :  # basis functions                 224          :
          :  # atomic orbitals                 224          :
          :  # shells                          128          :
          :  # electrons                       228          :
          :  max. iterations                   250          :
          :  Hamiltonian                  GFN2-xTB          :
          :  restarted?                      false          :
          :  GBSA solvation                   true          :
          :  PC potential                    false          :
          :  electronic temp.          300.0000000     K    :
          :  accuracy                    1.0000000          :
          :  -> integral cutoff          0.2500000E+02      :
          :  -> integral neglect         0.1000000E-07      :
          :  -> SCF convergence          0.1000000E-05 Eh   :
          :  -> wf. convergence          0.1000000E-03 e    :
          :  Broyden damping             0.4000000          :
          :  net charge                          0          :
          :  unpaired electrons                  2          :
          ...................................................

 iter      E             dE          RMSdq      gap      omega  full diag
   1   -124.5063656 -0.124506E+03  0.115E-05    1.03       0.0  T
   2   -124.5063656  0.159446E-10  0.148E-05    1.03     754.7  T
   3   -124.5063656 -0.268585E-10  0.511E-06    1.03    2186.4  T

   *** convergence criteria satisfied after 3 iterations ***

         #    Occupation            Energy/Eh            Energy/eV
      -------------------------------------------------------------
         1        2.0000           -0.6902654             -18.7831
       ...           ...                  ...                  ...
       109        2.0000           -0.4025276             -10.9533
       110        2.0000           -0.3904318             -10.6242
       111        2.0000           -0.3880348             -10.5590
       112        2.0000           -0.3782714             -10.2933
       113        1.9401           -0.3660354              -9.9603
       114        1.0599           -0.3608046              -9.8180
       115        1.0000           -0.2936224              -7.9899 (HOMO)
       116                         -0.2556709              -6.9572 (LUMO)
       117                         -0.2463468              -6.7034
       118                         -0.2418434              -6.5809
       119                         -0.2413370              -6.5671
       120                         -0.2376340              -6.4664
       ...                                ...                  ...
       224                          0.6999442              19.0465
      -------------------------------------------------------------
                  HL-Gap            0.0379516 Eh            1.0327 eV
             Fermi-level           -0.3190334 Eh           -8.6813 eV
 
 transition dipole moment (au) for excitation:         114         115
     X       Y       Z   
   0.0005   0.0349  -0.1338  total (au/Debye):    0.138   0.352
 dE (eV)             :    1.828
 oscillator strength :  0.12121E-02

 SCC (total)                   0 d,  0 h,  0 min,  0.067 sec
 SCC setup                      ...        0 min,  0.001 sec (  1.184%)
 Dispersion                     ...        0 min,  0.001 sec (  1.391%)
 classical contributions        ...        0 min,  0.000 sec (  0.049%)
 integral evaluation            ...        0 min,  0.004 sec (  5.715%)
[...]
    12   6 C       53   1 H                                       1.0794181
    13   6 C       54   1 H                                       1.0794013
    14   6 C       55   1 H                                       1.0789740
    15   6 C       56   1 H                                       1.0797378
    16   6 C       57   1 H                                       1.0809630
    18   6 C       58   1 H                                       1.0789539
    19   6 C       59   1 H                                       1.0800107
    20   6 C       60   1 H                                       1.0790989
    21   6 C       61   1 H                                       1.0798393
    22   6 C       62   1 H                                       1.0796053
    26   6 C       63   1 H                                       1.0796062
    27   6 C       64   1 H                                       1.0798391
    28   6 C       65   1 H                                       1.0791000
    29   6 C       66   1 H                                       1.0800115
    30   6 C       67   1 H                                       1.0789538 (min)
    32   6 C       68   1 H                                       1.0794167
    33   6 C       69   1 H                                       1.0794015
    34   6 C       70   1 H                                       1.0789744
    35   6 C       71   1 H                                       1.0797396
    36   6 C       72   1 H                                       1.0809662
    39   6 C       73   1 H                                       1.0796943
    42   6 C       74   1 H                                       1.0802108
    43   6 C       75   1 H                                       1.0805297
    44   6 C       76   1 H                                       1.0801250
    45   6 C       77   1 H                                       1.0807220
    46   6 C       78   1 H                                       1.0811051
    47   6 C       79   1 H                                       1.0811099
    48   6 C       80   1 H                                       1.0807209

 * 3 distinct bonds (by element types)

   Z      Z             #   av. dist./Å        max./Å        min./Å
   1 H    6 C          32     1.0798997     1.0811099     1.0789538
   6 C    6 C          42     1.3886759     1.4052950     1.3806921
   6 C    7 N          10     1.3728539     1.3988300     1.3362476

           -------------------------------------------------
          |               Frequency Printout                |
           -------------------------------------------------
 projected vibrational frequencies (cm⁻¹)
eigval :       -0.00    -0.00    -0.00    -0.00    -0.00     0.00
eigval :       13.29    14.88    16.10    27.50    29.24    42.10
eigval :       43.15    45.40    53.28    58.67    63.26    66.50
eigval :       68.29    77.84    78.19    81.62   107.61   109.45
eigval :      124.61   142.14   158.85   161.84   191.39   200.37
eigval :      210.05   232.17   234.15   236.41   246.24   259.73
eigval :      259.99   276.58   310.00   317.78   319.97   330.86
eigval :      366.89   369.68   371.27   372.89   375.47   380.90
eigval :      388.36   390.87   407.71   416.41   452.18   467.29
eigval :      468.35   475.68   483.79   497.02   507.77   518.85
eigval :      541.91   545.44   555.59   576.06   577.33   586.70
eigval :      587.73   587.85   588.55   589.19   592.56   609.42
eigval :      616.07   638.99   647.68   656.65   657.03   661.02
eigval :      663.76   667.12   676.88   679.40   686.74   702.40
eigval :      717.09   750.49   752.53   755.55   756.51   759.52
eigval :      760.51   795.00   812.81   828.11   838.47   860.19
eigval :      863.60   873.16   873.40   874.61   878.49   886.69
eigval :      890.99   896.02   897.68   898.60   901.78   904.72
eigval :      905.17   920.74   921.31   923.41   923.58   924.30
eigval :      924.64   925.37   925.94   926.66   927.65   927.71
eigval :      932.95   934.18   956.97   973.10   978.40   997.34
eigval :     1001.47  1006.20  1010.69  1072.98  1079.79  1080.10
eigval :     1082.85  1083.94  1084.05  1086.30  1117.44  1118.43
eigval :     1118.58  1119.96  1125.31  1127.98  1154.64  1175.42
eigval :     1175.65  1176.67  1176.79  1178.50  1178.68  1185.52
eigval :     1189.20  1192.56  1195.06  1197.19  1198.18  1201.62
eigval :     1208.32  1222.02  1243.58  1247.52  1266.25  1270.42
eigval :     1272.87  1275.47  1276.09  1280.30  1283.63  1286.51
eigval :     1302.27  1303.72  1303.93  1314.83  1314.97  1317.77
eigval :     1320.56  1325.29  1327.15  1328.23  1363.07  1391.80
eigval :     1392.04  1426.56  1428.86  1429.28  1430.73  1439.65
eigval :     1439.89  1451.34  1461.87  1462.18  1462.93  1469.79
eigval :     1474.71  1477.19  1501.89  1515.74  1569.43  1569.70
eigval :     1574.00  1574.63  1576.00  1576.62  1582.20  1582.55
eigval :     1588.03  1591.65  1593.73  1595.26  3065.47  3065.50
eigval :     3068.78  3068.95  3069.10  3069.28  3074.94  3075.27
eigval :     3079.59  3079.65  3080.88  3081.37  3081.39  3082.13
eigval :     3084.07  3084.59  3085.14  3085.52  3087.78  3087.89
eigval :     3089.59  3089.71  3091.85  3091.93  3095.23  3095.48
eigval :     3096.09  3097.65  3101.17  3101.67  3103.87  3104.08
 reduced masses (amu)
   1: 11.19   2: 11.54   3: 11.37   4: 11.34   5: 11.52   6: 11.32   7: 10.86   8: 10.95
   9: 10.92  10: 10.98  11: 10.50  12: 10.74  13: 10.49  14: 10.67  15: 10.16  16: 10.51
  17: 10.54  18: 10.65  19: 10.40  20: 10.60  21: 10.58  22: 10.78  23:  9.94  24:  9.89
  25: 10.78  26: 11.86  27: 10.97  28: 10.81  29: 11.11  30: 10.92  31: 11.65  32: 10.80
  33: 10.55  34: 10.55  35: 10.66  36: 10.69  37: 11.48  38: 11.58  39: 10.83  40: 11.09
  41: 10.66  42: 11.15  43:  9.60  44: 10.71  45:  9.87  46:  9.41  47:  9.27  48:  9.09
  49:  9.21  50:  9.23  51: 11.58  52: 11.33  53: 10.59  54:  9.94  55: 11.19  56: 10.16
  57:  9.93  58: 10.66  59: 11.62  60: 10.61  61: 11.88  62: 11.77  63: 11.65  64: 11.02
  65: 12.23  66: 11.23  67: 11.22  68: 11.23  69: 11.51  70: 11.24  71: 11.21  72: 11.57
  73: 11.71  74: 11.73  75: 11.15  76: 10.14  77: 10.09  78: 10.59  79: 10.57  80: 10.32
  81:  9.01  82:  9.44  83: 11.42  84: 11.63  85: 11.23  86:  4.15  87:  3.99  88:  4.93
  89:  4.98  90:  4.32  91:  3.93  92:  3.56  93:  4.13  94: 10.94  95: 11.89  96:  3.34
  97:  3.35  98:  3.29  99:  3.29 100:  3.29 101:  3.27 102:  3.80 103:  3.79 104:  3.78
 105:  4.69 106:  3.81 107:  3.85 108: 10.68 109: 11.57 110:  3.81 111:  3.36 112:  6.03
 113:  6.89 114:  3.58 115:  4.73 116:  4.70 117:  3.22 118:  3.15 119:  3.31 120:  3.09
 121:  3.47 122:  3.25 123: 11.71 124: 10.81 125: 10.92 126: 10.73 127: 10.54 128: 10.57
 129: 10.95 130:  9.39 131:  6.66 132:  6.79 133:  6.74 134:  6.78 135:  6.74 136:  5.29
 137:  4.17 138:  3.94 139:  4.18 140:  4.24 141:  4.27 142:  4.09 143:  9.51 144:  1.32
 145:  1.32 146:  1.29 147:  1.30 148:  1.33 149:  1.33 150:  4.04 151:  2.87 152:  3.49
 153:  1.98 154:  2.84 155:  1.86 156:  5.28 157:  5.91 158: 10.52 159: 10.07 160:  7.11
 161:  8.88 162:  8.87 163:  4.50 164:  5.05 165:  5.13 166:  3.71 167:  4.56 168:  5.34
 169: 10.56 170:  9.52 171: 10.56 172: 11.89 173: 11.68 174: 11.87 175: 11.79 176: 11.90
 177: 11.90 178: 11.89 179: 11.43 180: 11.30 181: 11.45 182:  9.15 183:  9.02 184:  9.10
 185:  9.10 186:  9.26 187:  9.39 188: 10.53 189:  8.91 190:  8.97 191:  9.04 192:  9.79
 193:  9.84 194:  9.36 195: 11.71 196: 11.59 197: 11.44 198: 11.44 199: 11.52 200: 11.52
 201: 11.46 202: 11.47 203: 11.44 204: 11.45 205: 11.48 206: 11.48 207: 11.47 208: 11.48
 209:  1.76 210:  1.76 211:  1.76 212:  1.79 213:  1.79 214:  1.77 215:  1.84 216:  1.85
 217:  1.76 218:  1.76 219:  1.86 220:  1.78 221:  1.78 222:  1.86 223:  1.81 224:  1.82
 225:  1.78 226:  1.78 227:  1.82 228:  1.82 229:  1.92 230:  1.92 231:  1.84 232:  1.84
 233:  1.86 234:  1.86 235:  1.86 236:  1.85 237:  1.91 238:  1.91 239:  1.92 240:  1.92
 IR intensities (km·mol⁻¹)
   1:  0.12   2:  0.01   3:  0.33   4:  0.05   5:  0.39   6:  0.01   7:  0.37   8:  0.47
   9:  0.02  10:  0.40  11:  2.38  12:  0.02  13:  0.90  14:  0.27  15:  0.80  16:  0.46
  17:  1.44  18:  0.04  19:  0.84  20:  0.17  21:  0.23  22:  0.00  23:  0.70  24:  0.02
  25:  1.39  26: 17.78  27:  0.18  28:  2.09  29:  1.16  30:  0.38  31:  2.19  32:  7.45
  33:  0.13  34:  0.08  35:  0.46  36:  0.02  37:  6.71  38:  1.24  39:  0.05  40:  0.63
  41:  5.27  42: 39.24  43: 11.16  44:  1.10  45:  1.13  46:  1.31  47:  3.35  48:  1.16
  49:  0.59  50:  9.49  51: 11.04  52: 29.43  53:  4.06  54: 11.45  55:  2.20  56: 18.70
  57:  4.37  58: 19.16  59: 15.75  60:  2.51  61:  0.64  62:  1.20  63: 37.68  64:  1.38
  65:  3.00  66:  1.33  67:  1.39  68:  0.02  69:  4.09  70:  3.73  71:  3.20  72:  3.72
  73:  0.10  74: 12.70  75:  3.70  76:  1.73  77:  2.64  78:  1.25  79:  0.41  80: 18.04
  81:  3.49  82:  6.42  83: 42.53  84:  3.31  85:  5.99  86: 44.65  87: 30.65  88: 41.42
  89:  7.23  90:  5.26  91: 31.24  92: 15.79  93: 36.41  94:  0.06  95:  0.20  96: 45.71
  97:  5.37  98:  0.88  99:  0.08 100:  0.91 101: 13.10 102:  0.65 103:  1.23 104:  0.77
 105:  0.09 106:  1.00 107:  0.59 108:  2.73 109: 10.97 110:  7.54 111:  0.14 112:  1.38
 113:  0.72 114:  2.17 115:  8.18 116:  6.34 117:  0.04 118:  0.82 119:  0.10 120:  0.11
 121:  5.35 122:  9.70 123:  4.78 124:  0.01 125: 17.94 126:  0.02 127:  6.52 128:  7.19
 129: 10.45 130:  0.09 131:  9.91 132:  4.98 133:  2.72 134:  7.83 135:  3.68 136:  0.09
 137:  2.01 138:  2.54 139:  1.19 140:  1.40 141:  2.39 142:  0.18 143: 93.90 144:  0.02
 145:  0.41 146:  0.25 147:  0.01 148:  0.94 149:  1.05 150:  1.97 151: 13.22 152: 18.02
 153:  0.67 154: 30.65 155:  1.81 156: 37.17 157: 10.51 158:  3.95 159:  3.56 160:  0.82
 161: 22.11 162:142.01 163: 15.38 164: 33.10 165: 75.59 166:  7.04 167: 11.76 168:  6.53
 169:549.78 170:119.96 171: 95.21 172:  4.14 173:102.76 174:  0.57 175:  2.79 176: 22.69
 177:  2.48 178: 12.21 179:  0.93 180:  1.64 181: 86.63 182: 30.16 183:  2.92 184:  1.44
 185:  5.88 186:  6.28 187:  2.60 188: 68.76 189:  1.80 190:187.19 191: 58.74 192: 33.36
 193:129.27 194:  3.70 195: 27.98 196:135.76 197:  2.07 198:  6.81 199:  0.08 200:  2.44
 201:  1.35 202:  0.10 203: 84.03 204: 19.84 205:  4.69 206:  2.38 207: 55.81 208: 18.16
 209:  3.98 210:  4.77 211:  0.41 212:  2.94 213: 58.51 214:  7.08 215: 78.00 216: 98.81
 217: 35.13 218:  3.56 219:282.15 220:  8.72 221: 19.91 222: 12.30 223: 20.50 224:  0.01
 225: 23.16 226:  1.16 227: 14.70 228: 51.65 229:142.32 230:215.76 231:134.50 232:  0.90
 233: 93.44 234:196.67 235: 89.60 236: 17.62 237: 96.18 238:  0.38 239: 25.57 240:112.16
 Raman intensities (Ä⁴*amu⁻¹)
   1:  0.00   2:  0.00   3:  0.00   4:  0.00   5:  0.00   6:  0.00   7:  0.00   8:  0.00
   9:  0.00  10:  0.00  11:  0.00  12:  0.00  13:  0.00  14:  0.00  15:  0.00  16:  0.00
  17:  0.00  18:  0.00  19:  0.00  20:  0.00  21:  0.00  22:  0.00  23:  0.00  24:  0.00
  25:  0.00  26:  0.00  27:  0.00  28:  0.00  29:  0.00  30:  0.00  31:  0.00  32:  0.00
  33:  0.00  34:  0.00  35:  0.00  36:  0.00  37:  0.00  38:  0.00  39:  0.00  40:  0.00
  41:  0.00  42:  0.00  43:  0.00  44:  0.00  45:  0.00  46:  0.00  47:  0.00  48:  0.00
  49:  0.00  50:  0.00  51:  0.00  52:  0.00  53:  0.00  54:  0.00  55:  0.00  56:  0.00
  57:  0.00  58:  0.00  59:  0.00  60:  0.00  61:  0.00  62:  0.00  63:  0.00  64:  0.00
  65:  0.00  66:  0.00  67:  0.00  68:  0.00  69:  0.00  70:  0.00  71:  0.00  72:  0.00
  73:  0.00  74:  0.00  75:  0.00  76:  0.00  77:  0.00  78:  0.00  79:  0.00  80:  0.00
  81:  0.00  82:  0.00  83:  0.00  84:  0.00  85:  0.00  86:  0.00  87:  0.00  88:  0.00
  89:  0.00  90:  0.00  91:  0.00  92:  0.00  93:  0.00  94:  0.00  95:  0.00  96:  0.00
  97:  0.00  98:  0.00  99:  0.00 100:  0.00 101:  0.00 102:  0.00 103:  0.00 104:  0.00
 105:  0.00 106:  0.00 107:  0.00 108:  0.00 109:  0.00 110:  0.00 111:  0.00 112:  0.00
 113:  0.00 114:  0.00 115:  0.00 116:  0.00 117:  0.00 118:  0.00 119:  0.00 120:  0.00
 121:  0.00 122:  0.00 123:  0.00 124:  0.00 125:  0.00 126:  0.00 127:  0.00 128:  0.00
 129:  0.00 130:  0.00 131:  0.00 132:  0.00 133:  0.00 134:  0.00 135:  0.00 136:  0.00
 137:  0.00 138:  0.00 139:  0.00 140:  0.00 141:  0.00 142:  0.00 143:  0.00 144:  0.00
 145:  0.00 146:  0.00 147:  0.00 148:  0.00 149:  0.00 150:  0.00 151:  0.00 152:  0.00
 153:  0.00 154:  0.00 155:  0.00 156:  0.00 157:  0.00 158:  0.00 159:  0.00 160:  0.00
 161:  0.00 162:  0.00 163:  0.00 164:  0.00 165:  0.00 166:  0.00 167:  0.00 168:  0.00
 169:  0.00 170:  0.00 171:  0.00 172:  0.00 173:  0.00 174:  0.00 175:  0.00 176:  0.00
 177:  0.00 178:  0.00 179:  0.00 180:  0.00 181:  0.00 182:  0.00 183:  0.00 184:  0.00
 185:  0.00 186:  0.00 187:  0.00 188:  0.00 189:  0.00 190:  0.00 191:  0.00 192:  0.00
 193:  0.00 194:  0.00 195:  0.00 196:  0.00 197:  0.00 198:  0.00 199:  0.00 200:  0.00
 201:  0.00 202:  0.00 203:  0.00 204:  0.00 205:  0.00 206:  0.00 207:  0.00 208:  0.00
 209:  0.00 210:  0.00 211:  0.00 212:  0.00 213:  0.00 214:  0.00 215:  0.00 216:  0.00
 217:  0.00 218:  0.00 219:  0.00 220:  0.00 221:  0.00 222:  0.00 223:  0.00 224:  0.00
 225:  0.00 226:  0.00 227:  0.00 228:  0.00 229:  0.00 230:  0.00 231:  0.00 232:  0.00
 233:  0.00 234:  0.00 235:  0.00 236:  0.00 237:  0.00 238:  0.00 239:  0.00 240:  0.00
 output can be read by thermo (or use thermo option).
 writing <g98.out> molden fake output.
 recommended (thermochemical) frequency scaling factor: 1.0
           -------------------------------------------------
          |             Thermodynamic Functions             |
           -------------------------------------------------

Molecule has the following symmetry elements: (C2) 
It seems to be the C2 point group
c2  symmetry found (for desy threshold:  0.10E+00) used in thermo

          ...................................................
          :                      SETUP                      :
          :.................................................:
          :  # frequencies                         234      :
          :  # imaginary freq.                       0      :
          :  linear?                             false      :
          :  only rotor calc.                    false      :
          :  symmetry                               c2      :
          :  rotational number                       2      :
          :  scaling factor                  1.0000000      :
          :  rotor cutoff                   50.0000000 cm⁻¹ :
          :  imag. cutoff                  -20.0000000 cm⁻¹ :
          :.................................................:

    mode    ω/cm⁻¹     T·S(HO)/kcal·mol⁻¹    T·S(FR)/kcal·mol⁻¹   T·S(vib)
   ------------------------------------------------------------------------
       1     13.29    -2.22022 (  0.50%)    -1.44914 ( 99.50%)    -1.45297
       2     14.88    -2.15308 (  0.78%)    -1.41556 ( 99.22%)    -1.42130
       3     16.10    -2.10644 (  1.06%)    -1.39223 ( 98.94%)    -1.39983
       4     27.50    -1.78940 (  8.39%)    -1.23358 ( 91.61%)    -1.28021
       5     29.24    -1.75322 ( 10.47%)    -1.21546 ( 89.53%)    -1.27177
       6     42.10    -1.53782 ( 33.44%)    -1.10751 ( 66.56%)    -1.25142
       7     43.15    -1.52319 ( 35.68%)    -1.10017 ( 64.32%)    -1.25112
       8     45.40    -1.49317 ( 40.48%)    -1.08510 ( 59.52%)    -1.25027
       9     53.28    -1.39881 ( 56.33%)    -1.03770 ( 43.67%)    -1.24110
      10     58.67    -1.34207 ( 65.47%)    -1.00916 ( 34.53%)    -1.22712
      11     63.26    -1.29781 ( 71.93%)    -0.98687 ( 28.07%)    -1.21052
      12     66.50    -1.26846 ( 75.78%)    -0.97207 ( 24.22%)    -1.19667
      13     68.29    -1.25284 ( 77.68%)    -0.96419 ( 22.32%)    -1.18841
      14     77.84    -1.17607 ( 85.45%)    -0.92541 ( 14.55%)    -1.13961
      15     78.19    -1.17349 ( 85.67%)    -0.92411 ( 14.33%)    -1.13776
      16     81.62    -1.14833 ( 87.66%)    -0.91137 ( 12.34%)    -1.11908
      17    107.61    -0.98737 ( 95.55%)    -0.82949 (  4.45%)    -0.98034
      18    109.45    -0.97753 ( 95.83%)    -0.82446 (  4.17%)    -0.97114
      19    124.61    -0.90266 ( 97.47%)    -0.78602 (  2.53%)    -0.89972
      20    142.14    -0.82734 ( 98.49%)    -0.74704 (  1.51%)    -0.82613
      21    158.85    -0.76428 ( 99.03%)    -0.71411 (  0.97%)    -0.76379
      22    161.84    -0.75376 ( 99.10%)    -0.70858 (  0.90%)    -0.75336
      23    191.39    -0.66019 ( 99.54%)    -0.65890 (  0.46%)    -0.66018
      24    200.37    -0.63497 ( 99.61%)    -0.64532 (  0.39%)    -0.63501
      25    210.05    -0.60919 ( 99.68%)    -0.63135 (  0.32%)    -0.60927
      26    232.17    -0.55519 ( 99.79%)    -0.60169 (  0.21%)    -0.55529
      27    234.15    -0.55064 ( 99.79%)    -0.59916 (  0.21%)    -0.55074
      28    236.41    -0.54554 ( 99.80%)    -0.59633 (  0.20%)    -0.54564
      29    246.24    -0.52395 ( 99.83%)    -0.58425 (  0.17%)    -0.52405
      30    259.73    -0.49599 ( 99.86%)    -0.56845 (  0.14%)    -0.49609
      31    259.99    -0.49548 ( 99.86%)    -0.56816 (  0.14%)    -0.49558
      32    276.58    -0.46355 ( 99.89%)    -0.54984 (  0.11%)    -0.46364
   ------------------------------------------------------------------------

   temp. (K)  partition function   enthalpy   heat capacity  entropy
                                   cal/mol     cal/K/mol   cal/K/mol   J/K/mol
 298.15  VIB  0.101E+19            22933.741    144.063    143.836
         ROT  0.345E+08              888.752      2.981     37.472
         INT  0.348E+26            23822.494    147.044    181.309
         TR   0.148E+29             1481.254      4.968     45.120
         TOT                       25303.7477   152.0117   226.4290   947.3791

       T/K    H(0)-H(T)+PV         H(T)/Eh          T*S/Eh         G(T)/Eh
   ------------------------------------------------------------------------
    298.15    0.403241E-01    0.656754E+00    0.107584E+00    0.549170E+00
   ------------------------------------------------------------------------

         :::::::::::::::::::::::::::::::::::::::::::::::::::::
         ::                  THERMODYNAMIC                  ::
         :::::::::::::::::::::::::::::::::::::::::::::::::::::
         :: total free energy        -121.680783952109 Eh   ::
         ::.................................................::
         :: total energy             -122.229953831095 Eh   ::
         :: zero point energy           0.616429528477 Eh   ::
         :: G(RRHO) w/o ZPVE           -0.067259649492 Eh   ::
         :: G(RRHO) contrib.            0.549169878986 Eh   ::
         :::::::::::::::::::::::::::::::::::::::::::::::::::::

optimized geometry written to: xtbopt.xyz


           -------------------------------------------------
          | TOTAL ENERGY             -122.229953831095 Eh   |
          | TOTAL ENTHALPY           -121.573200213913 Eh   |
          | TOTAL FREE ENERGY        -121.680783952109 Eh   |
          | GRADIENT NORM               0.000042596783 Eh/α |
          | HOMO-LUMO GAP               1.032715298700 eV   |
           -------------------------------------------------

------------------------------------------------------------------------
 * finished run on 2025/07/18 at 17:10:51.653     
------------------------------------------------------------------------
 total:
 * wall-time:     0 d,  0 h,  0 min,  7.224 sec
 *  cpu-time:     0 d,  0 h,  4 min, 33.084 sec
 * ratio c/w:    37.803 speedup
 SCF:
 * wall-time:     0 d,  0 h,  0 min,  0.192 sec
 *  cpu-time:     0 d,  0 h,  0 min,  7.566 sec
 * ratio c/w:    39.507 speedup
 ANC optimizer:
 * wall-time:     0 d,  0 h,  0 min,  3.088 sec
 *  cpu-time:     0 d,  0 h,  2 min,  3.489 sec
 * ratio c/w:    39.995 speedup
 analytical hessian:
 * wall-time:     0 d,  0 h,  0 min,  3.733 sec
 *  cpu-time:     0 d,  0 h,  2 min, 14.116 sec
 * ratio c/w:    35.932 speedup

