      -----------------------------------------------------------      
     |                   =====================                   |     
     |                           x T B                           |     
     |                   =====================                   |     
     |                         S. Grimme                         |     
     |          Mulliken Center for Theoretical Chemistry        |     
     |                    University of Bonn                     |     
      -----------------------------------------------------------      

   * xtb version 6.7.1 (edcfbbe) compiled by 'albert@albert-system' on 2024-07-22

   xtb is free software: you can redistribute it and/or modify it under
   the terms of the GNU Lesser General Public License as published by
   the Free Software Foundation, either version 3 of the License, or
   (at your option) any later version.
   
   xtb is distributed in the hope that it will be useful,
   but WITHOUT ANY WARRANTY; without even the implied warranty of
   MERCHANTABILITY or FITNESS FOR A PARTICULAR PURPOSE.  See the
   GNU Lesser General Public License for more details.
   
   Cite this work as:
   * C. Bannwarth, E. Caldeweyher, S. Ehlert, A. Hansen, P. Pracht,
     J. Seibert, S. Spicher, S. Grimme, WIREs Comput. Mol. Sci., 2020, 11,
     e01493. DOI: 10.1002/wcms.1493
   
   for GFN2-xTB:
   * C. Bannwarth, S. Ehlert and S. Grimme., J. Chem. Theory Comput., 2019,
     15, 1652-1671. DOI: 10.1021/acs.jctc.8b01176
   for GFN1-xTB:
   * S. Grimme, C. Bannwarth, P. Shushkov, J. Chem. Theory Comput., 2017,
     13, 1989-2009. DOI: 10.1021/acs.jctc.7b00118
   for GFN0-xTB:
   * P. Pracht, E. Caldeweyher, S. Ehlert, S. Grimme, ChemRxiv, 2019, preprint.
     DOI: 10.26434/chemrxiv.8326202.v1
   for GFN-FF:
   * S. Spicher and S. Grimme, Angew. Chem. Int. Ed., 2020, 59, 15665-15673.
     DOI: 10.1002/anie.202004239
   
   for ALPB and GBSA implicit solvation:
   * S. Ehlert, M. Stahn, S. Spicher, S. Grimme, J. Chem. Theory Comput.,
     2021, 17, 4250-4261. DOI: 10.1021/acs.jctc.1c00471
   
   for ddCOSMO and CPCM-X implicit solvation:
   * M. Stahn, S. Ehlert, S. Grimme, J. Phys. Chem. A,
     2023, XX, XXXX-XXXX. DOI: 10.1021/acs.jpca.3c04382
   
   for DFT-D4:
   * E. Caldeweyher, C. Bannwarth and S. Grimme, J. Chem. Phys., 2017,
     147, 034112. DOI: 10.1063/1.4993215
   * E. Caldeweyher, S. Ehlert, A. Hansen, H. Neugebauer, S. Spicher,
     C. Bannwarth and S. Grimme, J. Chem. Phys., 2019, 150, 154122.
     DOI: 10.1063/1.5090222
   * E. Caldeweyher, J.-M. Mewes, S. Ehlert and S. Grimme, Phys. Chem. Chem. Phys.
     2020, 22, 8499-8512. DOI: 10.1039/D0CP00502A
   
   for sTDA-xTB:
   * S. Grimme and C. Bannwarth, J. Chem. Phys., 2016, 145, 054103.
     DOI: 10.1063/1.4959605
   
   in the mass-spec context:
   * V. Asgeirsson, C. Bauer and S. Grimme, Chem. Sci., 2017, 8, 4879.
     DOI: 10.1039/c7sc00601b
   * J. Koopman and S. Grimme, ACS Omega 2019, 4, 12, 15120-15133.
     DOI: 10.1021/acsomega.9b02011
   
   for metadynamics refer to:
   * S. Grimme, J. Chem. Theory Comput., 2019, 155, 2847-2862
     DOI: 10.1021/acs.jctc.9b00143
   
   for SPH calculations refer to:
   * S. Spicher and S. Grimme, J. Chem. Theory Comput., 2021, 17, 1701-1714
     DOI: 10.1021/acs.jctc.0c01306
   
   for ONIOM refer to:
   * C. Plett, A. Katbashev, S. Ehlert, S. Grimme, M. Bursch,
     Phys. Chem. Chem. Phys., 2023, 25, 17860-17868. DOI: 10.1039/D3CP02178E
   
   for DIPRO refer to:
   * J. Kohn, N. Gildemeister, S. Grimme, D. Fazzi, A. Hansen,
     J. Chem. Phys., 2023, just accepted.
   
   for PTB refer to:
   * S. Grimme, M. Mueller, A. Hansen, J. Chem. Phys., 2023, 158, 124111.
     DOI: 10.1063/5.0137838
   
   with help from (in alphabetical order)
   P. Atkinson, C. Bannwarth, F. Bohle, G. Brandenburg, E. Caldeweyher
   M. Checinski, S. Dohm, S. Ehlert, S. Ehrlich, I. Gerasimov, C. Hölzer
   A. Katbashev, J. Kohn, J. Koopman, C. Lavigne, S. Lehtola, F. März, M. Müller,
   F. Musil, H. Neugebauer, J. Pisarek, C. Plett, P. Pracht, F. Pultar,
   J. Seibert, P. Shushkov, S. Spicher, M. Stahn, M. Steiner, T. Strunk,
   J. Stückrath, T. Rose, and J. Unsleber
   
 * started run on 2025/07/18 at 17:02:15.491     
   ID    Z sym.   atoms
    1    6 C      1-7, 9, 11-23, 25-36, 38-48
    2    7 N      8, 10, 24, 37
    3    1 H      49-80

           -------------------------------------------------
          |                Calculation Setup                |
           -------------------------------------------------

          program call               : xtb data2507/toluene/2DPA-DPQ/2DPA-DPQ_toluene_S0_finalOpt.xtbopt.xyz --gfn 2 --uhf 2 --gbsa toluene --ohess vtight --parallel 40 --molden --ceasefiles --namespace data2507/toluene/2DPA-DPQ/2DPA-DPQ_toluene_T1_preOpt
          calculation namespace      : data2507/toluene/2DPA-DPQ/2DPA-DPQ_toluene_T1_preOpt
          coordinate file            : data2507/toluene/2DPA-DPQ/2DPA-DPQ_toluene_S0_finalOpt.xtbopt.xyz
          omp threads                :                    40


           -------------------------------------------------
          |                 G F N 2 - x T B                 |
           -------------------------------------------------

        Reference                      10.1021/acs.jctc.8b01176
      * Hamiltonian:
        H0-scaling (s, p, d)           1.850000    2.230000    2.230000
        zeta-weighting                 0.500000
      * Dispersion:
        s8                             2.700000
        a1                             0.520000
        a2                             5.000000
        s9                             5.000000
      * Repulsion:
        kExp                           1.500000    1.000000
        rExp                           1.000000
      * Coulomb:
        alpha                          2.000000
        third order                    shell-resolved
        anisotropic                    true
        a3                             3.000000
        a5                             4.000000
        cn-shift                       1.200000
        cn-exp                         4.000000
        max-rad                        5.000000

      * Solvation model:               GBSA
        Solvent                        toluene
        Parameter file                 internal GFN2-xTB/GBSA
        Dielectric constant                7.0000E+00
        Reference state                gsolv [1 M gas/solution]
        Free energy shift                  4.5239E-03 Eh       2.8388E+00 kcal/mol
        Temperature                        2.9815E+02 K
        Density                            8.6700E-01 kg/L
        Solvent mass                       9.2140E+01 g/mol
        Interaction kernel             Still
        Born radius scaling (c1)           1.5686E+00
        Born radii integrator          GBOBC
        Born offset                        0.0000E+00 a0       0.0000E+00 AA
        H-bond correction              false
        Ion screening                  false
        Surface tension                    1.0000E-05 Eh       1.5569E+01 dyn/cm
        Grid points                               230 per atom

          ...................................................
          :                      SETUP                      :
          :.................................................:
          :  # basis functions                 224          :
          :  # atomic orbitals                 224          :
          :  # shells                          128          :
          :  # electrons                       228          :
          :  max. iterations                   250          :
          :  Hamiltonian                  GFN2-xTB          :
          :  restarted?                      false          :
          :  GBSA solvation                   true          :
          :  PC potential                    false          :
          :  electronic temp.          300.0000000     K    :
          :  accuracy                    1.0000000          :
          :  -> integral cutoff          0.2500000E+02      :
          :  -> integral neglect         0.1000000E-07      :
          :  -> SCF convergence          0.1000000E-05 Eh   :
          :  -> wf. convergence          0.1000000E-03 e    :
          :  Broyden damping             0.4000000          :
          :  net charge                          0          :
          :  unpaired electrons                  2          :
          ...................................................

 iter      E             dE          RMSdq      gap      omega  full diag
   1   -124.3514299 -0.124351E+03  0.411E+00    0.65       0.0  T
   2   -124.4332751 -0.818453E-01  0.255E+00    0.21       1.0  T
   3   -124.3358390  0.974361E-01  0.154E+00    0.77       1.0  T
   4   -124.4772661 -0.141427E+00  0.495E-01    0.71       1.0  T
   5   -124.4805360 -0.326996E-02  0.489E-01    0.84       1.0  T
   6   -124.5019112 -0.213752E-01  0.154E-01    0.70       1.0  T
   7   -124.5038159 -0.190473E-02  0.584E-02    0.73       1.0  T
   8   -124.5040668 -0.250817E-03  0.245E-02    0.73       1.0  T
   9   -124.5040221  0.446932E-04  0.294E-02    0.73       1.0  T
  10   -124.5041056 -0.834924E-04  0.620E-03    0.73       1.8  T
  11   -124.5041072 -0.163987E-05  0.457E-03    0.73       2.4  T
  12   -124.5041091 -0.188976E-05  0.122E-03    0.73       9.2  T
  13   -124.5041092 -0.970229E-07  0.454E-04    0.73      24.6  T
  14   -124.5041092 -0.537280E-08  0.189E-04    0.73      59.1  T

   *** convergence criteria satisfied after 14 iterations ***

         #    Occupation            Energy/Eh            Energy/eV
      -------------------------------------------------------------
         1        2.0000           -0.6875940             -18.7104
       ...           ...                  ...                  ...
       109        2.0000           -0.4024584             -10.9514
       110        2.0000           -0.3931513             -10.6982
       111        2.0000           -0.3884827             -10.5712
       112        2.0000           -0.3761413             -10.2353
       113        1.6602           -0.3636851              -9.8964
       114        1.3398           -0.3624235              -9.8620
       115        1.0000           -0.2806745              -7.6375 (HOMO)
       116        0.0000           -0.2538531              -6.9077 (LUMO)
       117                         -0.2459649              -6.6930
       118                         -0.2406703              -6.5490
       119                         -0.2397188              -6.5231
       120                         -0.2393387              -6.5127
       ...                                ...                  ...
       224                          0.7022663              19.1096
      -------------------------------------------------------------
                  HL-Gap            0.0268214 Eh            0.7298 eV
             Fermi-level           -0.3151591 Eh           -8.5759 eV
 
 transition dipole moment (au) for excitation:         114         115
     X       Y       Z   
  -0.0045  -0.0782   0.1752  total (au/Debye):    0.192   0.488
 dE (eV)             :    2.225
 oscillator strength :  0.28387E-02

 SCC (total)                   0 d,  0 h,  0 min,  0.277 sec
 SCC setup                      ...        0 min,  0.008 sec (  2.965%)
 Dispersion                     ...        0 min,  0.004 sec (  1.353%)
 classical contributions        ...        0 min,  0.000 sec (  0.097%)
 integral evaluation            ...        0 min,  0.008 sec (  2.891%)
 iterations                     ...        0 min,  0.215 sec ( 77.542%)
 molecular gradient             ...        0 min,  0.014 sec (  5.069%)
 printout                       ...        0 min,  0.028 sec ( 10.051%)

         :::::::::::::::::::::::::::::::::::::::::::::::::::::
         ::                     SUMMARY                     ::
         :::::::::::::::::::::::::::::::::::::::::::::::::::::
         :: total energy            -122.222576305014 Eh    ::
         :: total w/o Gsasa/hb      -122.177227057171 Eh    ::
         :: gradient norm              0.080942857160 Eh/a0 ::
         :: HOMO-LUMO gap              0.729848630880 eV    ::
         ::.................................................::
         :: SCC energy              -124.501371929746 Eh    ::
         :: -> isotropic ES            0.037105194157 Eh    ::
         :: -> anisotropic ES          0.010053507008 Eh    ::
         :: -> anisotropic XC          0.074542829759 Eh    ::
         :: -> dispersion             -0.122224359440 Eh    ::
         :: -> Gsolv                  -0.052997109669 Eh    ::
         ::    -> Gelec               -0.007647861826 Eh    ::
         ::    -> Gsasa               -0.049873127715 Eh    ::
         ::    -> Ghb                  0.000000000000 Eh    ::
         ::    -> Gshift               0.004523879872 Eh    ::
         :: repulsion energy           2.278795624731 Eh    ::
         :: add. restraining           0.000000000000 Eh    ::
         :: total charge              -0.000000000185 e     ::
         :::::::::::::::::::::::::::::::::::::::::::::::::::::

      ----------------------------------------------------------- 
     |                   =====================                   |
     |                        A N C O P T                        |
     |                   =====================                   |
     |               Approximate Normal Coordinate               |
     |                Rational Function Optimizer                |
      ----------------------------------------------------------- 

Optimization log is written to '/dev/null'
      ----------------------------------------------------------- 
     |                   =====================                   |
     |                        A N C O P T                        |
     |                   =====================                   |
     |               Approximate Normal Coordinate               |
     |                Rational Function Optimizer                |
      ----------------------------------------------------------- 

          ...................................................
          :                      SETUP                      :
          :.................................................:
          :   optimization level         verytight          :
          :   max. optcycles                  1600          :
          :   ANC micro-cycles                  20          :
          :   degrees of freedom               234          :
          :.................................................:
          :   RF solver                   davidson          :
          :   write xtbopt.log                true          :
          :   linear?                        false          :
          :   energy convergence         0.1000000E-06 Eh   :
          :   grad. convergence          0.2000000E-03 Eh/α :
          :   maxmium RF displ.          1.0000000          :
          :   Hlow (freq-cutoff)         0.1000000E-01      :
          :   Hmax (freq-cutoff)         5.0000000          :
          :   S6 in model hess.         20.0000000          :
          ...................................................

generating ANC from exact Hessian ...
Using Lindh-Hessian (1995)
 Shifting diagonal of input Hessian by   9.873543261217796E-003
 Lowest  eigenvalues of input Hessian
    0.000000    0.000000    0.000000    0.000000    0.000000    0.000000
    0.010000    0.010041    0.010170    0.010325    0.010358    0.010613
    0.010767    0.011051    0.011156    0.011184    0.011244    0.011409
 Highest eigenvalues
    2.069888    2.111280    2.132840    2.138653    2.191358    2.301113
 

........................................................................
.............................. CYCLE    1 ..............................
........................................................................

 iter      E             dE          RMSdq      gap      omega  full diag
   1   -124.5041092 -0.124504E+03  0.126E-04    0.73       0.0  T
   2   -124.5041092  0.997406E-08  0.321E-04    0.73      34.8  T
   3   -124.5041092 -0.104205E-07  0.814E-05    0.73     137.4  T
     SCC iter.                  ...        0 min,  0.031 sec
     gradient                   ...        0 min,  0.011 sec
 * total energy  :  -122.2225763 Eh     change       -0.5575629E-09 Eh
   gradient norm :     0.0809469 Eh/α   predicted     0.0000000E+00 (-100.00%)
   displ. norm   :     0.1600842 α      lambda       -0.4738890E-02
   maximum displ.:     0.0806685 α      in ANC's #18, #28, #20, ...

........................................................................
.............................. CYCLE    2 ..............................
........................................................................

 iter      E             dE          RMSdq      gap      omega  full diag
   1   -124.5026174 -0.124503E+03  0.780E-02    0.85       0.0  T
   2   -124.5026241 -0.663717E-05  0.451E-02    0.84       1.0  T
   3   -124.5021222  0.501835E-03  0.755E-02    0.83       1.0  T
   4   -124.5025191 -0.396846E-03  0.365E-02    0.85       1.0  T
   5   -124.5026663 -0.147221E-03  0.495E-03    0.84       2.3  T
   6   -124.5026693 -0.303303E-05  0.264E-03    0.84       4.2  T
   7   -124.5026698 -0.487274E-06  0.843E-04    0.84      13.3  T
   8   -124.5026698 -0.149517E-07  0.421E-04    0.84      26.5  T
     SCC iter.                  ...        0 min,  0.073 sec
     gradient                   ...        0 min,  0.011 sec
 * total energy  :  -122.2260359 Eh     change       -0.3459616E-02 Eh
   gradient norm :     0.0407936 Eh/α   predicted    -0.2430505E-02 ( -29.75%)
   displ. norm   :     0.2190598 α      lambda       -0.2449333E-02
   maximum displ.:     0.1478590 α      in ANC's #18, #13, #28, ...

........................................................................
.............................. CYCLE    3 ..............................
........................................................................

 iter      E             dE          RMSdq      gap      omega  full diag
   1   -124.5024991 -0.124502E+03  0.103E-01    0.94       0.0  T
   2   -124.4981295  0.436955E-02  0.205E-01    0.98       1.0  T
   3   -124.5023806 -0.425108E-02  0.834E-02    0.93       1.0  T
   4   -124.5028462 -0.465624E-03  0.224E-02    0.95       1.0  T
   5   -124.5028938 -0.476280E-04  0.463E-03    0.94       2.4  T
   6   -124.5028969 -0.308395E-05  0.150E-03    0.95       7.5  T
   7   -124.5028970 -0.854893E-07  0.688E-04    0.95      16.2  T
   8   -124.5028970  0.720503E-08  0.397E-04    0.95      28.2  T
     SCC iter.                  ...        0 min,  0.072 sec
     gradient                   ...        0 min,  0.011 sec
 * total energy  :  -122.2274854 Eh     change       -0.1449484E-02 Eh
   gradient norm :     0.0100123 Eh/α   predicted    -0.1283558E-02 ( -11.45%)
   displ. norm   :     0.1644871 α      lambda       -0.3844407E-03
   maximum displ.:     0.1233412 α      in ANC's #18, #13, #16, ...

........................................................................
.............................. CYCLE    4 ..............................
........................................................................

 iter      E             dE          RMSdq      gap      omega  full diag
   1   -124.5026431 -0.124503E+03  0.555E-02    0.96       0.0  T
   2   -124.5010847  0.155847E-02  0.124E-01    0.99       1.0  T
   3   -124.5027033 -0.161860E-02  0.347E-02    0.96       1.0  T
   4   -124.5027799 -0.766656E-04  0.644E-03    0.97       1.7  T
   5   -124.5027856 -0.568176E-05  0.158E-03    0.97       7.1  T
   6   -124.5027859 -0.307919E-06  0.619E-04    0.97      18.1  T
   7   -124.5027859 -0.860560E-08  0.398E-04    0.97      28.1  T
     SCC iter.                  ...        0 min,  0.063 sec
     gradient                   ...        0 min,  0.011 sec
 * total energy  :  -122.2277875 Eh     change       -0.3020905E-03 Eh
   gradient norm :     0.0080738 Eh/α   predicted    -0.1974251E-03 ( -34.65%)
   displ. norm   :     0.3117305 α      lambda       -0.4893173E-03
   maximum displ.:     0.2227341 α      in ANC's #18, #13, #16, ...

........................................................................
.............................. CYCLE    5 ..............................
........................................................................

 iter      E             dE          RMSdq      gap      omega  full diag
   1   -124.5016467 -0.124502E+03  0.885E-02    0.97       0.0  T
   2   -124.4992714  0.237528E-02  0.155E-01    1.00       1.0  T
   3   -124.5016593 -0.238790E-02  0.600E-02    0.97       1.0  T
   4   -124.5018932 -0.233870E-03  0.103E-02    0.98       1.1  T
   5   -124.5019082 -0.149917E-04  0.204E-03    0.98       5.5  T
   6   -124.5019086 -0.416428E-06  0.110E-03    0.98      10.1  T
   7   -124.5019087 -0.774813E-07  0.593E-04    0.98      18.8  T
   8   -124.5019087 -0.157676E-07  0.374E-04    0.98      29.9  T
     SCC iter.                  ...        0 min,  0.073 sec
     gradient                   ...        0 min,  0.011 sec
 * total energy  :  -122.2281433 Eh     change       -0.3558075E-03 Eh
   gradient norm :     0.0093954 Eh/α   predicted    -0.2684383E-03 ( -24.56%)
   displ. norm   :     0.2917139 α      lambda       -0.3017880E-03
   maximum displ.:     0.1841434 α      in ANC's #18, #13, #16, ...

........................................................................
.............................. CYCLE    6 ..............................
........................................................................

 iter      E             dE          RMSdq      gap      omega  full diag
   1   -124.5012480 -0.124501E+03  0.765E-02    0.97       0.0  T
   2   -124.5003573  0.890679E-03  0.996E-02    0.99       1.0  T
   3   -124.5011325 -0.775197E-03  0.568E-02    0.97       1.0  T
   4   -124.5013661 -0.233573E-03  0.744E-03    0.98       1.5  T
   5   -124.5013723 -0.618940E-05  0.160E-03    0.98       7.0  T
   6   -124.5013724 -0.132040E-06  0.955E-04    0.98      11.7  T
   7   -124.5013725 -0.726338E-07  0.482E-04    0.98      23.2  T
     SCC iter.                  ...        0 min,  0.063 sec
     gradient                   ...        0 min,  0.011 sec
 * total energy  :  -122.2283821 Eh     change       -0.2388085E-03 Eh
   gradient norm :     0.0090377 Eh/α   predicted    -0.1637482E-03 ( -31.43%)
   displ. norm   :     0.3555479 α      lambda       -0.3104078E-03
   maximum displ.:     0.2018545 α      in ANC's #18, #13, #16, ...

........................................................................
.............................. CYCLE    7 ..............................
........................................................................

 iter      E             dE          RMSdq      gap      omega  full diag
   1   -124.5013954 -0.124501E+03  0.879E-02    0.97       0.0  T
   2   -124.5009289  0.466491E-03  0.816E-02    0.99       1.0  T
   3   -124.5010210 -0.921600E-04  0.733E-02    0.96       1.0  T
   4   -124.5014776 -0.456525E-03  0.726E-03    0.97       1.5  T
   5   -124.5014810 -0.344657E-05  0.252E-03    0.97       4.4  T
   6   -124.5014815 -0.533551E-06  0.880E-04    0.97      12.7  T
   7   -124.5014816 -0.520475E-07  0.451E-04    0.97      24.8  T
     SCC iter.                  ...        0 min,  0.064 sec
     gradient                   ...        0 min,  0.011 sec
 * total energy  :  -122.2286211 Eh     change       -0.2389640E-03 Eh
   gradient norm :     0.0075860 Eh/α   predicted    -0.1748241E-03 ( -26.84%)
   displ. norm   :     0.3331713 α      lambda       -0.2459638E-03
   maximum displ.:     0.1885591 α      in ANC's #13, #18, #7, ...

........................................................................
.............................. CYCLE    8 ..............................
........................................................................

 iter      E             dE          RMSdq      gap      omega  full diag
   1   -124.5025765 -0.124503E+03  0.810E-02    0.97       0.0  T
   2   -124.5024724  0.104081E-03  0.555E-02    0.98       1.0  T
   3   -124.5019675  0.504896E-03  0.776E-02    0.96       1.0  T
   4   -124.5025998 -0.632297E-03  0.579E-03    0.97       1.9  T
   5   -124.5026025 -0.273071E-05  0.214E-03    0.97       5.2  T
   6   -124.5026030 -0.419023E-06  0.851E-04    0.97      13.1  T
   7   -124.5026030 -0.563658E-07  0.436E-04    0.97      25.6  T
     SCC iter.                  ...        0 min,  0.064 sec
     gradient                   ...        0 min,  0.012 sec
 * total energy  :  -122.2288060 Eh     change       -0.1848911E-03 Eh
   gradient norm :     0.0059105 Eh/α   predicted    -0.1366337E-03 ( -26.10%)
   displ. norm   :     0.2688793 α      lambda       -0.1652741E-03
   maximum displ.:     0.1564851 α      in ANC's #13, #7, #10, ...

........................................................................
.............................. CYCLE    9 ..............................
........................................................................

 iter      E             dE          RMSdq      gap      omega  full diag
   1   -124.5042547 -0.124504E+03  0.658E-02    0.98       0.0  T
   2   -124.5042547 -0.171000E-07  0.386E-02    0.98       1.0  T
   3   -124.5041934  0.613218E-04  0.217E-02    0.97       1.0  T
   4   -124.5042542 -0.608267E-04  0.506E-03    0.98       2.2  T
   5   -124.5042570 -0.275761E-05  0.112E-03    0.98      10.0  T
   6   -124.5042571 -0.118420E-06  0.605E-04    0.98      18.5  T
   7   -124.5042571 -0.729150E-08  0.398E-04    0.98      28.1  T
     SCC iter.                  ...        0 min,  0.064 sec
     gradient                   ...        0 min,  0.011 sec
 * total energy  :  -122.2289283 Eh     change       -0.1223782E-03 Eh
   gradient norm :     0.0045799 Eh/α   predicted    -0.8861182E-04 ( -27.59%)
   displ. norm   :     0.2227171 α      lambda       -0.1091148E-03
   maximum displ.:     0.1297949 α      in ANC's #13, #7, #10, ...

........................................................................
.............................. CYCLE   10 ..............................
........................................................................

 iter      E             dE          RMSdq      gap      omega  full diag
   1   -124.5052089 -0.124505E+03  0.547E-02    0.98       0.0  T
   2   -124.5051895  0.193986E-04  0.354E-02    0.98       1.0  T
   3   -124.5048482  0.341276E-03  0.560E-02    0.99       1.0  T
   4   -124.5052123 -0.364112E-03  0.434E-03    0.98       2.6  T
   5   -124.5052146 -0.232806E-05  0.113E-03    0.98       9.9  T
   6   -124.5052147 -0.119407E-06  0.467E-04    0.98      23.9  T
   7   -124.5052147 -0.126770E-07  0.211E-04    0.98      53.0  T
     SCC iter.                  ...        0 min,  0.062 sec
     gradient                   ...        0 min,  0.011 sec
 * total energy  :  -122.2290123 Eh     change       -0.8392497E-04 Eh
   gradient norm :     0.0039711 Eh/α   predicted    -0.5726552E-04 ( -31.77%)
   displ. norm   :     0.2182512 α      lambda       -0.9412593E-04
   maximum displ.:     0.1232368 α      in ANC's #13, #7, #10, ...

........................................................................
.............................. CYCLE   11 ..............................
........................................................................

 iter      E             dE          RMSdq      gap      omega  full diag
   1   -124.5054391 -0.124505E+03  0.532E-02    0.99       0.0  T
   2   -124.5053860  0.531390E-04  0.388E-02    0.98       1.0  T
   3   -124.5051612  0.224820E-03  0.519E-02    1.00       1.0  T
   4   -124.5054505 -0.289313E-03  0.422E-03    0.98       2.6  T
   5   -124.5054524 -0.193158E-05  0.142E-03    0.99       7.9  T
   6   -124.5054526 -0.150472E-06  0.686E-04    0.99      16.3  T
   7   -124.5054526 -0.282797E-07  0.329E-04    0.99      34.0  T
     SCC iter.                  ...        0 min,  0.062 sec
     gradient                   ...        0 min,  0.011 sec
 * total energy  :  -122.2290856 Eh     change       -0.7334465E-04 Eh
   gradient norm :     0.0036449 Eh/α   predicted    -0.4930747E-04 ( -32.77%)
   displ. norm   :     0.2314178 α      lambda       -0.8366154E-04
   maximum displ.:     0.1260589 α      in ANC's #13, #7, #10, ...

........................................................................
.............................. CYCLE   12 ..............................
........................................................................

 iter      E             dE          RMSdq      gap      omega  full diag
   1   -124.5048823 -0.124505E+03  0.551E-02    0.99       0.0  T
   2   -124.5048316  0.507337E-04  0.392E-02    0.98       1.0  T
   3   -124.5045405  0.291056E-03  0.566E-02    1.00       1.0  T
   4   -124.5048932 -0.352619E-03  0.378E-03    0.99       3.0  T
   5   -124.5048945 -0.130886E-05  0.144E-03    0.99       7.8  T
   6   -124.5048946 -0.151589E-06  0.609E-04    0.99      18.4  T
   7   -124.5048946 -0.153713E-07  0.341E-04    0.99      32.7  T
     SCC iter.                  ...        0 min,  0.061 sec
     gradient                   ...        0 min,  0.011 sec
 * total energy  :  -122.2291492 Eh     change       -0.6353776E-04 Eh
   gradient norm :     0.0033533 Eh/α   predicted    -0.4407396E-04 ( -30.63%)
   displ. norm   :     0.2177605 α      lambda       -0.6387068E-04
   maximum displ.:     0.1120349 α      in ANC's #13, #7, #1, ...

........................................................................
.............................. CYCLE   13 ..............................
........................................................................

 iter      E             dE          RMSdq      gap      omega  full diag
   1   -124.5044494 -0.124504E+03  0.502E-02    0.99       0.0  T
   2   -124.5044355  0.139670E-04  0.317E-02    0.99       1.0  T
   3   -124.5041130  0.322468E-03  0.535E-02    1.00       1.0  T
   4   -124.5044524 -0.339438E-03  0.260E-03    0.99       4.3  T
   5   -124.5044530 -0.605978E-06  0.905E-04    0.99      12.4  T
   6   -124.5044531 -0.458555E-07  0.480E-04    0.99      23.3  T
     SCC iter.                  ...        0 min,  0.054 sec
     gradient                   ...        0 min,  0.011 sec
 * total energy  :  -122.2291968 Eh     change       -0.4767230E-04 Eh
   gradient norm :     0.0031211 Eh/α   predicted    -0.3345150E-04 ( -29.83%)
   displ. norm   :     0.1887075 α      lambda       -0.4855400E-04
   maximum displ.:     0.0929837 α      in ANC's #7, #13, #1, ...

........................................................................
.............................. CYCLE   14 ..............................
........................................................................

 iter      E             dE          RMSdq      gap      omega  full diag
   1   -124.5044371 -0.124504E+03  0.420E-02    0.99       0.0  T
   2   -124.5044369  0.213520E-06  0.247E-02    0.99       1.0  T
   3   -124.5044098  0.270508E-04  0.150E-02    0.99       1.0  T
   4   -124.5044369 -0.270606E-04  0.255E-03    0.99       4.4  T
   5   -124.5044377 -0.783120E-06  0.511E-04    0.99      21.9  T
   6   -124.5044377 -0.199988E-07  0.281E-04    0.99      39.8  T
     SCC iter.                  ...        0 min,  0.053 sec
     gradient                   ...        0 min,  0.011 sec
 * total energy  :  -122.2292337 Eh     change       -0.3685916E-04 Eh
   gradient norm :     0.0027651 Eh/α   predicted    -0.2514260E-04 ( -31.79%)
   displ. norm   :     0.1689726 α      lambda       -0.4239021E-04
   maximum displ.:     0.0771526 α      in ANC's #3, #1, #7, ...

........................................................................
.............................. CYCLE   15 ..............................
........................................................................

 iter      E             dE          RMSdq      gap      omega  full diag
   1   -124.5047708 -0.124505E+03  0.365E-02    0.99       0.0  T
   2   -124.5047553  0.155101E-04  0.242E-02    0.99       1.0  T
   3   -124.5046254  0.129904E-03  0.365E-02    0.98       1.0  T
   4   -124.5047743 -0.148892E-03  0.196E-03    0.99       5.7  T
   5   -124.5047748 -0.480243E-06  0.571E-04    0.99      19.6  T
   6   -124.5047748 -0.294925E-07  0.266E-04    0.99      42.0  T
     SCC iter.                  ...        0 min,  0.053 sec
     gradient                   ...        0 min,  0.011 sec
 * total energy  :  -122.2292656 Eh     change       -0.3190984E-04 Eh
   gradient norm :     0.0023148 Eh/α   predicted    -0.2180209E-04 ( -31.68%)
   displ. norm   :     0.1341881 α      lambda       -0.3253136E-04
   maximum displ.:     0.0723232 α      in ANC's #3, #1, #7, ...

........................................................................
.............................. CYCLE   16 ..............................
........................................................................

 iter      E             dE          RMSdq      gap      omega  full diag
   1   -124.5051171 -0.124505E+03  0.281E-02    0.99       0.0  T
   2   -124.5050914  0.256390E-04  0.221E-02    0.99       1.0  T
   3   -124.5050648  0.265769E-04  0.246E-02    0.98       1.0  T
   4   -124.5051230 -0.581263E-04  0.174E-03    0.99       6.4  T
   5   -124.5051234 -0.407800E-06  0.451E-04    0.99      24.8  T
   6   -124.5051234 -0.217966E-07  0.205E-04    0.99      54.4  T
     SCC iter.                  ...        0 min,  0.053 sec
     gradient                   ...        0 min,  0.011 sec
 * total energy  :  -122.2292900 Eh     change       -0.2441214E-04 Eh
   gradient norm :     0.0018520 Eh/α   predicted    -0.1656319E-04 ( -32.15%)
   displ. norm   :     0.1442479 α      lambda       -0.2188994E-04
   maximum displ.:     0.0894603 α      in ANC's #3, #1, #19, ...

........................................................................
.............................. CYCLE   17 ..............................
........................................................................

 iter      E             dE          RMSdq      gap      omega  full diag
   1   -124.5054640 -0.124505E+03  0.286E-02    0.99       0.0  T
   2   -124.5054369  0.270698E-04  0.226E-02    0.99       1.0  T
   3   -124.5054148  0.220831E-04  0.243E-02    0.99       1.0  T
   4   -124.5054707 -0.558262E-04  0.168E-03    0.99       6.6  T
   5   -124.5054710 -0.383812E-06  0.461E-04    0.99      24.2  T
   6   -124.5054711 -0.210179E-07  0.229E-04    0.99      48.8  T
     SCC iter.                  ...        0 min,  0.054 sec
     gradient                   ...        0 min,  0.011 sec
 * total energy  :  -122.2293116 Eh     change       -0.2158918E-04 Eh
   gradient norm :     0.0018072 Eh/α   predicted    -0.1105046E-04 ( -48.81%)
   displ. norm   :     0.0685636 α      lambda       -0.1167691E-04
   maximum displ.:     0.0484621 α      in ANC's #3, #1, #19, ...

........................................................................
.............................. CYCLE   18 ..............................
........................................................................

 iter      E             dE          RMSdq      gap      omega  full diag
   1   -124.5055080 -0.124506E+03  0.117E-02    0.99       0.0  T
   2   -124.5055080  0.588012E-07  0.695E-03    0.99       1.6  T
   3   -124.5055041  0.387170E-05  0.572E-03    0.99       2.0  T
   4   -124.5055081 -0.396747E-05  0.352E-04    0.99      31.7  T
   5   -124.5055081 -0.122661E-07  0.127E-04    0.99      87.7  T
   6   -124.5055081 -0.174282E-09  0.677E-05    0.99     165.1  T
     SCC iter.                  ...        0 min,  0.053 sec
     gradient                   ...        0 min,  0.011 sec
 * total energy  :  -122.2293268 Eh     change       -0.1523147E-04 Eh
   gradient norm :     0.0015495 Eh/α   predicted    -0.5852825E-05 ( -61.57%)
   displ. norm   :     0.1079710 α      lambda       -0.1970776E-04
   maximum displ.:     0.0705761 α      in ANC's #3, #1, #10, ...

........................................................................
.............................. CYCLE   19 ..............................
........................................................................

 iter      E             dE          RMSdq      gap      omega  full diag
   1   -124.5057150 -0.124506E+03  0.208E-02    1.00       0.0  T
   2   -124.5057070  0.802507E-05  0.148E-02    0.99       1.0  T
   3   -124.5056751  0.318721E-04  0.198E-02    1.00       1.0  T
   4   -124.5057171 -0.419324E-04  0.115E-03    1.00       9.7  T
   5   -124.5057172 -0.187990E-06  0.311E-04    1.00      36.0  T
   6   -124.5057173 -0.102476E-07  0.146E-04    1.00      76.7  T
     SCC iter.                  ...        0 min,  0.053 sec
     gradient                   ...        0 min,  0.011 sec
 * total energy  :  -122.2293509 Eh     change       -0.2406436E-04 Eh
   gradient norm :     0.0013910 Eh/α   predicted    -0.9906688E-05 ( -58.83%)
   displ. norm   :     0.1471671 α      lambda       -0.2104283E-04
   maximum displ.:     0.1009646 α      in ANC's #3, #1, #18, ...

........................................................................
.............................. CYCLE   20 ..............................
........................................................................

 iter      E             dE          RMSdq      gap      omega  full diag
   1   -124.5048621 -0.124505E+03  0.241E-02    1.00       0.0  T
   2   -124.5048501  0.120491E-04  0.175E-02    1.00       1.0  T
   3   -124.5048092  0.408326E-04  0.230E-02    1.00       1.0  T
   4   -124.5048651 -0.558603E-04  0.141E-03    1.00       7.9  T
   5   -124.5048654 -0.281286E-06  0.365E-04    1.00      30.6  T
   6   -124.5048654 -0.122231E-07  0.175E-04    1.00      63.9  T
     SCC iter.                  ...        0 min,  0.053 sec
     gradient                   ...        0 min,  0.011 sec
 * total energy  :  -122.2293769 Eh     change       -0.2600049E-04 Eh
   gradient norm :     0.0017041 Eh/α   predicted    -0.1062321E-04 ( -59.14%)
   displ. norm   :     0.1688952 α      lambda       -0.2155730E-04
   maximum displ.:     0.1182218 α      in ANC's #3, #1, #10, ...
 * RMSD in coord.:     0.3394431 α      energy gain  -0.6800587E-02 Eh

generating ANC from exact Hessian ...
Using Lindh-Hessian (1995)
 Shifting diagonal of input Hessian by   9.875711146645358E-003
 Lowest  eigenvalues of input Hessian
    0.000000    0.000000    0.000000    0.000000    0.000000    0.000000
    0.010000    0.010042    0.010154    0.010316    0.010399    0.010639
    0.010775    0.011060    0.011203    0.011236    0.011281    0.011382
 Highest eigenvalues
    2.069918    2.115745    2.138185    2.154591    2.198849    2.302382
 

........................................................................
.............................. CYCLE   21 ..............................
........................................................................

 iter      E             dE          RMSdq      gap      omega  full diag
   1   -124.5052826 -0.124505E+03  0.263E-02    1.00       0.0  T
   2   -124.5052762  0.643668E-05  0.171E-02    1.00       1.0  T
   3   -124.5051975  0.787445E-04  0.273E-02    1.00       1.0  T
   4   -124.5052842 -0.867399E-04  0.149E-03    1.00       7.5  T
   5   -124.5052845 -0.306272E-06  0.394E-04    1.00      28.4  T
   6   -124.5052845 -0.165190E-07  0.195E-04    1.00      57.3  T
     SCC iter.                  ...        0 min,  0.060 sec
     gradient                   ...        0 min,  0.011 sec
 * total energy  :  -122.2294050 Eh     change       -0.2811353E-04 Eh
   gradient norm :     0.0017781 Eh/α   predicted     0.0000000E+00 (-100.00%)
   displ. norm   :     0.0338008 α      lambda       -0.6489872E-05
   maximum displ.:     0.0234221 α      in ANC's #3, #1, #19, ...

........................................................................
.............................. CYCLE   22 ..............................
........................................................................

 iter      E             dE          RMSdq      gap      omega  full diag
   1   -124.5052885 -0.124505E+03  0.562E-03    1.00       0.0  T
   2   -124.5052854  0.303212E-05  0.624E-03    1.00       1.8  T
   3   -124.5052884 -0.297957E-05  0.352E-03    1.00       3.2  T
   4   -124.5052892 -0.789672E-06  0.656E-04    1.00      17.0  T
   5   -124.5052893 -0.507906E-07  0.156E-04    1.00      71.8  T
     SCC iter.                  ...        0 min,  0.046 sec
     gradient                   ...        0 min,  0.011 sec
 * total energy  :  -122.2294166 Eh     change       -0.1160105E-04 Eh
   gradient norm :     0.0007401 Eh/α   predicted    -0.4758016E-05 ( -58.99%)
   displ. norm   :     0.0746541 α      lambda       -0.1279856E-04
   maximum displ.:     0.0520522 α      in ANC's #3, #1, #19, ...

........................................................................
.............................. CYCLE   23 ..............................
........................................................................

 iter      E             dE          RMSdq      gap      omega  full diag
   1   -124.5052354 -0.124505E+03  0.100E-02    0.99       0.0  T
   2   -124.5052266  0.878888E-05  0.107E-02    1.00       1.0  T
   3   -124.5052345 -0.792461E-05  0.658E-03    0.99       1.7  T
   4   -124.5052375 -0.301043E-05  0.960E-04    0.99      11.6  T
   5   -124.5052376 -0.103637E-06  0.190E-04    0.99      58.7  T
   6   -124.5052376 -0.169079E-08  0.130E-04    0.99      86.1  T
     SCC iter.                  ...        0 min,  0.053 sec
     gradient                   ...        0 min,  0.011 sec
 * total energy  :  -122.2294301 Eh     change       -0.1349560E-04 Eh
   gradient norm :     0.0008478 Eh/α   predicted    -0.6415287E-05 ( -52.46%)
   displ. norm   :     0.0645024 α      lambda       -0.6793056E-05
   maximum displ.:     0.0470040 α      in ANC's #3, #1, #11, ...

........................................................................
.............................. CYCLE   24 ..............................
........................................................................

 iter      E             dE          RMSdq      gap      omega  full diag
   1   -124.5051923 -0.124505E+03  0.747E-03    0.99       0.0  T
   2   -124.5051905  0.181982E-05  0.598E-03    0.99       1.9  T
   3   -124.5051889  0.157637E-05  0.633E-03    0.99       1.8  T
   4   -124.5051927 -0.385044E-05  0.467E-04    0.99      23.9  T
   5   -124.5051928 -0.233907E-07  0.108E-04    0.99     103.9  T
   6   -124.5051928 -0.466684E-10  0.827E-05    0.99     135.2  T
     SCC iter.                  ...        0 min,  0.053 sec
     gradient                   ...        0 min,  0.011 sec
 * total energy  :  -122.2294388 Eh     change       -0.8697651E-05 Eh
   gradient norm :     0.0011447 Eh/α   predicted    -0.3403095E-05 ( -60.87%)
   displ. norm   :     0.0705261 α      lambda       -0.7805988E-05
   maximum displ.:     0.0502334 α      in ANC's #3, #1, #11, ...

........................................................................
.............................. CYCLE   25 ..............................
........................................................................

 iter      E             dE          RMSdq      gap      omega  full diag
   1   -124.5052100 -0.124505E+03  0.847E-03    0.99       0.0  T
   2   -124.5052097  0.256794E-06  0.521E-03    0.99       2.1  T
   3   -124.5052029  0.679312E-05  0.768E-03    0.99       1.5  T
   4   -124.5052101 -0.712699E-05  0.304E-04    0.99      36.8  T
   5   -124.5052101 -0.882937E-08  0.848E-05    0.99     131.9  T
   6   -124.5052101 -0.464269E-10  0.480E-05    0.99     232.8  T
     SCC iter.                  ...        0 min,  0.055 sec
     gradient                   ...        0 min,  0.011 sec
 * total energy  :  -122.2294499 Eh     change       -0.1109902E-04 Eh
   gradient norm :     0.0010328 Eh/α   predicted    -0.3915677E-05 ( -64.72%)
   displ. norm   :     0.1181837 α      lambda       -0.1400653E-04
   maximum displ.:     0.0821152 α      in ANC's #3, #1, #11, ...

........................................................................
.............................. CYCLE   26 ..............................
........................................................................

 iter      E             dE          RMSdq      gap      omega  full diag
   1   -124.5052963 -0.124505E+03  0.157E-02    1.00       0.0  T
   2   -124.5052962  0.778363E-07  0.922E-03    0.99       1.2  T
   3   -124.5052905  0.578328E-05  0.688E-03    1.00       1.6  T
   4   -124.5052964 -0.592421E-05  0.432E-04    1.00      25.9  T
   5   -124.5052964 -0.140361E-07  0.154E-04    1.00      72.7  T
   6   -124.5052964  0.305093E-09  0.111E-04    1.00     100.6  T
     SCC iter.                  ...        0 min,  0.054 sec
     gradient                   ...        0 min,  0.011 sec
 * total energy  :  -122.2294694 Eh     change       -0.1953206E-04 Eh
   gradient norm :     0.0007071 Eh/α   predicted    -0.7048671E-05 ( -63.91%)
   displ. norm   :     0.2026237 α      lambda       -0.2191164E-04
   maximum displ.:     0.1394285 α      in ANC's #3, #1, #11, ...

........................................................................
.............................. CYCLE   27 ..............................
........................................................................

 iter      E             dE          RMSdq      gap      omega  full diag
   1   -124.5053508 -0.124505E+03  0.279E-02    1.00       0.0  T
   2   -124.5053505  0.369425E-06  0.164E-02    1.00       1.0  T
   3   -124.5053262  0.242405E-04  0.140E-02    1.00       1.0  T
   4   -124.5053511 -0.248432E-04  0.866E-04    1.00      12.9  T
   5   -124.5053511 -0.553874E-07  0.258E-04    1.00      43.4  T
   6   -124.5053511 -0.798508E-10  0.162E-04    1.00      69.2  T
     SCC iter.                  ...        0 min,  0.054 sec
     gradient                   ...        0 min,  0.011 sec
 * total energy  :  -122.2294993 Eh     change       -0.2982148E-04 Eh
   gradient norm :     0.0007680 Eh/α   predicted    -0.1115943E-04 ( -62.58%)
   displ. norm   :     0.2754503 α      lambda       -0.2605151E-04
   maximum displ.:     0.1893872 α      in ANC's #3, #1, #8, ...

........................................................................
.............................. CYCLE   28 ..............................
........................................................................

 iter      E             dE          RMSdq      gap      omega  full diag
   1   -124.5053553 -0.124505E+03  0.385E-02    1.00       0.0  T
   2   -124.5053553  0.747828E-08  0.226E-02    1.00       1.0  T
   3   -124.5053417  0.136481E-04  0.104E-02    1.00       1.1  T
   4   -124.5053555 -0.138236E-04  0.161E-03    1.00       6.9  T
   5   -124.5053557 -0.235508E-06  0.347E-04    1.00      32.2  T
   6   -124.5053557  0.321521E-09  0.223E-04    1.00      50.2  T
     SCC iter.                  ...        0 min,  0.053 sec
     gradient                   ...        0 min,  0.011 sec
 * total energy  :  -122.2295346 Eh     change       -0.3538332E-04 Eh
   gradient norm :     0.0011391 Eh/α   predicted    -0.1346653E-04 ( -61.94%)
   displ. norm   :     0.3136054 α      lambda       -0.2711645E-04
   maximum displ.:     0.2162185 α      in ANC's #3, #1, #8, ...

........................................................................
.............................. CYCLE   29 ..............................
........................................................................

 iter      E             dE          RMSdq      gap      omega  full diag
   1   -124.5053476 -0.124505E+03  0.445E-02    1.01       0.0  T
   2   -124.5053478 -0.207184E-06  0.261E-02    1.01       1.0  T
   3   -124.5053403  0.756718E-05  0.834E-03    1.00       1.3  T
   4   -124.5053473 -0.697620E-05  0.268E-03    1.01       4.2  T
   5   -124.5053482 -0.906396E-06  0.401E-04    1.01      27.9  T
   6   -124.5053482 -0.233001E-09  0.273E-04    1.01      41.0  T
     SCC iter.                  ...        0 min,  0.053 sec
     gradient                   ...        0 min,  0.011 sec
 * total energy  :  -122.2295726 Eh     change       -0.3798728E-04 Eh
   gradient norm :     0.0013020 Eh/α   predicted    -0.1415137E-04 ( -62.75%)
   displ. norm   :     0.3729573 α      lambda       -0.3239025E-04
   maximum displ.:     0.2571200 α      in ANC's #3, #1, #8, ...

........................................................................
.............................. CYCLE   30 ..............................
........................................................................

 iter      E             dE          RMSdq      gap      omega  full diag
   1   -124.5052816 -0.124505E+03  0.538E-02    1.01       0.0  T
   2   -124.5052807  0.860619E-06  0.317E-02    1.01       1.0  T
   3   -124.5052195  0.612357E-04  0.228E-02    1.01       1.0  T
   4   -124.5052819 -0.624624E-04  0.248E-03    1.01       4.5  T
   5   -124.5052827 -0.742146E-06  0.471E-04    1.01      23.7  T
   6   -124.5052827 -0.181234E-08  0.291E-04    1.01      38.5  T
     SCC iter.                  ...        0 min,  0.055 sec
     gradient                   ...        0 min,  0.011 sec
 * total energy  :  -122.2296196 Eh     change       -0.4699004E-04 Eh
   gradient norm :     0.0012078 Eh/α   predicted    -0.1719706E-04 ( -63.40%)
   displ. norm   :     0.4905173 α      lambda       -0.4375811E-04
   maximum displ.:     0.3379642 α      in ANC's #3, #1, #8, ...

........................................................................
.............................. CYCLE   31 ..............................
........................................................................

 iter      E             dE          RMSdq      gap      omega  full diag
   1   -124.5049793 -0.124505E+03  0.719E-02    1.02       0.0  T
   2   -124.5049761  0.315084E-05  0.425E-02    1.02       1.0  T
   3   -124.5048188  0.157358E-03  0.365E-02    1.01       1.0  T
   4   -124.5049808 -0.162027E-03  0.287E-03    1.02       3.9  T
   5   -124.5049817 -0.939582E-06  0.620E-04    1.02      18.0  T
   6   -124.5049817 -0.409329E-08  0.394E-04    1.02      28.4  T
     SCC iter.                  ...        0 min,  0.053 sec
     gradient                   ...        0 min,  0.011 sec
 * total energy  :  -122.2296826 Eh     change       -0.6299962E-04 Eh
   gradient norm :     0.0010045 Eh/α   predicted    -0.2422112E-04 ( -61.55%)
   displ. norm   :     0.6092444 α      lambda       -0.5366927E-04
   maximum displ.:     0.4208086 α      in ANC's #3, #1, #8, ...

........................................................................
.............................. CYCLE   32 ..............................
........................................................................

 iter      E             dE          RMSdq      gap      omega  full diag
   1   -124.5045050 -0.124505E+03  0.894E-02    1.02       0.0  T
   2   -124.5045008  0.422704E-05  0.528E-02    1.02       1.0  T
   3   -124.5042872  0.213575E-03  0.424E-02    1.01       1.0  T
   4   -124.5045075 -0.220251E-03  0.336E-03    1.02       3.3  T
   5   -124.5045087 -0.125131E-05  0.788E-04    1.02      14.2  T
   6   -124.5045087 -0.854484E-08  0.500E-04    1.02      22.4  T
   7   -124.5045087 -0.128619E-07  0.252E-04    1.02      44.3  T
     SCC iter.                  ...        0 min,  0.062 sec
     gradient                   ...        0 min,  0.011 sec
 * total energy  :  -122.2297551 Eh     change       -0.7247520E-04 Eh
   gradient norm :     0.0009959 Eh/α   predicted    -0.3126230E-04 ( -56.86%)
   displ. norm   :     0.6384660 α      lambda       -0.5153189E-04
   maximum displ.:     0.4436374 α      in ANC's #3, #1, #8, ...

........................................................................
.............................. CYCLE   33 ..............................
........................................................................

 iter      E             dE          RMSdq      gap      omega  full diag
   1   -124.5043597 -0.124504E+03  0.927E-02    1.03       0.0  T
   2   -124.5043571  0.260332E-05  0.546E-02    1.03       1.0  T
   3   -124.5041958  0.161316E-03  0.367E-02    1.02       1.0  T
   4   -124.5043617 -0.165943E-03  0.343E-03    1.03       3.3  T
   5   -124.5043631 -0.133761E-05  0.801E-04    1.03      14.0  T
   6   -124.5043631 -0.674834E-08  0.543E-04    1.03      20.6  T
   7   -124.5043631 -0.167666E-07  0.295E-04    1.03      37.9  T
     SCC iter.                  ...        0 min,  0.063 sec
     gradient                   ...        0 min,  0.011 sec
 * total energy  :  -122.2298229 Eh     change       -0.6783783E-04 Eh
   gradient norm :     0.0011440 Eh/α   predicted    -0.3043460E-04 ( -55.14%)
   displ. norm   :     0.6048192 α      lambda       -0.4321431E-04
   maximum displ.:     0.4238140 α      in ANC's #3, #1, #8, ...

........................................................................
.............................. CYCLE   34 ..............................
........................................................................

 iter      E             dE          RMSdq      gap      omega  full diag
   1   -124.5048383 -0.124505E+03  0.857E-02    1.03       0.0  T
   2   -124.5048379  0.338625E-06  0.504E-02    1.03       1.0  T
   3   -124.5047692  0.687262E-04  0.241E-02    1.03       1.0  T
   4   -124.5048392 -0.700197E-04  0.337E-03    1.03       3.3  T
   5   -124.5048406 -0.133108E-05  0.746E-04    1.03      15.0  T
   6   -124.5048406 -0.500559E-08  0.464E-04    1.03      24.1  T
   7   -124.5048406 -0.105748E-07  0.231E-04    1.03      48.4  T
     SCC iter.                  ...        0 min,  0.065 sec
     gradient                   ...        0 min,  0.011 sec
 * total energy  :  -122.2298745 Eh     change       -0.5155613E-04 Eh
   gradient norm :     0.0011059 Eh/α   predicted    -0.2512064E-04 ( -51.28%)
   displ. norm   :     0.4452978 α      lambda       -0.2631278E-04
   maximum displ.:     0.3159767 α      in ANC's #3, #1, #8, ...

........................................................................
.............................. CYCLE   35 ..............................
........................................................................

 iter      E             dE          RMSdq      gap      omega  full diag
   1   -124.5059337 -0.124506E+03  0.611E-02    1.04       0.0  T
   2   -124.5059342 -0.528574E-06  0.358E-02    1.04       1.0  T
   3   -124.5059314  0.279960E-05  0.553E-03    1.03       2.0  T
   4   -124.5059338 -0.238912E-05  0.243E-03    1.04       4.6  T
   5   -124.5059345 -0.718012E-06  0.520E-04    1.04      21.5  T
   6   -124.5059345 -0.716845E-08  0.292E-04    1.04      38.2  T
     SCC iter.                  ...        0 min,  0.053 sec
     gradient                   ...        0 min,  0.011 sec
 * total energy  :  -122.2299052 Eh     change       -0.3070905E-04 Eh
   gradient norm :     0.0009770 Eh/α   predicted    -0.1431913E-04 ( -53.37%)
   displ. norm   :     0.3362684 α      lambda       -0.1682060E-04
   maximum displ.:     0.2412940 α      in ANC's #3, #1, #13, ...

........................................................................
.............................. CYCLE   36 ..............................
........................................................................

 iter      E             dE          RMSdq      gap      omega  full diag
   1   -124.5065277 -0.124507E+03  0.442E-02    1.04       0.0  T
   2   -124.5065279 -0.176148E-06  0.260E-02    1.04       1.0  T
   3   -124.5065207  0.723400E-05  0.762E-03    1.04       1.5  T
   4   -124.5065279 -0.722570E-05  0.180E-03    1.04       6.2  T
   5   -124.5065282 -0.341344E-06  0.394E-04    1.04      28.4  T
   6   -124.5065282 -0.627566E-09  0.218E-04    1.04      51.2  T
     SCC iter.                  ...        0 min,  0.053 sec
     gradient                   ...        0 min,  0.011 sec
 * total energy  :  -122.2299246 Eh     change       -0.1937122E-04 Eh
   gradient norm :     0.0006644 Eh/α   predicted    -0.8833318E-05 ( -54.40%)
   displ. norm   :     0.1931961 α      lambda       -0.8047663E-05
   maximum displ.:     0.1408594 α      in ANC's #3, #1, #13, ...

........................................................................
.............................. CYCLE   37 ..............................
........................................................................

 iter      E             dE          RMSdq      gap      omega  full diag
   1   -124.5066696 -0.124507E+03  0.233E-02    1.04       0.0  T
   2   -124.5066693  0.278786E-06  0.138E-02    1.04       1.0  T
   3   -124.5066544  0.149252E-04  0.109E-02    1.04       1.0  T
   4   -124.5066698 -0.154184E-04  0.682E-04    1.04      16.4  T
   5   -124.5066699 -0.381301E-07  0.194E-04    1.04      57.5  T
   6   -124.5066699  0.443521E-10  0.106E-04    1.04     105.3  T
     SCC iter.                  ...        0 min,  0.052 sec
     gradient                   ...        0 min,  0.011 sec
 * total energy  :  -122.2299346 Eh     change       -0.1001731E-04 Eh
   gradient norm :     0.0003957 Eh/α   predicted    -0.4093014E-05 ( -59.14%)
   displ. norm   :     0.1178437 α      lambda       -0.5249378E-05
   maximum displ.:     0.0868326 α      in ANC's #3, #1, #8, ...

........................................................................
.............................. CYCLE   38 ..............................
........................................................................

 iter      E             dE          RMSdq      gap      omega  full diag
   1   -124.5069530 -0.124507E+03  0.130E-02    1.04       0.0  T
   2   -124.5069526  0.427457E-06  0.788E-03    1.04       1.4  T
   3   -124.5069412  0.113573E-04  0.976E-03    1.04       1.1  T
   4   -124.5069532 -0.119738E-04  0.454E-04    1.04      24.6  T
   5   -124.5069532 -0.203568E-07  0.138E-04    1.04      81.1  T
   6   -124.5069532 -0.272664E-09  0.928E-05    1.04     120.4  T
     SCC iter.                  ...        0 min,  0.053 sec
     gradient                   ...        0 min,  0.011 sec
 * total energy  :  -122.2299412 Eh     change       -0.6635127E-05 Eh
   gradient norm :     0.0003875 Eh/α   predicted    -0.2641584E-05 ( -60.19%)
   displ. norm   :     0.0982168 α      lambda       -0.4584491E-05
   maximum displ.:     0.0715799 α      in ANC's #3, #1, #8, ...

........................................................................
.............................. CYCLE   39 ..............................
........................................................................

 iter      E             dE          RMSdq      gap      omega  full diag
   1   -124.5066568 -0.124507E+03  0.110E-02    1.04       0.0  T
   2   -124.5066565  0.362485E-06  0.674E-03    1.04       1.7  T
   3   -124.5066479  0.858690E-05  0.856E-03    1.04       1.3  T
   4   -124.5066570 -0.909885E-05  0.406E-04    1.04      27.6  T
   5   -124.5066570 -0.185334E-07  0.128E-04    1.04      87.3  T
   6   -124.5066570 -0.663235E-09  0.786E-05    1.04     142.3  T
     SCC iter.                  ...        0 min,  0.053 sec
     gradient                   ...        0 min,  0.011 sec
 * total energy  :  -122.2299470 Eh     change       -0.5788814E-05 Eh
   gradient norm :     0.0003269 Eh/α   predicted    -0.2302667E-05 ( -60.22%)
   displ. norm   :     0.0906849 α      lambda       -0.3870388E-05
   maximum displ.:     0.0648159 α      in ANC's #3, #1, #8, ...

........................................................................
.............................. CYCLE   40 ..............................
........................................................................

 iter      E             dE          RMSdq      gap      omega  full diag
   1   -124.5065359 -0.124507E+03  0.111E-02    1.04       0.0  T
   2   -124.5065357  0.172620E-06  0.661E-03    1.04       1.7  T
   3   -124.5065296  0.610291E-05  0.710E-03    1.04       1.6  T
   4   -124.5065359 -0.635373E-05  0.458E-04    1.04      24.4  T
   5   -124.5065360 -0.245767E-07  0.131E-04    1.04      85.3  T
   6   -124.5065360 -0.683812E-09  0.884E-05    1.04     126.4  T
     SCC iter.                  ...        0 min,  0.052 sec
     gradient                   ...        0 min,  0.011 sec
 * total energy  :  -122.2299518 Eh     change       -0.4833064E-05 Eh
   gradient norm :     0.0003337 Eh/α   predicted    -0.1945682E-05 ( -59.74%)
   displ. norm   :     0.0764194 α      lambda       -0.2731924E-05
   maximum displ.:     0.0539346 α      in ANC's #3, #1, #8, ...

........................................................................
.............................. CYCLE   41 ..............................
........................................................................

 iter      E             dE          RMSdq      gap      omega  full diag
   1   -124.5064869 -0.124506E+03  0.102E-02    1.04       0.0  T
   2   -124.5064869  0.101604E-07  0.602E-03    1.04       1.9  T
   3   -124.5064857  0.118715E-05  0.307E-03    1.04       3.6  T
   4   -124.5064869 -0.120316E-05  0.518E-04    1.04      21.6  T
   5   -124.5064869 -0.337786E-07  0.115E-04    1.04      96.9  T
   6   -124.5064869 -0.618300E-09  0.701E-05    1.04     159.5  T
     SCC iter.                  ...        0 min,  0.053 sec
     gradient                   ...        0 min,  0.011 sec
 * total energy  :  -122.2299551 Eh     change       -0.3217745E-05 Eh
   gradient norm :     0.0002826 Eh/α   predicted    -0.1372026E-05 ( -57.36%)
   displ. norm   :     0.0522089 α      lambda       -0.1427249E-05
   maximum displ.:     0.0371843 α      in ANC's #3, #8, #1, ...

........................................................................
.............................. CYCLE   42 ..............................
........................................................................

 iter      E             dE          RMSdq      gap      omega  full diag
   1   -124.5063814 -0.124506E+03  0.740E-03    1.04       0.0  T
   2   -124.5063814  0.944453E-10  0.435E-03    1.04       2.6  T
   3   -124.5063809  0.447405E-06  0.182E-03    1.04       6.1  T
   4   -124.5063814 -0.453773E-06  0.349E-04    1.04      32.1  T
   5   -124.5063814 -0.137835E-07  0.941E-05    1.04     118.9  T
     SCC iter.                  ...        0 min,  0.043 sec
     gradient                   ...        0 min,  0.011 sec
 * total energy  :  -122.2299566 Eh     change       -0.1563665E-05 Eh
   gradient norm :     0.0002114 Eh/α   predicted    -0.7167809E-06 ( -54.16%)
   displ. norm   :     0.0269627 α      lambda       -0.6247154E-06
   maximum displ.:     0.0196559 α      in ANC's #3, #8, #1, ...
 * RMSD in coord.:     0.5755166 α      energy gain  -0.5797258E-03 Eh

generating ANC from exact Hessian ...
Using Lindh-Hessian (1995)
 Shifting diagonal of input Hessian by   9.878924052282113E-003
 Lowest  eigenvalues of input Hessian
    0.000000    0.000000    0.000000    0.000000    0.000000    0.000000
    0.010000    0.010054    0.010148    0.010320    0.010433    0.010610
    0.010733    0.011063    0.011211    0.011241    0.011331    0.011364
 Highest eigenvalues
    2.069080    2.117874    2.136277    2.154491    2.191469    2.302652
 

........................................................................
.............................. CYCLE   43 ..............................
........................................................................

 iter      E             dE          RMSdq      gap      omega  full diag
   1   -124.5064206 -0.124506E+03  0.430E-03    1.04       0.0  T
   2   -124.5064206  0.280943E-07  0.257E-03    1.04       4.4  T
   3   -124.5064197  0.960879E-06  0.280E-03    1.04       4.0  T
   4   -124.5064207 -0.100177E-05  0.188E-04    1.04      59.5  T
   5   -124.5064207 -0.447255E-08  0.495E-05    1.04     225.8  T
   6   -124.5064207 -0.115165E-09  0.306E-05    1.04     365.9  T
     SCC iter.                  ...        0 min,  0.053 sec
     gradient                   ...        0 min,  0.011 sec
 * total energy  :  -122.2299573 Eh     change       -0.6975666E-06 Eh
   gradient norm :     0.0001437 Eh/α   predicted     0.0000000E+00 (-100.00%)
   displ. norm   :     0.0070542 α      lambda       -0.2171064E-07
   maximum displ.:     0.0042953 α      in ANC's #3, #1, #13, ...

........................................................................
.............................. CYCLE   44 ..............................
........................................................................

 iter      E             dE          RMSdq      gap      omega  full diag
   1   -124.5064217 -0.124506E+03  0.131E-03    1.04       0.0  T
   2   -124.5064217  0.167823E-08  0.781E-04    1.04      14.3  T
   3   -124.5064216  0.739071E-07  0.779E-04    1.04      14.3  T
     SCC iter.                  ...        0 min,  0.026 sec
     gradient                   ...        0 min,  0.011 sec
 * total energy  :  -122.2299576 Eh     change       -0.2856793E-06 Eh
   gradient norm :     0.0001169 Eh/α   predicted    -0.1402295E-06 ( -50.91%)
   displ. norm   :     0.0230098 α      lambda       -0.5538398E-06
   maximum displ.:     0.0132151 α      in ANC's #3, #1, #13, ...

........................................................................
.............................. CYCLE   45 ..............................
........................................................................

 iter      E             dE          RMSdq      gap      omega  full diag
   1   -124.5064562 -0.124506E+03  0.418E-03    1.04       0.0  T
   2   -124.5064559  0.249350E-06  0.290E-03    1.04       3.9  T
   3   -124.5064550  0.893635E-06  0.340E-03    1.04       3.3  T
   4   -124.5064563 -0.123840E-05  0.271E-04    1.04      41.2  T
   5   -124.5064563 -0.701863E-08  0.851E-05    1.04     131.4  T
   6   -124.5064563 -0.642132E-09  0.439E-05    1.04     254.5  T
     SCC iter.                  ...        0 min,  0.052 sec
     gradient                   ...        0 min,  0.011 sec
 * total energy  :  -122.2299586 Eh     change       -0.9996884E-06 Eh
   gradient norm :     0.0002823 Eh/α   predicted    -0.3713004E-06 ( -62.86%)
   displ. norm   :     0.0425346 α      lambda       -0.1111606E-05
   maximum displ.:     0.0246280 α      in ANC's #3, #1, #13, ...

........................................................................
.............................. CYCLE   46 ..............................
........................................................................

 iter      E             dE          RMSdq      gap      omega  full diag
   1   -124.5064267 -0.124506E+03  0.748E-03    1.04       0.0  T
   2   -124.5064267 -0.993609E-08  0.438E-03    1.04       2.6  T
   3   -124.5064267  0.724402E-07  0.844E-04    1.04      13.3  T
   4   -124.5064267 -0.619767E-07  0.373E-04    1.04      29.9  T
     SCC iter.                  ...        0 min,  0.035 sec
     gradient                   ...        0 min,  0.011 sec
 * total energy  :  -122.2299600 Eh     change       -0.1396576E-05 Eh
   gradient norm :     0.0003138 Eh/α   predicted    -0.5738308E-06 ( -58.91%)
   displ. norm   :     0.0473982 α      lambda       -0.1029726E-05
   maximum displ.:     0.0288976 α      in ANC's #3, #1, #13, ...

........................................................................
.............................. CYCLE   47 ..............................
........................................................................

 iter      E             dE          RMSdq      gap      omega  full diag
   1   -124.5064045 -0.124506E+03  0.787E-03    1.04       0.0  T
   2   -124.5064045 -0.877097E-08  0.462E-03    1.04       2.4  T
   3   -124.5064045  0.853481E-07  0.925E-04    1.04      12.1  T
   4   -124.5064045 -0.779516E-07  0.335E-04    1.04      33.3  T
     SCC iter.                  ...        0 min,  0.035 sec
     gradient                   ...        0 min,  0.011 sec
 * total energy  :  -122.2299613 Eh     change       -0.1267643E-05 Eh
   gradient norm :     0.0002098 Eh/α   predicted    -0.5169838E-06 ( -59.22%)
   displ. norm   :     0.0369299 α      lambda       -0.7469486E-06
   maximum displ.:     0.0241771 α      in ANC's #3, #1, #13, ...

........................................................................
.............................. CYCLE   48 ..............................
........................................................................

 iter      E             dE          RMSdq      gap      omega  full diag
   1   -124.5064291 -0.124506E+03  0.540E-03    1.04       0.0  T
   2   -124.5064291  0.132345E-07  0.320E-03    1.04       3.5  T
   3   -124.5064284  0.686797E-06  0.236E-03    1.04       4.7  T
   4   -124.5064291 -0.710064E-06  0.221E-04    1.04      50.5  T
   5   -124.5064291 -0.418063E-08  0.869E-05    1.04     128.7  T
     SCC iter.                  ...        0 min,  0.044 sec
     gradient                   ...        0 min,  0.011 sec
 * total energy  :  -122.2299623 Eh     change       -0.1006302E-05 Eh
   gradient norm :     0.0001022 Eh/α   predicted    -0.3747384E-06 ( -62.76%)
   displ. norm   :     0.0306191 α      lambda       -0.7375738E-06
   maximum displ.:     0.0211235 α      in ANC's #3, #1, #13, ...

........................................................................
.............................. CYCLE   49 ..............................
........................................................................

 iter      E             dE          RMSdq      gap      omega  full diag
   1   -124.5064391 -0.124506E+03  0.362E-03    1.04       0.0  T
   2   -124.5064391  0.230611E-08  0.214E-03    1.04       5.2  T
   3   -124.5064389  0.199455E-06  0.128E-03    1.04       8.7  T
   4   -124.5064391 -0.204152E-06  0.161E-04    1.04      69.5  T
   5   -124.5064391 -0.308457E-08  0.466E-05    1.04     239.7  T
     SCC iter.                  ...        0 min,  0.043 sec
     gradient                   ...        0 min,  0.011 sec
 * total energy  :  -122.2299633 Eh     change       -0.1035893E-05 Eh
   gradient norm :     0.0000990 Eh/α   predicted    -0.3704895E-06 ( -64.23%)
   displ. norm   :     0.0387545 α      lambda       -0.1035550E-05
   maximum displ.:     0.0269261 α      in ANC's #3, #1, #13, ...

........................................................................
.............................. CYCLE   50 ..............................
........................................................................

 iter      E             dE          RMSdq      gap      omega  full diag
   1   -124.5064403 -0.124506E+03  0.392E-03    1.04       0.0  T
   2   -124.5064403  0.110598E-07  0.233E-03    1.04       4.8  T
   3   -124.5064398  0.514101E-06  0.206E-03    1.04       5.4  T
   4   -124.5064403 -0.530161E-06  0.228E-04    1.04      49.0  T
   5   -124.5064403 -0.716933E-08  0.560E-05    1.04     199.5  T
     SCC iter.                  ...        0 min,  0.043 sec
     gradient                   ...        0 min,  0.011 sec
 * total energy  :  -122.2299647 Eh     change       -0.1424517E-05 Eh
   gradient norm :     0.0001598 Eh/α   predicted    -0.5193438E-06 ( -63.54%)
   displ. norm   :     0.0531417 α      lambda       -0.1321403E-05
   maximum displ.:     0.0369160 α      in ANC's #3, #1, #18, ...

........................................................................
.............................. CYCLE   51 ..............................
........................................................................

 iter      E             dE          RMSdq      gap      omega  full diag
   1   -124.5064382 -0.124506E+03  0.516E-03    1.04       0.0  T
   2   -124.5064382  0.146952E-07  0.306E-03    1.04       3.7  T
   3   -124.5064374  0.773044E-06  0.251E-03    1.04       4.4  T
   4   -124.5064382 -0.794258E-06  0.312E-04    1.04      35.8  T
   5   -124.5064382 -0.136170E-07  0.738E-05    1.04     151.4  T
     SCC iter.                  ...        0 min,  0.043 sec
     gradient                   ...        0 min,  0.011 sec
 * total energy  :  -122.2299665 Eh     change       -0.1718647E-05 Eh
   gradient norm :     0.0001801 Eh/α   predicted    -0.6641355E-06 ( -61.36%)
   displ. norm   :     0.0591698 α      lambda       -0.1208630E-05
   maximum displ.:     0.0414074 α      in ANC's #3, #1, #18, ...

........................................................................
.............................. CYCLE   52 ..............................
........................................................................

 iter      E             dE          RMSdq      gap      omega  full diag
   1   -124.5064321 -0.124506E+03  0.568E-03    1.04       0.0  T
   2   -124.5064321  0.101481E-07  0.335E-03    1.04       3.3  T
   3   -124.5064314  0.698209E-06  0.238E-03    1.04       4.7  T
   4   -124.5064321 -0.713885E-06  0.339E-04    1.04      33.0  T
   5   -124.5064321 -0.153785E-07  0.834E-05    1.04     134.1  T
     SCC iter.                  ...        0 min,  0.043 sec
     gradient                   ...        0 min,  0.011 sec
 * total energy  :  -122.2299680 Eh     change       -0.1547088E-05 Eh
   gradient norm :     0.0001534 Eh/α   predicted    -0.6066199E-06 ( -60.79%)
   displ. norm   :     0.0558915 α      lambda       -0.9672950E-06
   maximum displ.:     0.0394672 α      in ANC's #3, #1, #18, ...

........................................................................
.............................. CYCLE   53 ..............................
........................................................................

 iter      E             dE          RMSdq      gap      omega  full diag
   1   -124.5064390 -0.124506E+03  0.548E-03    1.04       0.0  T
   2   -124.5064390 -0.438574E-08  0.321E-03    1.04       3.5  T
   3   -124.5064389  0.104333E-06  0.893E-04    1.04      12.5  T
   4   -124.5064390 -0.105798E-06  0.233E-04    1.04      47.9  T
     SCC iter.                  ...        0 min,  0.036 sec
     gradient                   ...        0 min,  0.011 sec
 * total energy  :  -122.2299693 Eh     change       -0.1279631E-05 Eh
   gradient norm :     0.0001191 Eh/α   predicted    -0.4857253E-06 ( -62.04%)
   displ. norm   :     0.0572799 α      lambda       -0.9677635E-06
   maximum displ.:     0.0405538 α      in ANC's #3, #1, #6, ...

........................................................................
.............................. CYCLE   54 ..............................
........................................................................

 iter      E             dE          RMSdq      gap      omega  full diag
   1   -124.5064547 -0.124506E+03  0.593E-03    1.04       0.0  T
   2   -124.5064547 -0.343719E-08  0.348E-03    1.04       3.2  T
   3   -124.5064546  0.176217E-06  0.118E-03    1.04       9.5  T
   4   -124.5064547 -0.175668E-06  0.288E-04    1.04      38.9  T
   5   -124.5064548 -0.885143E-08  0.615E-05    1.04     181.7  T
     SCC iter.                  ...        0 min,  0.044 sec
     gradient                   ...        0 min,  0.011 sec
 * total energy  :  -122.2299706 Eh     change       -0.1300635E-05 Eh
   gradient norm :     0.0000751 Eh/α   predicted    -0.4886117E-06 ( -62.43%)
   displ. norm   :     0.0747896 α      lambda       -0.1185701E-05
   maximum displ.:     0.0526603 α      in ANC's #3, #1, #16, ...

........................................................................
.............................. CYCLE   55 ..............................
........................................................................

 iter      E             dE          RMSdq      gap      omega  full diag
   1   -124.5064647 -0.124506E+03  0.825E-03    1.04       0.0  T
   2   -124.5064647 -0.426652E-09  0.485E-03    1.04       2.3  T
   3   -124.5064641  0.564162E-06  0.211E-03    1.04       5.3  T
   4   -124.5064647 -0.573397E-06  0.378E-04    1.04      29.5  T
   5   -124.5064647 -0.146009E-07  0.986E-05    1.04     113.4  T
     SCC iter.                  ...        0 min,  0.043 sec
     gradient                   ...        0 min,  0.011 sec
 * total energy  :  -122.2299721 Eh     change       -0.1523332E-05 Eh
   gradient norm :     0.0000924 Eh/α   predicted    -0.5973452E-06 ( -60.79%)
   displ. norm   :     0.0920060 α      lambda       -0.1175260E-05
   maximum displ.:     0.0645680 α      in ANC's #3, #1, #16, ...

........................................................................
.............................. CYCLE   56 ..............................
........................................................................

 iter      E             dE          RMSdq      gap      omega  full diag
   1   -124.5064726 -0.124506E+03  0.105E-02    1.04       0.0  T
   2   -124.5064726  0.130466E-08  0.617E-03    1.04       1.8  T
   3   -124.5064717  0.972289E-06  0.278E-03    1.04       4.0  T
   4   -124.5064726 -0.992330E-06  0.429E-04    1.04      26.1  T
   5   -124.5064727 -0.179593E-07  0.961E-05    1.04     116.4  T
     SCC iter.                  ...        0 min,  0.044 sec
     gradient                   ...        0 min,  0.011 sec
 * total energy  :  -122.2299735 Eh     change       -0.1350246E-05 Eh
   gradient norm :     0.0001196 Eh/α   predicted    -0.5917842E-06 ( -56.17%)
   displ. norm   :     0.0732893 α      lambda       -0.5982827E-06
   maximum displ.:     0.0515300 α      in ANC's #3, #1, #16, ...

........................................................................
.............................. CYCLE   57 ..............................
........................................................................

 iter      E             dE          RMSdq      gap      omega  full diag
   1   -124.5064937 -0.124506E+03  0.847E-03    1.04       0.0  T
   2   -124.5064937  0.483453E-09  0.498E-03    1.04       2.2  T
   3   -124.5064931  0.611317E-06  0.221E-03    1.04       5.1  T
   4   -124.5064937 -0.622939E-06  0.357E-04    1.04      31.4  T
   5   -124.5064937 -0.126063E-07  0.856E-05    1.04     130.6  T
     SCC iter.                  ...        0 min,  0.043 sec
     gradient                   ...        0 min,  0.011 sec
 * total energy  :  -122.2299741 Eh     change       -0.6429046E-06 Eh
   gradient norm :     0.0001046 Eh/α   predicted    -0.3006222E-06 ( -53.24%)
   displ. norm   :     0.0358493 α      lambda       -0.2018704E-06
   maximum displ.:     0.0252885 α      in ANC's #3, #1, #16, ...

........................................................................
.............................. CYCLE   58 ..............................
........................................................................

 iter      E             dE          RMSdq      gap      omega  full diag
   1   -124.5065154 -0.124507E+03  0.426E-03    1.04       0.0  T
   2   -124.5065154 -0.169076E-08  0.250E-03    1.04       4.5  T
   3   -124.5065153  0.721986E-07  0.767E-04    1.04      14.6  T
   4   -124.5065154 -0.715222E-07  0.193E-04    1.04      58.1  T
     SCC iter.                  ...        0 min,  0.035 sec
     gradient                   ...        0 min,  0.011 sec
 * total energy  :  -122.2299743 Eh     change       -0.2229016E-06 Eh
   gradient norm :     0.0000744 Eh/α   predicted    -0.1019109E-06 ( -54.28%)
   displ. norm   :     0.0358493 α      lambda        0.0000000E+00
[...]
    12   6 C       53   1 H                                       1.0794058
    13   6 C       54   1 H                                       1.0794163
    14   6 C       55   1 H                                       1.0789650
    15   6 C       56   1 H                                       1.0797097
    16   6 C       57   1 H                                       1.0809840
    18   6 C       58   1 H                                       1.0789324 (min)
    19   6 C       59   1 H                                       1.0800174
    20   6 C       60   1 H                                       1.0790508
    21   6 C       61   1 H                                       1.0798365
    22   6 C       62   1 H                                       1.0795802
    26   6 C       63   1 H                                       1.0795836
    27   6 C       64   1 H                                       1.0798383
    28   6 C       65   1 H                                       1.0790527
    29   6 C       66   1 H                                       1.0800168
    30   6 C       67   1 H                                       1.0789366
    32   6 C       68   1 H                                       1.0794106
    33   6 C       69   1 H                                       1.0794156
    34   6 C       70   1 H                                       1.0789671
    35   6 C       71   1 H                                       1.0797142
    36   6 C       72   1 H                                       1.0809848
    39   6 C       73   1 H                                       1.0797077
    42   6 C       74   1 H                                       1.0802128
    43   6 C       75   1 H                                       1.0805263
    44   6 C       76   1 H                                       1.0801372
    45   6 C       77   1 H                                       1.0807375
    46   6 C       78   1 H                                       1.0811293
    47   6 C       79   1 H                                       1.0811278
    48   6 C       80   1 H                                       1.0807272

 * 3 distinct bonds (by element types)

   Z      Z             #   av. dist./Å        max./Å        min./Å
   1 H    6 C          32     1.0798970     1.0811293     1.0789324
   6 C    6 C          42     1.3886648     1.4052407     1.3807670
   6 C    7 N          10     1.3728270     1.3990241     1.3360005

           -------------------------------------------------
          |               Frequency Printout                |
           -------------------------------------------------
 projected vibrational frequencies (cm⁻¹)
eigval :       -0.00    -0.00    -0.00     0.00     0.00     0.00
eigval :       14.66    15.85    17.54    27.94    32.29    42.78
eigval :       44.27    46.43    57.08    60.16    65.53    68.92
eigval :       69.28    79.15    79.38    82.04   106.08   108.07
eigval :      126.84   144.05   159.40   162.98   191.44   200.87
eigval :      210.68   232.57   234.79   236.81   247.19   260.15
eigval :      261.73   276.91   309.95   320.09   320.14   331.54
eigval :      368.28   370.40   373.01   373.78   376.56   382.42
eigval :      389.35   392.46   407.89   420.86   453.01   467.85
eigval :      469.01   476.04   484.61   496.86   507.94   519.41
eigval :      541.71   546.05   556.08   576.41   577.90   586.66
eigval :      587.71   587.82   588.41   589.13   592.58   609.32
eigval :      616.83   640.01   647.61   657.29   657.59   662.06
eigval :      666.04   667.20   678.28   682.07   687.27   702.49
eigval :      717.36   750.85   752.96   757.09   759.07   761.78
eigval :      761.84   795.07   813.39   828.24   838.60   860.74
eigval :      863.98   873.36   879.62   880.07   880.50   887.39
eigval :      891.52   897.95   900.43   901.90   903.06   905.01
eigval :      905.27   922.41   923.13   923.65   923.77   924.12
eigval :      928.89   929.71   929.93   930.06   931.41   931.81
eigval :      932.19   933.96   957.00   973.14   978.31   997.66
eigval :     1001.62  1006.35  1010.67  1072.89  1080.05  1080.29
eigval :     1083.85  1084.87  1085.02  1087.27  1117.73  1118.64
eigval :     1120.01  1120.30  1125.60  1128.26  1154.12  1176.05
eigval :     1176.55  1178.05  1178.13  1179.18  1179.27  1186.30
eigval :     1190.01  1193.00  1196.74  1197.82  1199.29  1201.89
eigval :     1209.30  1222.91  1244.04  1247.69  1266.73  1270.76
eigval :     1272.93  1275.52  1276.61  1282.28  1285.11  1287.08
eigval :     1302.77  1303.87  1304.31  1314.64  1314.97  1317.86
eigval :     1320.62  1325.01  1327.24  1328.43  1363.50  1392.18
eigval :     1392.58  1427.07  1429.42  1429.48  1430.89  1439.76
eigval :     1440.02  1452.51  1462.07  1462.32  1462.98  1469.87
eigval :     1475.47  1478.16  1502.92  1516.48  1569.50  1569.75
eigval :     1574.04  1574.69  1576.38  1576.94  1582.28  1582.61
eigval :     1588.09  1591.81  1594.30  1595.75  3065.58  3065.64
eigval :     3068.87  3069.07  3069.21  3069.35  3075.05  3075.38
eigval :     3080.09  3080.19  3081.12  3081.17  3081.57  3082.75
eigval :     3083.74  3084.33  3085.16  3085.53  3087.85  3088.00
eigval :     3090.04  3090.09  3092.37  3092.49  3095.44  3095.62
eigval :     3095.79  3097.33  3101.67  3102.15  3103.60  3103.85
 reduced masses (amu)
   1: 11.18   2: 11.20   3: 11.45   4: 11.46   5: 11.48   6: 11.51   7: 10.90   8: 10.98
   9: 10.90  10: 10.82  11: 10.71  12: 10.76  13: 10.47  14: 10.70  15: 10.20  16: 10.56
  17: 10.60  18: 10.47  19: 10.53  20: 10.99  21: 10.19  22: 10.71  23:  9.85  24:  9.92
  25: 10.80  26: 11.82  27: 10.99  28: 10.83  29: 11.11  30: 10.93  31: 11.62  32: 10.78
  33: 10.57  34: 10.55  35: 10.65  36: 10.69  37: 11.56  38: 11.59  39: 10.82  40: 10.67
  41: 11.11  42: 11.16  43:  9.50  44: 11.16  45:  9.89  46:  9.22  47:  9.26  48:  9.09
  49:  9.22  50:  9.25  51: 11.56  52: 11.24  53: 10.53  54:  9.94  55: 11.11  56: 10.19
  57:  9.96  58: 10.66  59: 11.62  60: 10.65  61: 11.89  62: 11.79  63: 11.65  64: 11.03
  65: 12.22  66: 11.23  67: 11.22  68: 11.22  69: 11.52  70: 11.24  71: 11.21  72: 11.57
  73: 11.71  74: 11.70  75: 11.14  76: 10.16  77: 10.12  78: 10.34  79: 10.71  80: 10.37
  81:  9.18  82:  9.75  83: 11.44  84: 11.63  85: 11.23  86:  4.13  87:  3.96  88:  4.15
  89:  4.29  90:  4.56  91:  4.63  92:  3.71  93:  4.22  94: 10.92  95: 11.88  96:  3.33
  97:  3.35  98:  3.28  99:  3.25 100:  3.27 101:  3.29 102:  3.81 103:  3.77 104:  4.88
 105:  3.78 106:  3.87 107:  3.90 108: 10.58 109: 11.55 110:  4.20 111:  3.74 112:  3.12
 113: 11.12 114:  3.12 115:  3.45 116:  3.74 117:  2.90 118:  3.13 119:  3.33 120:  3.34
 121:  3.43 122:  3.56 123: 11.71 124: 10.81 125: 10.93 126: 10.73 127: 10.56 128: 10.60
 129: 10.96 130:  9.37 131:  6.65 132:  6.77 133:  6.80 134:  6.79 135:  6.74 136:  5.27
 137:  4.17 138:  3.95 139:  4.21 140:  4.28 141:  4.27 142:  4.09 143:  9.50 144:  1.32
 145:  1.32 146:  1.30 147:  1.29 148:  1.31 149:  1.31 150:  4.40 151:  2.96 152:  3.61
 153:  1.86 154:  3.07 155:  1.81 156:  4.99 157:  5.63 158: 10.46 159: 10.08 160:  7.11
 161:  8.91 162:  8.82 163:  4.49 164:  5.06 165:  5.43 166:  3.56 167:  4.38 168:  5.53
 169: 10.57 170:  9.48 171: 10.49 172: 11.68 173: 11.88 174: 11.86 175: 11.78 176: 11.90
 177: 11.89 178: 11.89 179: 11.42 180: 11.29 181: 11.46 182:  9.13 183:  9.09 184:  9.01
 185:  9.10 186:  9.25 187:  9.38 188: 10.52 189:  8.94 190:  8.92 191:  9.04 192:  9.85
 193:  9.77 194:  9.32 195: 11.71 196: 11.59 197: 11.45 198: 11.45 199: 11.52 200: 11.52
 201: 11.46 202: 11.47 203: 11.44 204: 11.45 205: 11.47 206: 11.48 207: 11.46 208: 11.47
 209:  1.76 210:  1.76 211:  1.76 212:  1.80 213:  1.79 214:  1.77 215:  1.84 216:  1.85
 217:  1.76 218:  1.76 219:  1.79 220:  1.79 221:  1.86 222:  1.86 223:  1.81 224:  1.82
 225:  1.77 226:  1.77 227:  1.83 228:  1.83 229:  1.92 230:  1.91 231:  1.84 232:  1.84
 233:  1.86 234:  1.86 235:  1.86 236:  1.86 237:  1.91 238:  1.91 239:  1.92 240:  1.92
 IR intensities (km·mol⁻¹)
   1:  0.11   2:  0.06   3:  0.43   4:  0.42   5:  0.03   6:  0.13   7:  0.09   8:  0.38
   9:  0.26  10:  1.25  11:  0.60  12:  0.05  13:  0.69  14:  0.36  15:  0.75  16:  0.49
  17:  1.30  18:  0.56  19:  0.17  20:  0.81  21:  0.01  22:  0.04  23:  0.00  24:  0.31
  25:  1.40  26: 15.20  27:  0.21  28:  1.43  29:  1.17  30:  0.36  31:  1.84  32:  6.72
  33:  0.06  34:  0.10  35:  0.66  36:  0.07  37:  7.87  38:  0.56  39:  0.05  40:  2.78
  41:  0.43  42: 37.96  43: 11.16  44:  1.89  45:  1.98  46:  0.83  47:  2.10  48:  1.04
  49:  0.75  50:  7.75  51:  9.33  52: 34.32  53:  4.68  54: 10.03  55:  1.14  56: 18.81
  57:  4.04  58: 17.58  59: 14.01  60:  2.88  61:  0.97  62:  1.90  63: 35.89  64:  0.93
  65:  3.36  66:  1.14  67:  2.40  68:  0.18  69:  5.42  70:  4.42  71:  3.68  72:  3.88
  73:  0.08  74: 11.91  75:  3.56  76:  1.73  77:  2.92  78:  1.60  79:  0.06  80: 15.03
  81:  2.97  82:  5.89  83: 43.17  84:  3.75  85:  5.50  86: 42.90  87: 32.14  88:  0.00
  89: 21.93  90: 31.13  91: 28.62  92: 13.05  93: 34.28  94:  0.00  95:  0.31  96: 45.67
  97:  5.69  98:  0.00  99: 19.61 100:  0.49 101:  2.88 102:  0.25 103:  1.17 104:  0.03
 105:  1.07 106:  2.26 107:  1.22 108:  2.92 109: 11.33 110:  5.77 111:  1.61 112:  2.04
 113:  0.71 114:  2.70 115:  2.22 116:  2.64 117:  0.78 118:  0.82 119:  4.79 120:  6.47
 121:  4.75 122:  8.14 123:  4.40 124:  0.00 125: 14.47 126:  0.10 127:  6.16 128:  7.10
 129: 10.51 130:  0.46 131:  9.66 132:  4.06 133:  2.11 134:  4.71 135:  2.38 136:  0.01
 137:  1.12 138:  2.03 139:  1.47 140:  1.11 141:  1.54 142:  0.12 143:103.28 144:  0.11
 145:  0.79 146:  0.44 147:  0.56 148:  0.74 149:  0.79 150:  2.80 151: 12.35 152: 20.23
 153:  0.57 154: 31.63 155:  0.90 156: 32.41 157: 10.25 158:  2.85 159:  3.08 160:  1.01
 161: 22.57 162:148.49 163: 15.70 164: 34.53 165: 84.92 166:  3.95 167: 10.11 168:  7.31
 169:523.25 170:137.29 171: 89.83 172:101.40 173:  3.05 174:  0.25 175:  3.85 176: 20.47
 177:  1.83 178: 13.57 179:  2.39 180:  1.62 181: 89.39 182: 27.42 183:  1.05 184:  3.78
 185:  5.09 186:  4.35 187:  2.28 188: 69.41 189:  8.65 190:183.72 191: 56.72 192: 46.05
 193:131.23 194:  2.20 195: 27.61 196:131.14 197:  2.28 198:  6.10 199:  0.09 200:  2.66
 201:  1.10 202:  0.07 203: 80.13 204: 17.91 205:  6.00 206:  2.61 207: 57.22 208: 20.92
 209:  4.22 210:  5.89 211:  0.42 212:  2.52 213: 54.63 214:  7.29 215: 77.74 216:101.68
 217: 36.06 218:  9.13 219:  8.41 220: 12.16 221:296.38 222: 14.20 223: 23.00 224:  0.88
 225: 17.50 226:  1.66 227:  7.79 228: 49.32 229: 39.54 230:280.03 231:131.53 232:  9.69
 233: 81.93 234:127.16 235:154.87 236: 32.88 237:101.83 238:  1.16 239: 31.98 240:103.48
 Raman intensities (Ä⁴*amu⁻¹)
   1:  0.00   2:  0.00   3:  0.00   4:  0.00   5:  0.00   6:  0.00   7:  0.00   8:  0.00
   9:  0.00  10:  0.00  11:  0.00  12:  0.00  13:  0.00  14:  0.00  15:  0.00  16:  0.00
  17:  0.00  18:  0.00  19:  0.00  20:  0.00  21:  0.00  22:  0.00  23:  0.00  24:  0.00
  25:  0.00  26:  0.00  27:  0.00  28:  0.00  29:  0.00  30:  0.00  31:  0.00  32:  0.00
  33:  0.00  34:  0.00  35:  0.00  36:  0.00  37:  0.00  38:  0.00  39:  0.00  40:  0.00
  41:  0.00  42:  0.00  43:  0.00  44:  0.00  45:  0.00  46:  0.00  47:  0.00  48:  0.00
  49:  0.00  50:  0.00  51:  0.00  52:  0.00  53:  0.00  54:  0.00  55:  0.00  56:  0.00
  57:  0.00  58:  0.00  59:  0.00  60:  0.00  61:  0.00  62:  0.00  63:  0.00  64:  0.00
  65:  0.00  66:  0.00  67:  0.00  68:  0.00  69:  0.00  70:  0.00  71:  0.00  72:  0.00
  73:  0.00  74:  0.00  75:  0.00  76:  0.00  77:  0.00  78:  0.00  79:  0.00  80:  0.00
  81:  0.00  82:  0.00  83:  0.00  84:  0.00  85:  0.00  86:  0.00  87:  0.00  88:  0.00
  89:  0.00  90:  0.00  91:  0.00  92:  0.00  93:  0.00  94:  0.00  95:  0.00  96:  0.00
  97:  0.00  98:  0.00  99:  0.00 100:  0.00 101:  0.00 102:  0.00 103:  0.00 104:  0.00
 105:  0.00 106:  0.00 107:  0.00 108:  0.00 109:  0.00 110:  0.00 111:  0.00 112:  0.00
 113:  0.00 114:  0.00 115:  0.00 116:  0.00 117:  0.00 118:  0.00 119:  0.00 120:  0.00
 121:  0.00 122:  0.00 123:  0.00 124:  0.00 125:  0.00 126:  0.00 127:  0.00 128:  0.00
 129:  0.00 130:  0.00 131:  0.00 132:  0.00 133:  0.00 134:  0.00 135:  0.00 136:  0.00
 137:  0.00 138:  0.00 139:  0.00 140:  0.00 141:  0.00 142:  0.00 143:  0.00 144:  0.00
 145:  0.00 146:  0.00 147:  0.00 148:  0.00 149:  0.00 150:  0.00 151:  0.00 152:  0.00
 153:  0.00 154:  0.00 155:  0.00 156:  0.00 157:  0.00 158:  0.00 159:  0.00 160:  0.00
 161:  0.00 162:  0.00 163:  0.00 164:  0.00 165:  0.00 166:  0.00 167:  0.00 168:  0.00
 169:  0.00 170:  0.00 171:  0.00 172:  0.00 173:  0.00 174:  0.00 175:  0.00 176:  0.00
 177:  0.00 178:  0.00 179:  0.00 180:  0.00 181:  0.00 182:  0.00 183:  0.00 184:  0.00
 185:  0.00 186:  0.00 187:  0.00 188:  0.00 189:  0.00 190:  0.00 191:  0.00 192:  0.00
 193:  0.00 194:  0.00 195:  0.00 196:  0.00 197:  0.00 198:  0.00 199:  0.00 200:  0.00
 201:  0.00 202:  0.00 203:  0.00 204:  0.00 205:  0.00 206:  0.00 207:  0.00 208:  0.00
 209:  0.00 210:  0.00 211:  0.00 212:  0.00 213:  0.00 214:  0.00 215:  0.00 216:  0.00
 217:  0.00 218:  0.00 219:  0.00 220:  0.00 221:  0.00 222:  0.00 223:  0.00 224:  0.00
 225:  0.00 226:  0.00 227:  0.00 228:  0.00 229:  0.00 230:  0.00 231:  0.00 232:  0.00
 233:  0.00 234:  0.00 235:  0.00 236:  0.00 237:  0.00 238:  0.00 239:  0.00 240:  0.00
 output can be read by thermo (or use thermo option).
 writing <g98.out> molden fake output.
 recommended (thermochemical) frequency scaling factor: 1.0
           -------------------------------------------------
          |             Thermodynamic Functions             |
           -------------------------------------------------

Molecule has the following symmetry elements: (C2) 
It seems to be the C2 point group
c2  symmetry found (for desy threshold:  0.10E+00) used in thermo

          ...................................................
          :                      SETUP                      :
          :.................................................:
          :  # frequencies                         234      :
          :  # imaginary freq.                       0      :
          :  linear?                             false      :
          :  only rotor calc.                    false      :
          :  symmetry                               c2      :
          :  rotational number                       2      :
          :  scaling factor                  1.0000000      :
          :  rotor cutoff                   50.0000000 cm⁻¹ :
          :  imag. cutoff                  -20.0000000 cm⁻¹ :
          :.................................................:

    mode    ω/cm⁻¹     T·S(HO)/kcal·mol⁻¹    T·S(FR)/kcal·mol⁻¹   T·S(vib)
   ------------------------------------------------------------------------
       1     14.66    -2.16204 (  0.73%)    -1.42004 ( 99.27%)    -1.42548
       2     15.85    -2.11582 (  1.00%)    -1.39692 ( 99.00%)    -1.40410
       3     17.54    -2.05566 (  1.49%)    -1.36683 ( 98.51%)    -1.37711
       4     27.94    -1.78006 (  8.89%)    -1.22890 ( 91.11%)    -1.27789
       5     32.29    -1.69456 ( 14.82%)    -1.18608 ( 85.18%)    -1.26141
       6     42.78    -1.52826 ( 34.90%)    -1.10271 ( 65.10%)    -1.25123
       7     44.27    -1.50817 ( 38.05%)    -1.09263 ( 61.95%)    -1.25076
       8     46.43    -1.47998 ( 42.65%)    -1.07848 ( 57.35%)    -1.24971
       9     57.08    -1.35828 ( 62.94%)    -1.01732 ( 37.06%)    -1.23192
      10     60.16    -1.32737 ( 67.69%)    -1.00176 ( 32.31%)    -1.22218
      11     65.53    -1.27709 ( 74.68%)    -0.97643 ( 25.32%)    -1.20097
      12     68.92    -1.24749 ( 78.30%)    -0.96149 ( 21.70%)    -1.18544
      13     69.28    -1.24437 ( 78.66%)    -0.95992 ( 21.34%)    -1.18367
      14     79.15    -1.16633 ( 86.26%)    -0.92048 ( 13.74%)    -1.13256
      15     79.38    -1.16461 ( 86.40%)    -0.91961 ( 13.60%)    -1.13129
      16     82.04    -1.14534 ( 87.88%)    -0.90985 ( 12.12%)    -1.11678
      17    106.08    -0.99564 ( 95.30%)    -0.83372 (  4.70%)    -0.98803
      18    108.07    -0.98487 ( 95.62%)    -0.82822 (  4.38%)    -0.97801
      19    126.84    -0.89249 ( 97.64%)    -0.78078 (  2.36%)    -0.88986
      20    144.05    -0.81972 ( 98.57%)    -0.74308 (  1.43%)    -0.81862
      21    159.40    -0.76233 ( 99.04%)    -0.71308 (  0.96%)    -0.76186
      22    162.98    -0.74981 ( 99.12%)    -0.70650 (  0.88%)    -0.74943
      23    191.44    -0.66004 ( 99.54%)    -0.65882 (  0.46%)    -0.66004
      24    200.87    -0.63360 ( 99.62%)    -0.64458 (  0.38%)    -0.63364
      25    210.68    -0.60756 ( 99.68%)    -0.63045 (  0.32%)    -0.60763
      26    232.57    -0.55427 ( 99.79%)    -0.60118 (  0.21%)    -0.55437
      27    234.79    -0.54919 ( 99.79%)    -0.59836 (  0.21%)    -0.54929
      28    236.81    -0.54464 ( 99.80%)    -0.59583 (  0.20%)    -0.54474
      29    247.19    -0.52191 ( 99.83%)    -0.58311 (  0.17%)    -0.52201
      30    260.15    -0.49516 ( 99.86%)    -0.56798 (  0.14%)    -0.49526
      31    261.73    -0.49200 ( 99.87%)    -0.56618 (  0.13%)    -0.49210
      32    276.91    -0.46293 ( 99.89%)    -0.54948 (  0.11%)    -0.46302
   ------------------------------------------------------------------------

   temp. (K)  partition function   enthalpy   heat capacity  entropy
                                   cal/mol     cal/K/mol   cal/K/mol   J/K/mol
 298.15  VIB  0.535E+18            22866.814    144.143    143.161
         ROT  0.345E+08              888.752      2.981     37.473
         INT  0.185E+26            23755.567    147.124    180.634
         TR   0.148E+29             1481.254      4.968     45.120
         TOT                       25236.8206   152.0921   225.7541   944.5552

       T/K    H(0)-H(T)+PV         H(T)/Eh          T*S/Eh         G(T)/Eh
   ------------------------------------------------------------------------
    298.15    0.402174E-01    0.657037E+00    0.107263E+00    0.549774E+00
   ------------------------------------------------------------------------

         :::::::::::::::::::::::::::::::::::::::::::::::::::::
         ::                  THERMODYNAMIC                  ::
         :::::::::::::::::::::::::::::::::::::::::::::::::::::
         :: total free energy        -121.680200483048 Eh   ::
         ::.................................................::
         :: total energy             -122.229974396040 Eh   ::
         :: zero point energy           0.616819540425 Eh   ::
         :: G(RRHO) w/o ZPVE           -0.067045627432 Eh   ::
         :: G(RRHO) contrib.            0.549773912993 Eh   ::
         :::::::::::::::::::::::::::::::::::::::::::::::::::::

optimized geometry written to: xtbopt.xyz


           -------------------------------------------------
          | TOTAL ENERGY             -122.229974396040 Eh   |
          | TOTAL ENTHALPY           -121.572937422022 Eh   |
          | TOTAL FREE ENERGY        -121.680200483048 Eh   |
          | GRADIENT NORM               0.000089796201 Eh/α |
          | HOMO-LUMO GAP               1.036669370800 eV   |
           -------------------------------------------------

------------------------------------------------------------------------
 * finished run on 2025/07/18 at 17:02:24.132     
------------------------------------------------------------------------
 total:
 * wall-time:     0 d,  0 h,  0 min,  8.640 sec
 *  cpu-time:     0 d,  0 h,  5 min, 27.743 sec
 * ratio c/w:    37.933 speedup
 SCF:
 * wall-time:     0 d,  0 h,  0 min,  0.278 sec
 *  cpu-time:     0 d,  0 h,  0 min, 10.154 sec
 * ratio c/w:    36.520 speedup
 ANC optimizer:
 * wall-time:     0 d,  0 h,  0 min,  4.430 sec
 *  cpu-time:     0 d,  0 h,  2 min, 57.181 sec
 * ratio c/w:    39.995 speedup
 analytical hessian:
 * wall-time:     0 d,  0 h,  0 min,  3.710 sec
 *  cpu-time:     0 d,  0 h,  2 min, 12.098 sec
 * ratio c/w:    35.610 speedup

