$hessian                                                                        
        0.2290566064   0.1085956815  -0.1085522468  -0.1752370594  -0.0827830392
        0.0828643938  -0.0483707420  -0.0235058825   0.0234375726  -0.0035777796
        0.0043665835  -0.0036356432  -0.0028685299  -0.0012357555   0.0013896052
        0.0003344668  -0.0008964326   0.0002844948  -0.0002744670  -0.0000369762
        0.0001544291   0.0000274497   0.0001775561  -0.0001795536  -0.0000070124
        0.0000270419  -0.0001184883   0.0000839298  -0.0000329173   0.0000169079
       -0.0000299988  -0.0000045714   0.0001687645  -0.0001147996  -0.0001267037
        0.0001442659  -0.0001056773   0.0009128238  -0.0006849944  -0.0002434049
       -0.0002406886   0.0002102132   0.0002212351  -0.0001577353   0.0001953728
        0.0000178286   0.0000066372   0.0001515077   0.0000631537   0.0000545980
       -0.0000180908  -0.0000517916  -0.0000321716  -0.0001552721  -0.0002880887
        0.0000661908  -0.0001599915   0.0008489435   0.0002417071  -0.0002928068
       -0.0014575125   0.0001219072   0.0000589012   0.0013737339   0.0001851602
        0.0006854910  -0.0070179423  -0.0049288576   0.0055873682   0.0055912366
        0.0011746585  -0.0016094930  -0.0009697294  -0.0013063380   0.0000423390
       -0.0002537286   0.0003300372  -0.0016256789   0.0004903760   0.0005028045
        0.0000581267  -0.0003543471   0.0004655096   0.0001311147   0.0000251768
       -0.0003726163  -0.0004623765   0.0010013018  -0.0001407509   0.0006584497
        0.0006876267   0.0011277541   0.0001095132  -0.0007925690  -0.0014574184
       -0.0003033459   0.0000692629   0.0003738381   0.0001524374  -0.0002137316
       -0.0000968412  -0.0001387850   0.0002311257   0.0000308561  -0.0000034457
       -0.0001365403   0.0002253040  -0.0002040207   0.0008284924  -0.0004735315
       -0.0003266338   0.0026315729  -0.0009401462   0.0007324145   0.0000310542
       -0.0000391805  -0.0000534541  -0.0000654730   0.0000052083   0.0000474918
       -0.0000927918   0.0000184968  -0.0000111917  -0.0000454136   0.0000412773
       -0.0000666217   0.0000695183  -0.0000104312   0.0001180838   0.0000086216
        0.0000555100   0.0000305490  -0.0000741145  -0.0000406631  -0.0000208010
       -0.0000668760  -0.0000528338   0.0000365599  -0.0000282512  -0.0000455223
        0.0000919803   0.0000028131   0.0000111429  -0.0000531934  -0.0002392814
       -0.0001072276   0.0000940790  -0.0004471856  -0.0000099629   0.0004595391
       -0.0000136452  -0.0000693330   0.0000600815  -0.0001104753  -0.0001073540
        0.0000631064  -0.0001016091  -0.0000280877   0.0000774055  -0.0000099657
       -0.0000041127   0.0000524874  -0.0000058617   0.0000542003   0.0000240929
        0.0000153179   0.0000463223   0.0000587192  -0.0000444483   0.0000652754
        0.0002282700
        0.1085956815   0.1067892847  -0.0880235648  -0.0813870215  -0.0933246911
        0.0617379401  -0.0033521574   0.0037167145  -0.0004613096   0.0006068533
        0.0045988246   0.0044537805   0.0001040882   0.0008686811   0.0004825314
        0.0001690945  -0.0017824591   0.0000047982  -0.0000265572   0.0000096183
       -0.0000334383   0.0000619822   0.0001158181  -0.0001094359   0.0000284630
       -0.0000020091  -0.0000708231   0.0000374781  -0.0000109434  -0.0000045433
       -0.0000172706   0.0000051595   0.0000865525  -0.0000955149  -0.0000702185
        0.0001491735  -0.0003833799   0.0008536771  -0.0007481779  -0.0002322986
       -0.0000010729   0.0003975952   0.0002013798  -0.0000749528   0.0001366968
        0.0000340100  -0.0000097662   0.0000893312   0.0000282372   0.0000341390
       -0.0000220260  -0.0000196678  -0.0000413963  -0.0000871942  -0.0001858419
        0.0000482498  -0.0000983846   0.0009126090  -0.0001474761  -0.0008838395
       -0.0011861063   0.0002357718  -0.0003421555   0.0036544793  -0.0013088135
        0.0063041056  -0.0260850191  -0.0184342437   0.0217685646   0.0013477113
        0.0012131379  -0.0022275214  -0.0012424131  -0.0017169264  -0.0000002737
        0.0002997145   0.0003672622  -0.0008063174   0.0003310120   0.0002589353
        0.0000429079  -0.0001747032   0.0002894103   0.0001096112  -0.0000559382
       -0.0002513270  -0.0002367411   0.0006463192  -0.0005063609   0.0002430298
        0.0002808352   0.0010162926   0.0002607280  -0.0006256024  -0.0007995945
       -0.0002527268  -0.0000038560   0.0002240388   0.0001229293  -0.0000934325
       -0.0000217262  -0.0000463885   0.0001076735   0.0000997143   0.0000368902
       -0.0000506369   0.0000955434  -0.0001205530   0.0001732349   0.0002843592
       -0.0003690480  -0.0003318937  -0.0015871991  -0.0024914086   0.0000225693
       -0.0000300550  -0.0000361791  -0.0000369350  -0.0000000168   0.0000237363
       -0.0000523810   0.0000110949  -0.0000118522  -0.0000367589   0.0000250414
       -0.0000493638   0.0000279042  -0.0000070292   0.0000246679  -0.0000086055
        0.0000348936   0.0000080565  -0.0000494756  -0.0000272622  -0.0000155899
       -0.0000450221  -0.0000312206   0.0000240052  -0.0000184822  -0.0000289977
        0.0000543481   0.0000061104   0.0000049001  -0.0000408720  -0.0012390362
       -0.0010860130   0.0005820830  -0.0005670732  -0.0000595789   0.0000712878
       -0.0000166230   0.0000653094   0.0001103779  -0.0000682221  -0.0000259558
        0.0000442510  -0.0000639544   0.0000150304   0.0000285075   0.0000223203
       -0.0000135584   0.0000133205   0.0000140501   0.0000003480   0.0000011033
        0.0000061350   0.0000031220   0.0000176749   0.0000319345   0.0001164924
        0.0001591423
       -0.1085522468  -0.0880235648   0.1115589019   0.0829587646   0.0620348088
       -0.0942995216   0.0044042070  -0.0000776253   0.0032051803  -0.0005797179
        0.0037005095   0.0050589341  -0.0000114971   0.0003345744   0.0003562091
       -0.0003634334   0.0002960553  -0.0009948087   0.0000456876  -0.0000779031
       -0.0000547478  -0.0000437171  -0.0000960767   0.0001099199  -0.0000063002
        0.0000018819   0.0000636583  -0.0000374324   0.0000139727  -0.0000066560
        0.0000114373   0.0000033828  -0.0000796931   0.0000953808   0.0000762325
       -0.0001444989   0.0000347221  -0.0006409285   0.0003327240   0.0001803096
        0.0002938066   0.0001224297  -0.0001315493   0.0001189010  -0.0001695655
        0.0000057566  -0.0000213073  -0.0000830286  -0.0000312887  -0.0000293126
        0.0000167635   0.0000482689   0.0000105951   0.0000900895   0.0001188661
       -0.0000998612   0.0001173656  -0.0003516539  -0.0010276897  -0.0002122010
        0.0004425520  -0.0000671863  -0.0001066000  -0.0029110064   0.0060789964
       -0.0010672451   0.0242698705   0.0207965071  -0.0183714410  -0.0007482539
       -0.0026998130   0.0006248378  -0.0006206533   0.0012207750  -0.0013572355
       -0.0006496272  -0.0002835711  -0.0012526274   0.0000584794   0.0001830742
        0.0000064242   0.0001362884  -0.0000879530   0.0000004296   0.0000464087
        0.0001209134   0.0001625979   0.0001711662  -0.0005537018  -0.0004166952
       -0.0004623755   0.0000438662   0.0001776952   0.0002521931   0.0003261162
       -0.0000435387   0.0000209267  -0.0001903206  -0.0000446097   0.0001410133
        0.0000704735   0.0000860079  -0.0001964539   0.0000249125   0.0000043985
        0.0000777978  -0.0000749244   0.0002497427   0.0004500894  -0.0003344175
        0.0000343956   0.0002482811  -0.0023090165  -0.0016399725  -0.0000184924
        0.0000238763   0.0000407660   0.0000340385  -0.0000026169  -0.0000182603
        0.0000476914  -0.0000119686   0.0000119224   0.0000373044  -0.0000271870
        0.0000486683  -0.0000301874   0.0000053952  -0.0000251909   0.0000052216
       -0.0000231297  -0.0000003866   0.0000554021   0.0000308813   0.0000135827
        0.0000384676   0.0000367246  -0.0000185949   0.0000130215   0.0000237074
       -0.0000450940  -0.0000123120   0.0000042256   0.0000435059   0.0011858259
        0.0008038630  -0.0007645138   0.0000798285   0.0000942368  -0.0009229630
        0.0000008349   0.0000061239  -0.0000196546   0.0000016423   0.0000170297
       -0.0000340560   0.0000051026   0.0000138273  -0.0000584007  -0.0000036178
        0.0000068431  -0.0000411019  -0.0000068791   0.0000092452  -0.0000077428
        0.0000074036   0.0000153147  -0.0000243571   0.0000384434  -0.0000815736
       -0.0002121479
       -0.1752370594  -0.0813870215   0.0829587646   0.6772594537  -0.0247754526
        0.0223692294  -0.3379638990   0.0950813668  -0.0921152453  -0.0699486725
       -0.0260483033   0.0262322138   0.0194831889  -0.0010848979   0.0001269021
       -0.0076038746  -0.0095256063   0.0084925810   0.0000627525  -0.0000195233
        0.0000145205  -0.0002015313   0.0001072822   0.0001409692   0.0000385159
       -0.0000789649   0.0000774826  -0.0000372218   0.0000310071  -0.0001222903
       -0.0000570388   0.0000236604  -0.0000361834   0.0001208523   0.0000991315
        0.0000331602  -0.0061003887   0.0061572554  -0.0050785459  -0.0004169613
       -0.0003907938   0.0002664759   0.0001762269  -0.0000565774  -0.0000704961
        0.0000051227  -0.0000141395  -0.0000158546   0.0000618549   0.0000239924
        0.0000677558  -0.0001688843  -0.0001157827   0.0000544980   0.0001718145
        0.0002322283  -0.0002291916   0.0078782110   0.0033656689  -0.0021697722
       -0.0218486755   0.0097684972  -0.0106428113   0.0357759305  -0.0051489888
        0.0030478476  -0.0764691955   0.0056332451  -0.0047696849  -0.0324188297
        0.0265366702  -0.0200954062   0.0019336544   0.0043116105  -0.0027534221
       -0.0006331686  -0.0008550260   0.0002275811  -0.0011472884  -0.0005287915
       -0.0001267074   0.0005023455  -0.0008396338  -0.0002413658   0.0001288602
        0.0006693771   0.0009527056  -0.0011617645  -0.0002734889  -0.0008576594
       -0.0008407267  -0.0013143632  -0.0001869569   0.0000566099   0.0034025318
        0.0011382466  -0.0003331543  -0.0011812853  -0.0002753661   0.0007217518
        0.0003887842   0.0003621427  -0.0007045865   0.0000872253   0.0000834456
        0.0005627178  -0.0010230014   0.0000277688  -0.0029596670  -0.0016014730
       -0.0026061638  -0.0076582405   0.0034020358  -0.0039269392   0.0000309057
        0.0000174990  -0.0000915226   0.0000484554   0.0000050178  -0.0000310990
        0.0000567167   0.0000000995   0.0000056807   0.0000224671  -0.0000229656
        0.0000205704  -0.0000934688   0.0000187700  -0.0000995989   0.0000486919
        0.0000004810   0.0000769022   0.0000412518   0.0000277316   0.0000121182
        0.0000375155   0.0000119942  -0.0000101630   0.0000160406   0.0000145404
       -0.0000464591  -0.0000043711  -0.0000303717   0.0000362259  -0.0024334004
       -0.0023736288   0.0017497385   0.0004459051  -0.0007787957  -0.0013436126
        0.0000887510   0.0000552351  -0.0000360336   0.0001221193   0.0000907885
       -0.0000782804   0.0001352269   0.0000496018  -0.0001090143  -0.0000324537
        0.0001040013  -0.0000724516   0.0000089467  -0.0000182666  -0.0000324015
        0.0000254603  -0.0000027522  -0.0000527913   0.0004062058  -0.0002274351
       -0.0002520366
       -0.0827830392  -0.0933246911   0.0620348088  -0.0247754526   0.3475744863
       -0.2288308318   0.0409354556  -0.0834634765   0.0413994415   0.0120377117
        0.0152162244  -0.0195231239  -0.0174601315  -0.0003951469   0.0052429687
        0.0033547280   0.0104323027  -0.0071443473  -0.0000181944  -0.0006750134
       -0.0004236459   0.0000703552  -0.0004477675   0.0003164939  -0.0000680983
        0.0001741811   0.0001188816  -0.0000792646   0.0000102402   0.0000938089
        0.0000800561   0.0000369687  -0.0002311833   0.0000647915   0.0002068876
       -0.0003849220   0.0077946662  -0.0067500875   0.0059390330   0.0004029749
        0.0003195329  -0.0003548729  -0.0003240333   0.0003174092  -0.0002672008
       -0.0000902478  -0.0000781910  -0.0001195149  -0.0001066775  -0.0000655540
       -0.0000403578   0.0001332220   0.0000765167   0.0001619444   0.0002962222
       -0.0001607332   0.0003682877  -0.0108296622  -0.0029556887   0.0020941560
        0.0224132615  -0.0073368568   0.0051559433  -0.0392602553  -0.0279689416
        0.0247057331   0.0528051691  -0.1419005104   0.0872190150   0.0184172645
       -0.0082195090   0.0102137186  -0.0002314577   0.0010304476   0.0012699506
       -0.0009031428  -0.0014518656  -0.0001306323   0.0002431909  -0.0001747151
        0.0000742360  -0.0004173637   0.0001409109   0.0000728931  -0.0002936943
       -0.0003793091  -0.0001886187  -0.0008677308   0.0013304769   0.0002026154
        0.0001540132  -0.0013866479  -0.0003359376   0.0008787149   0.0000673705
       -0.0000941766  -0.0001475344   0.0006014378   0.0002171831  -0.0007326974
       -0.0002635756  -0.0001936059   0.0005097984  -0.0007208713  -0.0000018192
        0.0003825736   0.0013569017   0.0003022814  -0.0008289006   0.0008889904
        0.0002254032   0.0208572306  -0.0048681393   0.0072952373  -0.0000595746
        0.0000474117   0.0000717958   0.0000992888  -0.0000082258  -0.0000496864
        0.0000912404  -0.0000556443   0.0000138740   0.0000705664  -0.0000526353
        0.0001048226  -0.0000545772  -0.0000516770   0.0000326134  -0.0000428120
       -0.0000778665  -0.0000638146   0.0000931329   0.0000484532   0.0000192970
        0.0000650894   0.0000718504  -0.0000484709   0.0000253586   0.0000661273
       -0.0001143644  -0.0000254368   0.0000111711  -0.0000123180  -0.0014677352
        0.0032981579   0.0049300954   0.0003512959   0.0003613105  -0.0008936927
       -0.0000095440  -0.0000412734  -0.0001284585   0.0000691858   0.0000461053
       -0.0000229308   0.0000510828  -0.0000269560  -0.0000332972  -0.0000443321
        0.0000255222  -0.0000280371  -0.0000634190  -0.0000010533  -0.0000698856
       -0.0000592840  -0.0000493073  -0.0000257433  -0.0007033478  -0.0004054645
       -0.0001410421
        0.0828643938   0.0617379401  -0.0942995216   0.0223692294  -0.2288308318
        0.3359742876  -0.0447439755   0.0407682054  -0.0807517173  -0.0067541429
       -0.0172226139   0.0134537057   0.0135779728   0.0041907744   0.0006619346
       -0.0016431121  -0.0063674613   0.0062420616  -0.0003000567  -0.0000262223
       -0.0005981550   0.0001804437   0.0001661899  -0.0001894669   0.0000689071
       -0.0000022640  -0.0000956024   0.0000327931  -0.0000077020  -0.0000510340
       -0.0000688365   0.0000456860   0.0001008368  -0.0000878087  -0.0001378246
        0.0003133803  -0.0058032255   0.0051792683  -0.0037456308  -0.0003473011
       -0.0004869340  -0.0000219946   0.0002035011  -0.0002417660   0.0002229501
        0.0000202529   0.0000750683   0.0000599184   0.0000673346   0.0000302376
        0.0000476687  -0.0001177884  -0.0000524998  -0.0000756335  -0.0001242804
        0.0001777312  -0.0003007412   0.0088579948   0.0032622141  -0.0018977449
       -0.0212472594   0.0039328342  -0.0082350414   0.0394690374   0.0256577764
       -0.0259873557  -0.0565758204   0.0920020051  -0.1335644739  -0.0105921441
        0.0083847509  -0.0042600042   0.0005907905  -0.0007789383  -0.0001044718
       -0.0010446445  -0.0001128133  -0.0009786624   0.0004314124   0.0001315543
       -0.0000733995  -0.0003171093   0.0003814114   0.0000537832  -0.0000218632
       -0.0003974463  -0.0002272677   0.0000827635   0.0008433838   0.0006089152
        0.0008689677   0.0000323808  -0.0001511704  -0.0006176332  -0.0006566088
       -0.0000720183  -0.0000694073   0.0003004021   0.0000089809  -0.0002411989
       -0.0002148170  -0.0000972452   0.0004795309  -0.0001899426   0.0000805346
        0.0002537320  -0.0002275404  -0.0002559471   0.0005389319  -0.0015551529
       -0.0003718643  -0.0205627097   0.0071194315  -0.0047967435   0.0000266228
       -0.0000426015  -0.0000603119  -0.0000312936  -0.0000015413   0.0000092437
       -0.0000377362   0.0000109666  -0.0000156018  -0.0000485131   0.0000321886
       -0.0000524856   0.0000145897   0.0000158351  -0.0000604255   0.0000228709
        0.0000363445   0.0000184203  -0.0000592887  -0.0000306202  -0.0000051404
       -0.0000227067  -0.0000379976   0.0000187042  -0.0000067830  -0.0000368631
        0.0000486776   0.0000126746  -0.0000241921   0.0000369955   0.0012763707
        0.0048971736   0.0042920925  -0.0012199479  -0.0018508042  -0.0012589720
        0.0000048551   0.0000203929   0.0000816960   0.0000292373  -0.0000032133
        0.0000737528   0.0000368196  -0.0000064047   0.0000878093   0.0000266373
       -0.0000051283   0.0000556865   0.0000367476  -0.0000326076  -0.0000080484
       -0.0000108872  -0.0000386607  -0.0000042719   0.0002720588   0.0001878668
        0.0001161294
       -0.0483707420  -0.0033521574   0.0044042070  -0.3379638990   0.0409354556
       -0.0447439755   0.6877726448  -0.0309465755   0.0287828697  -0.1538515730
       -0.0648603717   0.0593430335  -0.0781844629  -0.0179993094   0.0188813687
        0.0041861280   0.0187509122  -0.0149514632  -0.0017741851  -0.0012065578
        0.0005993165   0.0001330707  -0.0001909013  -0.0002746434  -0.0002411117
        0.0003273207   0.0000227869  -0.0000077771  -0.0000314926   0.0002285230
        0.0001399776   0.0000289202  -0.0000397679   0.0000210082  -0.0001472416
       -0.0000105158   0.0077476461  -0.0097923565   0.0081644159   0.0012103402
        0.0009999870  -0.0008738116  -0.0006035720   0.0002057862  -0.0001750932
        0.0000021420   0.0000408820  -0.0001281378  -0.0001501754  -0.0000956400
       -0.0000648495   0.0002945831   0.0001972094   0.0000715029   0.0001204495
       -0.0004725675   0.0005562345  -0.0087230174  -0.0008099871   0.0004477265
        0.0336188573  -0.0220841358   0.0223490543  -0.0434602606  -0.0090843856
        0.0086083594  -0.0078768848   0.0531526468  -0.0532298321   0.0034238818
        0.0000710062   0.0016578584  -0.0002696716   0.0001273039   0.0013573735
        0.0005612527   0.0000507799   0.0001700026   0.0005456360   0.0000049261
        0.0002158488  -0.0001742363   0.0003082636   0.0001465995  -0.0001650020
       -0.0002747044  -0.0002532682  -0.0003926546   0.0006601550   0.0004085315
        0.0006421232  -0.0001371897   0.0000615829  -0.0001454794  -0.0007306633
       -0.0003767912  -0.0001144474   0.0005844342   0.0003973780  -0.0005628127
       -0.0002874690  -0.0001717310   0.0004346449  -0.0004183465   0.0001556800
       -0.0001927876   0.0007273259   0.0000982895  -0.0004972375   0.0011470860
       -0.0013262504  -0.0566705836   0.0444525070  -0.0406890049  -0.0000905923
       -0.0000212440   0.0001171696  -0.0000379112  -0.0000079614  -0.0000103981
       -0.0000014327  -0.0000436221   0.0000111654  -0.0000150064  -0.0000028612
        0.0000335081   0.0000271858  -0.0000958316   0.0002292685  -0.0000343318
       -0.0000132576  -0.0000768292   0.0000240874   0.0000076444   0.0000022923
        0.0000192097   0.0000282186  -0.0000185141   0.0000039544   0.0000349894
       -0.0000296228   0.0000071202   0.0000130102  -0.0000015849  -0.0002782682
        0.0000046448   0.0003913768   0.0000757094   0.0000029810  -0.0002908852
       -0.0000119551   0.0000479100   0.0000207778   0.0000444076   0.0000551547
       -0.0000160138   0.0000262379  -0.0000026855   0.0000038680   0.0000317346
        0.0000054567  -0.0000431032   0.0000212067  -0.0000296509  -0.0000702071
       -0.0000346636  -0.0000520507   0.0000100218  -0.0002385045   0.0002183001
       -0.0000816976
       -0.0235058825   0.0037167145  -0.0000776253   0.0950813668  -0.0834634765
        0.0407682054  -0.0309465755   0.3934929231  -0.2771871663  -0.0875695808
       -0.1244379639   0.0728195593  -0.0097973377   0.0032241947  -0.0060047256
        0.0049420958   0.0077796598   0.0007322126  -0.0000282322   0.0004916373
        0.0000821397   0.0001638550  -0.0001592595   0.0000303385  -0.0001218127
        0.0000279730   0.0000170232  -0.0000024161   0.0000013793   0.0000413560
       -0.0000304201  -0.0000404644  -0.0000242603   0.0002062785  -0.0001014838
       -0.0001567332   0.0017322620  -0.0021992067   0.0022701160   0.0005421531
       -0.0004249467  -0.0016626459  -0.0003805423  -0.0000324156  -0.0000135448
       -0.0000824199   0.0001004388  -0.0000564389  -0.0000477141  -0.0000365702
       -0.0000062647  -0.0000127202   0.0001221010  -0.0000000675   0.0002310832
        0.0000228039   0.0001292557  -0.0017408432  -0.0026161597   0.0060359541
       -0.0076943331  -0.0195944579   0.0207228916  -0.0053534695   0.0005263431
       -0.0004631524   0.0188558092  -0.0060127023   0.0047148665   0.0035458215
       -0.0010613485   0.0049354546  -0.0001679804  -0.0008676816   0.0000743995
        0.0000849557  -0.0001091099  -0.0001547020   0.0001062559   0.0000742644
        0.0000059538  -0.0001319003   0.0001443549   0.0000395119  -0.0000127909
       -0.0001799776  -0.0001375256   0.0002723143   0.0001906061   0.0000998817
        0.0000363610   0.0001350516   0.0000247670   0.0000204752  -0.0002448683
       -0.0001230899  -0.0000170298   0.0001939966   0.0000061192  -0.0001010434
       -0.0000923850  -0.0000410022   0.0001110033  -0.0000239390  -0.0000194263
       -0.0002193605   0.0000607688  -0.0000537369  -0.0001963032   0.0002917631
        0.0004868027   0.0422473250  -0.1691141271   0.1321169193  -0.0000312793
        0.0000069321   0.0000411939   0.0000261759  -0.0000034197  -0.0000096909
        0.0000156433  -0.0000105541   0.0000206702   0.0000279528  -0.0000177094
        0.0000373357   0.0000314155   0.0000108308   0.0000650713  -0.0000013658
       -0.0000768240  -0.0000104083   0.0000064401  -0.0000090622   0.0000027148
        0.0000208967  -0.0000147466  -0.0000091054   0.0000126414   0.0000287690
       -0.0000302666   0.0000360696  -0.0000189042  -0.0000585508  -0.0001710016
        0.0002973180  -0.0002546362  -0.0001267875   0.0000369239   0.0001012870
       -0.0000043610   0.0000476603   0.0000170782  -0.0000129125   0.0000161939
        0.0000126135   0.0000061112   0.0000061766   0.0000288584   0.0000181240
       -0.0000107784   0.0000160985   0.0000077408  -0.0000241394   0.0000084539
       -0.0000067452   0.0000033183  -0.0000003424   0.0001265347  -0.0000524148
        0.0000500046
        0.0234375726  -0.0004613096   0.0032051803  -0.0921152453   0.0413994415
       -0.0807517173   0.0287828697  -0.2771871663   0.3693180399   0.0818232456
        0.0742738685  -0.1170258301   0.0127175745  -0.0071398531   0.0016596818
       -0.0041264550  -0.0005343713   0.0083376472  -0.0003514978   0.0001514594
        0.0005607823  -0.0002721686   0.0001378422  -0.0000846395  -0.0000180781
       -0.0000331782   0.0000145326   0.0000196284  -0.0000082090  -0.0000048448
       -0.0000256819   0.0000139479   0.0000382906   0.0000410558   0.0000370227
        0.0000431263  -0.0028234258   0.0025043922  -0.0014920344  -0.0001426685
       -0.0009128258  -0.0011464791  -0.0000513002  -0.0002139497   0.0001328205
       -0.0000681635   0.0001106787   0.0000483786   0.0000548307   0.0000128751
        0.0000554796  -0.0001308273   0.0000397402  -0.0000686497   0.0000170179
        0.0002207607  -0.0002690542   0.0032217722   0.0081059431  -0.0029938272
        0.0056685661   0.0184265782  -0.0159371390   0.0066126156  -0.0000317794
        0.0004841487  -0.0203194195   0.0040800849  -0.0053643423  -0.0004634511
        0.0056171347   0.0001347895   0.0002750818  -0.0003150062   0.0001992204
        0.0000709197  -0.0000490451  -0.0000648444  -0.0000670319   0.0000041145
       -0.0000591184  -0.0000010920   0.0000019820  -0.0000054072   0.0000315282
       -0.0000419358  -0.0000306476   0.0001975840   0.0000748923   0.0001002463
        0.0000041164   0.0000044360  -0.0000187186  -0.0001208986   0.0004079636
        0.0001496293  -0.0000733216  -0.0000812262   0.0000117663   0.0000612691
        0.0000184936  -0.0000069590  -0.0000563256   0.0000530743   0.0000021297
       -0.0000548724  -0.0001528729   0.0000495174  -0.0010331847   0.0001082631
       -0.0007214091  -0.0405186951   0.1317145701  -0.1587236383   0.0000203032
       -0.0000158287  -0.0000301283  -0.0000374992   0.0000097985   0.0000106585
       -0.0000180097   0.0000119133  -0.0000090996  -0.0000112974   0.0000054482
       -0.0000231733   0.0000132811  -0.0000523615  -0.0000112536   0.0000620156
       -0.0000094282   0.0000280501  -0.0000239087  -0.0000157415   0.0000076513
        0.0000090951  -0.0000262873   0.0000015994   0.0000175384  -0.0000159419
        0.0000192323   0.0000330893  -0.0000373984   0.0000916498   0.0001771984
       -0.0002331361   0.0002941264  -0.0003635206  -0.0000986760  -0.0001604697
        0.0000064479   0.0000123302   0.0000122806  -0.0000162584  -0.0000152494
        0.0000115976  -0.0000071136   0.0000116841  -0.0000021866  -0.0000276768
        0.0000364585   0.0000035729   0.0000042036   0.0000217624   0.0000051807
        0.0000120846   0.0000217932   0.0000093543  -0.0000534170   0.0000320299
       -0.0000347495
       -0.0035777796   0.0006068533  -0.0005797179  -0.0699486725   0.0120377117
       -0.0067541429  -0.1538515730  -0.0875695808   0.0818232456   0.6606024206
        0.0102245652  -0.0274425838  -0.2588110851   0.0764296173  -0.0565809018
       -0.0874365991  -0.0476960079   0.0441384015   0.0016109139  -0.0025590627
        0.0047287894  -0.0034912819   0.0008862913   0.0007346387   0.0005163976
       -0.0005174598   0.0006148726  -0.0001324184   0.0000837674  -0.0004352740
        0.0003996521  -0.0000947850  -0.0000058726  -0.0000886581   0.0010909900
       -0.0001957978  -0.0234457193   0.0300394360  -0.0249580487  -0.0025746034
       -0.0018162541   0.0011008689   0.0010624743  -0.0006874531   0.0004790468
        0.0000619480   0.0001182879   0.0002483427   0.0003073891   0.0001753273
        0.0001892410  -0.0005298877  -0.0003799217  -0.0003441100  -0.0002465442
        0.0010117661  -0.0012553449   0.0341677851  -0.0143947996   0.0154230767
       -0.0967943875   0.0190840834  -0.0226988443   0.0017154263   0.0213917046
       -0.0201827424   0.0015587700  -0.0183229811   0.0190436485  -0.0029455654
        0.0004501433  -0.0013425239   0.0001852667  -0.0003019183  -0.0015382566
       -0.0005160695   0.0005302750   0.0001983803  -0.0006112983  -0.0001338235
       -0.0002247532   0.0004680392  -0.0003737873  -0.0001655507   0.0002582021
        0.0004115976   0.0003333337   0.0005376478  -0.0008329740  -0.0003814644
       -0.0006776477   0.0001743725  -0.0000724830   0.0003565979   0.0007282573
        0.0004798163   0.0001594162  -0.0006450313  -0.0004140894   0.0006805350
        0.0003031976   0.0002071753  -0.0005944718   0.0004666035  -0.0000795915
       -0.0001536206  -0.0008065807  -0.0001452022   0.0001961163  -0.0004435834
        0.0014884254   0.0062614221   0.0007875597  -0.0029426355   0.0001992827
       -0.0000224013  -0.0006129573  -0.0000553601   0.0001201596  -0.0000167567
        0.0000113062   0.0000480955  -0.0000556501   0.0000040126  -0.0000294582
       -0.0001070956  -0.0002665868   0.0001613104  -0.0007264428   0.0000808000
        0.0000866793   0.0002791661  -0.0000842663  -0.0000613731  -0.0000139251
       -0.0000635823  -0.0000960030   0.0000563305  -0.0000238569  -0.0000689750
        0.0001070712   0.0000797923  -0.0000433497  -0.0000839388  -0.0043694103
        0.0006360390  -0.0013478291  -0.0002141710  -0.0001987979  -0.0001059210
        0.0000091224  -0.0000835009  -0.0000104616  -0.0000175764  -0.0000636898
        0.0000059071  -0.0000207175  -0.0000005664  -0.0000104627  -0.0000305952
       -0.0000029232   0.0000430444  -0.0000153555   0.0000451712   0.0000642068
        0.0000375332   0.0000746663   0.0000124579   0.0000610916   0.0000425136
        0.0000318849
        0.0043665835   0.0045988246   0.0037005095  -0.0260483033   0.0152162244
       -0.0172226139  -0.0648603717  -0.1244379639   0.0742738685   0.0102245652
        0.3945521013  -0.2337710977   0.0725396938  -0.0967894626   0.0343419256
       -0.0124349333   0.0198351404  -0.0174195786  -0.0014380528   0.0019946272
        0.0066500130  -0.0011761237   0.0005576381  -0.0000152003  -0.0002675375
       -0.0002598450   0.0002782865   0.0000955686  -0.0000130280  -0.0000101883
       -0.0001479045  -0.0002748720   0.0001401636   0.0009320934  -0.0004935260
       -0.0000227704   0.0189444804  -0.0144831910   0.0044798168  -0.0005663195
        0.0004063842   0.0009773068   0.0005888289   0.0005411570  -0.0000492415
       -0.0001126221  -0.0003712620   0.0001359039  -0.0000577465   0.0000294682
       -0.0002160876   0.0001062938  -0.0000699821   0.0000246112   0.0000273673
        0.0001361564   0.0000571502  -0.0414995220  -0.0250906141   0.0333621094
        0.0248595224  -0.1465044526   0.0782603907   0.0384679366  -0.0028570746
        0.0042452211  -0.0076391156  -0.0174688460   0.0145107853   0.0001369601
       -0.0003446817  -0.0003274270  -0.0002092890  -0.0001750038   0.0000048910
       -0.0002488252  -0.0001865858  -0.0000007994   0.0000573519   0.0000452506
       -0.0000353407  -0.0000843575   0.0000761013   0.0000021782  -0.0000278961
       -0.0001251173  -0.0000570560  -0.0000376383   0.0001660241   0.0000440987
        0.0000452834  -0.0001842623  -0.0000585128   0.0000090896   0.0000313653
       -0.0000701462  -0.0000125043   0.0000323019   0.0000143337  -0.0000024827
       -0.0000417226  -0.0000418605   0.0000468704   0.0000569871  -0.0000365610
        0.0002195869  -0.0001770012   0.0001003622  -0.0002384267   0.0001783896
       -0.0000726145  -0.0144517454  -0.0115223593   0.0120524828  -0.0000336155
        0.0001465956   0.0000946658  -0.0000769724  -0.0000049396  -0.0000243924
        0.0000583205   0.0000476730   0.0000129183   0.0001430258  -0.0000183392
        0.0000805258   0.0000584931   0.0000799120  -0.0001036657  -0.0001192688