$hessian                                                                        
        0.2412559506   0.2327537939   0.0094076736  -0.0702937487  -0.0435405892
        0.0620548448  -0.0059605180  -0.0142277105   0.0125844807  -0.0041536735
        0.0043343073  -0.0010974843  -0.0001672575  -0.0001462559   0.0000111735
        0.0000273899   0.0002469641  -0.0000055231  -0.0001295330  -0.0000322608
       -0.0000020232   0.0000384257   0.0000156149   0.0000035058   0.0000048598
        0.0000787313   0.0000024510   0.0000773523  -0.0000672101   0.0000089612
        0.0000403996   0.0000465113   0.0000021514  -0.0000246334  -0.0001213614
        0.0000025647   0.0000521046  -0.0000411536   0.0000005489  -0.0000869449
       -0.0000125388   0.0000001616   0.0000029355   0.0000984890   0.0000009142
        0.0002152115  -0.0001684488  -0.0000184813   0.0000416047  -0.0000308786
       -0.0000015372  -0.0000218656   0.0000956006   0.0000031614  -0.0000292330
       -0.0000204616  -0.0000005391   0.0000164487  -0.0000129933   0.0000006734
       -0.0000171542  -0.0000017201   0.0000008385   0.0000010619  -0.0000180228
       -0.0000000360  -0.0000117633   0.0000223118   0.0000008077   0.0000138906
       -0.0000162655  -0.0000005890  -0.0000187330   0.0000224400  -0.0000020054
       -0.0000121357  -0.0000122634  -0.0000018677   0.0000012234   0.0000041787
       -0.0000013704   0.0000583394   0.0000330916  -0.0000028982   0.0000035623
        0.0000391442   0.0000004329   0.0000815018  -0.0000392956  -0.0000005091
       -0.0000772535   0.0000104138   0.0000105029  -0.0077161376  -0.0167519649
       -0.0116775134  -0.0738231828  -0.0441147902  -0.0699359592  -0.0937949923
       -0.1116211981  -0.0001386907   0.0022395176   0.0026548225  -0.0062950046
        0.0050148597  -0.0058511760  -0.0000764262  -0.0000067967   0.0000352718
        0.0000008138   0.0000008410   0.0000178795   0.0000034529   0.0000102167
        0.0000313091  -0.0000004617   0.0000004143   0.0000085606   0.0000008446
        0.0000010467  -0.0000013607   0.0000022305  -0.0000108880   0.0000120479
        0.0000012768  -0.0000032766   0.0000110348   0.0000015161   0.0000089318
        0.0000048668   0.0000005313   0.0000073852  -0.0000046951  -0.0000003014
        0.0000109470   0.0000039497  -0.0000007918   0.0000184839  -0.0000021659
       -0.0000018127  -0.0000101676   0.0000050456  -0.0000017761  -0.0001460530
       -0.0000703202   0.0000086165   0.0050261966  -0.0058450015  -0.0001645595
        0.0022448391   0.0021857222   0.0053130306
        0.2327537939   0.5541131104  -0.0051505899  -0.0418422131  -0.1324394822
        0.1267186441  -0.0154002690  -0.0287779570   0.0223833878   0.0043092872
        0.0019316356   0.0005720614   0.0000300305  -0.0007188422  -0.0000101995
       -0.0000591306   0.0003070556  -0.0000061472  -0.0002467958  -0.0000794156
       -0.0000008519   0.0000460313   0.0001006278   0.0000054747  -0.0000134499
        0.0000901837  -0.0000027486   0.0000554492   0.0000198876   0.0000080704
        0.0000547664   0.0000579944  -0.0000025062  -0.0000510977  -0.0000388501
        0.0000045142   0.0000512844  -0.0000024811  -0.0000008208  -0.0000314005
        0.0000137393  -0.0000022833  -0.0000142626   0.0000274138  -0.0000024405
        0.0000528975  -0.0002211524  -0.0000031589   0.0000176326  -0.0000673669
       -0.0000021894   0.0000368793   0.0001560459   0.0000026137   0.0000051132
       -0.0000135763  -0.0000025381   0.0000256645   0.0000091513  -0.0000008031
       -0.0000268487  -0.0000028507  -0.0000012383   0.0000036072  -0.0000440537
       -0.0000009493   0.0000040318   0.0000490239   0.0000012360   0.0000228324
       -0.0000302512  -0.0000006505  -0.0000107851   0.0000644974  -0.0000003593
        0.0000082782  -0.0000235913  -0.0000010169  -0.0000061344  -0.0000054524
        0.0000014094   0.0000706421   0.0000095411  -0.0000004841  -0.0001622964
        0.0000292791  -0.0000010706   0.0001510270  -0.0001441494  -0.0000005388
        0.0000247992   0.0001889138   0.0000081014  -0.0155183133  -0.0268809531
       -0.0227976585  -0.0455742780  -0.1291040817  -0.1224524752  -0.1115410627
       -0.2439224394   0.0001058286   0.0020931355   0.0054620299  -0.0105012523
       -0.0057908188  -0.0028891346   0.0001913517  -0.0000085684   0.0000570452
       -0.0000016424   0.0000152443   0.0000303242   0.0000011933   0.0000439251
        0.0000626813  -0.0000016818  -0.0000261915   0.0000056103   0.0000001566
       -0.0000105008   0.0000021349   0.0000007984  -0.0000074756   0.0000146876
       -0.0000006168  -0.0000034946   0.0000043255  -0.0000006120   0.0000058749
       -0.0000006628  -0.0000005261   0.0000033638  -0.0000128486  -0.0000002281
        0.0000074383   0.0000052433   0.0000003504   0.0000217793   0.0000007056
        0.0000003794  -0.0000466636   0.0000317222   0.0000012003  -0.0002836106
        0.0000023214   0.0000016753  -0.0057976286  -0.0028921341  -0.0000624336
        0.0025584808   0.0054647946   0.0110042650
        0.0094076736  -0.0051505899   0.6485577154   0.0245722297   0.0568769081
       -0.2725495771   0.0396316869   0.0748632480   0.0278090434  -0.0010350673
        0.0005822274  -0.0677980224  -0.0000317778  -0.0000019132   0.0005247631
        0.0000106889  -0.0000072442  -0.0001505971  -0.0000157440  -0.0000012191
       -0.0001409801   0.0000075075  -0.0000049260  -0.0000118600  -0.0000115323
       -0.0000048248   0.0000656994   0.0000337636  -0.0000002040   0.0002003542
       -0.0000220959  -0.0000109229   0.0000640654   0.0000114680   0.0000179313
       -0.0000089623  -0.0000091378   0.0000055811   0.0000116304   0.0000088784
        0.0000019070  -0.0000075269  -0.0000012606  -0.0000097357  -0.0000166066
        0.0000066691  -0.0000003981  -0.0005280261   0.0000058353   0.0000005112
       -0.0000407205  -0.0000054380   0.0000061853   0.0000536169   0.0000036202
        0.0000001720   0.0000149281  -0.0000007658  -0.0000001536   0.0000029738
        0.0000028515  -0.0000009734  -0.0000029724  -0.0000012744   0.0000022016
       -0.0000077488   0.0000004180  -0.0000027641   0.0000126810  -0.0000009963
        0.0000042349  -0.0000037496  -0.0000015840  -0.0000038513  -0.0000517851
       -0.0000002506   0.0000008337  -0.0000145777  -0.0000028831  -0.0000018290
        0.0000063845  -0.0000008407  -0.0000038088  -0.0000087970  -0.0000053700
        0.0000072426   0.0001168900   0.0000032422  -0.0000034075   0.0000124228
       -0.0000021716  -0.0000081123   0.0002713209  -0.0386976215  -0.0753015318
        0.0278940079  -0.0324809533  -0.0526145200  -0.2723720530  -0.0001274277
        0.0001122771  -0.0433790837   0.0049026644   0.0103195510  -0.0257209069
       -0.0002751368  -0.0002066201   0.0012733656   0.0000002593  -0.0000002044
       -0.0000032246   0.0000014085   0.0000023629   0.0000162466   0.0000000702
        0.0000000579   0.0000027884  -0.0000002940   0.0000010182   0.0000047477
       -0.0000008200   0.0000012151  -0.0000003058   0.0000012361  -0.0000005327
       -0.0000004003   0.0000009242  -0.0000016011   0.0000002532   0.0000001678
       -0.0000011578   0.0000033188  -0.0000004335  -0.0000004702   0.0000007376
       -0.0000008151  -0.0000011170   0.0000152842  -0.0000014359  -0.0000008800
        0.0000101066  -0.0000014448   0.0000010921   0.0000083474  -0.0000068958
        0.0000039666   0.0002940827   0.0000291581   0.0003428394   0.0012714349
       -0.0059009530  -0.0098080519  -0.0257007271
       -0.0702937487  -0.0418422131   0.0245722297   0.2363148423   0.2241355798
        0.0167448277  -0.1096929716  -0.1201122731   0.0173714451  -0.0102147808
       -0.0147532792  -0.0388044197   0.0064969268  -0.0032690268  -0.0010847293
       -0.0006901513  -0.0010104160  -0.0005318301  -0.0002573191  -0.0002831386
        0.0000028925  -0.0000232926   0.0000470108  -0.0000173149  -0.0000299146
        0.0000273787   0.0000327004   0.0001139977  -0.0000532271   0.0001553660
       -0.0000365749   0.0000242270   0.0000199064   0.0000009981   0.0000007399
        0.0000177020   0.0000331292  -0.0000140054  -0.0000009809   0.0000261779
        0.0000212922  -0.0000059443  -0.0000345761  -0.0000104195  -0.0000049429
        0.0001157201   0.0002929860  -0.0001546076  -0.0001384947  -0.0004957527
        0.0001245955   0.0004841607  -0.0000285212  -0.0000231805  -0.0000343552
        0.0000992091  -0.0000095960   0.0000447331  -0.0000039638   0.0000029408
       -0.0000211265   0.0000037372  -0.0000015974   0.0000007839  -0.0000337686
       -0.0000020701   0.0000059133   0.0000503336   0.0000034058  -0.0000047074
       -0.0000481298   0.0000022646   0.0000156684   0.0000406714  -0.0000479570
        0.0000063044  -0.0000285358   0.0000001626   0.0000158269   0.0000193027
        0.0000001948   0.0000288225   0.0000245230   0.0000098789   0.0000044720
        0.0000094991   0.0001135277   0.0001686756  -0.0000074876  -0.0000011297
        0.0000856417   0.0009163359   0.0003699900  -0.0135470985  -0.0175906294
        0.0138943823   0.0146416322   0.0237450945   0.0125374089  -0.0031883605
       -0.0078734730   0.0121245075  -0.0527919722  -0.0317314503  -0.0567853580
       -0.0029126776  -0.0068571602   0.0010372147  -0.0000013181   0.0000300670
       -0.0000133260   0.0000104187   0.0000379903  -0.0000057827   0.0000064939
        0.0000177081   0.0000012097  -0.0000076164  -0.0000071093  -0.0000025309
       -0.0000139280   0.0000033680  -0.0000066951  -0.0000065647   0.0000025148
       -0.0000018740  -0.0000021597   0.0000041373  -0.0000025722   0.0000023731
        0.0000014112  -0.0000027218   0.0000006310  -0.0000025602  -0.0000014351
        0.0000057619   0.0000055670   0.0000004490   0.0000079576   0.0000025789
       -0.0000040293   0.0000008294   0.0000046754   0.0000025281  -0.0002861902
       -0.0000848006  -0.0001503135  -0.0002873745   0.0000481979   0.0002790888
        0.0058783812  -0.0034747956  -0.0017538805
       -0.0435405892  -0.1324394822   0.0568769081   0.2241355798   0.5382692422
        0.0049032629  -0.1186870310  -0.2714813673   0.0357305339  -0.0158897218
       -0.0285245723  -0.0750888114  -0.0033926584   0.0028789049  -0.0015086518
        0.0004492284  -0.0008083282   0.0000080383  -0.0002090355  -0.0000594797
       -0.0001088374  -0.0000230836   0.0000152941  -0.0000197427  -0.0000472804
        0.0000301050   0.0000108478   0.0001038699   0.0000329101   0.0002424069
       -0.0000619299  -0.0000306550   0.0000032635   0.0000136850   0.0000644157
        0.0000132559  -0.0000072239   0.0000260348  -0.0000059134   0.0000423255
       -0.0000236577  -0.0000056695  -0.0000057587  -0.0000235153  -0.0000088913
        0.0000792133  -0.0002345342  -0.0003416842   0.0000589038   0.0008067953
       -0.0000244420  -0.0001639170  -0.0002524754   0.0001351548   0.0000214431
       -0.0000052217   0.0000415706   0.0000054624  -0.0000265277   0.0000060967
       -0.0000057348  -0.0000119320  -0.0000058596  -0.0000033252  -0.0000275957
        0.0000022388   0.0000010437   0.0000565693  -0.0000049098   0.0000018709
       -0.0000161254  -0.0000042952  -0.0000392436   0.0000496032  -0.0000317143
        0.0000182381  -0.0000244497  -0.0000016820   0.0000085100  -0.0000152818
       -0.0000303469   0.0001432913   0.0000778553  -0.0000066752  -0.0002359718
       -0.0002645688   0.0003054716   0.0002167992  -0.0000696208  -0.0000086553
       -0.0006345396  -0.0009079949  -0.0001648541  -0.0171596729  -0.0392443208
        0.0266553908   0.0248916057   0.0473780138   0.0266578768  -0.0073917421
       -0.0141056917   0.0227980338  -0.0317618717  -0.0891025038  -0.0967016538
       -0.0074807491  -0.0133883425   0.0020333587   0.0000216322   0.0000136361
       -0.0000163713   0.0000124467   0.0000337531  -0.0000254046   0.0000113434
        0.0000286328   0.0000168208  -0.0000162508  -0.0000118392  -0.0000028372
       -0.0000142542   0.0000103909  -0.0000074145  -0.0000110816  -0.0000036989
       -0.0000030933  -0.0000056572  -0.0000016143  -0.0000067541  -0.0000034795
        0.0000011621  -0.0000035600  -0.0000077151  -0.0000054982  -0.0000010873
        0.0000053266   0.0000160852   0.0000066281   0.0000279405   0.0000155374
        0.0000031000  -0.0000124154   0.0000425079   0.0000104479   0.0000389321
        0.0001103000  -0.0000274358   0.0000178356  -0.0002341035   0.0004818002
       -0.0035145934   0.0013872493  -0.0027752592
        0.0620548448   0.1267186441  -0.2725495771   0.0167448277   0.0049032629
        0.6698789213  -0.0191596745  -0.0339657256  -0.0949713311  -0.0105780145
       -0.0210837000   0.0289350407  -0.0022294405  -0.0033369103  -0.0044439749
       -0.0003418503  -0.0003103255  -0.0003324499  -0.0001605604  -0.0000005041
        0.0000394620   0.0000277794   0.0000388544   0.0000358423  -0.0000388715
        0.0000761285  -0.0000293285   0.0000717835  -0.0000044508  -0.0001200301
        0.0000518031   0.0000553019  -0.0000293455  -0.0000217287  -0.0000410162
       -0.0000427437   0.0000317636   0.0000115987  -0.0000080283  -0.0000424091
       -0.0000078217   0.0000056881  -0.0000281582   0.0000496367   0.0000074711
        0.0003661573  -0.0002318386   0.0002346329  -0.0001255239  -0.0001196103
        0.0002711154  -0.0000629800  -0.0003586289   0.0001370120   0.0000237699
        0.0000066564   0.0000453693   0.0000125228  -0.0000175447  -0.0000109994
       -0.0000096430  -0.0000012796  -0.0000057290  -0.0000027821  -0.0000306824
       -0.0000083152   0.0000040934   0.0000523286   0.0000040391   0.0000086852
       -0.0000348421  -0.0000003988   0.0000347518   0.0000604382   0.0000573484
        0.0000186967   0.0000006472   0.0000034193   0.0000320174   0.0000119726
        0.0000205267  -0.0000050341   0.0000532573   0.0000025484  -0.0001117789
       -0.0000619362  -0.0001206963   0.0000406093   0.0000684091  -0.0000384453
        0.0000471777  -0.0004544217  -0.0005823183   0.0136609051   0.0270203270
       -0.0137813913  -0.0150283858  -0.0253838296  -0.0677102326   0.0008580910
        0.0017900039  -0.0012146457  -0.0567716745  -0.0965642235  -0.2386102295
        0.0121359828   0.0230380648  -0.0013218912  -0.0000129241   0.0000505458
        0.0000083608  -0.0000032713   0.0000328744  -0.0000063158   0.0000436271
       -0.0000020001   0.0000415965  -0.0000136287  -0.0000085567   0.0000030866
       -0.0000109876  -0.0000018760   0.0000057097  -0.0000072400   0.0000117929
       -0.0000008227  -0.0000015291   0.0000103752   0.0000005164   0.0000083874
        0.0000064358   0.0000015249   0.0000079393  -0.0000052818   0.0000003290
        0.0000202615   0.0000012830  -0.0000027973   0.0000342359  -0.0000007438
       -0.0000029883  -0.0000247060   0.0000024750   0.0000046850  -0.0002954841
       -0.0000633108  -0.0001223660   0.0002746953   0.0004723293   0.0005868553
       -0.0015271283  -0.0024525827  -0.0042637095
       -0.0059605180  -0.0154002690   0.0396316869  -0.1096929716  -0.1186870310
       -0.0191596745   0.2349868762   0.2271093296   0.0024185713  -0.0657324531
       -0.0359661098  -0.0288625057  -0.0070018769  -0.0173488839  -0.0131972463
       -0.0019532291   0.0020231627  -0.0018712363   0.0000037430  -0.0007416135
       -0.0001707263  -0.0001915284   0.0001447024   0.0001371732  -0.0000562958
        0.0000411732   0.0000183231   0.0000375332   0.0000529321   0.0002104513
        0.0001247212   0.0002056512   0.0000100757  -0.0000685210  -0.0000697105
        0.0000138149   0.0001117603  -0.0000950354  -0.0000065716   0.0000749352
        0.0001825290   0.0000013372  -0.0001489653  -0.0000484658  -0.0000260011
       -0.0007142228   0.0009914917   0.0000149823  -0.0005527737  -0.0012333795
        0.0002247711  -0.0001443010  -0.0007068429   0.0005936327   0.0001329409
       -0.0000509883   0.0000288051  -0.0000545718  -0.0000159253   0.0000099642
       -0.0000147292  -0.0000013500   0.0000001789   0.0000093830  -0.0000514723
        0.0000066712   0.0000824566   0.0000510458   0.0000054101  -0.0000630137
       -0.0000805476  -0.0000288596   0.0001046848   0.0000907437   0.0000403110
        0.0000338935  -0.0001033782  -0.0000197080   0.0000842252   0.0001333364
        0.0000264268  -0.0002739128  -0.0001418638  -0.0001013169   0.0002516361
        0.0004698320  -0.0003846783  -0.0001715595   0.0000430160   0.0000235193
        0.0014410582  -0.0007278148  -0.0002922126   0.0125774340   0.0222071097
       -0.0139198168  -0.0145207809  -0.0178555012  -0.0139608443   0.0059330702
       -0.0034974954   0.0011767028  -0.0035322679  -0.0084190142  -0.0013005348
       -0.0482955069  -0.0297009168   0.0482214077  -0.0000158019   0.0000236634
       -0.0000168809   0.0000359276   0.0000732948  -0.0000063278  -0.0000059036
        0.0000223669  -0.0000062827  -0.0000040037  -0.0000019923   0.0000001198
       -0.0000151921   0.0000014923   0.0000031046   0.0000083474   0.0000069394
        0.0000010377  -0.0000095117  -0.0000220594  -0.0000050005  -0.0000110668
       -0.0000144009  -0.0000012273  -0.0000143736   0.0000020645   0.0000025539
       -0.0000352277  -0.0000054776  -0.0000099967  -0.0000598168  -0.0000052774
        0.0000307087   0.0000163535  -0.0000005932  -0.0000020436  -0.0022271162
        0.0004733839  -0.0005187510   0.0056637907  -0.0033103226   0.0013198219
       -0.0001727571  -0.0000455285  -0.0003031196
       -0.0142277105  -0.0287779570   0.0748632480  -0.1201122731  -0.2714813673
       -0.0339657256   0.2271093296   0.5445369485  -0.0222589488  -0.0350829024
       -0.1096071789  -0.0445206783  -0.0175528436  -0.0300985535  -0.0244579018
       -0.0031035604   0.0018685750  -0.0017072211   0.0000362980   0.0000248830
        0.0001107566  -0.0000394030   0.0001715808   0.0000847851  -0.0000612199
       -0.0001712907  -0.0000178245  -0.0002187330   0.0004473019  -0.0004297432
       -0.0000702891  -0.0000266634  -0.0000235058   0.0000363443   0.0000449016
       -0.0000472988  -0.0000393410  -0.0000517499  -0.0000032791   0.0001032101
        0.0001133182   0.0000091719  -0.0000065383  -0.0001338551   0.0000282537
        0.0021353405  -0.0011665144   0.0000825408  -0.0008790328  -0.0017030681
        0.0008387425  -0.0005824241  -0.0013129156   0.0006631076   0.0002465593
       -0.0001671774   0.0002227008  -0.0001484284  -0.0000353675  -0.0000041704
        0.0000468151  -0.0000009882  -0.0000233642  -0.0000251031   0.0000498585
        0.0000016664   0.0000403470  -0.0000257016  -0.0000327379  -0.0000408942
       -0.0000040297  -0.0000046275   0.0001051692   0.0000469984   0.0001757945
        0.0000074010   0.0000420235   0.0000223623   0.0000436199  -0.0000218018
        0.0000087088   0.0000169770   0.0000992180   0.0000442937   0.0002150669
       -0.0003259678  -0.0002280169  -0.0002078054   0.0002158030  -0.0001252405
        0.0037509159  -0.0011957956  -0.0029183021   0.0211405689   0.0432778331
       -0.0236513612  -0.0182629803  -0.0382739813  -0.0268479976  -0.0035310005
        0.0010355401   0.0027813518  -0.0077827508  -0.0137638014  -0.0023285842
       -0.0297189845  -0.0949728803   0.1012492813  -0.0000359905   0.0000047650
        0.0000176702   0.0000078199  -0.0000124083   0.0000065319  -0.0000280436
        0.0000141592   0.0000270034   0.0000166934   0.0000016774   0.0000064749
        0.0000021107  -0.0000058647   0.0000066315   0.0000117669   0.0000275054
        0.0000034286  -0.0000194588  -0.0000335201  -0.0000000875  -0.0000281773
       -0.0000098642   0.0000056719  -0.0000406287   0.0000071860   0.0000011953
       -0.0000233948   0.0000059395  -0.0000055765  -0.0000053125   0.0000165397
       -0.0000154919   0.0000259783   0.0000163340   0.0000088438   0.0000725777
        0.0005568169  -0.0000716237  -0.0032933514   0.0009846069   0.0030198695
       -0.0000023337  -0.0002300498  -0.0006007774
        0.0125844807   0.0223833878   0.0278090434   0.0173714451   0.0357305339
       -0.0949713311   0.0024185713  -0.0222589488   0.6540907443  -0.0627384017
       -0.1075742373  -0.2627965844  -0.0053533931  -0.0117316546  -0.0002245325
       -0.0004620455   0.0016695134   0.0001348224  -0.0003516999  -0.0000009084
        0.0000105919   0.0000987516  -0.0000222933   0.0000117330  -0.0001648467
        0.0000723754   0.0000384373   0.0000183005   0.0000975239  -0.0000948281
        0.0002532317   0.0000936359   0.0000125950  -0.0000345521  -0.0001034458
       -0.0000080901   0.0000791601   0.0000068821   0.0000030390  -0.0001095196
       -0.0000789163   0.0000024925  -0.0000501827   0.0001706092   0.0000156073
        0.0015485139  -0.0011111577  -0.0003861093   0.0001081558  -0.0001043890
       -0.0001628821   0.0000245879   0.0002792784   0.0000509488  -0.0000384537
       -0.0000267269  -0.0000196908   0.0000636518  -0.0000214498  -0.0000016003
       -0.0000766660  -0.0000175148   0.0000022785   0.0000142533  -0.0000506440
       -0.0000004319  -0.0000568999   0.0000530503   0.0000060958   0.0000713510
       -0.0000203802  -0.0000062654  -0.0000525021   0.0000030173   0.0000051386
       -0.0000249059  -0.0000711338   0.0000022232   0.0000165983  -0.0000034329
        0.0000084842   0.0002365643   0.0000966205  -0.0000309802   0.0002141235
        0.0000547997  -0.0001371196   0.0002729367  -0.0002941354  -0.0000379056
        0.0005062842   0.0005344623   0.0001623989   0.0116269511   0.0248485332
       -0.0643271545  -0.0141919812  -0.0265030173  -0.0137590428   0.0012761263
        0.0028673475  -0.0040257987  -0.0124451696  -0.0232332748  -0.0018076148
        0.0481723540   0.1012991096  -0.2357867017  -0.0000315978   0.0000835060
       -0.0000031489  -0.0000195632   0.0000970492   0.0000082200   0.0000234595
        0.0000273546  -0.0000017826  -0.0000227181  -0.0000137628  -0.0000057358
       -0.0000072546   0.0000258776  -0.0000100572  -0.0000106692   0.0000284915
        0.0000059801   0.0000087924   0.0000182872   0.0000045801   0.0000166402
        0.0000126624   0.0000042617   0.0000145541  -0.0000040557   0.0000004849
        0.0000349162   0.0000174025  -0.0000021737   0.0000594581  -0.0000040166
        0.0000063542   0.0000139364  -0.0000013229  -0.0000097254  -0.0017098469
        0.0007177548  -0.0002493308   0.0011064345   0.0025094448  -0.0041303617
       -0.0003017151  -0.0005476918   0.0006004249
       -0.0041536735   0.0043092872  -0.0010350673  -0.0102147808  -0.0158897218
       -0.0105780145  -0.0657324531  -0.0350829024  -0.0627384017   0.2504027374
        0.1863777120   0.0090353324  -0.1033902981  -0.0683405107  -0.0000284393
        0.0116601138  -0.0028243742  -0.0000844849  -0.0003356400   0.0023426840
        0.0000277885   0.0001718312  -0.0011232710  -0.0000341744  -0.0002151034
        0.0002044772   0.0000151282  -0.0006532165   0.0000049879  -0.0000088603
        0.0005060286   0.0000041282   0.0000121056  -0.0000593728  -0.0000839423
       -0.0000075794   0.0000139159   0.0001085699   0.0000015205  -0.0002714408
       -0.0004350058   0.0000071334   0.0001121766   0.0004212423   0.0000052824
       -0.0032084666   0.0025203010   0.0000541607   0.0007444049   0.0090608166
        0.0000874537  -0.0053235691  -0.0022311302   0.0000520975   0.0001266025
       -0.0009620893   0.0000008784  -0.0002282439  -0.0002528727  -0.0000009458
        0.0000370468  -0.0001309535  -0.0000021245   0.0000444924  -0.0000364301
        0.0000004384  -0.0000154592   0.0001011272  -0.0000023788   0.0001105985
        0.0000804913   0.0000021669  -0.0002746035  -0.0001472979   0.0000024719
        0.0000957254  -0.0000967040   0.0000013116  -0.0000418596   0.0000876863
       -0.0000022386  -0.0004931023  -0.0000673532   0.0000120720  -0.0023074192
        0.0003756627   0.0000265148   0.0007270446   0.0003815071  -0.0000045639
       -0.0123160431  -0.0246765593  -0.0001434368  -0.0628298495  -0.0343384634
        0.0549293956  -0.0084973005  -0.0135459474   0.0116205705   0.0007532065
        0.0001884259  -0.0000264125   0.0053822024  -0.0053160115  -0.0000199645
        0.0027296352   0.0015411805   0.0054079431   0.0000675332  -0.0000487953
        0.0000003196  -0.0001232229   0.0000842266   0.0000045691   0.0000071233
       -0.0000065800   0.0000033136  -0.0000319596  -0.0000206346   0.0000007283
        0.0000203601   0.0000333640  -0.0000039396  -0.0000700316  -0.0000303528
        0.0000007868  -0.0000082074   0.0000182889   0.0000004774   0.0000197533
        0.0000226733   0.0000000530   0.0000336835   0.0000022412  -0.0000005522
        0.0000648151   0.0000074884  -0.0000003469   0.0000173353   0.0000003508
       -0.0000032287   0.0000920939  -0.0000426770  -0.0000000676  -0.0012258011
        0.0007998796   0.0000588680   0.0027010445   0.0019907393  -0.0064253166
        0.0053796128  -0.0053389590  -0.0002203431
        0.0043343073   0.0019316356   0.0005822274  -0.0147532792  -0.0285245723
       -0.0210837000  -0.0359661098  -0.1096071789  -0.1075742373   0.1863777120
        0.5094473132  -0.0045884099  -0.0725748584  -0.2008086395  -0.0000092841
       -0.0029391263  -0.0305732951   0.0000258894  -0.0008586059   0.0024141789
        0.0000220493   0.0002542304  -0.0014718477  -0.0000313252   0.0000281739
        0.0004131244   0.0000202780   0.0001233395  -0.0011068626  -0.0000742027
       -0.0001112153  -0.0003528820   0.0000238011   0.0000166140   0.0000844998
       -0.0000232820  -0.0001249760   0.0003136540   0.0000068641  -0.0003898615
       -0.0007770869   0.0000141802   0.0004231641   0.0004203175   0.0000114976
       -0.0010551349   0.0013039946   0.0000477215  -0.0013208160  -0.0021081574
       -0.0000433990   0.0026437458  -0.0004299183  -0.0000287869  -0.0005127518
        0.0001428988   0.0000123098   0.0003247390  -0.0001222573  -0.0000013949
       -0.0001319464  -0.0000673795   0.0000023230   0.0000519637  -0.0001112878
        0.0000034279  -0.0001599684   0.0001318647  -0.0000047615   0.0002390518
       -0.0000409246   0.0000028152  -0.0003115931  -0.0003859226  -0.0000000259
        0.0000854486  -0.0001760837   0.0000073422   0.0000360792   0.0001690481
       -0.0000006883  -0.0002398257  -0.0000602680   0.0000002157   0.0013089228
        0.0004700730   0.0000019788   0.0009892491   0.0005538592  -0.0000008778
       -0.0136838074  -0.0055623916  -0.0000708517  -0.0327223156  -0.1123658520
        0.1116281271  -0.0147960908  -0.0302846805   0.0205128468   0.0001780268
        0.0009459599   0.0000135844  -0.0053863105  -0.0019346358   0.0002437894
        0.0021403263   0.0050974974   0.0115808048   0.0000406512  -0.0000357195
        0.0000056466  -0.0002169428  -0.0000350893  -0.0000090059  -0.0000028809
        0.0000424661   0.0000078114  -0.0000811332  -0.0000471394   0.0000003485
        0.0000109207   0.0000666930  -0.0000057293  -0.0000447448   0.0000452554
        0.0000031044   0.0000534127   0.0000761186   0.0000016868   0.0000453807
        0.0000370695   0.0000002885   0.0000856800   0.0000038952  -0.0000016930
        0.0001218470  -0.0000079512  -0.0000028617   0.0000496092  -0.0000299913
       -0.0000032110   0.0001577758  -0.0001507825  -0.0000044900   0.0020106025
       -0.0001356866  -0.0000528840   0.0016237583   0.0051328061  -0.0110527127
       -0.0053704373  -0.0019297392  -0.0001151453
       -0.0010974843   0.0005720614  -0.0677980224  -0.0388044197  -0.0750888114
        0.0289350407  -0.0288625057  -0.0445206783  -0.2627965844   0.0090353324
       -0.0045884099   0.6344638450   0.0000281369   0.0000628435  -0.0455503097
       -0.0001036913  -0.0001168823  -0.0050200283  -0.0000085625   0.0000020462
       -0.0004514508  -0.0000012112  -0.0000086306   0.0002452161   0.0000112518
        0.0000117473  -0.0000204065  -0.0000208350  -0.0000193298   0.0001342517
        0.0000207216   0.0000149633  -0.0000170176  -0.0000143172  -0.0000202381
       -0.0000349098   0.0000119659  -0.0000091904  -0.0000020755  -0.0000142399
       -0.0000003087   0.0000074153   0.0000044856   0.0000150482  -0.0000092531
       -0.0000680342   0.0000406941   0.0005625194   0.0000053732  -0.0001146392
        0.0037232505   0.0000435131  -0.0000380814   0.0041207554  -0.0000024760
       -0.0000049333   0.0008305723   0.0000042441   0.0000025902  -0.0000164132
       -0.0000054335   0.0000017748  -0.0001078155   0.0000019590  -0.0000040937
       -0.0000020876   0.0000002623   0.0000038564  -0.0000746089   0.0000006015
       -0.0000054047  -0.0000872542   0.0000029258   0.0000037383   0.0002812327
       -0.0000004844  -0.0000035307   0.0000334521   0.0000009415   0.0000019859
        0.0000146859   0.0000048844  -0.0000027091   0.0001389778   0.0000340797
        0.0000163244  -0.0003717248  -0.0000061776  -0.0000017528  -0.0007345039
       -0.0000726304   0.0001105343  -0.0059153226   0.0212595401   0.0484670532
       -0.2628365721   0.0398728049   0.0745794197   0.0289042816  -0.0000259089
        0.0000139287  -0.0008594004   0.0001517765   0.0005898699   0.0014244698
       -0.0056815255  -0.0094156946  -0.0269368776   0.0000007191  -0.0000003649
        0.0000484300  -0.0000012955  -0.0000023037  -0.0000411392  -0.0000012425
        0.0000007887   0.0000068160   0.0000002633   0.0000007010   0.0000130777
        0.0000012886  -0.0000002702   0.0000217253   0.0000006747   0.0000001988
        0.0000212404   0.0000004710   0.0000004595  -0.0000078098   0.0000005626
        0.0000000349   0.0000221238   0.0000007365   0.0000000606   0.0000098728
        0.0000003576  -0.0000002340   0.0000188682   0.0000002523  -0.0000003905
       -0.0000292138   0.0000006662  -0.0000018036   0.0000457131  -0.0000019442
       -0.0000132125   0.0012229417   0.0046737273   0.0099363864  -0.0269545111
       -0.0003800999  -0.0004672113   0.0014245376
       -0.0001672575   0.0000300305  -0.0000317778   0.0064969268  -0.0033926584