 Entering Gaussian System
 *********************************************
 Gaussian 98:
 frequency output generated by the xtb code
 *********************************************
                         Standard orientation:
 --------------------------------------------------------------------
  Center     Atomic     Atomic              Coordinates (Angstroms)
  Number     Number      Type              X           Y           Z
 --------------------------------------------------------------------
    1          6             0        5.064406   -4.597585    0.266660
    2          6             0        4.768521   -3.147200    0.693025
    3          6             0        5.995116   -2.530376    1.391024
    4          6             0        4.457983   -2.335544   -0.547901
    5          6             0        5.398747   -2.257940   -1.567742
    6          6             0        5.152147   -1.579912   -2.746043
    7          6             0        3.918995   -0.984684   -2.938597
    8          6             0        2.970902   -1.042204   -1.938813
    9          6             0        3.240671   -1.676464   -0.724497
   10          7             0        2.260676   -1.699294    0.272933
   11          6             0        1.134190   -0.883749    0.123353
   12          6             0       -0.145738   -1.428396    0.020164
   13          9             0       -0.278938   -2.769358    0.032483
   14          6             0       -1.293424   -0.644597   -0.093614
   15          7             0       -2.559863   -1.225270   -0.223229
   16          6             0       -2.886340   -1.924111   -1.391244
   17          6             0       -1.929934   -2.101178   -2.392725
   18          6             0       -2.226119   -2.792920   -3.549092
   19          6             0       -3.495825   -3.307822   -3.732750
   20          6             0       -4.456811   -3.092980   -2.763459
   21          6             0       -4.184821   -2.400452   -1.589650
   22          6             0       -5.309481   -2.150250   -0.604070
   23          6             0       -5.885681   -3.505153   -0.151034
   24          6             0       -6.393799   -1.311378   -1.306099
   25          6             0       -4.832245   -1.397857    0.621206
   26          6             0       -5.729394   -1.117064    1.644547
   27          6             0       -5.341641   -0.482533    2.809097
   28          6             0       -4.012241   -0.145457    2.985553
   29          6             0       -3.103713   -0.408297    1.981979
   30          6             0       -3.506026   -0.993787    0.779924
   31          6             0       -1.139455    0.756593   -0.102494
   32          6             0       -2.272064    1.583910   -0.261948
   33          7             0       -3.181075    2.263363   -0.425198
   34          6             0        0.129667    1.342455   -0.009573
   35          7             0        0.272593    2.740463   -0.028522
   36          6             0        0.812866    3.349432   -1.162696
   37          6             0        1.089512    2.580468   -2.294206
   38          6             0        1.640778    3.148496   -3.423926
   39          6             0        1.911201    4.503976   -3.445153
   40          6             0        1.593388    5.274048   -2.342356
   41          6             0        1.033563    4.727529   -1.194439
   42          6             0        0.657519    5.637890   -0.042172
   43          6             0       -0.369802    6.667246   -0.549119
   44          6             0        1.928568    6.346535    0.462289
   45          6             0        0.047984    4.868516    1.113361
   46          6             0       -0.353346    5.554546    2.252700
   47          6             0       -0.867160    4.906545    3.360075
   48          6             0       -0.961578    3.527468    3.352590
   49          6             0       -0.572620    2.822755    2.232288
   50          6             0       -0.097399    3.479904    1.096487
   51          6             0        1.258392    0.519914    0.101984
   52          6             0        2.531240    1.111764    0.251280
   53          7             0        3.555375    1.602605    0.408744
   54          6             0        2.434706   -2.429510    1.454492
   55          6             0        1.457037   -2.394449    2.450445
   56          6             0        1.601830   -3.112705    3.619413
   57          6             0        2.741676   -3.868168    3.821981
   58          6             0        3.732039   -3.865096    2.858497
   59          6             0        3.611073   -3.151158    1.672272
   60          1             0        4.187584   -5.028253   -0.214032
   61          1             0        5.319882   -5.208911    1.126830
   62          1             0        5.893071   -4.634692   -0.433877
   63          1             0        5.783891   -1.499164    1.669539
   64          1             0        6.856713   -2.536885    0.729875
   65          1             0        6.249043   -3.084660    2.289778
   66          1             0        6.354502   -2.741501   -1.441443
   67          1             0        5.908487   -1.532467   -3.513981
   68          1             0        3.687933   -0.481872   -3.865115
   69          1             0        2.003112   -0.595110   -2.112237
   70          1             0       -0.938629   -1.688389   -2.280574
   71          1             0       -1.463230   -2.920456   -4.302257
   72          1             0       -3.741202   -3.855424   -4.629484
   73          1             0       -5.451836   -3.473478   -2.931945
   74          1             0       -5.108682   -4.094979    0.332419
   75          1             0       -6.265646   -4.066727   -0.999097
   76          1             0       -6.698911   -3.364262    0.554436
   77          1             0       -5.979820   -0.351770   -1.611795
   78          1             0       -6.767892   -1.821861   -2.188678
   79          1             0       -7.228974   -1.126421   -0.636984
   80          1             0       -6.763822   -1.400815    1.531852
   81          1             0       -6.066415   -0.271558    3.579953
   82          1             0       -3.676918    0.315378    3.902023
   83          1             0       -2.063846   -0.164021    2.142910
   84          1             0        0.860223    1.524979   -2.298131
   85          1             0        1.848406    2.531624   -4.284998
   86          1             0        2.350133    4.961008   -4.318400
   87          1             0        1.786051    6.334590   -2.381792
   88          1             0       -1.268193    6.155409   -0.890489
   89          1             0       -0.647318    7.357101    0.242205
   90          1             0        0.034235    7.242733   -1.376630
   91          1             0        2.384292    6.931472   -0.331151
   92          1             0        1.698456    7.012436    1.288692
   93          1             0        2.652013    5.608148    0.804578
   94          1             0       -0.259419    6.628660    2.282173
   95          1             0       -1.173820    5.471992    4.226308
   96          1             0       -1.329128    2.995494    4.216849
   97          1             0       -0.629149    1.744549    2.248480
   98          1             0        0.570046   -1.791963    2.324525
   99          1             0        0.824787   -3.072199    4.367786
  100          1             0        2.867099   -4.439281    4.728770
  101          1             0        4.630369   -4.433078    3.042039
 --------------------------------------------------------------------
     1 basis functions        1 primitive gaussians
     1 alpha electrons        1 beta electrons
 
 Harmonic frequencies (cm**-1), IR intensities (km*mol⁻¹),
 Raman scattering activities (A**4/amu), Raman depolarization ratios,
 reduced masses (AMU), force constants (mDyne/A) and normal coordinates:
                      1                      2                      3
                        a                      a                      a 
 Frequencies --    12.2502                13.7015                16.2996
 Red. masses --    10.7388                10.7417                10.5027
 Frc consts  --     0.0000                 0.0000                 0.0000
 IR Inten    --     0.7480                 1.0137                 0.1019
 Raman Activ --     0.0000                 0.0000                 0.0000
 Depolar     --     0.0000                 0.0000                 0.0000
 Atom AN      X      Y      Z        X      Y      Z        X      Y      Z
   1   6     0.05   0.01  -0.00     0.07   0.08   0.01     0.24   0.20   0.12
   2   6     0.00  -0.02   0.06     0.00   0.06   0.03     0.10   0.19   0.07
   3   6    -0.04  -0.04   0.15    -0.05   0.08   0.10     0.03   0.32   0.06
   4   6     0.05   0.04   0.08     0.03   0.08   0.04     0.05   0.11   0.03
   5   6     0.10   0.10   0.13     0.06   0.13   0.08     0.05   0.17   0.04
   6   6     0.14   0.14   0.15     0.08   0.15   0.08     0.01   0.11   0.02
   7   6     0.13   0.12   0.11     0.07   0.10   0.04    -0.04   0.00  -0.01
   8   6     0.09   0.06   0.07     0.03   0.05   0.01    -0.05  -0.06  -0.03
   9   6     0.05   0.03   0.06     0.01   0.05   0.01    -0.01  -0.00  -0.01
  10   7     0.01  -0.02   0.02    -0.02   0.01  -0.03    -0.03  -0.07  -0.03
  11   6     0.02  -0.01   0.01    -0.02   0.00  -0.03    -0.03  -0.07  -0.03
  12   6     0.01   0.00  -0.01    -0.02   0.01  -0.04    -0.04  -0.06  -0.03
  13   9     0.00   0.00  -0.04    -0.03   0.01  -0.09    -0.06  -0.07  -0.05
  14   6     0.02   0.01  -0.01    -0.02   0.01  -0.02    -0.03  -0.05  -0.03
  15   7     0.02   0.02  -0.01    -0.03   0.01  -0.00    -0.04  -0.04  -0.02
  16   6     0.00   0.02  -0.00    -0.06   0.04  -0.01    -0.06  -0.03  -0.02
  17   6    -0.01   0.02  -0.01    -0.09   0.09  -0.05    -0.07  -0.07  -0.02
  18   6    -0.02   0.02  -0.01    -0.12   0.12  -0.06    -0.09  -0.06  -0.01
  19   6    -0.02   0.02   0.01    -0.11   0.09  -0.03    -0.11  -0.01  -0.02
  20   6    -0.01   0.02   0.01    -0.08   0.04   0.02    -0.11   0.04  -0.03
  21   6     0.00   0.02   0.01    -0.05   0.01   0.03    -0.08   0.03  -0.03
  22   6     0.01   0.02   0.02    -0.01  -0.06   0.09    -0.08   0.09  -0.04
  23   6     0.02   0.02   0.03     0.05  -0.09   0.07    -0.15   0.12  -0.04
  24   6     0.00   0.02   0.03    -0.07  -0.07   0.17    -0.03   0.14  -0.05
  25   6     0.02   0.03   0.01     0.02  -0.08   0.09    -0.05   0.06  -0.03
  26   6     0.03   0.04   0.01     0.06  -0.14   0.14    -0.05   0.10  -0.04
  27   6     0.03   0.05   0.01     0.09  -0.17   0.15    -0.02   0.08  -0.03
  28   6     0.03   0.06  -0.01     0.09  -0.14   0.10    -0.01   0.01  -0.02
  29   6     0.03   0.05  -0.01     0.05  -0.08   0.05    -0.02  -0.03  -0.02
  30   6     0.02   0.03  -0.00     0.02  -0.05   0.05    -0.04  -0.00  -0.02
  31   6     0.03   0.01  -0.01    -0.02   0.01  -0.02    -0.02  -0.05  -0.02
  32   6     0.04   0.02  -0.01    -0.03   0.00  -0.01    -0.02  -0.04  -0.00
  33   7     0.05   0.03  -0.00    -0.04  -0.01  -0.00    -0.01  -0.03   0.01
  34   6     0.03  -0.01  -0.00    -0.02   0.01  -0.03    -0.02  -0.06  -0.02
  35   7     0.04  -0.00  -0.01    -0.01   0.01  -0.04    -0.01  -0.07  -0.01
  36   6    -0.05   0.00  -0.05     0.05  -0.02  -0.02    -0.01  -0.06  -0.01
  37   6    -0.06  -0.01  -0.04     0.05  -0.03  -0.01    -0.04  -0.05  -0.02
  38   6    -0.16   0.00  -0.08     0.13  -0.05   0.01    -0.04  -0.05  -0.02
  39   6    -0.24   0.02  -0.13     0.20  -0.07   0.02    -0.02  -0.05  -0.01
  40   6    -0.21   0.02  -0.12     0.19  -0.05   0.01     0.01  -0.06   0.01
  41   6    -0.12   0.01  -0.08     0.11  -0.03  -0.01     0.02  -0.06   0.01
  42   6    -0.09   0.01  -0.07     0.10  -0.01  -0.03     0.06  -0.07   0.03
  43   6    -0.17  -0.05  -0.02     0.17   0.04  -0.09     0.07  -0.05   0.07
  44   6    -0.09   0.08  -0.16     0.10  -0.06   0.03     0.09  -0.10   0.01
  45   6     0.02  -0.00  -0.02     0.01   0.02  -0.06     0.07  -0.08   0.03
  46   6     0.07  -0.01   0.00    -0.03   0.05  -0.09     0.11  -0.08   0.05
  47   6     0.16  -0.02   0.04    -0.10   0.07  -0.11     0.12  -0.09   0.05
  48   6     0.20  -0.02   0.05    -0.14   0.07  -0.10     0.09  -0.09   0.03
  49   6     0.16  -0.02   0.03    -0.11   0.05  -0.07     0.04  -0.08   0.01
  50   6     0.08  -0.01   0.00    -0.04   0.03  -0.06     0.03  -0.07   0.01
  51   6     0.03  -0.01   0.01    -0.02   0.01  -0.03    -0.03  -0.07  -0.03
  52   6     0.02  -0.01   0.03    -0.02   0.01  -0.01    -0.03  -0.07  -0.03
  53   7     0.02   0.00   0.05    -0.03   0.01   0.01    -0.03  -0.07  -0.04
  54   6    -0.04  -0.08  -0.01    -0.05  -0.02  -0.04     0.01  -0.02  -0.00
  55   6    -0.08  -0.14  -0.05    -0.09  -0.08  -0.07    -0.02  -0.10  -0.03
  56   6    -0.13  -0.22  -0.09    -0.12  -0.12  -0.09     0.03  -0.04  -0.00
  57   6    -0.15  -0.23  -0.09    -0.11  -0.10  -0.07     0.11   0.10   0.06
  58   6    -0.10  -0.17  -0.04    -0.07  -0.04  -0.03     0.13   0.17   0.08
  59   6    -0.05  -0.09  -0.00    -0.04  -0.00  -0.01     0.08   0.11   0.05
  60   1     0.02   0.00  -0.02     0.03   0.02  -0.01     0.08   0.03   0.04
  61   1     0.01  -0.01  -0.01     0.02   0.02   0.00     0.08   0.07   0.04
  62   1     0.02   0.02   0.01     0.03   0.04   0.01     0.07   0.07   0.04
  63   1    -0.02  -0.01   0.05    -0.03   0.02   0.03    -0.02   0.09   0.01
  64   1    -0.00   0.00   0.06    -0.01   0.04   0.04     0.01   0.11   0.02
  65   1    -0.03  -0.02   0.04    -0.02   0.02   0.03     0.02   0.11   0.02
  66   1     0.03   0.03   0.05     0.02   0.05   0.03     0.03   0.07   0.02
  67   1     0.05   0.05   0.05     0.03   0.05   0.03     0.01   0.05   0.01
  68   1     0.05   0.04   0.03     0.02   0.03   0.01    -0.02  -0.01  -0.01
  69   1     0.03   0.01   0.01     0.01   0.01  -0.01    -0.02  -0.04  -0.02
  70   1    -0.00   0.01  -0.01    -0.03   0.03  -0.02    -0.01  -0.03  -0.00
  71   1    -0.01   0.01  -0.00    -0.04   0.05  -0.03    -0.03  -0.03  -0.00
  72   1    -0.01   0.00   0.00    -0.04   0.03  -0.01    -0.04   0.00  -0.01
  73   1    -0.00   0.00   0.01    -0.02   0.00   0.01    -0.04   0.02  -0.01
  74   1     0.01   0.01   0.01     0.03  -0.02   0.01    -0.05   0.02  -0.01
  75   1     0.00   0.01   0.01     0.01  -0.02   0.02    -0.05   0.04  -0.01
  76   1     0.01   0.01   0.01     0.02  -0.04   0.03    -0.04   0.05  -0.01
  77   1    -0.00   0.00   0.00    -0.03  -0.01   0.05     0.01   0.03  -0.01
  78   1    -0.00   0.00   0.01    -0.03  -0.02   0.05    -0.01   0.05  -0.01
  79   1     0.00   0.01   0.01    -0.01  -0.03   0.06    -0.01   0.05  -0.02
  80   1     0.01   0.01   0.01     0.02  -0.05   0.05    -0.02   0.04  -0.01
  81   1     0.01   0.02   0.00     0.03  -0.06   0.05    -0.01   0.03  -0.01
  82   1     0.01   0.02  -0.00     0.03  -0.05   0.03     0.00  -0.00  -0.01
  83   1     0.01   0.01  -0.01     0.02  -0.01   0.00    -0.00  -0.02  -0.00
  84   1     0.00  -0.01  -0.00    -0.00  -0.00  -0.01    -0.02  -0.01  -0.01
  85   1    -0.05  -0.00  -0.02     0.04  -0.02   0.00    -0.02  -0.01  -0.01
  86   1    -0.09   0.01  -0.05     0.07  -0.03   0.01    -0.01  -0.01  -0.00
  87   1    -0.08   0.01  -0.04     0.07  -0.02   0.01     0.01  -0.02   0.01
  88   1    -0.05  -0.03   0.01     0.05   0.02  -0.04     0.02  -0.01   0.02
  89   1    -0.05  -0.02  -0.00     0.05   0.02  -0.03     0.03  -0.01   0.02
  90   1    -0.07  -0.01  -0.01     0.07   0.00  -0.02     0.02  -0.01   0.02
  91   1    -0.05   0.02  -0.06     0.05  -0.02   0.01     0.02  -0.03   0.00
  92   1    -0.02   0.02  -0.05     0.03  -0.01   0.00     0.03  -0.03   0.01
  93   1    -0.01   0.03  -0.06     0.02  -0.03   0.02     0.02  -0.03  -0.00
  94   1     0.01  -0.00  -0.00     0.00   0.01  -0.03     0.04  -0.03   0.02
  95   1     0.06  -0.01   0.02    -0.04   0.03  -0.04     0.05  -0.03   0.02
  96   1     0.08  -0.01   0.02    -0.06   0.03  -0.03     0.03  -0.03   0.01
  97   1     0.06  -0.01   0.01    -0.04   0.02  -0.02     0.00  -0.02  -0.00
  98   1    -0.02  -0.04  -0.01    -0.03  -0.03  -0.02    -0.03  -0.06  -0.02
  99   1    -0.05  -0.08  -0.04    -0.04  -0.05  -0.04     0.00  -0.03  -0.01
 100   1    -0.06  -0.09  -0.04    -0.04  -0.04  -0.03     0.05   0.04   0.02
 101   1    -0.03  -0.05  -0.01    -0.02  -0.01  -0.01     0.06   0.08   0.03
                      4                      5                      6
                        a                      a                      a 
 Frequencies --    19.7570                21.4151                27.6674
 Red. masses --    10.5524                10.8518                10.9801
 Frc consts  --     0.0000                 0.0000                 0.0000
 IR Inten    --     0.5808                 0.0406                 0.3428
 Raman Activ --     0.0000                 0.0000                 0.0000
 Depolar     --     0.0000                 0.0000                 0.0000
 Atom AN      X      Y      Z        X      Y      Z        X      Y      Z
   1   6    -0.06   0.03  -0.03    -0.06  -0.04   0.18     0.01   0.00  -0.05
   2   6    -0.05   0.03  -0.01    -0.03  -0.01   0.09     0.02  -0.00  -0.02
   3   6    -0.04   0.01  -0.00    -0.02   0.00   0.05     0.04  -0.01  -0.05
   4   6    -0.04   0.04  -0.00    -0.01  -0.07   0.04    -0.02   0.01  -0.00
   5   6    -0.04   0.05   0.00    -0.01  -0.14   0.04    -0.05   0.02  -0.03
   6   6    -0.04   0.07   0.01     0.02  -0.18   0.02    -0.08   0.03  -0.02
   7   6    -0.04   0.07   0.01     0.04  -0.15  -0.01    -0.09   0.03   0.02
   8   6    -0.04   0.06   0.01     0.03  -0.09  -0.02    -0.06   0.02   0.05
   9   6    -0.04   0.05   0.00     0.00  -0.06   0.00    -0.02   0.01   0.04
  10   7    -0.05   0.05   0.00    -0.02  -0.01  -0.01     0.01   0.00   0.08
  11   6    -0.04   0.04   0.00    -0.00  -0.00  -0.05    -0.00  -0.00   0.10
  12   6    -0.04   0.03   0.00    -0.00   0.01  -0.07     0.00  -0.01   0.11
  13   9    -0.05   0.04   0.02    -0.01   0.01  -0.10     0.01  -0.01   0.12
  14   6    -0.04   0.03  -0.01     0.00   0.01  -0.06    -0.00  -0.02   0.10
  15   7    -0.04   0.02  -0.02    -0.00   0.02  -0.06     0.01  -0.02   0.05
  16   6     0.01  -0.04  -0.00    -0.03   0.07  -0.08     0.03   0.06  -0.01
  17   6     0.02  -0.00   0.00    -0.05   0.14  -0.11     0.06   0.11   0.01
  18   6     0.06  -0.05   0.02    -0.07   0.19  -0.14     0.09   0.19  -0.04
  19   6     0.10  -0.14   0.03    -0.07   0.17  -0.12     0.08   0.23  -0.12
  20   6     0.08  -0.17   0.03    -0.04   0.10  -0.08     0.05   0.18  -0.13
  21   6     0.04  -0.12   0.01    -0.02   0.04  -0.05     0.03   0.10  -0.08
  22   6     0.02  -0.16  -0.00     0.01  -0.05   0.01     0.01   0.04  -0.09
  23   6     0.11  -0.19   0.05     0.09  -0.09  -0.04    -0.01   0.01  -0.19
  24   6    -0.04  -0.26  -0.03    -0.05  -0.05   0.09     0.03   0.09  -0.06
  25   6    -0.03  -0.08  -0.03     0.04  -0.09   0.02    -0.02  -0.04  -0.03
  26   6    -0.06  -0.10  -0.05     0.07  -0.16   0.07    -0.05  -0.10  -0.04
  27   6    -0.10  -0.03  -0.07     0.09  -0.20   0.08    -0.07  -0.16   0.01
  28   6    -0.13   0.06  -0.07     0.08  -0.15   0.04    -0.08  -0.16   0.05
  29   6    -0.10   0.07  -0.05     0.05  -0.07  -0.01    -0.05  -0.11   0.06
  30   6    -0.06   0.00  -0.03     0.03  -0.05  -0.01    -0.02  -0.06   0.03
  31   6    -0.05   0.03  -0.02     0.01   0.01  -0.05    -0.01  -0.01   0.10
  32   6    -0.05   0.03  -0.04     0.01   0.02  -0.02    -0.02  -0.02   0.10
  33   7    -0.06   0.02  -0.05     0.01   0.02   0.01    -0.02  -0.03   0.12
  34   6    -0.05   0.03  -0.01     0.01   0.00  -0.05    -0.01  -0.01   0.09
  35   7    -0.05   0.04  -0.01     0.02   0.00  -0.03    -0.01  -0.01   0.04
  36   6    -0.04   0.02  -0.01    -0.01   0.03  -0.03    -0.05  -0.06  -0.00
  37   6    -0.12   0.02  -0.04    -0.02   0.04  -0.04    -0.11  -0.11   0.01
  38   6    -0.12   0.01  -0.05    -0.06   0.07  -0.05    -0.15  -0.16  -0.03
  39   6    -0.04  -0.01  -0.03    -0.10   0.08  -0.04    -0.12  -0.16  -0.09
  40   6     0.05  -0.01  -0.00    -0.09   0.06  -0.03    -0.06  -0.12  -0.10
  41   6     0.06   0.01   0.01    -0.04   0.03  -0.02    -0.02  -0.07  -0.06
  42   6     0.17   0.01   0.04    -0.02   0.01   0.01     0.04  -0.02  -0.08
  43   6     0.22   0.09   0.11    -0.06  -0.01   0.07     0.07   0.01  -0.08
  44   6     0.24  -0.09   0.00    -0.01   0.03  -0.03     0.08  -0.05  -0.13
  45   6     0.16   0.02   0.05     0.04  -0.02   0.02     0.04   0.04  -0.04
  46   6     0.26   0.02   0.09     0.08  -0.05   0.06     0.06   0.09  -0.06
  47   6     0.25   0.03   0.09     0.14  -0.07   0.06     0.04   0.14  -0.04
  48   6     0.14   0.04   0.05     0.14  -0.07   0.04    -0.01   0.15   0.01
  49   6     0.04   0.04   0.02     0.10  -0.05   0.01    -0.03   0.09   0.03
  50   6     0.06   0.03   0.02     0.05  -0.02   0.00    -0.00   0.04   0.01
  51   6    -0.05   0.04   0.00     0.01  -0.00  -0.05    -0.01  -0.00   0.10
  52   6    -0.05   0.04   0.00     0.01  -0.01  -0.05    -0.01   0.00   0.08
  53   7    -0.05   0.04   0.00     0.02  -0.02  -0.06    -0.01   0.01   0.07
  54   6    -0.04   0.03  -0.00    -0.03   0.06   0.03     0.04  -0.02   0.05
  55   6    -0.04   0.03   0.00    -0.04   0.11   0.02     0.07  -0.03   0.08
  56   6    -0.04   0.02  -0.01    -0.05   0.20   0.07     0.10  -0.05   0.06
  57   6    -0.05   0.01  -0.02    -0.04   0.23   0.14     0.11  -0.05   0.02
  58   6    -0.05   0.01  -0.02    -0.04   0.15   0.14     0.08  -0.03  -0.01
  59   6    -0.05   0.02  -0.01    -0.03   0.07   0.09     0.05  -0.02   0.01
  60   1    -0.02   0.01  -0.01    -0.02  -0.01   0.06     0.00   0.00  -0.01
  61   1    -0.02   0.01  -0.01    -0.02   0.00   0.06     0.01  -0.00  -0.02
  62   1    -0.02   0.01  -0.01    -0.02  -0.03   0.05    -0.00   0.00  -0.02
  63   1    -0.01   0.00   0.00    -0.00   0.01   0.00     0.01  -0.00  -0.01
  64   1    -0.01   0.00  -0.00    -0.01  -0.01   0.01     0.01   0.00  -0.02
  65   1    -0.01   0.00  -0.00    -0.01   0.01   0.02     0.02  -0.01  -0.02
  66   1    -0.01   0.01  -0.00    -0.01  -0.05   0.02    -0.01   0.01  -0.02
  67   1    -0.01   0.02   0.00     0.01  -0.07   0.01    -0.03   0.01  -0.01
  68   1    -0.01   0.02   0.01     0.02  -0.05  -0.01    -0.03   0.01   0.01
  69   1    -0.01   0.02   0.00     0.01  -0.02  -0.01    -0.02   0.01   0.02
  70   1    -0.00   0.02  -0.00    -0.02   0.04  -0.03     0.02   0.02   0.02
  71   1     0.02  -0.01   0.01    -0.03   0.07  -0.05     0.03   0.07  -0.01
  72   1     0.04  -0.05   0.01    -0.02   0.06  -0.04     0.03   0.08  -0.05
  73   1     0.03  -0.07   0.01    -0.01   0.02  -0.02     0.02   0.06  -0.05
  74   1     0.04  -0.03   0.02     0.04  -0.02  -0.03    -0.01  -0.01  -0.07
  75   1     0.04  -0.07   0.02     0.02  -0.02  -0.01    -0.00   0.02  -0.07
  76   1     0.03  -0.06   0.01     0.03  -0.05  -0.00    -0.01  -0.01  -0.06
  77   1    -0.03  -0.07  -0.02    -0.03  -0.01   0.04     0.01   0.03   0.01
  78   1     0.00  -0.09  -0.00    -0.02  -0.01   0.02     0.01   0.04  -0.03
  79   1    -0.01  -0.09  -0.01    -0.01  -0.03   0.04     0.00   0.01  -0.02
  80   1    -0.01  -0.05  -0.01     0.02  -0.06   0.03    -0.01  -0.03  -0.02
  81   1    -0.04  -0.01  -0.02     0.03  -0.08   0.03    -0.03  -0.06  -0.00
  82   1    -0.05   0.04  -0.03     0.03  -0.05   0.01    -0.03  -0.06   0.02
  83   1    -0.03   0.04  -0.02     0.01  -0.01  -0.01    -0.02  -0.03   0.03
  84   1    -0.05   0.01  -0.01     0.00   0.01  -0.01    -0.04  -0.03   0.02
  85   1    -0.06   0.00  -0.02    -0.02   0.02  -0.02    -0.06  -0.06  -0.01
  86   1    -0.01  -0.01  -0.01    -0.04   0.03  -0.02    -0.04  -0.06  -0.04
  87   1     0.04  -0.01   0.00    -0.03   0.02  -0.01    -0.01  -0.04  -0.04
  88   1     0.05   0.05   0.04    -0.02  -0.01   0.03     0.01   0.01  -0.01
  89   1     0.09   0.03   0.04    -0.01  -0.01   0.03     0.03   0.01  -0.03
  90   1     0.06   0.02   0.03    -0.03   0.00   0.02     0.02  -0.01  -0.03
  91   1     0.07  -0.03  -0.00    -0.02   0.01  -0.01     0.02  -0.03  -0.05
  92   1     0.09  -0.02   0.01     0.00   0.01  -0.01     0.04  -0.01  -0.04
  93   1     0.06  -0.04  -0.01     0.00   0.01  -0.02     0.02  -0.02  -0.04
  94   1     0.10   0.00   0.03     0.02  -0.01   0.02     0.03   0.03  -0.03
  95   1     0.10   0.01   0.03     0.05  -0.03   0.03     0.02   0.05  -0.02
  96   1     0.04   0.01   0.02     0.05  -0.03   0.01    -0.01   0.05   0.01
  97   1    -0.01   0.01  -0.00     0.03  -0.01  -0.00    -0.02   0.03   0.02
  98   1    -0.01   0.01   0.00    -0.01   0.03  -0.01     0.02  -0.01   0.03
  99   1    -0.01   0.01  -0.00    -0.02   0.07   0.02     0.04  -0.02   0.02
 100   1    -0.02   0.00  -0.01    -0.01   0.09   0.05     0.04  -0.02   0.00
 101   1    -0.02   0.00  -0.01    -0.01   0.05   0.05     0.03  -0.01  -0.01
                      7                      8                      9
                        a                      a                      a 
 Frequencies --    30.0155                43.0048                46.8662
 Red. masses --    10.5243                11.5976                10.9794
 Frc consts  --     0.0000                 0.0000                 0.0000
 IR Inten    --     0.0549                 0.0650                 0.8985
 Raman Activ --     0.0000                 0.0000                 0.0000
 Depolar     --     0.0000                 0.0000                 0.0000
 Atom AN      X      Y      Z        X      Y      Z        X      Y      Z
   1   6     0.16   0.07   0.05    -0.14  -0.04  -0.13    -0.17  -0.02  -0.10
   2   6     0.03   0.06   0.00     0.01  -0.03  -0.04    -0.03  -0.01  -0.03
   3   6    -0.02   0.19  -0.02     0.10  -0.17  -0.08     0.03  -0.14  -0.03
   4   6    -0.03  -0.01  -0.03     0.01   0.05   0.01     0.01   0.06  -0.00
   5   6    -0.06  -0.01  -0.05     0.02   0.10   0.01     0.05   0.12   0.04
   6   6    -0.12  -0.06  -0.07     0.02   0.16   0.05     0.09   0.16   0.06
   7   6    -0.15  -0.12  -0.06     0.01   0.15   0.07     0.09   0.14   0.03
   8   6    -0.12  -0.12  -0.04     0.00   0.09   0.06     0.04   0.07  -0.01
   9   6    -0.06  -0.07  -0.02     0.01   0.04   0.03     0.01   0.04  -0.03
  10   7    -0.05  -0.08  -0.00    -0.00  -0.03   0.03    -0.03  -0.01  -0.07
  11   6    -0.02  -0.04   0.03    -0.01  -0.04   0.05    -0.03  -0.01  -0.06
  12   6    -0.04   0.01   0.03    -0.01  -0.04   0.02    -0.03  -0.01  -0.04
  13   9    -0.12   0.02  -0.01    -0.02  -0.05   0.04    -0.03  -0.01  -0.08
  14   6    -0.02   0.05   0.03    -0.00  -0.04  -0.03    -0.04  -0.01   0.01
  15   7    -0.03   0.09   0.01    -0.02  -0.02  -0.02    -0.04  -0.02   0.00
  16   6    -0.00   0.09  -0.00    -0.05   0.02  -0.03    -0.02  -0.02   0.00
  17   6    -0.01   0.18  -0.02    -0.08   0.05  -0.06    -0.02  -0.01   0.00
  18   6     0.03   0.17  -0.03    -0.11   0.10  -0.08    -0.01  -0.02   0.01
  19   6     0.07   0.08  -0.02    -0.12   0.11  -0.06    -0.00  -0.04   0.01
  20   6     0.06  -0.00   0.00    -0.09   0.08  -0.03    -0.01  -0.04  -0.00
  21   6     0.03   0.00   0.00    -0.06   0.04  -0.01    -0.02  -0.03  -0.01
  22   6     0.03  -0.09   0.02    -0.03  -0.02   0.04    -0.03  -0.02  -0.02
  23   6     0.18  -0.14   0.07     0.09  -0.05   0.09    -0.07  -0.01  -0.04
  24   6    -0.08  -0.22   0.03    -0.12  -0.10   0.08    -0.01   0.00  -0.04
  25   6    -0.03  -0.01  -0.00    -0.01   0.03   0.00    -0.04  -0.03  -0.02
  26   6    -0.05  -0.04  -0.02    -0.00   0.06   0.01    -0.06  -0.03  -0.02
  27   6    -0.10   0.04  -0.04     0.01   0.10  -0.02    -0.07  -0.04  -0.02
  28   6    -0.13   0.14  -0.05     0.01   0.12  -0.05    -0.07  -0.04  -0.00
  29   6    -0.10   0.16  -0.03    -0.00   0.08  -0.04    -0.06  -0.03   0.01
  30   6    -0.05   0.08  -0.01    -0.01   0.03  -0.02    -0.05  -0.03  -0.00
  31   6     0.03   0.04   0.04     0.00  -0.04  -0.08    -0.04  -0.01   0.06
  32   6     0.06   0.08   0.03     0.02  -0.05  -0.23    -0.05   0.01   0.19
  33   7     0.08   0.11   0.02     0.03  -0.07  -0.41    -0.07   0.03   0.37
  34   6     0.05  -0.00   0.04    -0.00  -0.04  -0.01    -0.04  -0.01   0.01
  35   7     0.10  -0.01   0.04    -0.00  -0.04  -0.01    -0.03  -0.02  -0.00
  36   6     0.08  -0.01   0.03     0.01  -0.04  -0.00     0.05  -0.04   0.02
  37   6     0.15  -0.02   0.06     0.02  -0.04   0.00     0.10  -0.07   0.04
  38   6     0.15  -0.02   0.06     0.03  -0.04   0.01     0.19  -0.09   0.07
  39   6     0.08  -0.01   0.03     0.02  -0.04   0.00     0.21  -0.10   0.07
  40   6     0.02  -0.00   0.00     0.00  -0.03  -0.00     0.13  -0.07   0.03
  41   6     0.02  -0.00   0.01    -0.00  -0.03  -0.00     0.06  -0.05   0.00
  42   6    -0.06   0.01  -0.03    -0.01  -0.04  -0.01    -0.04  -0.02  -0.05
  43   6    -0.13  -0.08  -0.08    -0.03  -0.06  -0.01    -0.16  -0.17  -0.14
  44   6    -0.12   0.11  -0.04    -0.02  -0.01  -0.01    -0.12   0.16  -0.10
  45   6    -0.02   0.01  -0.01    -0.00  -0.04  -0.00     0.03  -0.01  -0.01
  46   6    -0.07   0.02  -0.03     0.01  -0.05   0.00     0.08   0.00  -0.00
  47   6    -0.03   0.01  -0.01     0.02  -0.05   0.00     0.15   0.01   0.04
  48   6     0.06   0.01   0.02     0.01  -0.05  -0.00     0.18   0.01   0.06
  49   6     0.10   0.00   0.04     0.00  -0.05  -0.01     0.12  -0.00   0.05
  50   6     0.06   0.00   0.02     0.00  -0.04  -0.01     0.04  -0.01   0.01
  51   6     0.02  -0.04   0.04    -0.01  -0.04   0.07    -0.03  -0.01  -0.04
  52   6     0.04  -0.08   0.02    -0.03  -0.04   0.18    -0.03  -0.01  -0.06
  53   7     0.06  -0.11   0.00    -0.05  -0.05   0.33    -0.04   0.00  -0.06
  54   6    -0.02  -0.08  -0.01     0.05   0.01   0.04    -0.02   0.04  -0.03
  55   6    -0.03  -0.16  -0.02     0.09   0.03   0.07    -0.00   0.09  -0.02
  56   6     0.00  -0.15  -0.02     0.14   0.08   0.09     0.01   0.14   0.01
  57   6     0.06  -0.06  -0.01     0.15   0.08   0.07     0.01   0.14   0.02
  58   6     0.07   0.01   0.00     0.11   0.04   0.03    -0.01   0.08   0.01
  59   6     0.03  -0.01  -0.00     0.06   0.01   0.01    -0.02   0.05  -0.02
  60   1     0.06  -0.01   0.02    -0.06   0.02  -0.03    -0.06   0.02  -0.03
  61   1     0.06   0.03   0.02    -0.05  -0.03  -0.05    -0.06  -0.02  -0.04
  62   1     0.05   0.03   0.02    -0.05  -0.02  -0.05    -0.05  -0.02  -0.03
  63   1    -0.03   0.05  -0.01     0.06  -0.05  -0.01     0.04  -0.04  -0.00
  64   1    -0.01   0.07  -0.01     0.02  -0.06  -0.04     0.01  -0.06  -0.01
  65   1     0.01   0.07  -0.00     0.03  -0.07  -0.04    -0.00  -0.05  -0.01
  66   1    -0.01   0.01  -0.02     0.00   0.03  -0.00     0.02   0.04   0.02
  67   1    -0.04  -0.02  -0.03     0.01   0.06   0.02     0.04   0.06   0.03
  68   1    -0.06  -0.05  -0.02     0.00   0.06   0.03     0.03   0.05   0.01
  69   1    -0.04  -0.05  -0.01    -0.00   0.02   0.02     0.01   0.01  -0.01
  70   1    -0.01   0.07  -0.01    -0.02   0.01  -0.02    -0.01   0.00  -0.00
  71   1     0.01   0.07  -0.01    -0.04   0.03  -0.03    -0.00  -0.01   0.00
  72   1     0.03   0.02  -0.01    -0.04   0.04  -0.02     0.00  -0.02   0.00
  73   1     0.03  -0.02   0.00    -0.03   0.02  -0.00    -0.00  -0.01  -0.00
  74   1     0.07  -0.01   0.02     0.04   0.01   0.02    -0.02  -0.01  -0.01
  75   1     0.07  -0.06   0.03     0.03  -0.03   0.03    -0.02   0.00  -0.01
  76   1     0.05  -0.06   0.02     0.03  -0.03   0.03    -0.02  -0.00  -0.01
  77   1    -0.05  -0.05   0.00    -0.06  -0.02   0.01     0.00  -0.00  -0.01
  78   1    -0.01  -0.08   0.01    -0.04  -0.04   0.03     0.00   0.00  -0.02
  79   1    -0.03  -0.09   0.01    -0.03  -0.04   0.04    -0.01   0.00  -0.02
  80   1    -0.01  -0.03  -0.00     0.00   0.01   0.01    -0.02  -0.01  -0.01
  81   1    -0.04   0.01  -0.02     0.00   0.04  -0.01    -0.02  -0.01  -0.01
  82   1    -0.05   0.06  -0.02     0.00   0.04  -0.02    -0.02  -0.01   0.00
  83   1    -0.04   0.07  -0.01    -0.00   0.02  -0.02    -0.02  -0.01   0.01
  84   1     0.06  -0.01   0.02     0.01  -0.01   0.00     0.02  -0.02   0.01
  85   1     0.06  -0.01   0.02     0.01  -0.01   0.00     0.07  -0.03   0.03
  86   1     0.02  -0.00   0.01     0.01  -0.01   0.00     0.08  -0.03   0.03
  87   1    -0.01   0.00  -0.01    -0.00  -0.01  -0.00     0.04  -0.02   0.00
  88   1    -0.02  -0.04  -0.02    -0.01  -0.02  -0.00    -0.03  -0.09  -0.04
  89   1    -0.06  -0.02  -0.03    -0.01  -0.02  -0.00    -0.08  -0.05  -0.05
  90   1    -0.04  -0.02  -0.03    -0.01  -0.01  -0.00    -0.06  -0.05  -0.05
  91   1    -0.04   0.04  -0.01    -0.01  -0.00  -0.00    -0.06   0.05  -0.04
  92   1    -0.05   0.03  -0.01    -0.01  -0.00  -0.00    -0.06   0.05  -0.04
  93   1    -0.02   0.05  -0.01    -0.00  -0.00  -0.00    -0.01   0.08  -0.02
  94   1    -0.04   0.01  -0.02     0.00  -0.01   0.00     0.01   0.00  -0.01
  95   1    -0.02   0.01  -0.01     0.01  -0.02   0.00     0.05   0.00   0.01
  96   1     0.03   0.00   0.01     0.01  -0.02  -0.00     0.07   0.00   0.03
  97   1     0.05  -0.00   0.02    -0.00  -0.01  -0.01     0.04  -0.00   0.02
  98   1    -0.02  -0.07  -0.01     0.02   0.01   0.02    -0.00   0.02  -0.01
  99   1    -0.00  -0.06  -0.01     0.05   0.03   0.04     0.01   0.05   0.01
 100   1     0.03  -0.01  -0.00     0.05   0.03   0.02     0.00   0.05   0.01
 101   1     0.03   0.02   0.00     0.03   0.01  -0.00    -0.01   0.02   0.00
                     10                     11                     12
                        a                      a                      a 
 Frequencies --    47.9162                50.6555                59.5214
 Red. masses --    11.2607                13.1025                11.6045
 Frc consts  --     0.0000                 0.0000                 0.0000
 IR Inten    --     0.4976                 5.1294                 0.1944
 Raman Activ --     0.0000                 0.0000                 0.0000
 Depolar     --     0.0000                 0.0000                 0.0000
 Atom AN      X      Y      Z        X      Y      Z        X      Y      Z
   1   6     0.04   0.05   0.00     0.02  -0.00   0.06     0.13   0.01   0.07
   2   6    -0.03   0.03  -0.01     0.00   0.01  -0.01     0.02   0.00   0.01
   3   6    -0.05   0.10  -0.01    -0.00   0.06  -0.05    -0.04   0.10   0.04
   4   6    -0.06   0.01  -0.01    -0.01  -0.04  -0.04     0.01  -0.04  -0.01
   5   6    -0.10  -0.01  -0.05    -0.03  -0.10  -0.07    -0.02  -0.13  -0.05
   6   6    -0.14  -0.03  -0.05    -0.03  -0.11  -0.07    -0.01  -0.16  -0.06
   7   6    -0.15  -0.03  -0.02    -0.00  -0.05  -0.05     0.02  -0.08  -0.03
   8   6    -0.11   0.00   0.02     0.02   0.01  -0.03     0.06   0.02   0.00
   9   6    -0.06   0.03   0.02     0.01  -0.01  -0.04     0.05   0.03   0.01
  10   7    -0.02   0.06   0.07     0.01   0.01  -0.04     0.09   0.12   0.04
  11   6    -0.03   0.04   0.07     0.01   0.02  -0.04     0.05   0.06   0.01
  12   6    -0.02   0.04   0.05     0.02   0.01  -0.16     0.07  -0.02   0.02
  13   9    -0.03   0.05   0.13     0.06   0.01  -0.36     0.20  -0.03   0.01
  14   6    -0.02   0.03  -0.02     0.01   0.01  -0.10     0.03  -0.08   0.03
  15   7    -0.01   0.02  -0.03     0.02   0.02  -0.10     0.06  -0.15   0.06
  16   6     0.00  -0.03   0.00    -0.01  -0.03  -0.06     0.01  -0.04   0.00
  17   6     0.02  -0.10   0.03    -0.04  -0.03  -0.09    -0.00  -0.02  -0.01
  18   6     0.03  -0.13   0.05    -0.06  -0.09  -0.05    -0.04   0.08  -0.06
  19   6     0.02  -0.09   0.03    -0.05  -0.13   0.01    -0.07   0.16  -0.09
  20   6     0.00  -0.04   0.00    -0.02  -0.11   0.03    -0.05   0.13  -0.06
  21   6    -0.00  -0.02  -0.00    -0.00  -0.05  -0.01    -0.02   0.04  -0.02
  22   6    -0.01   0.02  -0.02     0.01  -0.01  -0.00     0.01   0.00   0.01
  23   6    -0.14   0.05  -0.11    -0.02   0.02   0.04     0.13  -0.02   0.08
  24   6     0.08   0.15  -0.01     0.02  -0.00  -0.02    -0.09  -0.10   0.03
  25   6     0.01  -0.07   0.02     0.04   0.01  -0.03     0.01   0.06  -0.02
  26   6     0.04  -0.14   0.06     0.06   0.03  -0.01    -0.01   0.16  -0.06
  27   6     0.06  -0.21   0.09     0.10   0.03  -0.02    -0.01   0.20  -0.08
  28   6     0.06  -0.18   0.07     0.11  -0.01  -0.04     0.01   0.10  -0.05
  29   6     0.03  -0.09   0.02     0.08  -0.02  -0.06     0.03  -0.02   0.00
  30   6     0.01  -0.05   0.01     0.04   0.01  -0.06     0.03  -0.04   0.01
  31   6    -0.02   0.03  -0.08     0.01   0.01   0.02    -0.05  -0.07   0.02
  32   6    -0.01   0.02  -0.21     0.00   0.02   0.08    -0.11  -0.15   0.01
  33   7    -0.00   0.00  -0.35    -0.00   0.03   0.16    -0.17  -0.25  -0.00
  34   6    -0.03   0.04  -0.03    -0.00   0.02   0.09    -0.08  -0.00   0.00
  35   7    -0.04   0.04  -0.05     0.01   0.02   0.10    -0.17   0.01  -0.02
  36   6     0.03   0.04  -0.01    -0.01  -0.02   0.06    -0.07  -0.02   0.01
  37   6     0.10   0.03   0.00    -0.03  -0.05   0.08    -0.06  -0.03   0.02
  38   6     0.16   0.03   0.03    -0.05  -0.09   0.05     0.04  -0.06   0.05
  39   6     0.15   0.03   0.04    -0.06  -0.09  -0.00     0.12  -0.07   0.07
  40   6     0.08   0.04   0.02    -0.04  -0.06  -0.02     0.10  -0.06   0.05
  41   6     0.04   0.04  -0.01    -0.01  -0.02   0.01     0.01  -0.03   0.03
  42   6    -0.02   0.04  -0.03     0.00   0.02  -0.01    -0.02  -0.01   0.00
  43   6    -0.13  -0.07  -0.05     0.01   0.01  -0.03    -0.07  -0.08  -0.03
  44   6    -0.08   0.17  -0.07     0.02   0.02  -0.05    -0.05   0.07  -0.03
  45   6     0.06   0.03   0.00     0.01   0.06   0.01     0.02  -0.00   0.03
  46   6     0.12   0.01   0.04     0.01   0.09  -0.01     0.10   0.00   0.05
  47   6     0.18  -0.00   0.06    -0.00   0.13   0.01     0.13   0.01   0.07
  48   6     0.15  -0.00   0.03    -0.02   0.13   0.05     0.05   0.02   0.05
  49   6     0.07   0.01  -0.01    -0.02   0.09   0.07    -0.05   0.01   0.02
  50   6     0.03   0.03  -0.01    -0.00   0.06   0.06    -0.06   0.01   0.01
  51   6    -0.03   0.04   0.04    -0.00   0.02   0.11    -0.03   0.06   0.00
  52   6    -0.04   0.06   0.09    -0.02   0.01   0.30    -0.07   0.15  -0.03
  53   7    -0.07   0.08   0.15    -0.05  -0.01   0.54    -0.11   0.25  -0.07
  54   6    -0.02   0.01   0.03    -0.01   0.00  -0.04     0.04   0.05   0.01
  55   6    -0.01  -0.02   0.04    -0.05  -0.03  -0.07     0.03   0.07   0.01
  56   6    -0.01  -0.08   0.01    -0.05  -0.00  -0.06    -0.03  -0.02  -0.04
  57   6    -0.02  -0.09  -0.03    -0.01   0.06  -0.01    -0.08  -0.10  -0.07
  58   6    -0.02  -0.06  -0.03     0.01   0.07   0.01    -0.06  -0.09  -0.05
  59   6    -0.02  -0.01  -0.00     0.00   0.03  -0.01    -0.01  -0.02  -0.02
  60   1     0.02   0.00   0.00     0.01  -0.01   0.02     0.05  -0.02   0.02
  61   1     0.02   0.02   0.00     0.00   0.01   0.03     0.04   0.02   0.03
  62   1     0.01   0.02   0.00     0.01  -0.01   0.02     0.04   0.01   0.03
  63   1    -0.03   0.03  -0.00    -0.01   0.02  -0.02    -0.03   0.03   0.00
  64   1    -0.02   0.04  -0.00    -0.00   0.02  -0.02    -0.01   0.04   0.02
  65   1    -0.01   0.03  -0.00     0.01   0.03  -0.01    -0.01   0.04   0.02
  66   1    -0.03  -0.00  -0.02    -0.01  -0.04  -0.02    -0.01  -0.05  -0.02
  67   1    -0.05  -0.02  -0.02    -0.01  -0.05  -0.03    -0.01  -0.07  -0.03
  68   1    -0.05  -0.02  -0.01     0.00  -0.01  -0.01     0.01  -0.03  -0.01
  69   1    -0.03   0.00   0.01     0.01   0.02  -0.00     0.02   0.03   0.01
  70   1     0.01  -0.03   0.01    -0.01   0.00  -0.04     0.01  -0.03   0.01
  71   1     0.01  -0.05   0.02    -0.02  -0.03  -0.02    -0.02   0.03  -0.02
  72   1     0.01  -0.03   0.01    -0.02  -0.05   0.01    -0.03   0.07  -0.04
  73   1    -0.00  -0.00  -0.00    -0.01  -0.04   0.02    -0.02   0.05  -0.02
  74   1    -0.06  -0.01  -0.04    -0.01   0.00   0.02     0.05   0.02   0.03
  75   1    -0.05   0.04  -0.04    -0.01   0.00   0.02     0.05  -0.03   0.03
  76   1    -0.04   0.02  -0.03    -0.00   0.02   0.01     0.04  -0.02   0.03
  77   1     0.05   0.04   0.01     0.01  -0.01  -0.01    -0.05  -0.02  -0.01
  78   1     0.02   0.06  -0.01     0.00  -0.01   0.00    -0.03  -0.05   0.02
  79   1     0.02   0.06  -0.01     0.01   0.01  -0.00    -0.02  -0.04   0.02
  80   1     0.01  -0.04   0.02     0.02   0.02   0.00    -0.01   0.06  -0.02
  81   1     0.02  -0.08   0.04     0.03   0.01  -0.00    -0.01   0.08  -0.04
  82   1     0.02  -0.06   0.02     0.04  -0.01  -0.01     0.00   0.03  -0.02
  83   1     0.01  -0.02  -0.00     0.03  -0.01  -0.02     0.01  -0.03   0.01
  84   1     0.03   0.01  -0.00    -0.01  -0.02   0.03    -0.04  -0.00  -0.00
  85   1     0.06   0.01   0.01    -0.02  -0.03   0.02     0.01  -0.02   0.02
  86   1     0.05   0.01   0.02    -0.02  -0.03  -0.01     0.06  -0.03   0.03
  87   1     0.02   0.01   0.00    -0.01  -0.02  -0.02     0.04  -0.02   0.02
  88   1    -0.02  -0.05  -0.01     0.00   0.00  -0.00    -0.01  -0.04  -0.01
  89   1    -0.06  -0.03  -0.02     0.01   0.01  -0.02    -0.03  -0.02  -0.01
  90   1    -0.05  -0.01  -0.02     0.00  -0.00  -0.02    -0.03  -0.02  -0.01
  91   1    -0.04   0.06  -0.03     0.00  -0.00  -0.02    -0.02   0.02  -0.01
  92   1    -0.03   0.05  -0.03     0.01   0.01  -0.02    -0.02   0.02  -0.01
  93   1    -0.00   0.07  -0.02     0.00   0.01  -0.01    -0.00   0.03  -0.00
  94   1     0.04   0.00   0.01     0.01   0.03  -0.01     0.04  -0.00   0.02
  95   1     0.07  -0.00   0.02    -0.00   0.05  -0.00     0.06   0.00   0.03
  96   1     0.05  -0.00   0.01    -0.01   0.05   0.02     0.02   0.01   0.02
  97   1     0.01   0.00  -0.01    -0.01   0.03   0.03    -0.04   0.01  -0.00
  98   1    -0.00  -0.00   0.02    -0.02  -0.02  -0.03     0.02   0.04   0.01
  99   1    -0.00  -0.03   0.00    -0.02  -0.01  -0.02    -0.01  -0.00  -0.01
 100   1    -0.01  -0.04  -0.02    -0.00   0.03   0.00    -0.04  -0.05  -0.03
 101   1    -0.01  -0.02  -0.02     0.01   0.03   0.01    -0.03  -0.04  -0.02
                     13                     14                     15
                        a                      a                      a 
 Frequencies --    81.2067                89.3021                94.7969
 Red. masses --    12.5954                11.1330                10.2796
 Frc consts  --     0.0000                 0.0000                 0.0000
 IR Inten    --     6.6797                 0.4067                 1.9272
 Raman Activ --     0.0000                 0.0000                 0.0000
 Depolar     --     0.0000                 0.0000                 0.0000
 Atom AN      X      Y      Z        X      Y      Z        X      Y      Z
   1   6     0.05   0.02  -0.01     0.16  -0.01   0.05    -0.19  -0.04   0.06
   2   6    -0.00   0.00  -0.00     0.00  -0.02  -0.04     0.03   0.02   0.03
   3   6    -0.03   0.04   0.02    -0.09   0.12   0.02     0.16  -0.09  -0.12
   4   6    -0.02   0.01   0.00     0.03  -0.07  -0.08     0.01  -0.01   0.02
   5   6    -0.03   0.01  -0.01     0.07  -0.10  -0.04    -0.02  -0.11  -0.02
   6   6    -0.05  -0.00  -0.01     0.16  -0.06  -0.04    -0.01  -0.10  -0.02
   7   6    -0.05  -0.01   0.00     0.21   0.04  -0.05     0.04   0.02   0.03
   8   6    -0.03   0.00   0.02     0.16   0.06  -0.09     0.06   0.08   0.05
   9   6    -0.01   0.01   0.02     0.07  -0.01  -0.11     0.04   0.04   0.04
  10   7     0.01   0.03   0.05     0.02  -0.02  -0.16     0.01   0.02   0.02
  11   6    -0.01   0.00   0.02     0.01  -0.02  -0.12     0.01   0.01   0.01
  12   6    -0.01   0.00   0.04    -0.00  -0.02  -0.00     0.01   0.01   0.01
  13   9    -0.02   0.00   0.19    -0.01  -0.02   0.01     0.03   0.00  -0.09
  14   6    -0.00  -0.00  -0.00    -0.02  -0.01   0.11     0.00  -0.01   0.05
  15   7    -0.00  -0.03   0.02    -0.03  -0.01   0.16     0.01  -0.02   0.09
  16   6     0.00  -0.02   0.01     0.00   0.03   0.11     0.01   0.03   0.05
  17   6     0.02  -0.05   0.03     0.01   0.12   0.10    -0.00   0.15   0.02
  18   6     0.01  -0.02   0.02     0.05   0.14   0.08     0.03   0.16   0.01
  19   6    -0.01   0.05  -0.02     0.09   0.07   0.07     0.07   0.02   0.05
  20   6    -0.01   0.06  -0.03     0.07  -0.00   0.06     0.08  -0.07   0.07
  21   6    -0.01   0.02  -0.01     0.02  -0.02   0.08     0.04  -0.05   0.06
  22   6    -0.01  -0.00  -0.00    -0.01  -0.01   0.04     0.01  -0.01   0.03
  23   6     0.04  -0.02  -0.01    -0.13   0.01  -0.06    -0.10   0.03  -0.00
  24   6    -0.04  -0.02   0.02     0.08   0.09  -0.00     0.11   0.06  -0.04
  25   6    -0.01  -0.00  -0.00    -0.05  -0.06   0.08    -0.01  -0.02   0.04
  26   6    -0.01   0.00  -0.01    -0.09  -0.09   0.05    -0.03   0.01   0.01
  27   6    -0.02   0.01  -0.01    -0.16  -0.04   0.04    -0.06   0.03   0.01
  28   6    -0.02   0.02  -0.01    -0.19   0.06   0.06    -0.06   0.03   0.03
  29   6    -0.02   0.01   0.00    -0.15   0.08   0.09    -0.04   0.01   0.06
  30   6    -0.01  -0.01   0.01    -0.07   0.01   0.10    -0.01  -0.02   0.06
  31   6    -0.01  -0.00  -0.08    -0.01  -0.02   0.05    -0.02  -0.01   0.01
  32   6    -0.04  -0.00   0.13     0.01  -0.02  -0.05    -0.05  -0.05  -0.00
  33   7    -0.09   0.01   0.45     0.03  -0.03  -0.22    -0.10  -0.13  -0.02
  34   6     0.00  -0.00  -0.15     0.00  -0.02  -0.00    -0.02   0.00  -0.05
  35   7     0.00  -0.00  -0.18     0.00  -0.03   0.00    -0.05   0.01  -0.09
  36   6     0.03   0.04  -0.13    -0.00  -0.03  -0.00    -0.02   0.03  -0.06
  37   6     0.08   0.09  -0.15    -0.02  -0.03  -0.01    -0.02   0.05  -0.08
  38   6     0.09   0.14  -0.12    -0.02  -0.03  -0.01     0.01   0.06  -0.05
  39   6     0.05   0.15  -0.07    -0.00  -0.04  -0.00     0.05   0.06  -0.01
  40   6     0.01   0.11  -0.05     0.01  -0.04  -0.00     0.05   0.04   0.00
  41   6     0.00   0.05  -0.08     0.00  -0.03  -0.00     0.01   0.02  -0.02
  42   6     0.01  -0.00  -0.04    -0.00  -0.04  -0.00     0.00   0.00  -0.01
  43   6     0.05   0.06   0.02     0.00  -0.03  -0.01     0.01   0.02  -0.01
  44   6     0.02  -0.07   0.02    -0.01  -0.04   0.01    -0.01  -0.01   0.02
  45   6    -0.01  -0.05  -0.08    -0.01  -0.03  -0.00    -0.01  -0.01  -0.03
  46   6    -0.02  -0.11  -0.05    -0.02  -0.03  -0.01    -0.00  -0.04  -0.01
  47   6     0.00  -0.16  -0.07    -0.01  -0.04  -0.00     0.02  -0.06  -0.02
  48   6     0.06  -0.17  -0.12     0.02  -0.04   0.01     0.03  -0.06  -0.04
  49   6     0.06  -0.11  -0.15     0.02  -0.04   0.01     0.01  -0.04  -0.06
  50   6     0.02  -0.05  -0.13     0.00  -0.03   0.00    -0.01  -0.01  -0.06
  51   6    -0.01   0.00  -0.07     0.00  -0.02  -0.06    -0.01   0.02  -0.01
  52   6    -0.04   0.01   0.14    -0.01  -0.03   0.06    -0.04   0.08   0.00
  53   7    -0.09   0.01   0.45    -0.02  -0.06   0.26    -0.10   0.19   0.03
  54   6     0.02   0.02   0.04     0.00   0.03  -0.12    -0.02  -0.07  -0.01
  55   6     0.05   0.06   0.07     0.03   0.15  -0.10    -0.14  -0.32  -0.12
  56   6     0.04   0.02   0.04    -0.01   0.19  -0.07    -0.11  -0.29  -0.11
  57   6     0.00  -0.06  -0.02    -0.08   0.09  -0.07     0.08   0.03   0.05
  58   6    -0.02  -0.07  -0.03    -0.09  -0.01  -0.08     0.15   0.21   0.13
  59   6    -0.01  -0.03  -0.01    -0.04  -0.03  -0.10     0.07   0.11   0.08
  60   1     0.02  -0.00  -0.01     0.07  -0.03   0.00    -0.08   0.02   0.04
  61   1     0.02   0.01  -0.00     0.04   0.02   0.03    -0.06  -0.01   0.02
  62   1     0.02   0.02  -0.00     0.06   0.01   0.03    -0.07  -0.05   0.00
  63   1    -0.02   0.01   0.01    -0.06   0.03  -0.01     0.09  -0.02  -0.05
  64   1    -0.01   0.02   0.01    -0.01   0.05   0.02     0.03  -0.07  -0.06
  65   1    -0.01   0.01   0.00    -0.03   0.05   0.02     0.05  -0.02  -0.03
  66   1    -0.01   0.00  -0.01     0.01  -0.04  -0.01    -0.02  -0.05  -0.02
  67   1    -0.02  -0.00  -0.01     0.05  -0.03  -0.00    -0.01  -0.05  -0.02
  68   1    -0.02  -0.01   0.00     0.08   0.03  -0.01     0.02   0.01   0.01
  69   1    -0.01  -0.00   0.01     0.06   0.04  -0.03     0.03   0.04   0.02
  70   1     0.01  -0.03   0.02    -0.00   0.05   0.03    -0.01   0.07  -0.00
  71   1     0.01  -0.01   0.01     0.02   0.06   0.02     0.00   0.08  -0.01
  72   1    -0.00   0.02  -0.01     0.04   0.02   0.01     0.03   0.00   0.01
  73   1    -0.01   0.03  -0.02     0.03  -0.01   0.01     0.03  -0.04   0.02
  74   1     0.02  -0.00  -0.01    -0.06  -0.02  -0.02    -0.05  -0.01   0.01
  75   1     0.01  -0.01  -0.00    -0.04   0.02  -0.03    -0.03   0.02  -0.00
  76   1     0.01  -0.01   0.00    -0.04   0.01  -0.03    -0.03   0.02  -0.01
  77   1    -0.02  -0.00   0.01     0.05   0.02   0.02     0.05   0.01  -0.01
  78   1    -0.01  -0.01   0.00     0.04   0.04  -0.02     0.04   0.02  -0.02
  79   1    -0.01  -0.02   0.01     0.01   0.03  -0.02     0.02   0.03  -0.02
  80   1    -0.00  -0.00  -0.00    -0.02  -0.04   0.01    -0.01   0.00  -0.00
  81   1    -0.01   0.01  -0.00    -0.06  -0.02   0.01    -0.02   0.02  -0.01
  82   1    -0.01   0.01  -0.00    -0.07   0.04   0.01    -0.02   0.02   0.01
  83   1    -0.00   0.00   0.00    -0.05   0.05   0.03    -0.01   0.01   0.02
  84   1     0.03   0.02  -0.05    -0.01  -0.01  -0.00    -0.01   0.02  -0.03
  85   1     0.04   0.05  -0.04    -0.01  -0.01  -0.00     0.00   0.02  -0.02
  86   1     0.01   0.06  -0.01    -0.00  -0.01  -0.00     0.02   0.02   0.00
  87   1    -0.00   0.03  -0.00     0.01  -0.01   0.00     0.02   0.01   0.01
  88   1     0.01   0.03  -0.00     0.00  -0.01  -0.01     0.00   0.01  -0.01
  89   1     0.02   0.01   0.02    -0.00  -0.01  -0.00    -0.00   0.00   0.00
  90   1     0.02   0.03   0.01     0.00  -0.01  -0.00     0.01   0.01   0.00
  91   1     0.02  -0.01   0.02     0.00  -0.01   0.00     0.00   0.00   0.01
  92   1     0.01  -0.03   0.01    -0.00  -0.01   0.00    -0.01  -0.00   0.01
  93   1    -0.00  -0.03   0.00    -0.00  -0.01   0.01    -0.00  -0.00   0.01
  94   1    -0.01  -0.03  -0.00    -0.01  -0.01  -0.00    -0.00  -0.01   0.00
  95   1    -0.00  -0.06  -0.01    -0.01  -0.01  -0.00     0.01  -0.02  -0.00
  96   1     0.03  -0.06  -0.04     0.01  -0.01   0.00     0.02  -0.02  -0.01
  97   1     0.03  -0.03  -0.05     0.01  -0.01   0.00     0.01  -0.01  -0.02
  98   1     0.02   0.03   0.03     0.02   0.07  -0.03    -0.08  -0.15  -0.06
  99   1     0.02   0.01   0.02     0.00   0.09  -0.02    -0.06  -0.15  -0.06
 100   1    -0.00  -0.03  -0.01    -0.03   0.03  -0.02     0.04   0.03   0.03
 101   1    -0.01  -0.03  -0.02    -0.04  -0.02  -0.02     0.07   0.12   0.06
                     16                     17                     18
                        a                      a                      a 
 Frequencies --   100.5898               102.5177               105.4023
 Red. masses --     9.8664                10.2589                10.3532
 Frc consts  --     0.0000                 0.0000                 0.0000
 IR Inten    --     2.4111                 0.9417                 1.2544
 Raman Activ --     0.0000                 0.0000                 0.0000
 Depolar     --     0.0000                 0.0000                 0.0000
 Atom AN      X      Y      Z        X      Y      Z        X      Y      Z
   1   6     0.02   0.03  -0.06     0.09  -0.01   0.00    -0.09   0.05  -0.06
   2   6    -0.01   0.00   0.00    -0.01  -0.03   0.00    -0.00   0.05   0.01
   3   6    -0.03  -0.01   0.06    -0.05   0.04   0.02     0.03  -0.06   0.05
   4   6    -0.00   0.04   0.02    -0.03  -0.03   0.01     0.03   0.08   0.03
   5   6     0.01   0.10   0.04    -0.06  -0.03  -0.01     0.04   0.12   0.04
   6   6    -0.03   0.06   0.02    -0.07   0.02   0.01    -0.01   0.02  -0.00
   7   6    -0.08  -0.07  -0.02    -0.05   0.07   0.06    -0.07  -0.14  -0.08
   8   6    -0.08  -0.10  -0.02    -0.03   0.06   0.08    -0.07  -0.14  -0.07
   9   6    -0.03  -0.03   0.00    -0.02   0.02   0.06    -0.01  -0.01  -0.02
  10   7    -0.01  -0.01   0.02     0.01   0.03   0.09     0.01   0.03  -0.01
  11   6    -0.01  -0.01   0.01    -0.00   0.01   0.07     0.00   0.02  -0.02
  12   6    -0.00  -0.02  -0.00     0.01  -0.00  -0.01     0.02  -0.01  -0.02
  13   9    -0.01  -0.02  -0.04     0.02  -0.00  -0.05     0.08  -0.01  -0.08
  14   6     0.01  -0.01   0.01     0.00  -0.01  -0.06     0.01  -0.02   0.02
  15   7     0.00  -0.00   0.01    -0.00   0.01  -0.07     0.02  -0.04   0.03
  16   6    -0.00   0.07  -0.02    -0.03   0.01  -0.06     0.02  -0.02   0.02
  17   6    -0.07   0.30  -0.12    -0.09   0.17  -0.15     0.02  -0.03   0.02
  18   6    -0.04   0.27  -0.10    -0.11   0.16  -0.14     0.02  -0.00   0.01
  19   6     0.07  -0.06   0.05    -0.04  -0.05  -0.01     0.00   0.03  -0.01
  20   6     0.10  -0.23   0.12     0.01  -0.18   0.07     0.00   0.03  -0.01
  21   6     0.05  -0.12   0.07     0.01  -0.12   0.03     0.01  -0.00   0.00
  22   6     0.02  -0.02   0.02     0.01  -0.06   0.02     0.01  -0.00   0.00
  23   6    -0.11   0.07   0.11    -0.18   0.01  -0.02    -0.02  -0.00  -0.04
  24   6     0.13  -0.01  -0.14     0.15   0.08  -0.03     0.03   0.03   0.02
  25   6     0.00   0.04  -0.01     0.04  -0.08   0.02     0.01  -0.03   0.02
  26   6    -0.01   0.15  -0.05     0.06  -0.07   0.03     0.01  -0.03   0.02
  27   6     0.01   0.10  -0.03     0.06   0.03  -0.02    -0.01   0.00   0.00
  28   6     0.05  -0.09   0.05     0.05   0.11  -0.08    -0.02   0.05  -0.01
  29   6     0.06  -0.15   0.07     0.03   0.09  -0.09    -0.01   0.04  -0.00
  30   6     0.03  -0.05   0.03     0.03  -0.00  -0.04     0.01  -0.01   0.01
  31   6     0.00  -0.01   0.00    -0.00  -0.01  -0.03    -0.01  -0.01   0.04
  32   6    -0.04  -0.06   0.00     0.02   0.03  -0.00    -0.07  -0.11  -0.01
  33   7    -0.10  -0.15   0.01     0.06   0.10   0.05    -0.18  -0.27  -0.08
  34   6     0.00  -0.00  -0.02    -0.01  -0.01   0.00    -0.02   0.01   0.03
  35   7    -0.00  -0.00  -0.03    -0.02  -0.01  -0.00    -0.04   0.02   0.01
  36   6     0.04   0.00  -0.00    -0.06  -0.02  -0.02    -0.01   0.01   0.01
  37   6     0.13   0.00   0.02    -0.15  -0.02  -0.04     0.18  -0.04   0.09
  38   6     0.10   0.02   0.01    -0.10  -0.04  -0.03     0.22  -0.05   0.10
  39   6    -0.04   0.05  -0.03     0.06  -0.07   0.03     0.02  -0.01   0.02
  40   6    -0.10   0.04  -0.04     0.11  -0.06   0.04    -0.17   0.02  -0.06
  41   6    -0.03   0.01  -0.02     0.02  -0.04   0.01    -0.16   0.03  -0.06
  42   6     0.01   0.00   0.00    -0.02  -0.03  -0.01    -0.10   0.03  -0.04
  43   6    -0.06  -0.03   0.08     0.08   0.02  -0.09     0.11   0.27   0.03
  44   6     0.03   0.03  -0.09    -0.04  -0.09   0.12     0.03  -0.23   0.03
  45   6     0.07  -0.02   0.02    -0.10  -0.02  -0.04    -0.16   0.05  -0.06
  46   6     0.16  -0.03   0.06    -0.19  -0.02  -0.07    -0.16   0.06  -0.07
  47   6     0.07  -0.02   0.02    -0.07  -0.05  -0.02     0.04   0.05   0.02
  48   6    -0.14  -0.00  -0.07     0.18  -0.06   0.07     0.25   0.03   0.11
  49   6    -0.18   0.01  -0.09     0.21  -0.06   0.07     0.20   0.03   0.09
  50   6    -0.04  -0.00  -0.03     0.04  -0.03   0.02    -0.01   0.03   0.01
  51   6    -0.01  -0.01  -0.00    -0.01   0.00   0.04    -0.01   0.02   0.01
  52   6     0.01  -0.05   0.00    -0.03   0.07  -0.01     0.00  -0.01   0.01
  53   7     0.04  -0.11   0.01    -0.08   0.20  -0.12     0.04  -0.08   0.00
  54   6     0.01   0.02   0.03     0.03   0.01   0.07    -0.01   0.04  -0.00
  55   6     0.05   0.09   0.07     0.08   0.08   0.12    -0.02   0.04  -0.02
  56   6     0.04   0.07   0.06     0.10   0.05   0.11    -0.05   0.01  -0.03
  57   6    -0.01  -0.03  -0.01     0.04  -0.06   0.02    -0.06  -0.01  -0.03
  58   6    -0.04  -0.08  -0.03    -0.01  -0.12  -0.02    -0.04   0.02  -0.01
  59   6    -0.02  -0.03  -0.01    -0.00  -0.07   0.01    -0.01   0.05   0.01
  60   1     0.01   0.01  -0.03     0.03  -0.02  -0.00    -0.03   0.04  -0.02
  61   1     0.01  -0.00  -0.02     0.03   0.00   0.00    -0.04  -0.00  -0.03
  62   1     0.01   0.02  -0.01     0.03   0.01   0.00    -0.03   0.01  -0.02
  63   1    -0.01  -0.01   0.03    -0.03   0.01   0.01     0.03  -0.02   0.03
  64   1    -0.00   0.01   0.02    -0.01   0.03   0.01     0.01  -0.02   0.01
  65   1    -0.01  -0.02   0.01    -0.01   0.01   0.00    -0.00  -0.03   0.01
  66   1     0.01   0.05   0.02    -0.02  -0.02  -0.02     0.03   0.06   0.03
  67   1    -0.01   0.03   0.01    -0.02   0.00  -0.00    -0.00   0.01   0.00
  68   1    -0.03  -0.04  -0.01    -0.02   0.03   0.03    -0.03  -0.07  -0.04
  69   1    -0.03  -0.05  -0.01    -0.00   0.03   0.03    -0.03  -0.07  -0.03
  70   1    -0.04   0.15  -0.06    -0.04   0.09  -0.06     0.01  -0.01   0.01
  71   1    -0.03   0.13  -0.06    -0.05   0.09  -0.06     0.01  -0.00   0.00
  72   1     0.03  -0.04   0.03    -0.01  -0.03   0.00    -0.00   0.02  -0.01
  73   1     0.05  -0.12   0.06     0.01  -0.09   0.04    -0.00   0.02  -0.01
  74   1    -0.05   0.02   0.06    -0.08  -0.03  -0.01    -0.01  -0.01  -0.01
  75   1    -0.03   0.00   0.04    -0.07   0.02  -0.01    -0.01   0.01  -0.02
  76   1    -0.04   0.06   0.01    -0.05   0.03  -0.01    -0.01  -0.00  -0.01
  77   1     0.07  -0.03  -0.07     0.08   0.01  -0.00     0.02   0.01   0.01
  78   1     0.04  -0.03  -0.03     0.04   0.04  -0.01     0.01   0.02   0.00
  79   1     0.03   0.05  -0.06     0.04   0.05  -0.02     0.01   0.01   0.01
  80   1    -0.01   0.08  -0.03     0.02  -0.03   0.02     0.00  -0.02   0.01
  81   1     0.00   0.06  -0.02     0.02   0.01  -0.00    -0.00   0.00  -0.00
  82   1     0.02  -0.05   0.03     0.01   0.06  -0.04    -0.01   0.03  -0.01
  83   1     0.02  -0.08   0.03     0.01   0.04  -0.04    -0.00   0.02  -0.00
  84   1     0.06  -0.01   0.01    -0.07  -0.00  -0.02     0.09  -0.02   0.04
  85   1     0.05   0.00   0.01    -0.05  -0.01  -0.01     0.12  -0.03   0.05
  86   1    -0.03   0.02  -0.01     0.04  -0.03   0.02     0.01  -0.00   0.01
  87   1    -0.05   0.02  -0.02     0.06  -0.02   0.02    -0.08   0.01  -0.03
  88   1    -0.02  -0.02   0.04     0.02   0.02  -0.05    -0.00   0.14   0.00
  89   1    -0.01  -0.01   0.03     0.01   0.01  -0.03     0.08   0.08   0.02
  90   1    -0.04  -0.00   0.02     0.05   0.00  -0.01     0.06   0.07   0.02
  91   1    -0.02   0.02  -0.04     0.02  -0.03   0.05     0.05  -0.09   0.02
  92   1     0.02   0.01  -0.02    -0.03  -0.02   0.03     0.04  -0.06   0.01
  93   1     0.02   0.01  -0.05    -0.03  -0.04   0.06    -0.04  -0.11   0.01
  94   1     0.08  -0.01   0.03    -0.10  -0.00  -0.03    -0.08   0.02  -0.04
  95   1     0.04  -0.01   0.01    -0.04  -0.01  -0.01     0.02   0.02   0.01
  96   1    -0.08   0.00  -0.03     0.10  -0.02   0.04     0.13   0.01   0.06
  97   1    -0.09   0.00  -0.04     0.11  -0.02   0.03     0.10   0.01   0.04
  98   1     0.03   0.05   0.03     0.04   0.04   0.05    -0.00   0.01  -0.01
  99   1     0.02   0.04   0.03     0.04   0.03   0.05    -0.02  -0.00  -0.01
 100   1    -0.01  -0.02  -0.01     0.01  -0.03   0.00    -0.03  -0.01  -0.01
 101   1    -0.02  -0.04  -0.02    -0.01  -0.05  -0.02    -0.01  -0.00  -0.00
                     19                     20                     21
                        a                      a                      a 
 Frequencies --   109.8778               111.9067               115.7585
 Red. masses --     9.9672                 9.9360                12.4993
 Frc consts  --     0.0000                 0.0000                 0.0000
 IR Inten    --     0.4913                 0.7664                 4.4754
 Raman Activ --     0.0000                 0.0000                 0.0000
 Depolar     --     0.0000                 0.0000                 0.0000
 Atom AN      X      Y      Z        X      Y      Z        X      Y      Z
   1   6    -0.03   0.01   0.02    -0.13   0.09  -0.11     0.05  -0.03   0.05
   2   6    -0.05   0.01  -0.02     0.01   0.08   0.04    -0.02  -0.03  -0.01
   3   6    -0.07   0.06  -0.02     0.07  -0.11   0.10    -0.04   0.06  -0.04
   4   6    -0.05  -0.01  -0.03     0.06   0.13   0.06    -0.04  -0.06  -0.02
   5   6    -0.05  -0.00  -0.03     0.08   0.21   0.09    -0.06  -0.08  -0.04
   6   6    -0.03   0.04  -0.01    -0.02   0.02  -0.00    -0.02   0.02   0.01
   7   6    -0.02   0.08   0.01    -0.14  -0.27  -0.13     0.03   0.14   0.07
   8   6    -0.02   0.06  -0.00    -0.13  -0.27  -0.13     0.03   0.12   0.07
   9   6    -0.04   0.01  -0.02    -0.02  -0.04  -0.03    -0.01   0.02   0.03
  10   7    -0.05  -0.02  -0.03     0.00   0.01  -0.02    -0.01  -0.01   0.03
  11   6    -0.02  -0.00  -0.01     0.02   0.01  -0.04    -0.02  -0.01   0.03
  12   6    -0.02   0.01   0.02     0.02   0.00  -0.02    -0.01  -0.02   0.00
  13   9    -0.06   0.01   0.05     0.05  -0.00  -0.02    -0.02  -0.02   0.02
  14   6    -0.01   0.02   0.04     0.02  -0.00   0.01     0.01  -0.00  -0.03
  15   7     0.01   0.02   0.02     0.04  -0.02   0.04     0.01   0.01  -0.04
  16   6     0.03   0.05   0.00     0.05  -0.01   0.03     0.00  -0.01  -0.02
  17   6     0.06   0.06   0.02     0.06   0.00   0.03    -0.01  -0.02  -0.03
  18   6     0.09   0.01   0.04     0.06   0.04   0.01    -0.02  -0.02  -0.03
  19   6     0.11  -0.03   0.04     0.05   0.06  -0.01    -0.03  -0.00  -0.02
  20   6     0.08  -0.00   0.01     0.05   0.04  -0.01    -0.01  -0.00  -0.01
  21   6     0.04   0.05  -0.01     0.05   0.00   0.02     0.00  -0.02  -0.01
  22   6     0.02   0.08  -0.03     0.05  -0.01   0.02     0.01  -0.02   0.01
  23   6     0.16   0.07   0.14     0.01  -0.01  -0.04    -0.05  -0.01  -0.06
  24   6    -0.07  -0.12  -0.12     0.09   0.06   0.04     0.05   0.06   0.04
  25   6    -0.02   0.16  -0.06     0.05  -0.04   0.04     0.03  -0.05   0.02
  26   6    -0.03   0.25  -0.10     0.05  -0.04   0.04     0.05  -0.08   0.04
  27   6     0.04   0.04  -0.00     0.03   0.03   0.01     0.03  -0.00  -0.00
  28   6     0.10  -0.28   0.14     0.01   0.11  -0.02     0.01   0.12  -0.06
  29   6     0.09  -0.28   0.13     0.02   0.09  -0.01     0.00   0.11  -0.07
  30   6     0.02  -0.03   0.03     0.03   0.01   0.02     0.01   0.02  -0.03
  31   6    -0.01   0.02   0.03     0.01  -0.01  -0.00     0.02   0.00  -0.02
  32   6    -0.01   0.00  -0.02     0.00  -0.02  -0.00    -0.09  -0.14   0.01
  33   7    -0.03  -0.05  -0.11    -0.01  -0.05  -0.02    -0.31  -0.42   0.06
  34   6     0.00   0.00   0.00     0.01  -0.00  -0.02     0.01   0.02  -0.01
  35   7     0.02  -0.00  -0.01    -0.01  -0.00   0.00     0.02   0.04   0.00
  36   6    -0.03  -0.00  -0.02    -0.04   0.00  -0.01    -0.00   0.06  -0.00
  37   6    -0.14   0.01  -0.06    -0.25   0.03  -0.08    -0.08   0.09  -0.04
  38   6    -0.12   0.00  -0.05    -0.25   0.02  -0.08    -0.09   0.10  -0.04
  39   6     0.05  -0.03   0.01     0.01  -0.03   0.01     0.02   0.08   0.01
  40   6     0.12  -0.03   0.04     0.19  -0.05   0.08     0.09   0.06   0.05
  41   6     0.05  -0.01   0.01     0.12  -0.03   0.06     0.06   0.05   0.03
  42   6    -0.01  -0.01  -0.01     0.05  -0.02   0.03     0.02   0.06   0.01
  43   6     0.05   0.00  -0.11    -0.02  -0.15  -0.08    -0.02  -0.00  -0.05
  44   6    -0.05  -0.03   0.10    -0.05   0.12   0.07    -0.03   0.14   0.02
  45   6    -0.07  -0.00  -0.04     0.04  -0.02   0.03     0.03   0.05  -0.00
  46   6    -0.16  -0.01  -0.07    -0.01  -0.02   0.01     0.01   0.06  -0.01
  47   6    -0.04  -0.03  -0.03    -0.05  -0.02  -0.01    -0.00   0.07  -0.01
  48   6     0.18  -0.05   0.05    -0.04  -0.02  -0.01     0.01   0.07  -0.00
  49   6     0.21  -0.04   0.06     0.00  -0.02   0.01     0.02   0.06   0.01
  50   6     0.06  -0.02   0.01     0.02  -0.02   0.02     0.03   0.05   0.00
  51   6    -0.01  -0.00  -0.01     0.02   0.01  -0.04    -0.01  -0.00   0.01
  52   6     0.01  -0.05   0.01     0.01  -0.00   0.03     0.07  -0.17  -0.01
  53   7     0.04  -0.14   0.06     0.01  -0.04   0.14     0.23  -0.50  -0.04
  54   6    -0.06  -0.00  -0.03    -0.01   0.05   0.00    -0.01  -0.03   0.01
  55   6    -0.06   0.00  -0.03    -0.03   0.05  -0.02     0.00  -0.03   0.02
  56   6    -0.06   0.04  -0.02    -0.07   0.01  -0.04     0.03  -0.01   0.03
  57   6    -0.05   0.06   0.01    -0.09  -0.02  -0.04     0.04   0.01   0.03
  58   6    -0.05   0.05   0.01    -0.05   0.02  -0.00     0.02  -0.01   0.01
  59   6    -0.05   0.01  -0.01    -0.00   0.07   0.02    -0.01  -0.03   0.00
  60   1    -0.00  -0.00   0.01    -0.05   0.07  -0.04     0.02  -0.03   0.02
  61   1    -0.01   0.01   0.01    -0.06  -0.01  -0.05     0.03   0.01   0.02
  62   1    -0.01   0.00   0.01    -0.04   0.02  -0.03     0.02  -0.01   0.02
  63   1    -0.03   0.02  -0.01     0.05  -0.03   0.06    -0.03   0.02  -0.02
  64   1    -0.02   0.02  -0.01     0.02  -0.04   0.03    -0.02   0.03  -0.01
  65   1    -0.02   0.02  -0.00     0.00  -0.06   0.01    -0.00   0.03  -0.01
  66   1    -0.02  -0.01  -0.01     0.05   0.12   0.05    -0.03  -0.05  -0.02
  67   1    -0.01   0.01  -0.00    -0.00   0.02   0.00    -0.01   0.00   0.00
  68   1     0.00   0.04   0.01    -0.07  -0.14  -0.07     0.02   0.07   0.04
  69   1    -0.00   0.02   0.00    -0.06  -0.13  -0.05     0.02   0.06   0.03
  70   1     0.01   0.02   0.01     0.02  -0.00   0.01    -0.00  -0.01  -0.01
  71   1     0.03   0.00   0.02     0.02   0.01   0.00    -0.01  -0.01  -0.01
  72   1     0.04  -0.02   0.02     0.01   0.03  -0.01    -0.01   0.00  -0.01
  73   1     0.03  -0.01  -0.00     0.01   0.02  -0.01    -0.01   0.00  -0.00
  74   1     0.06   0.07   0.08    -0.00  -0.02  -0.02    -0.02  -0.02  -0.03
  75   1     0.08  -0.03   0.06    -0.01   0.01  -0.02    -0.03   0.02  -0.02
  76   1     0.03   0.02   0.02     0.01  -0.00  -0.01    -0.01  -0.00  -0.01
  77   1    -0.04  -0.04  -0.09     0.04   0.02   0.03     0.03   0.01   0.02
  78   1    -0.03  -0.09  -0.00     0.03   0.03   0.00     0.01   0.03   0.00
  79   1    -0.01  -0.01  -0.03     0.02   0.01   0.01     0.02   0.02   0.01
  80   1    -0.02   0.13  -0.05     0.02  -0.03   0.02     0.02  -0.04   0.02
  81   1     0.01   0.03  -0.01     0.01   0.01   0.00     0.01  -0.01   0.00
  82   1     0.04  -0.15   0.07    -0.00   0.05  -0.02     0.00   0.06  -0.03
  83   1     0.04  -0.14   0.05     0.00   0.04  -0.01    -0.00   0.05  -0.03
  84   1    -0.07   0.01  -0.02    -0.11   0.02  -0.03    -0.04   0.03  -0.02
  85   1    -0.06   0.01  -0.03    -0.13   0.02  -0.04    -0.05   0.04  -0.02
  86   1     0.03  -0.01   0.01     0.01  -0.01   0.01     0.01   0.02   0.01
  87   1     0.07  -0.01   0.02     0.10  -0.02   0.04     0.04   0.01   0.02
  88   1     0.02   0.00  -0.06     0.02  -0.08  -0.05     0.01  -0.02  -0.02
  89   1    -0.01  -0.00  -0.04    -0.05  -0.05  -0.04    -0.03  -0.00  -0.02
  90   1     0.04   0.00  -0.02    -0.00  -0.04  -0.02    -0.00   0.00  -0.01
  91   1     0.01  -0.01   0.04    -0.02   0.04   0.02    -0.01   0.05   0.01
  92   1    -0.04  -0.00   0.02    -0.05   0.04   0.01    -0.02   0.04   0.00
  93   1    -0.03  -0.01   0.05     0.00   0.06   0.04     0.00   0.05   0.01
  94   1    -0.09   0.00  -0.03    -0.01  -0.01   0.00    -0.00   0.02  -0.01
  95   1    -0.03  -0.01  -0.01    -0.03  -0.01  -0.01    -0.01   0.02  -0.01
  96   1     0.09  -0.02   0.03    -0.02  -0.01  -0.00     0.00   0.02  -0.00
  97   1     0.10  -0.01   0.03     0.00  -0.01   0.00     0.01   0.02   0.00
  98   1    -0.02  -0.00  -0.01    -0.01   0.02  -0.01    -0.00  -0.01   0.01
  99   1    -0.02   0.01  -0.01    -0.03  -0.00  -0.02     0.01  -0.00   0.01
 100   1    -0.01   0.03   0.01    -0.04  -0.02  -0.02     0.02   0.01   0.01
 101   1    -0.01   0.02   0.01    -0.02  -0.00   0.00     0.01   0.00   0.00
                     22                     23                     24
                        a                      a                      a 
 Frequencies --   125.7821               130.0787               139.5139
 Red. masses --    10.7499                12.5621                 8.0878
 Frc consts  --     0.0000                 0.0000                 0.0000
 IR Inten    --     0.0178                 0.9071                 2.2459
 Raman Activ --     0.0000                 0.0000                 0.0000
 Depolar     --     0.0000                 0.0000                 0.0000
 Atom AN      X      Y      Z        X      Y      Z        X      Y      Z
   1   6     0.10  -0.03  -0.03    -0.07   0.06   0.02     0.03  -0.00  -0.03
   2   6     0.12  -0.04   0.03     0.04   0.08   0.03    -0.01  -0.02   0.01
   3   6     0.13  -0.11   0.07     0.10  -0.01  -0.01    -0.04  -0.01   0.04
   4   6     0.11  -0.01   0.05     0.04   0.07   0.03    -0.02  -0.00   0.02
   5   6     0.13  -0.02   0.07     0.00  -0.04  -0.02    -0.04   0.01   0.00
   6   6     0.13  -0.11   0.02    -0.01  -0.11  -0.06    -0.06   0.03   0.01
   7   6     0.10  -0.19  -0.03     0.02  -0.04  -0.03    -0.07   0.03   0.04
   8   6     0.09  -0.14  -0.03     0.06   0.09   0.02    -0.05   0.01   0.05
   9   6     0.08  -0.05   0.02     0.06   0.12   0.04    -0.02  -0.00   0.04
  10   7     0.06  -0.01   0.01     0.07   0.15   0.05     0.00   0.01   0.06
  11   6     0.02  -0.02  -0.01     0.01   0.06   0.02     0.01   0.02   0.04
  12   6    -0.00   0.00  -0.01     0.03   0.00   0.04     0.04  -0.01  -0.08
  13   9    -0.02   0.00  -0.02     0.12  -0.00   0.11     0.18  -0.02  -0.45
  14   6    -0.02   0.00  -0.00    -0.01  -0.05   0.02     0.01  -0.02   0.04
  15   7    -0.07   0.04  -0.02     0.01  -0.12   0.04    -0.00  -0.02   0.06
  16   6    -0.10   0.03  -0.01    -0.02  -0.08   0.02    -0.02   0.04   0.02
  17   6    -0.13   0.01  -0.04    -0.05  -0.02  -0.02    -0.01   0.03   0.03
  18   6    -0.14  -0.03  -0.01    -0.09   0.06  -0.06     0.02  -0.04   0.07
  19   6    -0.12  -0.08   0.03    -0.08   0.04  -0.05     0.04  -0.08   0.08
  20   6    -0.11  -0.06   0.03    -0.05  -0.04   0.01     0.01  -0.00   0.03
  21   6    -0.10  -0.00   0.00    -0.02  -0.08   0.03    -0.02   0.07  -0.01
  22   6    -0.12   0.00  -0.03    -0.03  -0.07   0.01    -0.03   0.02   0.00
  23   6    -0.10   0.01   0.04    -0.09  -0.04   0.02     0.04  -0.05  -0.10
  24   6    -0.16  -0.08  -0.08     0.02  -0.04  -0.02    -0.10   0.03   0.13
  25   6    -0.11   0.03  -0.06    -0.02  -0.06   0.00    -0.03  -0.02   0.02
  26   6    -0.13  -0.01  -0.07    -0.04   0.02  -0.04    -0.07   0.07  -0.04
  27   6    -0.14  -0.12  -0.00    -0.05   0.06  -0.05    -0.09   0.07  -0.03
  28   6    -0.14  -0.17   0.04    -0.04  -0.02  -0.02    -0.07  -0.04   0.04
  29   6    -0.13  -0.08   0.02    -0.02  -0.10   0.02    -0.04  -0.09   0.08
  30   6    -0.10   0.00  -0.03    -0.01  -0.10   0.02    -0.02  -0.05   0.05
  31   6     0.00   0.01   0.02    -0.03  -0.04  -0.01     0.02  -0.02   0.06
  32   6    -0.01  -0.01   0.00     0.06   0.08  -0.01     0.03  -0.01   0.02
  33   7    -0.05  -0.07  -0.03     0.26   0.35   0.01     0.07   0.01  -0.07
  34   6     0.01   0.02   0.00    -0.04   0.01  -0.02     0.02   0.00  -0.00
  35   7     0.04   0.04   0.01    -0.15   0.02  -0.05    -0.02   0.01  -0.05
  36   6     0.01   0.07   0.01    -0.11   0.02  -0.03    -0.01   0.02  -0.04
  37   6    -0.04   0.11  -0.03    -0.09   0.02  -0.03    -0.01   0.04  -0.05
  38   6    -0.08   0.14  -0.04     0.03  -0.00   0.02     0.00   0.06  -0.04
  39   6    -0.01   0.12   0.00     0.10  -0.02   0.05     0.03   0.05  -0.01
  40   6     0.06   0.09   0.04     0.03  -0.00   0.02     0.03   0.03   0.00
  41   6     0.05   0.07   0.03    -0.07   0.02  -0.02     0.01   0.02  -0.02
  42   6     0.03   0.09   0.00    -0.07   0.02  -0.02     0.00   0.01  -0.01
  43   6     0.04   0.08  -0.05    -0.02   0.07  -0.01     0.00   0.01  -0.02
  44   6    -0.01   0.13   0.05    -0.04  -0.05  -0.00    -0.01   0.01   0.01
  45   6     0.01   0.08  -0.02    -0.08   0.02  -0.02    -0.00  -0.00  -0.02
  46   6    -0.03   0.10  -0.04     0.01   0.01   0.01     0.01  -0.02  -0.01
  47   6    -0.00   0.12  -0.02     0.10   0.01   0.05     0.02  -0.03  -0.01
  48   6     0.07   0.11   0.02     0.05   0.01   0.03     0.02  -0.03  -0.03
  49   6     0.09   0.09   0.04    -0.07   0.02  -0.02    -0.00  -0.01  -0.04
  50   6     0.05   0.07   0.01    -0.10   0.02  -0.03    -0.01  -0.00  -0.04
  51   6     0.01  -0.01  -0.02    -0.02   0.06  -0.01     0.02   0.02   0.05
  52   6    -0.01   0.02   0.00     0.05  -0.09  -0.00     0.03   0.00   0.02
  53   7    -0.04   0.08   0.04     0.22  -0.45   0.02     0.06  -0.03  -0.05
  54   6     0.10  -0.02   0.01     0.05   0.11   0.03     0.00  -0.01   0.04
  55   6     0.13  -0.02   0.04     0.02   0.05   0.00     0.02   0.00   0.06
  56   6     0.14  -0.04   0.02    -0.06  -0.08  -0.07     0.04   0.03   0.07
  57   6     0.11  -0.09  -0.01    -0.06  -0.09  -0.07     0.03  -0.00   0.04
  58   6     0.10  -0.08  -0.03     0.01   0.03  -0.00    -0.00  -0.05   0.01
  59   6     0.10  -0.04  -0.00     0.05   0.11   0.04    -0.01  -0.05   0.01
  60   1     0.03   0.00  -0.02    -0.03   0.03   0.01     0.03   0.01  -0.05
  61   1     0.02  -0.02  -0.01    -0.02   0.01   0.00    -0.02  -0.01  -0.01
  62   1     0.04  -0.00   0.00    -0.03  -0.00  -0.00     0.04   0.01   0.02
  63   1     0.05  -0.03   0.04     0.06   0.00  -0.00    -0.03  -0.02   0.05
  64   1     0.04  -0.03   0.02     0.02  -0.02  -0.01    -0.02   0.04   0.00
  65   1     0.03  -0.05   0.01     0.03  -0.01  -0.00     0.01  -0.03  -0.01
  66   1     0.04   0.01   0.04    -0.01  -0.02  -0.01    -0.01   0.00  -0.01
  67   1     0.04  -0.04   0.01    -0.02  -0.07  -0.03    -0.02   0.01   0.00
  68   1     0.02  -0.08  -0.02     0.00  -0.02  -0.01    -0.02   0.01   0.01
  69   1     0.02  -0.05  -0.02     0.03   0.04   0.01    -0.02   0.00   0.02
  70   1    -0.04   0.01  -0.02    -0.01  -0.01  -0.01    -0.01   0.02   0.00
  71   1    -0.04  -0.01  -0.01    -0.03   0.04  -0.03     0.01  -0.02   0.03
  72   1    -0.03  -0.04   0.02    -0.03   0.03  -0.02     0.02  -0.05   0.03
  73   1    -0.03  -0.02   0.02    -0.01  -0.02   0.01     0.00  -0.01   0.01
  74   1    -0.03   0.03   0.05    -0.04  -0.02   0.01     0.07  -0.10  -0.24
  75   1     0.00  -0.03   0.02    -0.03  -0.01   0.00    -0.18   0.10  -0.02
  76   1    -0.05   0.01  -0.01    -0.03   0.00   0.00     0.15  -0.05   0.14
  77   1    -0.05  -0.04  -0.07     0.02  -0.01  -0.00    -0.12   0.14   0.32
  78   1    -0.06  -0.06   0.00     0.01  -0.01  -0.01     0.18   0.16  -0.14
  79   1    -0.03   0.01  -0.02    -0.00  -0.00  -0.01    -0.15  -0.27  -0.04
  80   1    -0.04   0.01  -0.03    -0.01   0.02  -0.02    -0.02   0.04  -0.03
  81   1    -0.04  -0.05   0.00    -0.02   0.04  -0.03    -0.04   0.04  -0.02
  82   1    -0.04  -0.08   0.02    -0.01  -0.00  -0.01    -0.03  -0.02   0.02
  83   1    -0.04  -0.02   0.01    -0.00  -0.04   0.01    -0.01  -0.04   0.04
  84   1    -0.02   0.03  -0.02    -0.04   0.01  -0.01    -0.00   0.01  -0.02
  85   1    -0.04   0.05  -0.02     0.02  -0.00   0.01    -0.00   0.02  -0.02
  86   1    -0.01   0.04   0.00     0.06  -0.01   0.03     0.01   0.02  -0.00
  87   1     0.03   0.02   0.02     0.02  -0.00   0.01     0.01   0.01   0.01
  88   1     0.02   0.02  -0.04    -0.01   0.03  -0.00     0.01   0.00  -0.02
  89   1    -0.01   0.02  -0.02     0.01   0.02  -0.00    -0.01  -0.00  -0.00
  90   1     0.03   0.03  -0.00     0.00   0.01  -0.00     0.01   0.01   0.00
  91   1     0.01   0.03   0.02    -0.00  -0.01   0.00     0.00   0.00   0.00
  92   1    -0.02   0.05   0.00    -0.00  -0.02   0.00    -0.01   0.00   0.00
  93   1    -0.00   0.04   0.03    -0.02  -0.03  -0.01    -0.00   0.00   0.01
  94   1    -0.02   0.03  -0.02     0.01   0.00   0.00     0.00  -0.01   0.00
  95   1    -0.01   0.04  -0.01     0.06   0.00   0.02     0.01  -0.01  -0.00
  96   1     0.03   0.04   0.01     0.03   0.00   0.01     0.01  -0.01  -0.01
  97   1     0.04   0.03   0.02    -0.03   0.01  -0.01    -0.00  -0.00  -0.01
  98   1     0.04   0.00   0.02     0.01   0.02   0.00     0.01   0.00   0.02
  99   1     0.05  -0.01   0.01    -0.03  -0.05  -0.03     0.02   0.02   0.03
 100   1     0.03  -0.04  -0.01    -0.03  -0.05  -0.04     0.01   0.00   0.01
 101   1     0.02  -0.03  -0.02     0.00   0.01   0.00    -0.00  -0.02  -0.01
                     25                     26                     27
                        a                      a                      a 
 Frequencies --   140.6786               143.2690               147.8310
 Red. masses --    10.3242                 3.1599                10.7600
 Frc consts  --     0.0000                 0.0000                 0.0000
 IR Inten    --     7.3392                 1.0490                 0.0911
 Raman Activ --     0.0000                 0.0000                 0.0000
 Depolar     --     0.0000                 0.0000                 0.0000
 Atom AN      X      Y      Z        X      Y      Z        X      Y      Z
   1   6    -0.00  -0.01   0.01    -0.06  -0.07   0.19     0.06  -0.08   0.01
   2   6     0.02   0.00  -0.01     0.00   0.00   0.00    -0.06  -0.10  -0.03
   3   6     0.04  -0.01  -0.02     0.07   0.06  -0.17    -0.12   0.01  -0.01
   4   6     0.03  -0.01  -0.01    -0.03  -0.06  -0.03    -0.06  -0.11  -0.04
   5   6     0.07  -0.02   0.02     0.01   0.06   0.02     0.00   0.05   0.03
   6   6     0.10  -0.04  -0.00     0.02   0.12   0.04     0.03   0.16   0.08
   7   6     0.10  -0.06  -0.04    -0.02   0.03   0.01    -0.02   0.04   0.03
   8   6     0.07  -0.04  -0.07    -0.05  -0.06  -0.02    -0.08  -0.13  -0.04
   9   6     0.03  -0.02  -0.05    -0.03  -0.06  -0.02    -0.08  -0.15  -0.06
  10   7    -0.01  -0.03  -0.08     0.01   0.00   0.01    -0.08  -0.15  -0.06
  11   6    -0.02  -0.04  -0.05     0.01   0.00  -0.00    -0.00  -0.04  -0.03
  12   6    -0.06   0.00   0.10     0.01  -0.00  -0.02     0.00  -0.05   0.00
  13   9    -0.25   0.02   0.51     0.05  -0.01  -0.07     0.03  -0.06  -0.00
  14   6    -0.02   0.03  -0.03     0.00  -0.01   0.01    -0.00  -0.06   0.04
  15   7    -0.01   0.01  -0.07    -0.00   0.00   0.01     0.05  -0.19   0.08
  16   6    -0.01   0.04  -0.07    -0.01   0.00   0.00     0.06  -0.17   0.07
  17   6    -0.03   0.07  -0.09    -0.01   0.00   0.00     0.04  -0.14   0.05
  18   6    -0.02   0.03  -0.07    -0.01  -0.00   0.01    -0.02   0.05  -0.05
  19   6     0.01  -0.09   0.00    -0.01  -0.01   0.01    -0.06   0.16  -0.11
  20   6     0.02  -0.10   0.01    -0.01  -0.00   0.01    -0.01   0.03  -0.04
  21   6    -0.00  -0.01  -0.04    -0.01   0.01   0.00     0.04  -0.12   0.04
  22   6     0.01  -0.02  -0.01    -0.01   0.00  -0.00     0.04  -0.11   0.04
  23   6     0.01  -0.05  -0.09    -0.01  -0.00  -0.01    -0.07  -0.07   0.00
  24   6    -0.01   0.03   0.08    -0.02  -0.00   0.00     0.12  -0.02   0.01
  25   6     0.03  -0.04   0.00    -0.01   0.00  -0.00     0.04  -0.12   0.04
  26   6     0.04   0.08  -0.02    -0.02   0.00  -0.01     0.01   0.03  -0.02
  27   6     0.08   0.13  -0.06    -0.03  -0.01  -0.00    -0.01   0.16  -0.08
  28   6     0.10   0.02  -0.04    -0.03  -0.02   0.01     0.01   0.05  -0.03
  29   6     0.09  -0.08  -0.03    -0.02  -0.01   0.01     0.05  -0.14   0.05
  30   6     0.04  -0.06  -0.02    -0.01  -0.00   0.00     0.05  -0.17   0.07
  31   6    -0.03   0.03  -0.06     0.01  -0.01   0.01    -0.01  -0.05   0.03
  32   6    -0.05   0.02  -0.03     0.01  -0.01   0.01     0.03  -0.01   0.01
  33   7    -0.08  -0.01   0.03     0.01  -0.02  -0.01     0.14   0.13  -0.03
  34   6    -0.03   0.00  -0.00     0.01  -0.00   0.00    -0.01  -0.02  -0.00
  35   7     0.01   0.00   0.06     0.02  -0.00   0.00    -0.03   0.01  -0.01
  36   6    -0.00  -0.00   0.04     0.02  -0.00   0.00    -0.01   0.06   0.00
  37   6    -0.00  -0.01   0.05     0.02   0.00  -0.00    -0.00   0.10  -0.02
  38   6    -0.01  -0.03   0.04    -0.01   0.01  -0.01    -0.00   0.13  -0.01
[...]
  65   1    -0.00   0.00  -0.00     0.00  -0.00   0.00     0.00  -0.00   0.00
  66   1     0.01  -0.00   0.00     0.01  -0.00   0.00    -0.57   0.29  -0.08
  67   1    -0.00  -0.00   0.00    -0.00  -0.00   0.00     0.13   0.01  -0.13
  68   1     0.00  -0.00   0.01     0.00  -0.00   0.01    -0.13   0.30  -0.55
  69   1     0.00  -0.00   0.00     0.00  -0.00   0.00    -0.21   0.10  -0.04
  70   1    -0.02  -0.01  -0.00     0.01   0.01   0.00    -0.01  -0.00  -0.00
  71   1    -0.02   0.00   0.02     0.01  -0.00  -0.01    -0.01   0.00   0.01
  72   1     0.00   0.01   0.01    -0.00  -0.00  -0.00     0.00   0.00   0.00
  73   1    -0.03  -0.01  -0.00     0.02   0.01   0.00    -0.01  -0.00  -0.00
  74   1     0.00  -0.00   0.00    -0.00   0.00  -0.00     0.00  -0.00   0.00
  75   1     0.00  -0.00  -0.00    -0.00   0.00   0.00    -0.00  -0.00  -0.00
  76   1    -0.02   0.00   0.02     0.03  -0.01  -0.03     0.00  -0.00  -0.00
  77   1     0.00   0.00  -0.00    -0.00  -0.00   0.00    -0.00   0.00   0.00
  78   1     0.00  -0.00  -0.00    -0.00  -0.00   0.00    -0.00  -0.00  -0.00
  79   1    -0.02   0.00   0.01     0.03  -0.01  -0.02     0.00  -0.00  -0.00
  80   1    -0.32  -0.09  -0.04     0.56   0.15   0.06     0.01   0.00   0.00
  81   1     0.11  -0.03  -0.12    -0.14   0.04   0.14    -0.00   0.00   0.00
  82   1    -0.09  -0.12  -0.24     0.16   0.22   0.44     0.00   0.00   0.01
  83   1    -0.08  -0.02  -0.01     0.17   0.04   0.03     0.00   0.00   0.00
  84   1    -0.00  -0.01  -0.00    -0.00  -0.00  -0.00    -0.01  -0.04   0.00
  85   1     0.00  -0.01  -0.02     0.00  -0.00  -0.01     0.01  -0.04  -0.06
  86   1     0.00   0.00  -0.01     0.00   0.00  -0.00     0.01   0.01  -0.01
  87   1    -0.01  -0.03   0.00    -0.00  -0.01   0.00    -0.01  -0.08   0.00
  88   1     0.00   0.00   0.00     0.00   0.00   0.00     0.00   0.00   0.00
  89   1     0.01  -0.03  -0.03     0.01  -0.01  -0.02     0.00  -0.00  -0.00
  90   1    -0.00   0.00   0.00     0.00   0.00   0.00    -0.00  -0.00   0.00
  91   1    -0.00   0.00   0.00     0.00   0.00  -0.00    -0.00  -0.00   0.00
  92   1     0.01  -0.02  -0.02     0.00  -0.01  -0.01     0.00   0.00  -0.00
  93   1    -0.00   0.00  -0.00    -0.00   0.00  -0.00     0.00   0.00  -0.00
  94   1    -0.05  -0.55  -0.01    -0.03  -0.33  -0.01    -0.00  -0.01  -0.00
  95   1    -0.06   0.12   0.18    -0.03   0.05   0.07    -0.00   0.00   0.00
  96   1    -0.17  -0.25   0.41    -0.10  -0.15   0.24    -0.00  -0.00   0.01
  97   1    -0.01  -0.25   0.00    -0.01  -0.16   0.00    -0.00  -0.00   0.00
  98   1    -0.04   0.03  -0.01     0.02  -0.01   0.00    -0.01   0.00  -0.00
  99   1    -0.04   0.00   0.04     0.02  -0.00  -0.02    -0.01   0.00   0.01
 100   1     0.00  -0.02   0.03    -0.00   0.01  -0.01     0.00  -0.00   0.00
 101   1    -0.05   0.03  -0.01     0.02  -0.01   0.00    -0.01   0.01  -0.00
                    292                    293                    294
                        a                      a                      a 
 Frequencies --  3102.8687              3103.4390              3103.4934
 Red. masses --     1.9014                 1.9019                 1.9036
 Frc consts  --     0.0000                 0.0000                 0.0000
 IR Inten    --    85.0749               134.0517               159.2570
 Raman Activ --     0.0000                 0.0000                 0.0000
 Depolar     --     0.0000                 0.0000                 0.0000
 Atom AN      X      Y      Z        X      Y      Z        X      Y      Z
   1   6    -0.00  -0.00   0.00     0.00   0.00  -0.01    -0.00   0.00  -0.00
   2   6    -0.00  -0.00   0.00    -0.00   0.00  -0.00    -0.00   0.00  -0.00
   3   6    -0.00  -0.00   0.00     0.00   0.00  -0.01    -0.00   0.00  -0.00
   4   6    -0.00   0.00  -0.00     0.00  -0.00   0.00     0.00  -0.00  -0.00
   5   6    -0.02   0.01  -0.00     0.07  -0.04   0.01    -0.00   0.00  -0.00
   6   6    -0.01  -0.00   0.01     0.06   0.00  -0.06     0.00   0.00  -0.00
   7   6     0.00  -0.00   0.01    -0.01   0.03  -0.05    -0.00   0.00  -0.00
   8   6     0.00  -0.00   0.00    -0.02   0.01  -0.00    -0.00   0.00  -0.00
   9   6     0.00  -0.00  -0.00    -0.00   0.00   0.00    -0.00   0.00   0.00
  10   7    -0.00   0.00   0.00     0.00   0.00  -0.00    -0.00   0.00  -0.00
  11   6     0.00  -0.00   0.00     0.00  -0.00   0.00     0.00  -0.00   0.00
  12   6    -0.00  -0.00  -0.00    -0.00   0.00   0.00    -0.00  -0.00   0.00
  13   9     0.00   0.00  -0.00    -0.00  -0.00   0.00    -0.00   0.00   0.00
  14   6    -0.00  -0.00   0.00     0.00  -0.00   0.00     0.00   0.00   0.00
  15   7     0.00   0.00   0.00    -0.00   0.00   0.00     0.00  -0.00  -0.00
  16   6    -0.00  -0.00  -0.00    -0.00  -0.00  -0.00     0.00   0.00   0.00
  17   6    -0.00  -0.00  -0.00    -0.00  -0.00  -0.00     0.03   0.01   0.01
  18   6    -0.00   0.00   0.00    -0.01   0.00   0.01     0.06  -0.01  -0.06
  19   6     0.00   0.01   0.01     0.00   0.01   0.01    -0.04  -0.08  -0.12
  20   6     0.01   0.00   0.00     0.02   0.01   0.00    -0.15  -0.06  -0.02
  21   6     0.00  -0.00  -0.00     0.00  -0.00  -0.00    -0.00   0.00   0.00
  22   6    -0.00   0.00   0.00    -0.00   0.00   0.00    -0.00  -0.00  -0.00
  23   6    -0.00   0.00   0.00    -0.00   0.00   0.00    -0.00  -0.00  -0.01
  24   6    -0.00   0.00   0.00    -0.00   0.00   0.00    -0.00  -0.00  -0.01
  25   6    -0.00  -0.00  -0.00    -0.00  -0.00  -0.00     0.00   0.00   0.00
  26   6    -0.02  -0.00  -0.00    -0.02  -0.00  -0.00     0.08   0.02   0.01
  27   6    -0.01   0.00   0.01    -0.01   0.00   0.01     0.06  -0.02  -0.06
  28   6     0.00   0.00   0.01     0.00   0.00   0.01    -0.02  -0.02  -0.05
  29   6     0.00   0.00   0.00     0.00   0.00   0.00    -0.02  -0.00  -0.00
  30   6     0.00   0.00  -0.00     0.00  -0.00  -0.00    -0.00   0.00   0.00
  31   6     0.00   0.00   0.00    -0.00   0.00  -0.00    -0.00  -0.00   0.00
  32   6    -0.00   0.00  -0.00     0.00  -0.00   0.00    -0.00   0.00  -0.00
  33   7     0.00  -0.00   0.00    -0.00   0.00  -0.00     0.00  -0.00   0.00
  34   6    -0.00  -0.00  -0.00     0.00  -0.00   0.00     0.00  -0.00   0.00
  35   7     0.00   0.00  -0.00     0.00   0.00  -0.00     0.00   0.00  -0.00
  36   6    -0.00  -0.00   0.00    -0.00  -0.00   0.00    -0.00  -0.00   0.00
  37   6    -0.01  -0.03   0.00    -0.00  -0.00   0.00    -0.00  -0.01   0.00
  38   6     0.01  -0.05  -0.06     0.00  -0.00  -0.01     0.00  -0.01  -0.01
  39   6     0.06   0.06  -0.11     0.00   0.00  -0.01     0.01   0.01  -0.02
  40   6     0.03   0.16  -0.00     0.00   0.01  -0.00     0.01   0.03  -0.00
  41   6    -0.00   0.00   0.00    -0.00   0.00   0.00    -0.00   0.00   0.00
  42   6     0.00   0.00  -0.00     0.00  -0.00  -0.00     0.00   0.00  -0.00
  43   6     0.00   0.00  -0.01     0.00  -0.00  -0.00     0.00   0.00  -0.00
  44   6     0.00   0.00  -0.01     0.00  -0.00  -0.00     0.00   0.00  -0.00
  45   6    -0.00  -0.00   0.00    -0.00  -0.00   0.00     0.00   0.00  -0.00
  46   6    -0.01  -0.10  -0.00    -0.00  -0.02  -0.00     0.00   0.01   0.00
  47   6     0.03  -0.05  -0.08     0.01  -0.01  -0.01    -0.00   0.01   0.01
  48   6     0.02   0.03  -0.05     0.00   0.01  -0.01    -0.00  -0.00   0.00
  49   6     0.00   0.02   0.00     0.00   0.01   0.00    -0.00  -0.00  -0.00
  50   6    -0.00   0.00   0.00    -0.00   0.00   0.00    -0.00  -0.00   0.00
  51   6     0.00  -0.00   0.00    -0.00   0.00   0.00    -0.00   0.00   0.00
  52   6    -0.00  -0.00  -0.00    -0.00  -0.00  -0.00     0.00   0.00   0.00
  53   7     0.00   0.00   0.00     0.00   0.00   0.00    -0.00  -0.00  -0.00
  54   6    -0.00   0.00  -0.00     0.00  -0.00   0.00     0.00  -0.00   0.00
  55   6    -0.00   0.00  -0.00     0.03  -0.02   0.01     0.00  -0.00   0.00
  56   6    -0.00   0.00   0.00     0.06  -0.00  -0.05     0.01  -0.00  -0.01
  57   6     0.00  -0.01   0.01    -0.02   0.08  -0.13    -0.00   0.01  -0.02
  58   6     0.01  -0.01   0.00    -0.15   0.09  -0.03    -0.02   0.01  -0.00
  59   6     0.00  -0.00  -0.00    -0.00   0.00   0.00    -0.00   0.00   0.00
  60   1    -0.00  -0.00   0.00    -0.00  -0.00  -0.00    -0.00  -0.00  -0.00
  61   1    -0.00   0.00  -0.00     0.01  -0.02   0.03     0.00  -0.00   0.00
  62   1     0.00  -0.00  -0.00    -0.01   0.00   0.01     0.00   0.00  -0.00
  63   1    -0.00   0.00   0.00    -0.00   0.00  -0.00    -0.00   0.00   0.00
  64   1     0.00  -0.00  -0.00    -0.01   0.00   0.01     0.00   0.00  -0.00
  65   1    -0.00   0.00  -0.00     0.01  -0.01   0.02     0.00  -0.00   0.00
  66   1     0.07  -0.03   0.01    -0.26   0.13  -0.04     0.00  -0.00   0.00
  67   1     0.04   0.00  -0.04    -0.19  -0.01   0.19    -0.00  -0.00   0.00
  68   1    -0.01   0.02  -0.03     0.04  -0.09   0.16     0.00  -0.00   0.00
  69   1    -0.01   0.00  -0.00     0.05  -0.02   0.01     0.00  -0.00   0.00
  70   1     0.01   0.00   0.00     0.01   0.01   0.00    -0.12  -0.05  -0.01
  71   1     0.01  -0.00  -0.01     0.02  -0.00  -0.02    -0.19   0.03   0.18
  72   1    -0.01  -0.02  -0.03    -0.01  -0.02  -0.04     0.11   0.25   0.41
  73   1    -0.04  -0.01  -0.01    -0.05  -0.02  -0.01     0.53   0.20   0.09
  74   1    -0.00   0.00   0.00    -0.00   0.00   0.00    -0.00   0.00  -0.00
  75   1    -0.00  -0.00  -0.00    -0.00  -0.00  -0.00     0.01   0.02   0.03
  76   1     0.00  -0.00  -0.00     0.00  -0.00  -0.00    -0.01   0.00   0.01
  77   1    -0.00  -0.00   0.00    -0.00   0.00   0.00    -0.00  -0.00  -0.00
  78   1    -0.00  -0.00  -0.00    -0.00  -0.00  -0.00     0.01   0.01   0.02
  79   1     0.00  -0.00  -0.00     0.00  -0.00  -0.00    -0.01   0.00   0.01
  80   1     0.06   0.02   0.01     0.05   0.01   0.01    -0.29  -0.08  -0.03
  81   1     0.04  -0.01  -0.04     0.04  -0.01  -0.04    -0.20   0.06   0.21
  82   1    -0.01  -0.01  -0.02    -0.01  -0.01  -0.03     0.06   0.08   0.15
  83   1    -0.00  -0.00  -0.00    -0.01  -0.00  -0.00     0.05   0.01   0.01
  84   1     0.02   0.10  -0.00     0.00   0.01  -0.00     0.00   0.02  -0.00
  85   1    -0.05   0.15   0.21    -0.00   0.01   0.02    -0.01   0.03   0.04
  86   1    -0.19  -0.19   0.37    -0.01  -0.01   0.02    -0.04  -0.04   0.07
  87   1    -0.10  -0.57   0.02    -0.01  -0.03   0.00    -0.02  -0.11   0.00
  88   1     0.00   0.00  -0.00    -0.00  -0.00  -0.00     0.00   0.00   0.00
  89   1    -0.00   0.01   0.01    -0.00   0.00   0.00     0.00  -0.00  -0.00
  90   1    -0.01  -0.01   0.02    -0.00  -0.00   0.00    -0.00  -0.00   0.00
  91   1    -0.01  -0.02   0.02    -0.00  -0.00   0.00    -0.00  -0.00   0.00
  92   1    -0.00   0.01   0.01    -0.00   0.00   0.00     0.00  -0.00  -0.00
  93   1    -0.00   0.00  -0.00     0.00  -0.00  -0.00    -0.00   0.00  -0.00
  94   1     0.03   0.35   0.01     0.01   0.07   0.00    -0.00  -0.04  -0.00
  95   1    -0.09   0.17   0.25    -0.02   0.03   0.05     0.01  -0.02  -0.03
  96   1    -0.07  -0.10   0.16    -0.01  -0.02   0.03     0.01   0.01  -0.01
  97   1    -0.00  -0.07   0.00    -0.00  -0.02   0.00     0.00   0.01  -0.00
  98   1     0.01  -0.00   0.00    -0.10   0.07  -0.02    -0.01   0.01  -0.00
  99   1     0.01  -0.00  -0.01    -0.19   0.01   0.18    -0.03   0.00   0.02
 100   1    -0.00   0.02  -0.03     0.06  -0.26   0.42     0.01  -0.04   0.06
 101   1    -0.04   0.03  -0.01     0.50  -0.32   0.10     0.07  -0.05   0.01
                    295                    296                    297
                        a                      a                      a 
 Frequencies --  3103.9211              3104.4697              3104.6281
 Red. masses --     1.9032                 1.9060                 1.9062
 Frc consts  --     0.0000                 0.0000                 0.0000
 IR Inten    --    75.2644               141.6958                 9.4044
 Raman Activ --     0.0000                 0.0000                 0.0000
 Depolar     --     0.0000                 0.0000                 0.0000
 Atom AN      X      Y      Z        X      Y      Z        X      Y      Z
   1   6    -0.00   0.00   0.00     0.01  -0.00  -0.00    -0.00   0.00   0.00
   2   6    -0.00   0.00  -0.00     0.00  -0.00   0.00    -0.00   0.00  -0.00
   3   6    -0.00   0.00  -0.00     0.01  -0.00  -0.00    -0.00   0.00   0.00
   4   6    -0.00   0.00  -0.00     0.00  -0.00   0.00    -0.00   0.00  -0.00
   5   6    -0.02   0.01  -0.00     0.12  -0.06   0.02    -0.07   0.04  -0.01
   6   6    -0.02  -0.00   0.02     0.09   0.01  -0.09    -0.05  -0.00   0.06
   7   6     0.00  -0.01   0.01    -0.02   0.04  -0.08     0.01  -0.03   0.05
   8   6     0.00  -0.00   0.00    -0.03   0.01  -0.00     0.02  -0.01   0.00
   9   6     0.00  -0.00  -0.00    -0.00   0.00   0.00     0.00  -0.00  -0.00
  10   7    -0.00   0.00  -0.00     0.00  -0.00  -0.00    -0.00  -0.00   0.00
  11   6     0.00  -0.00   0.00    -0.00   0.00  -0.00    -0.00  -0.00  -0.00
  12   6     0.00  -0.00  -0.00     0.00  -0.00  -0.00     0.00   0.00  -0.00
  13   9     0.00   0.00  -0.00     0.00   0.00  -0.00    -0.00  -0.00  -0.00
  14   6    -0.00  -0.00  -0.00    -0.00  -0.00  -0.00    -0.00  -0.00  -0.00
  15   7     0.00   0.00   0.00     0.00   0.00  -0.00     0.00   0.00  -0.00
  16   6    -0.00  -0.00  -0.00    -0.00  -0.00  -0.00    -0.00  -0.00  -0.00
  17   6    -0.01  -0.00  -0.00    -0.01  -0.00  -0.00    -0.02  -0.01  -0.00
  18   6    -0.02   0.00   0.02    -0.02   0.00   0.02    -0.03   0.00   0.03
  19   6     0.01   0.02   0.04     0.01   0.02   0.03     0.02   0.03   0.06
  20   6     0.05   0.02   0.01     0.04   0.02   0.01     0.07   0.03   0.01
  21   6     0.00  -0.00  -0.00     0.00  -0.00  -0.00     0.00  -0.00  -0.00
  22   6     0.00   0.00   0.00     0.00   0.00   0.00     0.00   0.00   0.00
  23   6     0.00   0.00   0.00     0.00   0.00  -0.00     0.01   0.00  -0.00
  24   6     0.00   0.00   0.00     0.00  -0.00  -0.00     0.01  -0.00   0.00
  25   6     0.00   0.00   0.00     0.00   0.00   0.00     0.00   0.00   0.00
  26   6     0.03   0.01   0.00     0.08   0.02   0.01     0.12   0.03   0.01
  27   6     0.02  -0.01  -0.02     0.06  -0.02  -0.06     0.09  -0.02  -0.09
  28   6    -0.00  -0.01  -0.01    -0.02  -0.02  -0.05    -0.03  -0.04  -0.07
  29   6    -0.00  -0.00  -0.00    -0.02  -0.00  -0.00    -0.03  -0.01  -0.00
  30   6    -0.00   0.00  -0.00    -0.00   0.00   0.00    -0.00   0.00   0.00
  31   6     0.00   0.00  -0.00     0.00  -0.00   0.00    -0.00   0.00   0.00
  32   6    -0.00   0.00  -0.00    -0.00   0.00  -0.00     0.00  -0.00   0.00
  33   7     0.00  -0.00  -0.00     0.00  -0.00   0.00    -0.00   0.00  -0.00
  34   6    -0.00  -0.00  -0.00    -0.00   0.00   0.00    -0.00  -0.00   0.00
  35   7    -0.00   0.00   0.00     0.00  -0.00  -0.00     0.00   0.00  -0.00
  36   6    -0.00  -0.00   0.00    -0.00  -0.00   0.00     0.00   0.00  -0.00
  37   6    -0.01  -0.02   0.00    -0.00  -0.00   0.00     0.00   0.01  -0.00
  38   6     0.01  -0.03  -0.04     0.00  -0.01  -0.01    -0.00   0.01   0.02
  39   6     0.04   0.04  -0.07     0.00   0.01  -0.01    -0.01  -0.01   0.02
  40   6     0.02   0.10  -0.00     0.00   0.01  -0.00    -0.01  -0.03   0.00
  41   6    -0.00   0.00   0.00    -0.00   0.00   0.00     0.00  -0.00  -0.00
  42   6     0.00   0.00   0.00     0.00   0.00  -0.00    -0.00  -0.00  -0.00
  43   6    -0.00   0.01   0.00     0.00   0.00  -0.00     0.00  -0.00  -0.00
  44   6     0.00   0.01   0.00     0.00   0.00  -0.00    -0.00  -0.00  -0.00
  45   6     0.00   0.00  -0.00    -0.00  -0.00   0.00    -0.00  -0.00   0.00
  46   6     0.01   0.15   0.00    -0.00  -0.01  -0.00    -0.00  -0.04  -0.00
  47   6    -0.04   0.07   0.11     0.00  -0.00  -0.01     0.01  -0.02  -0.03
  48   6    -0.03  -0.05   0.07     0.00   0.00  -0.01     0.01   0.02  -0.03
  49   6    -0.00  -0.04  -0.00     0.00   0.00   0.00     0.00   0.02   0.00
  50   6     0.00  -0.00  -0.00    -0.00   0.00   0.00    -0.00   0.00   0.00
  51   6    -0.00   0.00   0.00     0.00  -0.00   0.00     0.00   0.00  -0.00
  52   6     0.00  -0.00   0.00    -0.00   0.00  -0.00    -0.00  -0.00  -0.00
  53   7    -0.00   0.00  -0.00     0.00  -0.00   0.00     0.00   0.00   0.00
  54   6     0.00  -0.00   0.00    -0.00   0.00  -0.00     0.00  -0.00   0.00
  55   6     0.00  -0.00   0.00    -0.02   0.01  -0.00     0.01  -0.01   0.00
  56   6     0.01  -0.00  -0.01    -0.03   0.00   0.02     0.02  -0.00  -0.02
  57   6    -0.00   0.01  -0.02     0.01  -0.03   0.05    -0.01   0.02  -0.04
  58   6    -0.02   0.01  -0.00     0.06  -0.04   0.01    -0.04   0.03  -0.01
  59   6    -0.00   0.00   0.00     0.00  -0.00  -0.00    -0.00   0.00   0.00
  60   1    -0.00  -0.00  -0.00     0.01   0.00   0.00    -0.00  -0.00  -0.00
  61   1     0.00  -0.00   0.00    -0.00   0.01  -0.02     0.00  -0.01   0.01
  62   1     0.00  -0.00  -0.00    -0.02   0.00   0.02     0.01  -0.00  -0.01
  63   1    -0.00   0.00   0.00     0.00  -0.00  -0.00    -0.00   0.00   0.00
  64   1     0.00  -0.00  -0.00    -0.02   0.00   0.02     0.01  -0.00  -0.01
  65   1     0.00  -0.00   0.00    -0.00   0.01  -0.01     0.00  -0.00   0.01
  66   1     0.07  -0.04   0.01    -0.41   0.21  -0.06     0.25  -0.13   0.03
  67   1     0.05   0.00  -0.05    -0.30  -0.02   0.30     0.18   0.01  -0.18
  68   1    -0.01   0.02  -0.04     0.07  -0.15   0.27    -0.04   0.09  -0.17
  69   1    -0.01   0.01  -0.00     0.10  -0.05   0.02    -0.06   0.03  -0.01
  70   1     0.04   0.02   0.00     0.04   0.02   0.00     0.07   0.03   0.01
  71   1     0.06  -0.01  -0.06     0.05  -0.01  -0.05     0.09  -0.01  -0.09
  72   1    -0.03  -0.08  -0.12    -0.03  -0.07  -0.11    -0.05  -0.11  -0.19
  73   1    -0.16  -0.06  -0.03    -0.14  -0.05  -0.02    -0.24  -0.09  -0.04
  74   1     0.00  -0.00   0.00     0.00  -0.00   0.00     0.00  -0.00   0.00
  75   1    -0.00  -0.01  -0.01    -0.00  -0.01  -0.01    -0.01  -0.01  -0.02
  76   1    -0.01   0.00   0.01    -0.01   0.00   0.01    -0.02   0.00   0.02
  77   1     0.00   0.00  -0.00     0.00   0.00  -0.00     0.00   0.00  -0.00
  78   1    -0.00  -0.00  -0.01    -0.00  -0.00  -0.01    -0.01  -0.01  -0.01
  79   1    -0.00   0.00   0.00    -0.01   0.00   0.01    -0.02   0.00   0.01
  80   1    -0.09  -0.03  -0.01    -0.29  -0.08  -0.03    -0.41  -0.11  -0.05
  81   1    -0.06   0.02   0.06    -0.20   0.06   0.21    -0.28   0.08   0.30
  82   1     0.01   0.02   0.03     0.06   0.08   0.16     0.09   0.12   0.24
  83   1     0.01   0.00   0.00     0.06   0.01   0.01     0.09   0.02   0.01
  84   1     0.02   0.07  -0.00     0.00   0.01  -0.00    -0.01  -0.03   0.00
  85   1    -0.03   0.10   0.13    -0.01   0.02   0.03     0.01  -0.04  -0.05
  86   1    -0.12  -0.12   0.23    -0.02  -0.02   0.03     0.04   0.04  -0.07
  87   1    -0.06  -0.35   0.01    -0.01  -0.04   0.00     0.02   0.11  -0.00
  88   1     0.01   0.00   0.00     0.00   0.00  -0.00    -0.00  -0.00  -0.00
  89   1     0.01  -0.02  -0.02    -0.00   0.00   0.00    -0.00   0.01   0.01
  90   1    -0.01  -0.01   0.02    -0.00  -0.00   0.00     0.00   0.00  -0.01
  91   1    -0.01  -0.01   0.02    -0.00  -0.00   0.00     0.00   0.00  -0.01
  92   1     0.01  -0.02  -0.02    -0.00   0.00   0.00    -0.00   0.01   0.01
  93   1    -0.00   0.01  -0.00    -0.00   0.00  -0.00     0.00  -0.00   0.00
  94   1    -0.05  -0.50  -0.01     0.00   0.02   0.00     0.01   0.15   0.00
  95   1     0.13  -0.24  -0.36    -0.01   0.01   0.02    -0.04   0.08   0.11
  96   1     0.10   0.15  -0.24    -0.01  -0.01   0.02    -0.04  -0.06   0.09
  97   1     0.01   0.13  -0.00    -0.00  -0.01  -0.00    -0.00  -0.05   0.00
  98   1    -0.01   0.01  -0.00     0.05  -0.04   0.01    -0.04   0.02  -0.01
  99   1    -0.02   0.00   0.02     0.08  -0.00  -0.08    -0.06   0.00   0.06
 100   1     0.01  -0.04   0.06    -0.03   0.11  -0.18     0.02  -0.08   0.12
 101   1     0.07  -0.04   0.01    -0.21   0.13  -0.04     0.14  -0.09   0.03
