      -----------------------------------------------------------      
     |                   =====================                   |     
     |                           x T B                           |     
     |                   =====================                   |     
     |                         S. Grimme                         |     
     |          Mulliken Center for Theoretical Chemistry        |     
     |                    University of Bonn                     |     
      -----------------------------------------------------------      

   * xtb version 6.7.1 (edcfbbe) compiled by 'albert@albert-system' on 2024-07-22

   xtb is free software: you can redistribute it and/or modify it under
   the terms of the GNU Lesser General Public License as published by
   the Free Software Foundation, either version 3 of the License, or
   (at your option) any later version.
   
   xtb is distributed in the hope that it will be useful,
   but WITHOUT ANY WARRANTY; without even the implied warranty of
   MERCHANTABILITY or FITNESS FOR A PARTICULAR PURPOSE.  See the
   GNU Lesser General Public License for more details.
   
   Cite this work as:
   * C. Bannwarth, E. Caldeweyher, S. Ehlert, A. Hansen, P. Pracht,
     J. Seibert, S. Spicher, S. Grimme, WIREs Comput. Mol. Sci., 2020, 11,
     e01493. DOI: 10.1002/wcms.1493
   
   for GFN2-xTB:
   * C. Bannwarth, S. Ehlert and S. Grimme., J. Chem. Theory Comput., 2019,
     15, 1652-1671. DOI: 10.1021/acs.jctc.8b01176
   for GFN1-xTB:
   * S. Grimme, C. Bannwarth, P. Shushkov, J. Chem. Theory Comput., 2017,
     13, 1989-2009. DOI: 10.1021/acs.jctc.7b00118
   for GFN0-xTB:
   * P. Pracht, E. Caldeweyher, S. Ehlert, S. Grimme, ChemRxiv, 2019, preprint.
     DOI: 10.26434/chemrxiv.8326202.v1
   for GFN-FF:
   * S. Spicher and S. Grimme, Angew. Chem. Int. Ed., 2020, 59, 15665-15673.
     DOI: 10.1002/anie.202004239
   
   for ALPB and GBSA implicit solvation:
   * S. Ehlert, M. Stahn, S. Spicher, S. Grimme, J. Chem. Theory Comput.,
     2021, 17, 4250-4261. DOI: 10.1021/acs.jctc.1c00471
   
   for ddCOSMO and CPCM-X implicit solvation:
   * M. Stahn, S. Ehlert, S. Grimme, J. Phys. Chem. A,
     2023, XX, XXXX-XXXX. DOI: 10.1021/acs.jpca.3c04382
   
   for DFT-D4:
   * E. Caldeweyher, C. Bannwarth and S. Grimme, J. Chem. Phys., 2017,
     147, 034112. DOI: 10.1063/1.4993215
   * E. Caldeweyher, S. Ehlert, A. Hansen, H. Neugebauer, S. Spicher,
     C. Bannwarth and S. Grimme, J. Chem. Phys., 2019, 150, 154122.
     DOI: 10.1063/1.5090222
   * E. Caldeweyher, J.-M. Mewes, S. Ehlert and S. Grimme, Phys. Chem. Chem. Phys.
     2020, 22, 8499-8512. DOI: 10.1039/D0CP00502A
   
   for sTDA-xTB:
   * S. Grimme and C. Bannwarth, J. Chem. Phys., 2016, 145, 054103.
     DOI: 10.1063/1.4959605
   
   in the mass-spec context:
   * V. Asgeirsson, C. Bauer and S. Grimme, Chem. Sci., 2017, 8, 4879.
     DOI: 10.1039/c7sc00601b
   * J. Koopman and S. Grimme, ACS Omega 2019, 4, 12, 15120-15133.
     DOI: 10.1021/acsomega.9b02011
   
   for metadynamics refer to:
   * S. Grimme, J. Chem. Theory Comput., 2019, 155, 2847-2862
     DOI: 10.1021/acs.jctc.9b00143
   
   for SPH calculations refer to:
   * S. Spicher and S. Grimme, J. Chem. Theory Comput., 2021, 17, 1701-1714
     DOI: 10.1021/acs.jctc.0c01306
   
   for ONIOM refer to:
   * C. Plett, A. Katbashev, S. Ehlert, S. Grimme, M. Bursch,
     Phys. Chem. Chem. Phys., 2023, 25, 17860-17868. DOI: 10.1039/D3CP02178E
   
   for DIPRO refer to:
   * J. Kohn, N. Gildemeister, S. Grimme, D. Fazzi, A. Hansen,
     J. Chem. Phys., 2023, just accepted.
   
   for PTB refer to:
   * S. Grimme, M. Mueller, A. Hansen, J. Chem. Phys., 2023, 158, 124111.
     DOI: 10.1063/5.0137838
   
   with help from (in alphabetical order)
   P. Atkinson, C. Bannwarth, F. Bohle, G. Brandenburg, E. Caldeweyher
   M. Checinski, S. Dohm, S. Ehlert, S. Ehrlich, I. Gerasimov, C. Hölzer
   A. Katbashev, J. Kohn, J. Koopman, C. Lavigne, S. Lehtola, F. März, M. Müller,
   F. Musil, H. Neugebauer, J. Pisarek, C. Plett, P. Pracht, F. Pultar,
   J. Seibert, P. Shushkov, S. Spicher, M. Stahn, M. Steiner, T. Strunk,
   J. Stückrath, T. Rose, and J. Unsleber
   
 * started run on 2025/09/10 at 17:04:19.072     
   ID    Z sym.   atoms
    1    6 C      1-9, 11, 12, 14, 16-32, 34, 36-52, 54-59
    2    7 N      10, 15, 33, 35, 53
    3    9 F      13
    4    1 H      60-101

           -------------------------------------------------
          |                Calculation Setup                |
           -------------------------------------------------

          program call               : xtb data2507/toluene/3DMACIPN/3DMACIPN.xyz --gfn 2 --gbsa toluene --ohess vtight --parallel 40 --molden --ceasefiles --namespace data2507/toluene/3DMACIPN/3DMACIPN_toluene_S0_preOpt
          calculation namespace      : data2507/toluene/3DMACIPN/3DMACIPN_toluene_S0_preOpt
          coordinate file            : data2507/toluene/3DMACIPN/3DMACIPN.xyz
          omp threads                :                    40


           -------------------------------------------------
          |                 G F N 2 - x T B                 |
           -------------------------------------------------

        Reference                      10.1021/acs.jctc.8b01176
      * Hamiltonian:
        H0-scaling (s, p, d)           1.850000    2.230000    2.230000
        zeta-weighting                 0.500000
      * Dispersion:
        s8                             2.700000
        a1                             0.520000
        a2                             5.000000
        s9                             5.000000
      * Repulsion:
        kExp                           1.500000    1.000000
        rExp                           1.000000
      * Coulomb:
        alpha                          2.000000
        third order                    shell-resolved
        anisotropic                    true
        a3                             3.000000
        a5                             4.000000
        cn-shift                       1.200000
        cn-exp                         4.000000
        max-rad                        5.000000

      * Solvation model:               GBSA
        Solvent                        toluene
        Parameter file                 internal GFN2-xTB/GBSA
        Dielectric constant                7.0000E+00
        Reference state                gsolv [1 M gas/solution]
        Free energy shift                  4.5239E-03 Eh       2.8388E+00 kcal/mol
        Temperature                        2.9815E+02 K
        Density                            8.6700E-01 kg/L
        Solvent mass                       9.2140E+01 g/mol
        Interaction kernel             Still
        Born radius scaling (c1)           1.5686E+00
        Born radii integrator          GBOBC
        Born offset                        0.0000E+00 a0       0.0000E+00 AA
        H-bond correction              false
        Ion screening                  false
        Surface tension                    1.0000E-05 Eh       1.5569E+01 dyn/cm
        Grid points                               230 per atom

          ...................................................
          :                      SETUP                      :
          :.................................................:
          :  # basis functions                 278          :
          :  # atomic orbitals                 278          :
          :  # shells                          160          :
          :  # electrons                       286          :
          :  max. iterations                   250          :
          :  Hamiltonian                  GFN2-xTB          :
          :  restarted?                      false          :
          :  GBSA solvation                   true          :
          :  PC potential                    false          :
          :  electronic temp.          300.0000000     K    :
          :  accuracy                    1.0000000          :
          :  -> integral cutoff          0.2500000E+02      :
          :  -> integral neglect         0.1000000E-07      :
          :  -> SCF convergence          0.1000000E-05 Eh   :
          :  -> wf. convergence          0.1000000E-03 e    :
          :  Broyden damping             0.4000000          :
          :  net charge                          0          :
          :  unpaired electrons                  0          :
          ...................................................

 iter      E             dE          RMSdq      gap      omega  full diag
   1   -156.7054879 -0.156705E+03  0.450E+00    1.87       0.0  T
   2   -156.7807408 -0.752530E-01  0.272E+00    1.51       1.0  T
   3   -156.6295614  0.151179E+00  0.146E+00    0.89       1.0  T
   4   -156.8041942 -0.174633E+00  0.464E-01    0.95       1.0  T
   5   -156.8197151 -0.155210E-01  0.142E-01    0.88       1.0  T
   6   -156.8205393 -0.824211E-03  0.738E-02    0.91       1.0  T
   7   -156.8207654 -0.226099E-03  0.237E-02    0.92       1.0  T
   8   -156.8207811 -0.157243E-04  0.976E-03    0.93       1.0  T
   9   -156.8207857 -0.458181E-05  0.340E-03    0.93       2.9  T
  10   -156.8207860 -0.286288E-06  0.179E-03    0.93       5.6  T
  11   -156.8207862 -0.186409E-06  0.557E-04    0.93      17.9  T
  12   -156.8207862 -0.902330E-08  0.333E-04    0.93      29.9  T

   *** convergence criteria satisfied after 12 iterations ***

         #    Occupation            Energy/Eh            Energy/eV
      -------------------------------------------------------------
         1        2.0000           -0.8605882             -23.4178
       ...           ...                  ...                  ...
       137        2.0000           -0.4057344             -11.0406
       138        2.0000           -0.4011292             -10.9153
       139        2.0000           -0.4010811             -10.9140
       140        2.0000           -0.4005996             -10.9009
       141        2.0000           -0.3671108              -9.9896
       142        2.0000           -0.3668578              -9.9827
       143        2.0000           -0.3630566              -9.8793 (HOMO)
       144                         -0.3287838              -8.9467 (LUMO)
       145                         -0.3146941              -8.5633
       146                         -0.2564882              -6.9794
       147                         -0.2489824              -6.7752
       148                         -0.2471384              -6.7250
       ...                                ...                  ...
       278                          1.0392361              28.2791
      -------------------------------------------------------------
                  HL-Gap            0.0342728 Eh            0.9326 eV
             Fermi-level           -0.3459051 Eh           -9.4126 eV

 SCC (total)                   0 d,  0 h,  0 min,  0.303 sec
 SCC setup                      ...        0 min,  0.005 sec (  1.713%)
 Dispersion                     ...        0 min,  0.009 sec (  2.832%)
 classical contributions        ...        0 min,  0.000 sec (  0.096%)
 integral evaluation            ...        0 min,  0.012 sec (  3.803%)
 iterations                     ...        0 min,  0.257 sec ( 84.878%)
 molecular gradient             ...        0 min,  0.018 sec (  5.833%)
 printout                       ...        0 min,  0.002 sec (  0.815%)

         :::::::::::::::::::::::::::::::::::::::::::::::::::::
         ::                     SUMMARY                     ::
         :::::::::::::::::::::::::::::::::::::::::::::::::::::
         :: total energy            -154.310466764760 Eh    ::
         :: total w/o Gsasa/hb      -154.254591485056 Eh    ::
         :: gradient norm              0.101182322480 Eh/a0 ::
         :: HOMO-LUMO gap              0.932610820695 eV    ::
         ::.................................................::
         :: SCC energy              -156.816114254219 Eh    ::
         :: -> isotropic ES            0.048232917626 Eh    ::
         :: -> anisotropic ES          0.027026349443 Eh    ::
         :: -> anisotropic XC          0.107363088300 Eh    ::
         :: -> dispersion             -0.151637296633 Eh    ::
         :: -> Gsolv                  -0.061202937712 Eh    ::
         ::    -> Gelec               -0.005327658008 Eh    ::
         ::    -> Gsasa               -0.060399159576 Eh    ::
         ::    -> Ghb                  0.000000000000 Eh    ::
         ::    -> Gshift               0.004523879872 Eh    ::
         :: repulsion energy           2.505647489459 Eh    ::
         :: add. restraining           0.000000000000 Eh    ::
         :: total charge               0.000000000945 e     ::
         :::::::::::::::::::::::::::::::::::::::::::::::::::::

      ----------------------------------------------------------- 
     |                   =====================                   |
     |                        A N C O P T                        |
     |                   =====================                   |
     |               Approximate Normal Coordinate               |
     |                Rational Function Optimizer                |
      ----------------------------------------------------------- 

Optimization log is written to '/dev/null'
      ----------------------------------------------------------- 
     |                   =====================                   |
     |                        A N C O P T                        |
     |                   =====================                   |
     |               Approximate Normal Coordinate               |
     |                Rational Function Optimizer                |
      ----------------------------------------------------------- 

          ...................................................
          :                      SETUP                      :
          :.................................................:
          :   optimization level         verytight          :
          :   max. optcycles                  2020          :
          :   ANC micro-cycles                  20          :
          :   degrees of freedom               297          :
          :.................................................:
          :   RF solver                   davidson          :
          :   write xtbopt.log                true          :
          :   linear?                        false          :
          :   energy convergence         0.1000000E-06 Eh   :
          :   grad. convergence          0.2000000E-03 Eh/α :
          :   maxmium RF displ.          1.0000000          :
          :   Hlow (freq-cutoff)         0.1000000E-01      :
          :   Hmax (freq-cutoff)         5.0000000          :
          :   S6 in model hess.         20.0000000          :
          ...................................................

generating ANC from exact Hessian ...
Using Lindh-Hessian (1995)
 Shifting diagonal of input Hessian by   9.924910697986020E-003
 Lowest  eigenvalues of input Hessian
    0.000000    0.000000    0.000000    0.000000    0.000000    0.000000
    0.010000    0.010015    0.010044    0.010076    0.010087    0.010093
    0.010139    0.010152    0.010360    0.010738    0.010757    0.011220
 Highest eigenvalues
    1.981874    1.981945    2.011881    2.036505    2.512614    2.518997
 

........................................................................
.............................. CYCLE    1 ..............................
........................................................................

 iter      E             dE          RMSdq      gap      omega  full diag
   1   -156.8207862 -0.156821E+03  0.179E-04    0.93       0.0  T
   2   -156.8207862 -0.410012E-09  0.128E-04    0.93      77.7  T
   3   -156.8207862 -0.186645E-09  0.944E-05    0.93     105.4  T
     SCC iter.                  ...        0 min,  0.045 sec
     gradient                   ...        0 min,  0.017 sec
 * total energy  :  -154.3104668 Eh     change       -0.3426265E-08 Eh
   gradient norm :     0.1011808 Eh/α   predicted     0.0000000E+00 (-100.00%)
   displ. norm   :     0.5476691 α      lambda       -0.3202301E-01
   maximum displ.:     0.4209996 α      in ANC's #68, #74, #151, ...

........................................................................
.............................. CYCLE    2 ..............................
........................................................................

 iter      E             dE          RMSdq      gap      omega  full diag
   1   -156.9732452 -0.156973E+03  0.194E-01    0.92       0.0  T
   2   -156.9734571 -0.211906E-03  0.128E-01    0.92       1.0  T
   3   -156.9733262  0.130955E-03  0.827E-02    0.94       1.0  T
   4   -156.9737124 -0.386206E-03  0.204E-02    0.93       1.0  T
   5   -156.9737445 -0.321356E-04  0.686E-03    0.93       1.5  T
   6   -156.9737486 -0.411065E-05  0.209E-03    0.93       4.8  T
   7   -156.9737487 -0.246549E-07  0.104E-03    0.93       9.6  T
   8   -156.9737487 -0.535649E-07  0.436E-04    0.93      22.8  T
   9   -156.9737487 -0.428554E-08  0.206E-04    0.93      48.2  T
     SCC iter.                  ...        0 min,  0.119 sec
     gradient                   ...        0 min,  0.017 sec
 * total energy  :  -154.3338779 Eh     change       -0.2341113E-01 Eh
   gradient norm :     0.0424265 Eh/α   predicted    -0.2082592E-01 ( -11.04%)
   displ. norm   :     0.5430400 α      lambda       -0.1427602E-01
   maximum displ.:     0.4122569 α      in ANC's #68, #21, #74, ...

........................................................................
.............................. CYCLE    3 ..............................
........................................................................

 iter      E             dE          RMSdq      gap      omega  full diag
   1   -157.0622525 -0.157062E+03  0.152E-01    0.88       0.0  T
   2   -157.0625480 -0.295454E-03  0.109E-01    0.87       1.0  T
   3   -157.0626649 -0.116936E-03  0.618E-02    0.88       1.0  T
   4   -157.0627737 -0.108771E-03  0.225E-02    0.87       1.0  T
   5   -157.0628059 -0.321851E-04  0.825E-03    0.87       1.2  T
   6   -157.0628122 -0.627980E-05  0.182E-03    0.87       5.5  T
   7   -157.0628122 -0.265864E-07  0.985E-04    0.87      10.1  T
   8   -157.0628122 -0.448390E-07  0.424E-04    0.87      23.5  T
     SCC iter.                  ...        0 min,  0.108 sec
     gradient                   ...        0 min,  0.016 sec
 * total energy  :  -154.3431062 Eh     change       -0.9228311E-02 Eh
   gradient norm :     0.0153090 Eh/α   predicted    -0.9242962E-02 (   0.16%)
   displ. norm   :     0.4272519 α      lambda       -0.3465856E-02
   maximum displ.:     0.3258083 α      in ANC's #21, #68, #29, ...

........................................................................
.............................. CYCLE    4 ..............................
........................................................................

 iter      E             dE          RMSdq      gap      omega  full diag
   1   -157.0934892 -0.157093E+03  0.685E-02    0.87       0.0  T
   2   -157.0935603 -0.711182E-04  0.520E-02    0.86       1.0  T
   3   -157.0936056 -0.452999E-04  0.284E-02    0.87       1.0  T
   4   -157.0936154 -0.976920E-05  0.110E-02    0.86       1.0  T
   5   -157.0936230 -0.762740E-05  0.429E-03    0.86       2.3  T
   6   -157.0936247 -0.172244E-05  0.805E-04    0.86      12.4  T
   7   -157.0936247 -0.163428E-08  0.455E-04    0.86      21.8  T
   8   -157.0936247 -0.893189E-08  0.201E-04    0.86      49.6  T
     SCC iter.                  ...        0 min,  0.107 sec
     gradient                   ...        0 min,  0.017 sec
 * total energy  :  -154.3456200 Eh     change       -0.2513769E-02 Eh
   gradient norm :     0.0102898 Eh/α   predicted    -0.2049336E-02 ( -18.48%)
   displ. norm   :     0.4683804 α      lambda       -0.2058194E-02
   maximum displ.:     0.4037130 α      in ANC's #21, #22, #29, ...

........................................................................
.............................. CYCLE    5 ..............................
........................................................................

 iter      E             dE          RMSdq      gap      omega  full diag
   1   -157.1032101 -0.157103E+03  0.649E-02    0.87       0.0  T
   2   -157.1032351 -0.249905E-04  0.425E-02    0.86       1.0  T
   3   -157.1032186  0.164536E-04  0.247E-02    0.87       1.0  T
   4   -157.1032515 -0.328489E-04  0.589E-03    0.86       1.7  T
   5   -157.1032541 -0.264229E-05  0.272E-03    0.86       3.7  T
   6   -157.1032547 -0.628900E-06  0.728E-04    0.86      13.7  T
   7   -157.1032547 -0.140071E-08  0.326E-04    0.86      30.5  T
     SCC iter.                  ...        0 min,  0.098 sec
     gradient                   ...        0 min,  0.017 sec
 * total energy  :  -154.3471312 Eh     change       -0.1511175E-02 Eh
   gradient norm :     0.0072059 Eh/α   predicted    -0.1254870E-02 ( -16.96%)
   displ. norm   :     0.3814814 α      lambda       -0.1207201E-02
   maximum displ.:     0.3093861 α      in ANC's #21, #22, #29, ...

........................................................................
.............................. CYCLE    6 ..............................
........................................................................

 iter      E             dE          RMSdq      gap      omega  full diag
   1   -157.1012075 -0.157101E+03  0.133E-01    0.87       0.0  T
   2   -157.1012359 -0.284157E-04  0.745E-02    0.87       1.0  T
   3   -157.1012298  0.611047E-05  0.148E-02    0.87       1.0  T
   4   -157.1012475 -0.177205E-04  0.319E-03    0.87       3.1  T
   5   -157.1012475 -0.239326E-07  0.197E-03    0.87       5.0  T
   6   -157.1012477 -0.231791E-06  0.713E-04    0.87      13.9  T
   7   -157.1012478 -0.376644E-07  0.245E-04    0.87      40.6  T
     SCC iter.                  ...        0 min,  0.093 sec
     gradient                   ...        0 min,  0.017 sec
 * total energy  :  -154.3474836 Eh     change       -0.3524167E-03 Eh
   gradient norm :     0.0119029 Eh/α   predicted    -0.6914907E-03 (  96.21%)
   displ. norm   :     0.2495672 α      lambda       -0.1280272E-02
   maximum displ.:     0.1849759 α      in ANC's #21, #22, #8, ...

........................................................................
.............................. CYCLE    7 ..............................
........................................................................

 iter      E             dE          RMSdq      gap      omega  full diag
   1   -157.1017460 -0.157102E+03  0.119E-01    0.88       0.0  T
   2   -157.1017680 -0.219919E-04  0.661E-02    0.88       1.0  T
   3   -157.1017709 -0.286619E-05  0.736E-03    0.88       1.4  T
   4   -157.1017766 -0.574364E-05  0.242E-03    0.88       4.1  T
   5   -157.1017766 -0.283522E-07  0.115E-03    0.88       8.7  T
   6   -157.1017767 -0.126898E-06  0.391E-04    0.88      25.4  T
   7   -157.1017768 -0.116806E-07  0.188E-04    0.88      53.1  T
     SCC iter.                  ...        0 min,  0.092 sec
     gradient                   ...        0 min,  0.017 sec
 * total energy  :  -154.3481412 Eh     change       -0.6576418E-03 Eh
   gradient norm :     0.0071298 Eh/α   predicted    -0.6800081E-03 (   3.40%)
   displ. norm   :     0.1123694 α      lambda       -0.1435486E-03
   maximum displ.:     0.0929064 α      in ANC's #21, #11, #18, ...

........................................................................
.............................. CYCLE    8 ..............................
........................................................................

 iter      E             dE          RMSdq      gap      omega  full diag
   1   -157.1038166 -0.157104E+03  0.146E-02    0.88       0.0  T
   2   -157.1038171 -0.516602E-06  0.888E-03    0.88       1.1  T
   3   -157.1038150  0.205518E-05  0.518E-03    0.88       1.9  T
   4   -157.1038175 -0.251464E-05  0.103E-03    0.88       9.7  T
   5   -157.1038176 -0.860658E-07  0.375E-04    0.88      26.6  T
   6   -157.1038176 -0.754625E-08  0.161E-04    0.88      61.7  T
     SCC iter.                  ...        0 min,  0.079 sec
     gradient                   ...        0 min,  0.017 sec
 * total energy  :  -154.3482553 Eh     change       -0.1140674E-03 Eh
   gradient norm :     0.0035958 Eh/α   predicted    -0.7268176E-04 ( -36.28%)
   displ. norm   :     0.1360469 α      lambda       -0.1237555E-03
   maximum displ.:     0.0973311 α      in ANC's #21, #11, #18, ...

........................................................................
.............................. CYCLE    9 ..............................
........................................................................

 iter      E             dE          RMSdq      gap      omega  full diag
   1   -157.1068344 -0.157107E+03  0.258E-02    0.88       0.0  T
   2   -157.1068356 -0.120882E-05  0.150E-02    0.88       1.0  T
   3   -157.1068303  0.536796E-05  0.767E-03    0.88       1.3  T
   4   -157.1068366 -0.637559E-05  0.134E-03    0.88       7.4  T
   5   -157.1068368 -0.126900E-06  0.582E-04    0.88      17.1  T
   6   -157.1068368 -0.145737E-07  0.219E-04    0.88      45.4  T
     SCC iter.                  ...        0 min,  0.079 sec
     gradient                   ...        0 min,  0.017 sec
 * total energy  :  -154.3483300 Eh     change       -0.7469144E-04 Eh
   gradient norm :     0.0015939 Eh/α   predicted    -0.6302584E-04 ( -15.62%)
   displ. norm   :     0.2055606 α      lambda       -0.8493196E-04
   maximum displ.:     0.1260490 α      in ANC's #21, #11, #18, ...

........................................................................
.............................. CYCLE   10 ..............................
........................................................................

 iter      E             dE          RMSdq      gap      omega  full diag
   1   -157.1084752 -0.157108E+03  0.840E-02    0.88       0.0  T
   2   -157.1084863 -0.110916E-04  0.467E-02    0.88       1.0  T
   3   -157.1084816  0.464544E-05  0.908E-03    0.88       1.1  T
   4   -157.1084911 -0.942664E-05  0.213E-03    0.88       4.7  T
   5   -157.1084911 -0.928142E-07  0.137E-03    0.88       7.2  T
   6   -157.1084913 -0.118429E-06  0.310E-04    0.88      32.1  T
   7   -157.1084913 -0.420437E-08  0.116E-04    0.88      86.1  T
     SCC iter.                  ...        0 min,  0.092 sec
     gradient                   ...        0 min,  0.017 sec
 * total energy  :  -154.3481819 Eh     change        0.1481166E-03 Eh
   gradient norm :     0.0077719 Eh/α   predicted    -0.4326486E-04 (-129.21%)
   displ. norm   :     0.0540818 α      lambda       -0.2397805E-03
   maximum displ.:     0.0283802 α      in ANC's #7, #21, #30, ...

........................................................................
.............................. CYCLE   11 ..............................
........................................................................

 iter      E             dE          RMSdq      gap      omega  full diag
   1   -157.1082574 -0.157108E+03  0.459E-02    0.88       0.0  T
   2   -157.1082607 -0.334320E-05  0.254E-02    0.88       1.0  T
   3   -157.1082611 -0.363579E-06  0.292E-03    0.88       3.4  T
   4   -157.1082621 -0.962692E-06  0.997E-04    0.88      10.0  T
   5   -157.1082621 -0.180848E-07  0.578E-04    0.88      17.2  T
     SCC iter.                  ...        0 min,  0.066 sec
     gradient                   ...        0 min,  0.017 sec
 * total energy  :  -154.3483424 Eh     change       -0.1605865E-03 Eh
   gradient norm :     0.0029498 Eh/α   predicted    -0.1202434E-03 ( -25.12%)
   displ. norm   :     0.0405047 α      lambda       -0.5254965E-04
   maximum displ.:     0.0255709 α      in ANC's #21, #7, #18, ...

........................................................................
.............................. CYCLE   12 ..............................
........................................................................

 iter      E             dE          RMSdq      gap      omega  full diag
   1   -157.1074072 -0.157107E+03  0.230E-02    0.88       0.0  T
   2   -157.1074081 -0.823384E-06  0.128E-02    0.88       1.0  T
   3   -157.1074076  0.429139E-06  0.258E-03    0.88       3.9  T
   4   -157.1074084 -0.797644E-06  0.586E-04    0.88      17.0  T
   5   -157.1074084 -0.937894E-08  0.339E-04    0.88      29.3  T
     SCC iter.                  ...        0 min,  0.066 sec
     gradient                   ...        0 min,  0.017 sec
 * total energy  :  -154.3483719 Eh     change       -0.2949840E-04 Eh
   gradient norm :     0.0011845 Eh/α   predicted    -0.2632131E-04 ( -10.77%)
   displ. norm   :     0.0364497 α      lambda       -0.6901128E-05
   maximum displ.:     0.0326648 α      in ANC's #11, #21, #22, ...

........................................................................
.............................. CYCLE   13 ..............................
........................................................................

 iter      E             dE          RMSdq      gap      omega  full diag
   1   -157.1076373 -0.157108E+03  0.626E-03    0.88       0.0  T
   2   -157.1076373 -0.438030E-07  0.359E-03    0.88       2.8  T
   3   -157.1076372  0.718761E-07  0.920E-04    0.88      10.8  T
   4   -157.1076373 -0.935926E-07  0.168E-04    0.88      59.4  T
     SCC iter.                  ...        0 min,  0.053 sec
     gradient                   ...        0 min,  0.016 sec
 * total energy  :  -154.3483805 Eh     change       -0.8546358E-05 Eh
   gradient norm :     0.0006509 Eh/α   predicted    -0.3453400E-05 ( -59.59%)
   displ. norm   :     0.0434802 α      lambda       -0.7022911E-05
   maximum displ.:     0.0360021 α      in ANC's #11, #21, #18, ...

........................................................................
.............................. CYCLE   14 ..............................
........................................................................

 iter      E             dE          RMSdq      gap      omega  full diag
   1   -157.1074729 -0.157107E+03  0.591E-03    0.88       0.0  T
   2   -157.1074730 -0.334381E-07  0.343E-03    0.88       2.9  T
   3   -157.1074729  0.745353E-07  0.947E-04    0.88      10.5  T
   4   -157.1074730 -0.927204E-07  0.150E-04    0.88      66.2  T
     SCC iter.                  ...        0 min,  0.054 sec
     gradient                   ...        0 min,  0.017 sec
 * total energy  :  -154.3483895 Eh     change       -0.9004835E-05 Eh
   gradient norm :     0.0007878 Eh/α   predicted    -0.3518892E-05 ( -60.92%)
   displ. norm   :     0.0454748 α      lambda       -0.6150738E-05
   maximum displ.:     0.0403011 α      in ANC's #11, #6, #18, ...

........................................................................
.............................. CYCLE   15 ..............................
........................................................................

 iter      E             dE          RMSdq      gap      omega  full diag
   1   -157.1071938 -0.157107E+03  0.491E-03    0.88       0.0  T
   2   -157.1071938 -0.161613E-07  0.288E-03    0.88       3.5  T
   3   -157.1071937  0.728878E-07  0.951E-04    0.88      10.5  T
   4   -157.1071938 -0.835353E-07  0.158E-04    0.88      63.0  T
     SCC iter.                  ...        0 min,  0.071 sec
     gradient                   ...        0 min,  0.019 sec
 * total energy  :  -154.3483980 Eh     change       -0.8544083E-05 Eh
   gradient norm :     0.0004736 Eh/α   predicted    -0.3079345E-05 ( -63.96%)
   displ. norm   :     0.0447938 α      lambda       -0.5719243E-05
   maximum displ.:     0.0400759 α      in ANC's #11, #6, #18, ...

........................................................................
.............................. CYCLE   16 ..............................
........................................................................

 iter      E             dE          RMSdq      gap      omega  full diag
   1   -157.1071088 -0.157107E+03  0.386E-03    0.88       0.0  T
   2   -157.1071088 -0.760562E-08  0.227E-03    0.88       4.4  T
   3   -157.1071088  0.139294E-07  0.400E-04    0.88      24.9  T
   4   -157.1071088 -0.175816E-07  0.869E-05    0.88     114.5  T
     SCC iter.                  ...        0 min,  0.053 sec
     gradient                   ...        0 min,  0.016 sec
 * total energy  :  -154.3484063 Eh     change       -0.8216679E-05 Eh
   gradient norm :     0.0003559 Eh/α   predicted    -0.2866893E-05 ( -65.11%)
   displ. norm   :     0.0467583 α      lambda       -0.5706891E-05
   maximum displ.:     0.0407892 α      in ANC's #11, #6, #18, ...

........................................................................
.............................. CYCLE   17 ..............................
........................................................................

 iter      E             dE          RMSdq      gap      omega  full diag
   1   -157.1070591 -0.157107E+03  0.369E-03    0.88       0.0  T
   2   -157.1070591 -0.516766E-08  0.217E-03    0.88       4.6  T
   3   -157.1070591  0.305601E-07  0.513E-04    0.88      19.4  T
   4   -157.1070591 -0.340884E-07  0.982E-05    0.88     101.3  T
     SCC iter.                  ...        0 min,  0.052 sec
     gradient                   ...        0 min,  0.016 sec
 * total energy  :  -154.3484143 Eh     change       -0.8077819E-05 Eh
   gradient norm :     0.0003650 Eh/α   predicted    -0.2856946E-05 ( -64.63%)
   displ. norm   :     0.0490470 α      lambda       -0.5490900E-05
   maximum displ.:     0.0422621 α      in ANC's #11, #6, #18, ...

........................................................................
.............................. CYCLE   18 ..............................
........................................................................

 iter      E             dE          RMSdq      gap      omega  full diag
   1   -157.1071878 -0.157107E+03  0.408E-03    0.88       0.0  T
   2   -157.1071878 -0.750967E-08  0.239E-03    0.88       4.2  T
   3   -157.1071878  0.672733E-07  0.835E-04    0.88      11.9  T
   4   -157.1071879 -0.744276E-07  0.121E-04    0.88      82.0  T
     SCC iter.                  ...        0 min,  0.052 sec
     gradient                   ...        0 min,  0.016 sec
 * total energy  :  -154.3484220 Eh     change       -0.7718444E-05 Eh
   gradient norm :     0.0003615 Eh/α   predicted    -0.2749288E-05 ( -64.38%)
   displ. norm   :     0.0468366 α      lambda       -0.4760339E-05
   maximum displ.:     0.0405080 α      in ANC's #11, #6, #18, ...

........................................................................
.............................. CYCLE   19 ..............................
........................................................................

 iter      E             dE          RMSdq      gap      omega  full diag
   1   -157.1072840 -0.157107E+03  0.422E-03    0.88       0.0  T
   2   -157.1072840 -0.772630E-08  0.246E-03    0.88       4.0  T
   3   -157.1072840  0.487577E-07  0.737E-04    0.88      13.5  T
   4   -157.1072840 -0.545682E-07  0.117E-04    0.88      85.2  T
     SCC iter.                  ...        0 min,  0.051 sec
     gradient                   ...        0 min,  0.016 sec
 * total energy  :  -154.3484288 Eh     change       -0.6739249E-05 Eh
   gradient norm :     0.0002145 Eh/α   predicted    -0.2384580E-05 ( -64.62%)
   displ. norm   :     0.0426448 α      lambda       -0.3994875E-05
   maximum displ.:     0.0370480 α      in ANC's #11, #6, #18, ...

........................................................................
.............................. CYCLE   20 ..............................
........................................................................

 iter      E             dE          RMSdq      gap      omega  full diag
   1   -157.1073089 -0.157107E+03  0.434E-03    0.88       0.0  T
   2   -157.1073089 -0.838315E-08  0.252E-03    0.88       3.9  T
   3   -157.1073089  0.110453E-07  0.412E-04    0.88      24.2  T
   4   -157.1073089 -0.145305E-07  0.109E-04    0.88      90.9  T
     SCC iter.                  ...        0 min,  0.052 sec
     gradient                   ...        0 min,  0.016 sec
 * total energy  :  -154.3484345 Eh     change       -0.5739201E-05 Eh
   gradient norm :     0.0002391 Eh/α   predicted    -0.1999795E-05 ( -65.16%)
   displ. norm   :     0.0397990 α      lambda       -0.3513295E-05
   maximum displ.:     0.0345411 α      in ANC's #11, #6, #18, ...
 * RMSD in coord.:     0.2472596 α      energy gain  -0.3796776E-01 Eh

generating ANC from exact Hessian ...
Using Lindh-Hessian (1995)
 Shifting diagonal of input Hessian by   9.893802030162567E-003
 Lowest  eigenvalues of input Hessian
    0.000000    0.000000    0.000000    0.000000    0.000000    0.000000
    0.010000    0.010012    0.010055    0.010084    0.010087    0.010092
    0.010237    0.010259    0.010439    0.010919    0.010937    0.011475
 Highest eigenvalues
    2.148058    2.148072    2.187742    2.193797    2.630702    2.638032
 

........................................................................
.............................. CYCLE   21 ..............................
........................................................................

 iter      E             dE          RMSdq      gap      omega  full diag
   1   -157.1074056 -0.157107E+03  0.436E-03    0.88       0.0  T
   2   -157.1074056 -0.705032E-08  0.254E-03    0.88       3.9  T
   3   -157.1074056  0.179167E-07  0.488E-04    0.88      20.4  T
   4   -157.1074056 -0.216402E-07  0.101E-04    0.88      98.4  T
     SCC iter.                  ...        0 min,  0.052 sec
     gradient                   ...        0 min,  0.017 sec
 * total energy  :  -154.3484396 Eh     change       -0.5060029E-05 Eh
   gradient norm :     0.0001911 Eh/α   predicted     0.0000000E+00 (-100.00%)
   displ. norm   :     0.0194033 α      lambda       -0.4159162E-07
   maximum displ.:     0.0190580 α      in ANC's #11, #18, #21, ...

........................................................................
.............................. CYCLE   22 ..............................
........................................................................

 iter      E             dE          RMSdq      gap      omega  full diag
   1   -157.1073090 -0.157107E+03  0.316E-03    0.88       0.0  T
   2   -157.1073091 -0.646949E-08  0.182E-03    0.88       5.5  T
   3   -157.1073090  0.104017E-07  0.316E-04    0.88      31.5  T
   4   -157.1073091 -0.136740E-07  0.808E-05    0.88     123.1  T
     SCC iter.                  ...        0 min,  0.051 sec
     gradient                   ...        0 min,  0.016 sec
 * total energy  :  -154.3484422 Eh     change       -0.2577745E-05 Eh
   gradient norm :     0.0002436 Eh/α   predicted    -0.9290419E-06 ( -63.96%)
   displ. norm   :     0.0227348 α      lambda       -0.2183253E-05
   maximum displ.:     0.0216311 α      in ANC's #11, #18, #21, ...

........................................................................
.............................. CYCLE   23 ..............................
........................................................................

 iter      E             dE          RMSdq      gap      omega  full diag
   1   -157.1072097 -0.157107E+03  0.475E-03    0.88       0.0  T
   2   -157.1072097 -0.220122E-07  0.270E-03    0.88       3.7  T
   3   -157.1072097 -0.212484E-08  0.279E-04    0.88      35.7  T
   4   -157.1072097 -0.653284E-08  0.114E-04    0.88      87.5  T
     SCC iter.                  ...        0 min,  0.052 sec
     gradient                   ...        0 min,  0.016 sec
 * total energy  :  -154.3484449 Eh     change       -0.2698925E-05 Eh
   gradient norm :     0.0004000 Eh/α   predicted    -0.1095276E-05 ( -59.42%)
   displ. norm   :     0.0219637 α      lambda       -0.2014300E-05
   maximum displ.:     0.0208689 α      in ANC's #11, #18, #6, ...

........................................................................
.............................. CYCLE   24 ..............................
........................................................................

 iter      E             dE          RMSdq      gap      omega  full diag
   1   -157.1073656 -0.157107E+03  0.324E-03    0.88       0.0  T
   2   -157.1073656 -0.639952E-08  0.189E-03    0.88       5.3  T
   3   -157.1073656  0.309176E-07  0.583E-04    0.88      17.1  T
   4   -157.1073656 -0.353770E-07  0.872E-05    0.88     114.1  T
     SCC iter.                  ...        0 min,  0.052 sec
     gradient                   ...        0 min,  0.016 sec
 * total energy  :  -154.3484476 Eh     change       -0.2729038E-05 Eh
   gradient norm :     0.0003991 Eh/α   predicted    -0.1009303E-05 ( -63.02%)
   displ. norm   :     0.0235949 α      lambda       -0.1953978E-05
   maximum displ.:     0.0223119 α      in ANC's #11, #6, #42, ...

........................................................................
.............................. CYCLE   25 ..............................
........................................................................

 iter      E             dE          RMSdq      gap      omega  full diag
   1   -157.1072805 -0.157107E+03  0.308E-03    0.88       0.0  T
   2   -157.1072805 -0.640904E-08  0.178E-03    0.88       5.6  T
   3   -157.1072805  0.253792E-08  0.228E-04    0.88      43.6  T
   4   -157.1072805 -0.499023E-08  0.869E-05    0.88     114.5  T
     SCC iter.                  ...        0 min,  0.053 sec
     gradient                   ...        0 min,  0.017 sec
 * total energy  :  -154.3484503 Eh     change       -0.2712054E-05 Eh
   gradient norm :     0.0001550 Eh/α   predicted    -0.9775012E-06 ( -63.96%)
   displ. norm   :     0.0250178 α      lambda       -0.1898959E-05
   maximum displ.:     0.0229698 α      in ANC's #11, #6, #22, ...

........................................................................
.............................. CYCLE   26 ..............................
........................................................................

 iter      E             dE          RMSdq      gap      omega  full diag
   1   -157.1072576 -0.157107E+03  0.467E-03    0.88       0.0  T
   2   -157.1072577 -0.282594E-07  0.263E-03    0.88       3.8  T
   3   -157.1072577  0.469214E-08  0.399E-04    0.88      25.0  T
   4   -157.1072577 -0.160652E-07  0.135E-04    0.88      73.8  T
     SCC iter.                  ...        0 min,  0.055 sec
     gradient                   ...        0 min,  0.018 sec
 * total energy  :  -154.3484526 Eh     change       -0.2284980E-05 Eh
   gradient norm :     0.0003244 Eh/α   predicted    -0.9524072E-06 ( -58.32%)
   displ. norm   :     0.0257334 α      lambda       -0.2245448E-05
   maximum displ.:     0.0230938 α      in ANC's #11, #6, #22, ...

........................................................................
.............................. CYCLE   27 ..............................
........................................................................

 iter      E             dE          RMSdq      gap      omega  full diag
   1   -157.1073123 -0.157107E+03  0.401E-03    0.88       0.0  T
   2   -157.1073123 -0.173991E-07  0.228E-03    0.88       4.4  T
   3   -157.1073123  0.245922E-07  0.554E-04    0.88      18.0  T
   4   -157.1073123 -0.330973E-07  0.122E-04    0.88      81.3  T
     SCC iter.                  ...        0 min,  0.052 sec
     gradient                   ...        0 min,  0.016 sec
 * total energy  :  -154.3484554 Eh     change       -0.2812319E-05 Eh
   gradient norm :     0.0002179 Eh/α   predicted    -0.1125226E-05 ( -59.99%)
   displ. norm   :     0.0262858 α      lambda       -0.1763065E-05
   maximum displ.:     0.0234257 α      in ANC's #11, #6, #2, ...

........................................................................
.............................. CYCLE   28 ..............................
........................................................................

 iter      E             dE          RMSdq      gap      omega  full diag
   1   -157.1072644 -0.157107E+03  0.252E-03    0.88       0.0  T
   2   -157.1072644 -0.294580E-08  0.147E-03    0.88       6.8  T
   3   -157.1072644  0.140410E-07  0.359E-04    0.88      27.7  T
   4   -157.1072644 -0.160240E-07  0.678E-05    0.88     146.7  T
     SCC iter.                  ...        0 min,  0.053 sec
     gradient                   ...        0 min,  0.017 sec
 * total energy  :  -154.3484578 Eh     change       -0.2441329E-05 Eh
   gradient norm :     0.0002685 Eh/α   predicted    -0.8845403E-06 ( -63.77%)
   displ. norm   :     0.0263557 α      lambda       -0.1646211E-05
   maximum displ.:     0.0229888 α      in ANC's #11, #6, #2, ...

........................................................................
.............................. CYCLE   29 ..............................
........................................................................

 iter      E             dE          RMSdq      gap      omega  full diag
   1   -157.1073373 -0.157107E+03  0.244E-03    0.88       0.0  T
   2   -157.1073373 -0.279610E-08  0.142E-03    0.88       7.0  T
   3   -157.1073373  0.165428E-07  0.416E-04    0.88      23.9  T
   4   -157.1073373 -0.187046E-07  0.631E-05    0.88     157.6  T
     SCC iter.                  ...        0 min,  0.052 sec
     gradient                   ...        0 min,  0.016 sec
 * total energy  :  -154.3484602 Eh     change       -0.2380799E-05 Eh
   gradient norm :     0.0001661 Eh/α   predicted    -0.8253782E-06 ( -65.33%)
   displ. norm   :     0.0279896 α      lambda       -0.1684008E-05
   maximum displ.:     0.0235337 α      in ANC's #11, #2, #6, ...

........................................................................
.............................. CYCLE   30 ..............................
........................................................................

 iter      E             dE          RMSdq      gap      omega  full diag
   1   -157.1073546 -0.157107E+03  0.289E-03    0.88       0.0  T
   2   -157.1073546 -0.401769E-08  0.168E-03    0.88       5.9  T
   3   -157.1073546  0.913496E-08  0.327E-04    0.88      30.4  T
   4   -157.1073546 -0.111600E-07  0.719E-05    0.88     138.5  T
     SCC iter.                  ...        0 min,  0.053 sec
     gradient                   ...        0 min,  0.016 sec
 * total energy  :  -154.3484626 Eh     change       -0.2379248E-05 Eh
   gradient norm :     0.0001198 Eh/α   predicted    -0.8435798E-06 ( -64.54%)
   displ. norm   :     0.0334430 α      lambda       -0.1811556E-05
   maximum displ.:     0.0270110 α      in ANC's #11, #2, #18, ...

........................................................................
.............................. CYCLE   31 ..............................
........................................................................

 iter      E             dE          RMSdq      gap      omega  full diag
   1   -157.1073926 -0.157107E+03  0.353E-03    0.88       0.0  T
   2   -157.1073926 -0.567900E-08  0.205E-03    0.88       4.8  T
   3   -157.1073926  0.940145E-08  0.343E-04    0.88      29.0  T
   4   -157.1073926 -0.119801E-07  0.862E-05    0.88     115.4  T
     SCC iter.                  ...        0 min,  0.053 sec
     gradient                   ...        0 min,  0.016 sec
 * total energy  :  -154.3484652 Eh     change       -0.2574430E-05 Eh
   gradient norm :     0.0001172 Eh/α   predicted    -0.9087647E-06 ( -64.70%)
   displ. norm   :     0.0410869 α      lambda       -0.2034463E-05
   maximum displ.:     0.0321287 α      in ANC's #11, #2, #12, ...

........................................................................
.............................. CYCLE   32 ..............................
........................................................................

 iter      E             dE          RMSdq      gap      omega  full diag
   1   -157.1073688 -0.157107E+03  0.427E-03    0.88       0.0  T
   2   -157.1073688 -0.682414E-08  0.249E-03    0.88       4.0  T
   3   -157.1073688  0.647023E-08  0.302E-04    0.88      32.9  T
   4   -157.1073688 -0.922125E-08  0.939E-05    0.88     105.9  T
     SCC iter.                  ...        0 min,  0.052 sec
     gradient                   ...        0 min,  0.016 sec
 * total energy  :  -154.3484680 Eh     change       -0.2841797E-05 Eh
   gradient norm :     0.0001236 Eh/α   predicted    -0.1021256E-05 ( -64.06%)
   displ. norm   :     0.0552281 α      lambda       -0.2435595E-05
   maximum displ.:     0.0416072 α      in ANC's #11, #2, #12, ...

........................................................................
.............................. CYCLE   33 ..............................
........................................................................

 iter      E             dE          RMSdq      gap      omega  full diag
   1   -157.1073566 -0.157107E+03  0.561E-03    0.88       0.0  T
   2   -157.1073567 -0.144851E-07  0.328E-03    0.88       3.0  T
   3   -157.1073566  0.133706E-07  0.433E-04    0.88      23.0  T
   4   -157.1073567 -0.190946E-07  0.136E-04    0.88      73.4  T
     SCC iter.                  ...        0 min,  0.053 sec
     gradient                   ...        0 min,  0.017 sec
 * total energy  :  -154.3484715 Eh     change       -0.3462731E-05 Eh
   gradient norm :     0.0001228 Eh/α   predicted    -0.1222152E-05 ( -64.71%)
   displ. norm   :     0.0957946 α      lambda       -0.3820954E-05
   maximum displ.:     0.0702681 α      in ANC's #11, #2, #12, ...

........................................................................
.............................. CYCLE   34 ..............................
........................................................................

 iter      E             dE          RMSdq      gap      omega  full diag
   1   -157.1073202 -0.157107E+03  0.960E-03    0.88       0.0  T
   2   -157.1073202 -0.460762E-07  0.560E-03    0.88       1.8  T
   3   -157.1073202  0.422290E-07  0.761E-04    0.88      13.1  T
   4   -157.1073202 -0.608672E-07  0.238E-04    0.88      41.8  T
     SCC iter.                  ...        0 min,  0.053 sec
     gradient                   ...        0 min,  0.017 sec
 * total energy  :  -154.3484768 Eh     change       -0.5328483E-05 Eh
   gradient norm :     0.0001244 Eh/α   predicted    -0.1923272E-05 ( -63.91%)
   displ. norm   :     0.2504091 α      lambda       -0.8789248E-05
   maximum displ.:     0.1806866 α      in ANC's #11, #2, #12, ...

........................................................................
.............................. CYCLE   35 ..............................
........................................................................

 iter      E             dE          RMSdq      gap      omega  full diag
   1   -157.1070640 -0.157107E+03  0.253E-02    0.88       0.0  T
   2   -157.1070644 -0.369201E-06  0.147E-02    0.88       1.0  T
   3   -157.1070641  0.236806E-06  0.190E-03    0.88       5.2  T
   4   -157.1070645 -0.382064E-06  0.623E-04    0.88      16.0  T
   5   -157.1070645 -0.473000E-08  0.402E-04    0.88      24.8  T
     SCC iter.                  ...        0 min,  0.066 sec
     gradient                   ...        0 min,  0.016 sec
 * total energy  :  -154.3484870 Eh     change       -0.1023900E-04 Eh
   gradient norm :     0.0002409 Eh/α   predicted    -0.4521455E-05 ( -55.84%)
   displ. norm   :     0.3183335 α      lambda       -0.7083442E-05
   maximum displ.:     0.2254292 α      in ANC's #11, #2, #12, ...

........................................................................
.............................. CYCLE   36 ..............................
........................................................................

 iter      E             dE          RMSdq      gap      omega  full diag
   1   -157.1068142 -0.157107E+03  0.323E-02    0.88       0.0  T
   2   -157.1068149 -0.691686E-06  0.188E-02    0.88       1.0  T
   3   -157.1068146  0.311926E-06  0.237E-03    0.88       4.2  T
   4   -157.1068151 -0.582032E-06  0.749E-04    0.89      13.3  T
   5   -157.1068151 -0.405720E-08  0.388E-04    0.88      25.6  T
     SCC iter.                  ...        0 min,  0.065 sec
     gradient                   ...        0 min,  0.016 sec
 * total energy  :  -154.3484931 Eh     change       -0.6098907E-05 Eh
   gradient norm :     0.0004299 Eh/α   predicted    -0.3702257E-05 ( -39.30%)
   displ. norm   :     0.0604932 α      lambda       -0.1945484E-05
   maximum displ.:     0.0363845 α      in ANC's #11, #2, #12, ...

........................................................................
.............................. CYCLE   37 ..............................
........................................................................

 iter      E             dE          RMSdq      gap      omega  full diag
   1   -157.1072493 -0.157107E+03  0.637E-03    0.89       0.0  T
   2   -157.1072493 -0.316040E-07  0.370E-03    0.89       2.7  T
   3   -157.1072493  0.205779E-07  0.554E-04    0.89      18.0  T
   4   -157.1072494 -0.319144E-07  0.175E-04    0.89      56.8  T
     SCC iter.                  ...        0 min,  0.053 sec
     gradient                   ...        0 min,  0.016 sec
 * total energy  :  -154.3484958 Eh     change       -0.2603531E-05 Eh
   gradient norm :     0.0002257 Eh/α   predicted    -0.9761612E-06 ( -62.51%)
   displ. norm   :     0.0650802 α      lambda       -0.6107682E-05
   maximum displ.:     0.0381761 α      in ANC's #2, #18, #12, ...

........................................................................
.............................. CYCLE   38 ..............................
........................................................................

 iter      E             dE          RMSdq      gap      omega  full diag
   1   -157.1083371 -0.157108E+03  0.850E-03    0.89       0.0  T
   2   -157.1083371 -0.586905E-07  0.496E-03    0.89       2.0  T
   3   -157.1083370  0.131622E-06  0.122E-03    0.89       8.1  T
   4   -157.1083372 -0.155364E-06  0.228E-04    0.89      43.7  T
   5   -157.1083372 -0.240016E-08  0.115E-04    0.89      86.4  T
     SCC iter.                  ...        0 min,  0.065 sec
     gradient                   ...        0 min,  0.016 sec
 * total energy  :  -154.3485029 Eh     change       -0.7139830E-05 Eh
   gradient norm :     0.0007682 Eh/α   predicted    -0.3061147E-05 ( -57.13%)
   displ. norm   :     0.1135447 α      lambda       -0.8041247E-05
   maximum displ.:     0.0695381 α      in ANC's #2, #18, #12, ...

........................................................................
.............................. CYCLE   39 ..............................
........................................................................

 iter      E             dE          RMSdq      gap      omega  full diag
   1   -157.1086824 -0.157109E+03  0.141E-02    0.89       0.0  T
   2   -157.1086826 -0.142448E-06  0.818E-03    0.89       1.2  T
   3   -157.1086825  0.985357E-07  0.132E-03    0.89       7.6  T
   4   -157.1086826 -0.145974E-06  0.348E-04    0.89      28.6  T
   5   -157.1086826 -0.259175E-08  0.183E-04    0.89      54.3  T
     SCC iter.                  ...        0 min,  0.065 sec
     gradient                   ...        0 min,  0.016 sec
 * total energy  :  -154.3485127 Eh     change       -0.9802502E-05 Eh
   gradient norm :     0.0012120 Eh/α   predicted    -0.4046030E-05 ( -58.72%)
   displ. norm   :     0.1483222 α      lambda       -0.9505387E-05
   maximum displ.:     0.0939583 α      in ANC's #2, #12, #18, ...

........................................................................
.............................. CYCLE   40 ..............................
........................................................................

 iter      E             dE          RMSdq      gap      omega  full diag
   1   -157.1085262 -0.157109E+03  0.170E-02    0.89       0.0  T
   2   -157.1085264 -0.237365E-06  0.992E-03    0.89       1.0  T
   3   -157.1085263  0.155957E-06  0.158E-03    0.89       6.3  T
   4   -157.1085265 -0.231986E-06  0.439E-04    0.89      22.6  T
   5   -157.1085265 -0.582835E-08  0.252E-04    0.89      39.4  T
     SCC iter.                  ...        0 min,  0.065 sec
     gradient                   ...        0 min,  0.016 sec
 * total energy  :  -154.3485246 Eh     change       -0.1190319E-04 Eh
   gradient norm :     0.0009128 Eh/α   predicted    -0.4799493E-05 ( -59.68%)
   displ. norm   :     0.1471717 α      lambda       -0.9749243E-05
   maximum displ.:     0.0966528 α      in ANC's #2, #12, #8, ...

........................................................................
.............................. CYCLE   41 ..............................
........................................................................

 iter      E             dE          RMSdq      gap      omega  full diag
   1   -157.1077340 -0.157108E+03  0.154E-02    0.89       0.0  T
   2   -157.1077342 -0.259041E-06  0.895E-03    0.89       1.1  T
   3   -157.1077340  0.264962E-06  0.190E-03    0.89       5.2  T
   4   -157.1077343 -0.346735E-06  0.497E-04    0.90      20.0  T
   5   -157.1077343 -0.105810E-07  0.300E-04    0.90      33.2  T
     SCC iter.                  ...        0 min,  0.065 sec
     gradient                   ...        0 min,  0.016 sec
 * total energy  :  -154.3485377 Eh     change       -0.1308502E-04 Eh
   gradient norm :     0.0006649 Eh/α   predicted    -0.4923975E-05 ( -62.37%)
   displ. norm   :     0.1628277 α      lambda       -0.1266522E-04
   maximum displ.:     0.1089173 α      in ANC's #2, #12, #8, ...

........................................................................
.............................. CYCLE   42 ..............................
........................................................................

 iter      E             dE          RMSdq      gap      omega  full diag
   1   -157.1069114 -0.157107E+03  0.163E-02    0.90       0.0  T
   2   -157.1069117 -0.357046E-06  0.948E-03    0.90       1.0  T
   3   -157.1069112  0.510693E-06  0.253E-03    0.90       3.9  T
   4   -157.1069118 -0.614719E-06  0.631E-04    0.90      15.8  T
   5   -157.1069118 -0.240318E-07  0.350E-04    0.90      28.4  T
     SCC iter.                  ...        0 min,  0.066 sec
     gradient                   ...        0 min,  0.016 sec
 * total energy  :  -154.3485555 Eh     change       -0.1778677E-04 Eh
   gradient norm :     0.0007342 Eh/α   predicted    -0.6408863E-05 ( -63.97%)
   displ. norm   :     0.2303657 α      lambda       -0.2054286E-04
   maximum displ.:     0.1548400 α      in ANC's #2, #12, #8, ...
 * RMSD in coord.:     0.1549108 α      energy gain  -0.1209427E-03 Eh

generating ANC from exact Hessian ...
Using Lindh-Hessian (1995)
 Shifting diagonal of input Hessian by   9.884233802305662E-003
 Lowest  eigenvalues of input Hessian
    0.000000    0.000000    0.000000    0.000000    0.000000    0.000000
    0.010000    0.010005    0.010047    0.010075    0.010077    0.010088
    0.010415    0.010429    0.010910    0.010929    0.011149    0.011505
 Highest eigenvalues
    2.145880    2.149099    2.184164    2.190370    2.629803    2.637251
 

........................................................................
.............................. CYCLE   43 ..............................
........................................................................

 iter      E             dE          RMSdq      gap      omega  full diag
   1   -157.1056911 -0.157106E+03  0.238E-02    0.90       0.0  T
   2   -157.1056919 -0.802427E-06  0.139E-02    0.91       1.0  T
   3   -157.1056904  0.155552E-05  0.428E-03    0.91       2.3  T
   4   -157.1056922 -0.179484E-05  0.987E-04    0.91      10.1  T
   5   -157.1056922 -0.665900E-07  0.513E-04    0.91      19.4  T
   6   -157.1056922 -0.102333E-07  0.188E-04    0.91      52.9  T
     SCC iter.                  ...        0 min,  0.078 sec
     gradient                   ...        0 min,  0.016 sec
 * total energy  :  -154.3485848 Eh     change       -0.2929842E-04 Eh
   gradient norm :     0.0014411 Eh/α   predicted     0.0000000E+00 (-100.00%)
   displ. norm   :     0.0401855 α      lambda       -0.1986483E-05
   maximum displ.:     0.0233304 α      in ANC's #2, #18, #10, ...

........................................................................
.............................. CYCLE   44 ..............................
........................................................................

 iter      E             dE          RMSdq      gap      omega  full diag
   1   -157.1075959 -0.157108E+03  0.126E-02    0.91       0.0  T
   2   -157.1075961 -0.189326E-06  0.715E-03    0.91       1.4  T
   3   -157.1075960  0.137011E-06  0.135E-03    0.91       7.4  T
   4   -157.1075962 -0.210753E-06  0.370E-04    0.91      26.9  T
   5   -157.1075962 -0.530474E-08  0.197E-04    0.91      50.5  T
     SCC iter.                  ...        0 min,  0.064 sec
     gradient                   ...        0 min,  0.016 sec
 * total energy  :  -154.3485965 Eh     change       -0.1172662E-04 Eh
   gradient norm :     0.0008701 Eh/α   predicted    -0.6701395E-05 ( -42.85%)
   displ. norm   :     0.1040131 α      lambda       -0.2417148E-04
   maximum displ.:     0.0624540 α      in ANC's #18, #2, #10, ...

........................................................................
.............................. CYCLE   45 ..............................
........................................................................

 iter      E             dE          RMSdq      gap      omega  full diag
   1   -157.1105033 -0.157111E+03  0.310E-02    0.91       0.0  T
   2   -157.1105045 -0.125084E-05  0.175E-02    0.91       1.0  T
   3   -157.1105017  0.283518E-05  0.490E-03    0.91       2.0  T
   4   -157.1105053 -0.355773E-05  0.890E-04    0.91      11.2  T
   5   -157.1105053 -0.197102E-07  0.583E-04    0.91      17.1  T
   6   -157.1105053 -0.172479E-07  0.211E-04    0.91      47.2  T
     SCC iter.                  ...        0 min,  0.077 sec
     gradient                   ...        0 min,  0.016 sec
 * total energy  :  -154.3486055 Eh     change       -0.8975598E-05 Eh
   gradient norm :     0.0027559 Eh/α   predicted    -0.1214911E-04 (  35.36%)
   displ. norm   :     0.0435756 α      lambda       -0.2309774E-04
   maximum displ.:     0.0255445 α      in ANC's #2, #18, #10, ...

........................................................................
.............................. CYCLE   46 ..............................
........................................................................

 iter      E             dE          RMSdq      gap      omega  full diag
   1   -157.1094907 -0.157109E+03  0.134E-02    0.91       0.0  T
   2   -157.1094909 -0.213359E-06  0.753E-03    0.91       1.3  T
   3   -157.1094909  0.443129E-07  0.122E-03    0.91       8.2  T
   4   -157.1094910 -0.133105E-06  0.338E-04    0.91      29.4  T
   5   -157.1094910 -0.604047E-09  0.197E-04    0.91      50.6  T
     SCC iter.                  ...        0 min,  0.064 sec
     gradient                   ...        0 min,  0.016 sec
 * total energy  :  -154.3486217 Eh     change       -0.1618540E-04 Eh
   gradient norm :     0.0020213 Eh/α   predicted    -0.1157099E-04 ( -28.51%)
   displ. norm   :     0.1157709 α      lambda       -0.5351183E-04
   maximum displ.:     0.0696656 α      in ANC's #2, #18, #10, ...

........................................................................
.............................. CYCLE   47 ..............................
........................................................................

 iter      E             dE          RMSdq      gap      omega  full diag
   1   -157.1054245 -0.157105E+03  0.326E-02    0.91       0.0  T
   2   -157.1054257 -0.117268E-05  0.184E-02    0.91       1.0  T
   3   -157.1054242  0.142889E-05  0.427E-03    0.91       2.3  T
   4   -157.1054262 -0.200972E-05  0.860E-04    0.91      11.6  T
   5   -157.1054263 -0.833734E-08  0.538E-04    0.91      18.5  T
   6   -157.1054263 -0.153125E-07  0.181E-04    0.91      55.0  T
     SCC iter.                  ...        0 min,  0.077 sec
     gradient                   ...        0 min,  0.016 sec
 * total energy  :  -154.3486332 Eh     change       -0.1158466E-04 Eh
   gradient norm :     0.0027561 Eh/α   predicted    -0.2711775E-04 ( 134.08%)
   displ. norm   :     0.0363864 α      lambda       -0.2633537E-04
   maximum displ.:     0.0228058 α      in ANC's #2, #18, #10, ...

........................................................................
.............................. CYCLE   48 ..............................
........................................................................

 iter      E             dE          RMSdq      gap      omega  full diag
   1   -157.1066698 -0.157107E+03  0.163E-02    0.91       0.0  T
   2   -157.1066702 -0.340667E-06  0.909E-03    0.91       1.1  T
   3   -157.1066700  0.151752E-06  0.152E-03    0.91       6.6  T
   4   -157.1066703 -0.303477E-06  0.357E-04    0.91      27.9  T
   5   -157.1066703 -0.134477E-08  0.221E-04    0.91      45.1  T
     SCC iter.                  ...        0 min,  0.065 sec
     gradient                   ...        0 min,  0.016 sec
 * total energy  :  -154.3486506 Eh     change       -0.1732599E-04 Eh
   gradient norm :     0.0009104 Eh/α   predicted    -0.1318991E-04 ( -23.87%)
   displ. norm   :     0.0906487 α      lambda       -0.1215093E-04
   maximum displ.:     0.0628827 α      in ANC's #2, #1, #10, ...

........................................................................
.............................. CYCLE   49 ..............................
........................................................................

 iter      E             dE          RMSdq      gap      omega  full diag
   1   -157.1075493 -0.157108E+03  0.157E-02    0.91       0.0  T
   2   -157.1075495 -0.209526E-06  0.894E-03    0.91       1.1  T
   3   -157.1075491  0.392856E-06  0.190E-03    0.91       5.2  T
   4   -157.1075496 -0.497527E-06  0.439E-04    0.91      22.6  T
   5   -157.1075497 -0.497590E-08  0.273E-04    0.91      36.4  T
     SCC iter.                  ...        0 min,  0.065 sec
     gradient                   ...        0 min,  0.016 sec
 * total energy  :  -154.3486637 Eh     change       -0.1317231E-04 Eh
   gradient norm :     0.0006812 Eh/α   predicted    -0.6098035E-05 ( -53.71%)
   displ. norm   :     0.0853814 α      lambda       -0.9353646E-05
   maximum displ.:     0.0608719 α      in ANC's #2, #1, #10, ...

........................................................................
.............................. CYCLE   50 ..............................
........................................................................

 iter      E             dE          RMSdq      gap      omega  full diag
   1   -157.1077578 -0.157108E+03  0.932E-03    0.91       0.0  T
   2   -157.1077578 -0.740730E-07  0.543E-03    0.91       1.8  T
   3   -157.1077577  0.185794E-06  0.134E-03    0.91       7.4  T
   4   -157.1077579 -0.211231E-06  0.307E-04    0.91      32.4  T
   5   -157.1077579 -0.687265E-08  0.158E-04    0.91      62.8  T
     SCC iter.                  ...        0 min,  0.066 sec
     gradient                   ...        0 min,  0.016 sec
 * total energy  :  -154.3486767 Eh     change       -0.1300249E-04 Eh
   gradient norm :     0.0008480 Eh/α   predicted    -0.4693472E-05 ( -63.90%)
   displ. norm   :     0.1183199 α      lambda       -0.1472543E-04
   maximum displ.:     0.0827288 α      in ANC's #2, #1, #10, ...

........................................................................
.............................. CYCLE   51 ..............................
........................................................................

 iter      E             dE          RMSdq      gap      omega  full diag
   1   -157.1076627 -0.157108E+03  0.111E-02    0.92       0.0  T
   2   -157.1076628 -0.169460E-06  0.646E-03    0.92       1.5  T
   3   -157.1076624  0.451302E-06  0.220E-03    0.92       4.5  T
   4   -157.1076629 -0.510871E-06  0.451E-04    0.92      22.1  T
   5   -157.1076629 -0.144201E-07  0.231E-04    0.92      43.1  T
     SCC iter.                  ...        0 min,  0.066 sec
     gradient                   ...        0 min,  0.016 sec
 * total energy  :  -154.3486981 Eh     change       -0.2140481E-04 Eh
   gradient norm :     0.0008431 Eh/α   predicted    -0.7410657E-05 ( -65.38%)
   displ. norm   :     0.2618175 α      lambda       -0.3365113E-04
   maximum displ.:     0.1771126 α      in ANC's #2, #1, #10, ...

........................................................................
.............................. CYCLE   52 ..............................
........................................................................

 iter      E             dE          RMSdq      gap      omega  full diag
   1   -157.1073720 -0.157107E+03  0.252E-02    0.92       0.0  T
   2   -157.1073731 -0.109506E-05  0.146E-02    0.93       1.0  T
   3   -157.1073711  0.198930E-05  0.476E-03    0.92       2.1  T
   4   -157.1073734 -0.228168E-05  0.116E-03    0.93       8.6  T
   5   -157.1073735 -0.102400E-06  0.558E-04    0.93      17.8  T
   6   -157.1073735 -0.123226E-07  0.199E-04    0.93      50.0  T
     SCC iter.                  ...        0 min,  0.078 sec
     gradient                   ...        0 min,  0.016 sec
 * total energy  :  -154.3487477 Eh     change       -0.4955936E-04 Eh
   gradient norm :     0.0013228 Eh/α   predicted    -0.1734269E-04 ( -65.01%)
   displ. norm   :     0.6279743 α      lambda       -0.8136489E-04
   maximum displ.:     0.4198249 α      in ANC's #2, #1, #10, ...

........................................................................
.............................. CYCLE   53 ..............................
........................................................................

 iter      E             dE          RMSdq      gap      omega  full diag
   1   -157.1055203 -0.157106E+03  0.606E-02    0.93       0.0  T
   2   -157.1055280 -0.763391E-05  0.351E-02    0.95       1.0  T
   3   -157.1055120  0.159432E-04  0.134E-02    0.94       1.0  T
   4   -157.1055301 -0.180819E-04  0.306E-03    0.95       3.2  T
   5   -157.1055308 -0.732586E-06  0.140E-03    0.95       7.1  T
   6   -157.1055309 -0.780971E-07  0.506E-04    0.95      19.7  T
   7   -157.1055309 -0.102245E-07  0.194E-04    0.95      51.2  T
     SCC iter.                  ...        0 min,  0.092 sec
     gradient                   ...        0 min,  0.016 sec
 * total energy  :  -154.3488640 Eh     change       -0.1162530E-03 Eh
   gradient norm :     0.0026518 Eh/α   predicted    -0.4781724E-04 ( -58.87%)
   displ. norm   :     0.6067950 α      lambda       -0.1157012E-03
   maximum displ.:     0.4060068 α      in ANC's #2, #1, #10, ...

........................................................................
.............................. CYCLE   54 ..............................
........................................................................

 iter      E             dE          RMSdq      gap      omega  full diag
   1   -157.1038232 -0.157104E+03  0.579E-02    0.95       0.0  T
   2   -157.1038317 -0.850356E-05  0.335E-02    0.97       1.0  T
   3   -157.1038154  0.163214E-04  0.136E-02    0.96       1.0  T
   4   -157.1038337 -0.183653E-04  0.336E-03    0.97       3.0  T
   5   -157.1038347 -0.959267E-06  0.141E-03    0.97       7.0  T
   6   -157.1038348 -0.840503E-07  0.504E-04    0.97      19.7  T
   7   -157.1038348 -0.955714E-08  0.198E-04    0.97      50.4  T
     SCC iter.                  ...        0 min,  0.091 sec
     gradient                   ...        0 min,  0.016 sec
 * total energy  :  -154.3489737 Eh     change       -0.1097523E-03 Eh
   gradient norm :     0.0035838 Eh/α   predicted    -0.7915831E-04 ( -27.88%)
   displ. norm   :     0.5699909 α      lambda       -0.1143624E-03
   maximum displ.:     0.3819935 α      in ANC's #2, #1, #10, ...

........................................................................
.............................. CYCLE   55 ..............................
........................................................................

 iter      E             dE          RMSdq      gap      omega  full diag
   1   -157.1025507 -0.157103E+03  0.540E-02    0.98       0.0  T
   2   -157.1025589 -0.820474E-05  0.312E-02    0.99       1.0  T
   3   -157.1025435  0.153707E-04  0.132E-02    0.99       1.0  T
   4   -157.1025607 -0.172093E-04  0.340E-03    0.99       2.9  T
   5   -157.1025617 -0.102610E-05  0.135E-03    0.99       7.4  T
   6   -157.1025618 -0.804439E-07  0.474E-04    0.99      21.0  T
   7   -157.1025618 -0.800009E-08  0.189E-04    0.99      52.5  T
     SCC iter.                  ...        0 min,  0.090 sec
     gradient                   ...        0 min,  0.016 sec
 * total energy  :  -154.3490820 Eh     change       -0.1082918E-03 Eh
   gradient norm :     0.0043412 Eh/α   predicted    -0.7576216E-04 ( -30.04%)
   displ. norm   :     0.4985268 α      lambda       -0.1184144E-03
   maximum displ.:     0.3353961 α      in ANC's #2, #1, #10, ...

........................................................................
.............................. CYCLE   56 ..............................
........................................................................

 iter      E             dE          RMSdq      gap      omega  full diag
   1   -157.1026188 -0.157103E+03  0.471E-02    1.00       0.0  T
   2   -157.1026250 -0.622479E-05  0.272E-02    1.01       1.0  T
   3   -157.1026140  0.109872E-04  0.110E-02    1.00       1.0  T
   4   -157.1026262 -0.121379E-04  0.309E-03    1.01       3.2  T
   5   -157.1026271 -0.907494E-06  0.115E-03    1.01       8.6  T
   6   -157.1026271 -0.610513E-07  0.398E-04    1.01      25.0  T
   7   -157.1026271 -0.558396E-08  0.162E-04    1.01      61.3  T
     SCC iter.                  ...        0 min,  0.091 sec
     gradient                   ...        0 min,  0.016 sec
 * total energy  :  -154.3491960 Eh     change       -0.1139522E-03 Eh
   gradient norm :     0.0043919 Eh/α   predicted    -0.7392693E-04 ( -35.12%)
   displ. norm   :     0.5327561 α      lambda       -0.1563375E-03
   maximum displ.:     0.3618837 α      in ANC's #2, #1, #12, ...

........................................................................
.............................. CYCLE   57 ..............................
........................................................................

 iter      E             dE          RMSdq      gap      omega  full diag
   1   -157.1037978 -0.157104E+03  0.505E-02    1.01       0.0  T
   2   -157.1038042 -0.637600E-05  0.292E-02    1.02       1.0  T
   3   -157.1037928  0.114030E-04  0.109E-02    1.02       1.0  T
   4   -157.1038052 -0.124005E-04  0.322E-03    1.02       3.1  T
   5   -157.1038063 -0.105854E-05  0.115E-03    1.02       8.7  T
   6   -157.1038063 -0.628167E-07  0.397E-04    1.02      25.0  T
   7   -157.1038063 -0.582020E-08  0.165E-04    1.02      60.2  T
     SCC iter.                  ...        0 min,  0.092 sec
     gradient                   ...        0 min,  0.016 sec
 * total energy  :  -154.3493446 Eh     change       -0.1486877E-03 Eh
   gradient norm :     0.0038182 Eh/α   predicted    -0.1003595E-03 ( -32.50%)
   displ. norm   :     0.5729361 α      lambda       -0.1910192E-03
   maximum displ.:     0.3961474 α      in ANC's #2, #1, #12, ...

........................................................................
.............................. CYCLE   58 ..............................
........................................................................

 iter      E             dE          RMSdq      gap      omega  full diag
   1   -157.1053188 -0.157105E+03  0.542E-02    1.03       0.0  T
   2   -157.1053248 -0.595030E-05  0.314E-02    1.04       1.0  T
   3   -157.1053133  0.114824E-04  0.106E-02    1.04       1.0  T
   4   -157.1053256 -0.123009E-04  0.318E-03    1.04       3.1  T
   5   -157.1053267 -0.109048E-05  0.109E-03    1.04       9.1  T
   6   -157.1053268 -0.577811E-07  0.379E-04    1.04      26.2  T
   7   -157.1053268 -0.549861E-08  0.161E-04    1.04      61.8  T
     SCC iter.                  ...        0 min,  0.091 sec
     gradient                   ...        0 min,  0.016 sec
 * total energy  :  -154.3495213 Eh     change       -0.1766573E-03 Eh
   gradient norm :     0.0028523 Eh/α   predicted    -0.1268651E-03 ( -28.19%)
   displ. norm   :     0.5623603 α      lambda       -0.1988227E-03
   maximum displ.:     0.3968270 α      in ANC's #2, #1, #12, ...

........................................................................
.............................. CYCLE   59 ..............................
........................................................................

 iter      E             dE          RMSdq      gap      omega  full diag
   1   -157.1066062 -0.157107E+03  0.541E-02    1.04       0.0  T
   2   -157.1066105 -0.426005E-05  0.314E-02    1.05       1.0  T
   3   -157.1066010  0.941975E-05  0.923E-03    1.05       1.1  T
   4   -157.1066111 -0.100050E-04  0.273E-03    1.05       3.6  T
   5   -157.1066119 -0.827242E-06  0.908E-04    1.05      11.0  T
   6   -157.1066119 -0.399078E-07  0.328E-04    1.05      30.4  T
     SCC iter.                  ...        0 min,  0.079 sec
     gradient                   ...        0 min,  0.016 sec
 * total energy  :  -154.3497035 Eh     change       -0.1822171E-03 Eh
   gradient norm :     0.0020207 Eh/α   predicted    -0.1308547E-03 ( -28.19%)
   displ. norm   :     0.5280329 α      lambda       -0.1873584E-03
   maximum displ.:     0.3781359 α      in ANC's #2, #1, #12, ...

........................................................................
.............................. CYCLE   60 ..............................
........................................................................

 iter      E             dE          RMSdq      gap      omega  full diag
   1   -157.1073726 -0.157107E+03  0.530E-02    1.06       0.0  T
   2   -157.1073754 -0.280402E-05  0.309E-02    1.06       1.0  T
   3   -157.1073683  0.708157E-05  0.783E-03    1.06       1.3  T
   4   -157.1073759 -0.757035E-05  0.222E-03    1.06       4.5  T
   5   -157.1073764 -0.528562E-06  0.749E-04    1.06      13.3  T
   6   -157.1073764 -0.222723E-07  0.299E-04    1.06      33.3  T
     SCC iter.                  ...        0 min,  0.078 sec
     gradient                   ...        0 min,  0.016 sec
 * total energy  :  -154.3498747 Eh     change       -0.1711684E-03 Eh
   gradient norm :     0.0018083 Eh/α   predicted    -0.1198047E-03 ( -30.01%)
   displ. norm   :     0.7388689 α      lambda       -0.1725046E-03
   maximum displ.:     0.5323604 α      in ANC's #2, #1, #12, ...

........................................................................
.............................. CYCLE   61 ..............................
........................................................................

 iter      E             dE          RMSdq      gap      omega  full diag
   1   -157.1072817 -0.157107E+03  0.782E-02    1.07       0.0  T
   2   -157.1072862 -0.449800E-05  0.456E-02    1.07       1.0  T
   3   -157.1072747  0.114784E-04  0.997E-03    1.07       1.0  T
   4   -157.1072873 -0.125800E-04  0.275E-03    1.07       3.6  T
   5   -157.1072880 -0.718087E-06  0.103E-03    1.07       9.6  T
[...]
eigval :      551.72   557.78   566.16   575.64   586.48   587.52
eigval :      589.66   599.87   606.82   646.42   652.39   656.78
eigval :      668.59   671.11   679.82   681.98   683.61   691.23
eigval :      693.34   694.12   695.12   708.04   721.96   751.30
eigval :      755.02   770.52   771.41   774.57   775.48   777.90
eigval :      778.10   824.31   825.34   826.04   860.20   860.94
eigval :      865.63   868.94   869.80   870.39   870.81   905.46
eigval :      909.16   909.49   909.78   911.68   912.87   912.91
eigval :      913.34   914.02   919.14   919.36   919.58   921.80
eigval :      922.18   923.51   937.84   938.27   939.09   948.29
eigval :      958.69   958.90   959.19   966.62  1013.51  1014.31
eigval :     1015.68  1061.83  1062.28  1075.45  1076.07  1076.23
eigval :     1082.09  1112.72  1114.26  1116.17  1117.63  1118.97
eigval :     1120.50  1136.67  1139.28  1139.53  1141.04  1141.20
eigval :     1158.54  1158.98  1160.27  1174.90  1178.59  1179.82
eigval :     1181.45  1182.05  1185.63  1188.36  1189.64  1191.00
eigval :     1204.60  1234.00  1234.46  1244.28  1244.81  1247.27
eigval :     1251.74  1261.50  1263.09  1268.68  1273.75  1276.71
eigval :     1285.48  1286.00  1292.14  1292.88  1293.35  1313.83
eigval :     1317.30  1324.39  1325.15  1325.45  1329.37  1330.71
eigval :     1330.86  1332.24  1381.53  1399.23  1399.73  1400.14
eigval :     1404.85  1414.68  1417.55  1418.06  1418.43  1432.82
eigval :     1433.06  1434.22  1434.84  1436.06  1437.18  1472.46
eigval :     1473.52  1476.80  1478.00  1481.62  1483.12  1483.63
eigval :     1484.25  1485.11  1487.30  1487.78  1490.63  1492.19
eigval :     1494.34  1494.38  1494.95  1498.21  1499.66  1499.97
eigval :     1503.17  1576.95  1577.24  1578.34  1590.81  1590.98
eigval :     1591.40  1591.82  1592.34  1593.07  1599.49  1599.97
eigval :     1601.06  2359.36  2362.46  3021.56  3023.15  3023.19
eigval :     3024.04  3025.36  3025.82  3045.47  3046.08  3046.10
eigval :     3047.53  3048.47  3048.59  3052.67  3053.44  3053.76
eigval :     3057.00  3058.47  3058.79  3068.21  3069.92  3073.55
eigval :     3078.52  3079.53  3084.27  3084.66  3084.77  3086.75
eigval :     3088.19  3088.44  3089.78  3091.52  3091.83  3093.37
eigval :     3094.55  3095.59  3097.96  3102.05  3103.08  3103.44
eigval :     3104.58  3104.83  3105.56
 reduced masses (amu)
   1: 11.27   2: 11.11   3: 11.26   4: 11.62   5: 11.74   6: 11.59   7: 10.32   8: 10.67
   9: 10.76  10: 10.59  11: 10.54  12: 10.81  13: 10.98  14: 10.50  15: 10.40  16: 12.56
  17: 13.07  18: 11.69  19: 12.67  20: 11.14  21:  7.55  22:  9.73  23:  8.57  24:  9.98
  25:  8.71  26:  9.64  27:  9.97  28: 11.83  29: 11.69  30: 12.34  31: 10.23  32:  6.60
  33: 11.30  34:  3.58  35: 10.94  36: 12.90  37:  1.78  38:  2.00  39: 11.64  40:  1.64
  41:  9.29  42:  8.86  43:  8.54  44: 10.95  45:  9.47  46:  9.81  47:  9.64  48: 12.06
  49: 11.65  50: 12.26  51:  9.69  52: 10.21  53:  9.70  54: 12.77  55: 12.03  56:  8.96
  57:  9.01  58:  8.97  59:  9.94  60: 10.18  61: 10.01  62: 10.11  63: 10.21  64:  9.65
  65: 10.98  66: 11.07  67: 11.25  68: 12.05  69: 10.97  70: 11.04  71: 11.23  72: 12.42
  73:  9.64  74:  9.60  75:  9.69  76: 10.55  77: 11.66  78: 10.59  79: 11.46  80: 11.73
  81: 11.98  82: 14.17  83: 10.09  84: 10.07  85: 10.06  86: 10.98  87: 11.24  88:  9.89
  89:  9.94  90:  9.93  91: 10.63  92: 11.15  93: 10.98  94: 11.21  95: 11.10  96: 11.32
  97: 11.25  98: 11.29  99: 11.50 100: 11.11 101: 11.61 102: 11.61 103: 10.98 104: 11.04
 105: 11.51 106: 11.49 107: 11.50 108: 11.47 109: 11.48 110: 11.77 111: 11.49 112: 11.11
 113: 12.08 114: 11.08 115: 11.18 116:  3.48 117:  3.45 118:  3.35 119:  3.38 120:  3.37
 121:  3.34 122:  8.59 123:  8.60 124:  8.56 125:  3.48 126:  3.44 127:  3.46 128:  4.08
 129:  5.43 130:  7.43 131:  5.39 132: 11.63 133:  5.88 134:  9.56 135:  3.83 136:  3.85
 137:  4.20 138: 10.03 139:  4.98 140:  3.90 141:  3.05 142:  3.10 143:  3.16 144:  3.08
 145:  3.10 146:  3.11 147:  8.77 148:  8.52 149:  8.35 150: 11.88 151:  4.59 152:  4.57
 153:  4.57 154: 13.09 155:  3.27 156:  3.26 157:  3.26 158:  9.80 159:  9.67 160:  8.78
 161:  8.78 162:  8.77 163:  8.22 164:  6.51 165:  6.55 166:  6.79 167:  6.12 168:  6.17
 169:  6.22 170:  9.65 171:  5.61 172:  5.54 173:  7.08 174:  7.00 175: 10.11 176: 10.11
 177: 10.12 178:  4.97 179:  3.60 180:  3.86 181:  1.83 182:  1.43 183:  1.50 184:  1.78
 185:  2.34 186:  1.75 187:  8.30 188:  9.66 189:  9.64 190:  4.65 191:  8.47 192:  4.15
 193:  4.24 194:  8.08 195:  7.76 196:  5.74 197:  7.32 198:  6.37 199: 10.79 200: 10.81
 201:  7.85 202:  7.78 203:  8.15 204: 10.39 205: 10.39 206: 11.60 207: 11.78 208: 11.88
 209: 10.42 210: 11.93 211: 11.98 212: 11.97 213: 12.11 214:  2.95 215:  2.94 216:  2.94
 217: 11.83 218: 11.05 219:  3.06 220:  3.15 221:  3.48 222:  9.50 223:  9.51 224:  9.37
 225:  9.65 226:  9.83 227:  9.88 228:  8.85 229:  9.06 230: 10.60 231:  9.03 232:  1.64
 233:  1.60 234:  1.68 235:  1.59 236:  1.61 237:  9.69 238:  1.74 239:  9.65 240:  1.71
 241:  1.87 242:  9.12 243:  2.06 244: 11.64 245:  2.96 246:  2.96 247:  2.96 248: 11.59
 249: 11.59 250: 11.60 251: 11.70 252: 11.70 253: 11.46 254: 11.47 255: 11.45 256: 11.72
 257: 11.54 258: 11.54 259: 11.52 260: 12.79 261: 12.79 262:  1.81 263:  1.82 264:  1.81
 265:  1.77 266:  1.77 267:  1.78 268:  1.95 269:  1.95 270:  1.95 271:  1.95 272:  1.94
 273:  1.94 274:  1.38 275:  1.38 276:  1.39 277:  1.42 278:  1.43 279:  1.43 280:  1.78
 281:  1.78 282:  1.77 283:  1.77 284:  1.76 285:  1.79 286:  1.79 287:  1.75 288:  1.79
 289:  1.80 290:  1.79 291:  1.80 292:  1.83 293:  1.84 294:  1.84 295:  1.84 296:  1.85
 297:  1.85 298:  1.90 299:  1.90 300:  1.91 301:  1.91 302:  1.90 303:  1.91
 IR intensities (km·mol⁻¹)
   1:  0.02   2:  0.02   3:  0.02   4:  0.01   5:  0.00   6:  0.01   7:  0.69   8:  0.49
   9:  0.36  10:  0.82  11:  0.22  12:  0.07  13:  0.36  14:  0.17  15:  0.22  16:  2.61
  17:  2.10  18:  0.09  19:  5.41  20:  0.24  21:  0.85  22:  1.17  23:  3.02  24:  1.11
  25:  2.18  26:  0.71  27:  0.24  28:  2.83  29:  0.97  30:  1.54  31:  2.19  32:  1.33
  33:  0.43  34:  0.44  35:  0.65  36:  0.65  37:  0.29  38:  0.32  39:  0.09  40:  0.26
  41:  3.72  42:  1.37  43:  3.42  44:  6.47  45:  0.08  46:  0.49  47:  0.10  48: 16.27
  49:  2.82  50:  2.19  51:  0.69  52:  0.09  53:  0.82  54:  4.06  55:  0.17  56:  1.36
  57:  4.04  58:  1.75  59:  0.09  60:  0.03  61:  0.07  62:  0.50  63:  0.01  64:  0.04
  65:  0.05  66:  1.35  67:  1.09  68:  9.06  69:  0.52  70:  1.25  71:  6.18  72:  0.55
  73: 14.79  74: 50.74  75: 11.04  76:  0.63  77:  2.04  78:  0.40  79:  0.36  80:  8.23
  81:  2.14  82:  3.64  83:  4.18  84:  2.72  85:  0.19  86:  2.43  87:  1.11  88:  0.12
  89:  1.30  90:  1.48  91:  0.73  92:  4.10  93: 11.99  94:  3.60  95:  0.51  96:  0.57
  97:  3.12  98: 26.05  99: 22.50 100:  0.02 101:  9.50 102:  9.06 103:  0.12 104:  0.76
 105:  3.80 106: 12.94 107:  9.52 108:  5.84 109:  5.68 110: 12.46 111:  8.49 112:  0.03
 113:  2.07 114:  7.02 115:  2.73 116:  2.41 117:  5.35 118: 17.75 119: 26.52 120: 34.29
 121: 30.04 122:  0.10 123:  0.06 124:  1.30 125:  0.54 126:  0.04 127:  0.88 128:  1.50
 129:  2.05 130:  0.58 131:  1.04 132: 51.69 133:  0.74 134:  1.91 135:  0.06 136:  0.23
 137:  0.84 138:  5.65 139:  0.98 140:  0.84 141:  0.60 142:  0.14 143:  0.09 144:  0.42
 145:  0.77 146:  0.60 147:  1.96 148:  1.60 149:  0.05 150:  1.82 151:  0.50 152:  0.30
 153:  0.37 154: 60.72 155:  0.74 156:  0.14 157:  0.72 158: 42.86 159: 24.87 160:  0.47
 161:  0.30 162:  0.76 163:  0.06 164:  0.78 165:  1.29 166:  1.28 167:  2.25 168:  1.09
 169:  8.42 170: 36.10 171: 28.02 172: 26.02 173:102.00 174: 86.55 175:  7.34 176:  7.99
 177:  8.11 178:  1.28 179:  2.94 180:  0.33 181:  4.94 182:  4.85 183:  1.46 184:  4.55
 185:  2.39 186: 13.36 187:  1.88 188: 35.12 189:166.82 190:  7.30 191:  4.39 192:  7.99
 193: 21.44 194:244.02 195:199.85 196: 27.25 197:155.67 198: 26.73 199:299.02 200: 98.42
 201:  6.07 202: 63.83 203:  0.47 204:489.37 205:121.35 206: 10.20 207:191.44 208: 40.51
 209:568.09 210:  3.07 211:  7.59 212:  4.60 213: 16.37 214:  1.05 215:  2.22 216:  1.52
 217:296.12 218:889.21 219: 13.14 220: 18.16 221: 58.01 222:101.70 223: 92.52 224: 29.86
 225: 43.15 226:168.89 227:148.00 228:131.72 229:245.10 230:196.51 231:340.21 232:  2.42
 233:  0.59 234:  1.54 235:  0.91 236:  0.83 237:426.22 238:  2.64 239: 57.50 240:  2.37
 241:  2.64 242: 18.16 243: 10.92 244:922.61 245:  7.59 246: 45.33 247: 47.56 248:  6.95
 249: 36.07 250: 37.17 251: 27.46 252: 14.45 253: 16.97 254: 10.80 255:162.13 256: 31.86
 257: 35.62 258: 34.67 259: 14.00 260:657.82 261:313.45 262: 54.49 263: 79.41 264: 25.95
 265: 16.03 266: 17.96 267: 21.69 268:  3.27 269:  8.97 270:  0.06 271: 67.34 272: 46.79
 273: 96.41 274: 11.00 275: 21.75 276:  8.98 277:102.16 278:112.29 279: 95.74 280: 71.36
 281: 78.97 282: 48.94 283: 37.20 284: 25.45 285: 15.57 286: 40.63 287: 13.10 288: 17.11
 289: 28.42 290: 36.26 291: 32.42 292: 86.15 293:110.86 294:100.93 295:117.37 296: 99.81
 297:136.18 298:140.41 299: 50.89 300: 98.34 301:224.36 302: 71.14 303: 19.77
 Raman intensities (Ä⁴*amu⁻¹)
   1:  0.00   2:  0.00   3:  0.00   4:  0.00   5:  0.00   6:  0.00   7:  0.00   8:  0.00
   9:  0.00  10:  0.00  11:  0.00  12:  0.00  13:  0.00  14:  0.00  15:  0.00  16:  0.00
  17:  0.00  18:  0.00  19:  0.00  20:  0.00  21:  0.00  22:  0.00  23:  0.00  24:  0.00
  25:  0.00  26:  0.00  27:  0.00  28:  0.00  29:  0.00  30:  0.00  31:  0.00  32:  0.00
  33:  0.00  34:  0.00  35:  0.00  36:  0.00  37:  0.00  38:  0.00  39:  0.00  40:  0.00
  41:  0.00  42:  0.00  43:  0.00  44:  0.00  45:  0.00  46:  0.00  47:  0.00  48:  0.00
  49:  0.00  50:  0.00  51:  0.00  52:  0.00  53:  0.00  54:  0.00  55:  0.00  56:  0.00
  57:  0.00  58:  0.00  59:  0.00  60:  0.00  61:  0.00  62:  0.00  63:  0.00  64:  0.00
  65:  0.00  66:  0.00  67:  0.00  68:  0.00  69:  0.00  70:  0.00  71:  0.00  72:  0.00
  73:  0.00  74:  0.00  75:  0.00  76:  0.00  77:  0.00  78:  0.00  79:  0.00  80:  0.00
  81:  0.00  82:  0.00  83:  0.00  84:  0.00  85:  0.00  86:  0.00  87:  0.00  88:  0.00
  89:  0.00  90:  0.00  91:  0.00  92:  0.00  93:  0.00  94:  0.00  95:  0.00  96:  0.00
  97:  0.00  98:  0.00  99:  0.00 100:  0.00 101:  0.00 102:  0.00 103:  0.00 104:  0.00
 105:  0.00 106:  0.00 107:  0.00 108:  0.00 109:  0.00 110:  0.00 111:  0.00 112:  0.00
 113:  0.00 114:  0.00 115:  0.00 116:  0.00 117:  0.00 118:  0.00 119:  0.00 120:  0.00
 121:  0.00 122:  0.00 123:  0.00 124:  0.00 125:  0.00 126:  0.00 127:  0.00 128:  0.00
 129:  0.00 130:  0.00 131:  0.00 132:  0.00 133:  0.00 134:  0.00 135:  0.00 136:  0.00
 137:  0.00 138:  0.00 139:  0.00 140:  0.00 141:  0.00 142:  0.00 143:  0.00 144:  0.00
 145:  0.00 146:  0.00 147:  0.00 148:  0.00 149:  0.00 150:  0.00 151:  0.00 152:  0.00
 153:  0.00 154:  0.00 155:  0.00 156:  0.00 157:  0.00 158:  0.00 159:  0.00 160:  0.00
 161:  0.00 162:  0.00 163:  0.00 164:  0.00 165:  0.00 166:  0.00 167:  0.00 168:  0.00
 169:  0.00 170:  0.00 171:  0.00 172:  0.00 173:  0.00 174:  0.00 175:  0.00 176:  0.00
 177:  0.00 178:  0.00 179:  0.00 180:  0.00 181:  0.00 182:  0.00 183:  0.00 184:  0.00
 185:  0.00 186:  0.00 187:  0.00 188:  0.00 189:  0.00 190:  0.00 191:  0.00 192:  0.00
 193:  0.00 194:  0.00 195:  0.00 196:  0.00 197:  0.00 198:  0.00 199:  0.00 200:  0.00
 201:  0.00 202:  0.00 203:  0.00 204:  0.00 205:  0.00 206:  0.00 207:  0.00 208:  0.00
 209:  0.00 210:  0.00 211:  0.00 212:  0.00 213:  0.00 214:  0.00 215:  0.00 216:  0.00
 217:  0.00 218:  0.00 219:  0.00 220:  0.00 221:  0.00 222:  0.00 223:  0.00 224:  0.00
 225:  0.00 226:  0.00 227:  0.00 228:  0.00 229:  0.00 230:  0.00 231:  0.00 232:  0.00
 233:  0.00 234:  0.00 235:  0.00 236:  0.00 237:  0.00 238:  0.00 239:  0.00 240:  0.00
 241:  0.00 242:  0.00 243:  0.00 244:  0.00 245:  0.00 246:  0.00 247:  0.00 248:  0.00
 249:  0.00 250:  0.00 251:  0.00 252:  0.00 253:  0.00 254:  0.00 255:  0.00 256:  0.00
 257:  0.00 258:  0.00 259:  0.00 260:  0.00 261:  0.00 262:  0.00 263:  0.00 264:  0.00
 265:  0.00 266:  0.00 267:  0.00 268:  0.00 269:  0.00 270:  0.00 271:  0.00 272:  0.00
 273:  0.00 274:  0.00 275:  0.00 276:  0.00 277:  0.00 278:  0.00 279:  0.00 280:  0.00
 281:  0.00 282:  0.00 283:  0.00 284:  0.00 285:  0.00 286:  0.00 287:  0.00 288:  0.00
 289:  0.00 290:  0.00 291:  0.00 292:  0.00 293:  0.00 294:  0.00 295:  0.00 296:  0.00
 297:  0.00 298:  0.00 299:  0.00 300:  0.00 301:  0.00 302:  0.00 303:  0.00
 output can be read by thermo (or use thermo option).
 writing <g98.out> molden fake output.
 recommended (thermochemical) frequency scaling factor: 1.0
           -------------------------------------------------
          |             Thermodynamic Functions             |
           -------------------------------------------------

Molecule has no symmetry elements
It seems to be the C1 point group
c1  symmetry found (for desy threshold:  0.10E+00) used in thermo

          ...................................................
          :                      SETUP                      :
          :.................................................:
          :  # frequencies                         297      :
          :  # imaginary freq.                       0      :
          :  linear?                             false      :
          :  only rotor calc.                    false      :
          :  symmetry                               c1      :
          :  rotational number                       1      :
          :  scaling factor                  1.0000000      :
          :  rotor cutoff                   50.0000000 cm⁻¹ :
          :  imag. cutoff                  -20.0000000 cm⁻¹ :
          :.................................................:

    mode    ω/cm⁻¹     T·S(HO)/kcal·mol⁻¹    T·S(FR)/kcal·mol⁻¹   T·S(vib)
   ------------------------------------------------------------------------
       1      3.96    -2.93721 (  0.00%)    -1.80762 (100.00%)    -1.80766
       2     12.89    -2.23796 (  0.44%)    -1.45802 ( 99.56%)    -1.46145
       3     13.93    -2.19228 (  0.60%)    -1.43517 ( 99.40%)    -1.43970
       4     16.43    -2.09458 (  1.15%)    -1.38630 ( 98.85%)    -1.39446
       5     21.09    -1.94645 (  3.07%)    -1.31220 ( 96.93%)    -1.33167
       6     22.07    -1.91963 (  3.66%)    -1.29878 ( 96.34%)    -1.32149
       7     26.76    -1.80554 (  7.59%)    -1.24167 ( 92.41%)    -1.28445
       8     42.29    -1.53516 ( 33.85%)    -1.10617 ( 66.15%)    -1.25137
       9     44.37    -1.50684 ( 38.27%)    -1.09196 ( 61.73%)    -1.25072
      10     47.08    -1.47179 ( 44.01%)    -1.07437 ( 55.99%)    -1.24928
      11     56.21    -1.36730 ( 61.50%)    -1.02185 ( 38.50%)    -1.23430
      12     57.12    -1.35784 ( 63.01%)    -1.01709 ( 36.99%)    -1.23180
      13     85.05    -1.12426 ( 89.33%)    -0.89917 ( 10.67%)    -1.10024
      14     87.91    -1.10497 ( 90.53%)    -0.88939 (  9.47%)    -1.08454
      15     96.62    -1.04991 ( 93.31%)    -0.86140 (  6.69%)    -1.03730
      16     98.11    -1.04101 ( 93.68%)    -0.85686 (  6.32%)    -1.02937
      17     99.59    -1.03227 ( 94.03%)    -0.85241 (  5.97%)    -1.02152
      18    103.83    -1.00808 ( 94.90%)    -0.84008 (  5.10%)    -0.99951
      19    104.80    -1.00269 ( 95.07%)    -0.83732 (  4.93%)    -0.99454
      20    105.89    -0.99666 ( 95.26%)    -0.83424 (  4.74%)    -0.98897
      21    109.92    -0.97507 ( 95.89%)    -0.82320 (  4.11%)    -0.96883
      22    112.21    -0.96313 ( 96.21%)    -0.81709 (  3.79%)    -0.95759
      23    123.61    -0.90730 ( 97.39%)    -0.78841 (  2.61%)    -0.90420
      24    129.46    -0.88075 ( 97.82%)    -0.77472 (  2.18%)    -0.87845
      25    135.36    -0.85521 ( 98.17%)    -0.76151 (  1.83%)    -0.85349
      26    136.93    -0.84862 ( 98.25%)    -0.75809 (  1.75%)    -0.84704
      27    150.46    -0.79500 ( 98.80%)    -0.73019 (  1.20%)    -0.79422
      28    152.96    -0.78566 ( 98.87%)    -0.72531 (  1.13%)    -0.78498
      29    153.72    -0.78283 ( 98.89%)    -0.72383 (  1.11%)    -0.78218
      30    181.01    -0.69110 ( 99.42%)    -0.67542 (  0.58%)    -0.69101
      31    184.23    -0.68132 ( 99.46%)    -0.67021 (  0.54%)    -0.68126
      32    199.05    -0.63859 ( 99.60%)    -0.64728 (  0.40%)    -0.63863
      33    204.29    -0.62437 ( 99.64%)    -0.63959 (  0.36%)    -0.62442
      34    209.98    -0.60938 ( 99.68%)    -0.63145 (  0.32%)    -0.60945
      35    217.25    -0.59090 ( 99.72%)    -0.62136 (  0.28%)    -0.59098
      36    221.94    -0.57937 ( 99.74%)    -0.61504 (  0.26%)    -0.57946
      37    222.66    -0.57762 ( 99.75%)    -0.61407 (  0.25%)    -0.57771
      38    227.53    -0.56599 ( 99.77%)    -0.60766 (  0.23%)    -0.56608
      39    237.48    -0.54313 ( 99.80%)    -0.59499 (  0.20%)    -0.54324
      40    238.31    -0.54127 ( 99.81%)    -0.59395 (  0.19%)    -0.54137
      41    238.72    -0.54038 ( 99.81%)    -0.59345 (  0.19%)    -0.54048
      42    267.88    -0.47998 ( 99.88%)    -0.55931 (  0.12%)    -0.48008
      43    270.32    -0.47529 ( 99.88%)    -0.55661 (  0.12%)    -0.47539
   ------------------------------------------------------------------------

   temp. (K)  partition function   enthalpy   heat capacity  entropy
                                   cal/mol     cal/K/mol   cal/K/mol   J/K/mol
 298.15  VIB  0.125E+25            30838.105    190.221    192.769
         ROT  0.100E+09              888.752      2.981     39.597
         INT  0.125E+33            31726.858    193.201    232.366
         TR   0.206E+29             1481.254      4.968     45.774
         TOT                       33208.1115   198.1695   278.1400  1163.7376

       T/K    H(0)-H(T)+PV         H(T)/Eh          T*S/Eh         G(T)/Eh
   ------------------------------------------------------------------------
    298.15    0.529205E-01    0.842496E+00    0.132153E+00    0.710342E+00
   ------------------------------------------------------------------------

         :::::::::::::::::::::::::::::::::::::::::::::::::::::
         ::                  THERMODYNAMIC                  ::
         :::::::::::::::::::::::::::::::::::::::::::::::::::::
         :: total free energy        -153.641768925004 Eh   ::
         ::.................................................::
         :: total energy             -154.352111194254 Eh   ::
         :: zero point energy           0.789575049076 Eh   ::
         :: G(RRHO) w/o ZPVE           -0.079232779826 Eh   ::
         :: G(RRHO) contrib.            0.710342269250 Eh   ::
         :::::::::::::::::::::::::::::::::::::::::::::::::::::

optimized geometry written to: xtbopt.xyz


           -------------------------------------------------
          | TOTAL ENERGY             -154.352111194254 Eh   |
          | TOTAL ENTHALPY           -153.509615650930 Eh   |
          | TOTAL FREE ENERGY        -153.641768925004 Eh   |
          | GRADIENT NORM               0.000108990505 Eh/α |
          | HOMO-LUMO GAP               1.199335755263 eV   |
           -------------------------------------------------

------------------------------------------------------------------------
 * finished run on 2025/09/10 at 17:04:41.315     
------------------------------------------------------------------------
 total:
 * wall-time:     0 d,  0 h,  0 min, 22.241 sec
 *  cpu-time:     0 d,  0 h, 14 min, 11.441 sec
 * ratio c/w:    38.282 speedup
 SCF:
 * wall-time:     0 d,  0 h,  0 min,  0.304 sec
 *  cpu-time:     0 d,  0 h,  0 min, 11.018 sec
 * ratio c/w:    36.271 speedup
 ANC optimizer:
 * wall-time:     0 d,  0 h,  0 min, 14.568 sec
 *  cpu-time:     0 d,  0 h,  9 min, 42.675 sec
 * ratio c/w:    39.996 speedup
 analytical hessian:
 * wall-time:     0 d,  0 h,  0 min,  7.088 sec
 *  cpu-time:     0 d,  0 h,  4 min,  8.382 sec
 * ratio c/w:    35.042 speedup

