$hessian                                                                        
        0.4836858028   0.0108030124   0.0022618968  -0.1971354808  -0.1257603128
       -0.0024754693  -0.0612861688  -0.0274498710  -0.0007174604  -0.0005594980
        0.0092757819   0.0000678846   0.0044000635  -0.0030831560  -0.0000046671
       -0.0025306803  -0.0019428402   0.0000026417  -0.0033540012  -0.0001335153
       -0.0000665821  -0.0016896914  -0.0168208399  -0.0002537098  -0.0100206043
       -0.0025862409  -0.0000613286  -0.0202699929   0.0310243509   0.0003282022
        0.0070248690   0.0015408501   0.0000745451   0.0014752435   0.0032149000
        0.0000053698  -0.0004601425   0.0010050746  -0.0000016841   0.0010570237
        0.0006257428   0.0000050832  -0.0000457391  -0.0012489683  -0.0000078682
        0.0002252201   0.0001389715   0.0000013122  -0.0001455929   0.0001299368
        0.0000018781   0.0000856431   0.0001128269   0.0000022319   0.0000092948
       -0.0001147745   0.0000019035  -0.0002432489   0.0000034063   0.0000022618
        0.0002346106  -0.0002424147   0.0000001628  -0.0005575664   0.0002121417
        0.0000015333   0.0005313001   0.0003294826   0.0000042610  -0.0011815801
       -0.0006619464  -0.0000062195  -0.0015887095   0.0024440495   0.0000298445
       -0.1979553030   0.1200051913   0.0008240203   0.0019971739  -0.0007698822
        0.0000238771  -0.0014907054  -0.0009140782  -0.0000207874  -0.0004595507
       -0.0002451676  -0.0000138190  -0.0001475512   0.0002017758  -0.0000050982
       -0.0000217534   0.0000057794  -0.0000021916  -0.0000020227  -0.0000248509
       -0.0000008185   0.0000296042  -0.0000307969   0.0000008946   0.0000460730
       -0.0000183606   0.0000029328   0.0000641810   0.0000172214   0.0000033068
        0.0000675830  -0.0000281109   0.0000025558   0.0003200636   0.0002410556
        0.0000023997  -0.0001081661   0.0007445757  -0.0000132956
        0.0108030124   0.3717217413   0.0045911288  -0.1020438989  -0.1909605209
       -0.0025479269  -0.0043198987   0.0103375863   0.0000733676   0.0042801895
        0.0008353786  -0.0000428691   0.0019312833  -0.0002352137   0.0000182000
       -0.0021534758  -0.0014237397   0.0000166855   0.0016456090  -0.0067084105
       -0.0001464541  -0.0352656474  -0.0443474827  -0.0008594614  -0.0038911702
        0.0025910382  -0.0000063062   0.0160189111  -0.0118514701  -0.0001379299
       -0.0003295020  -0.0043760301  -0.0000710264   0.0018429136  -0.0012041426
       -0.0000001274  -0.0009026811   0.0007809844   0.0000038812   0.0006694573
        0.0005041644   0.0000043790  -0.0001270650  -0.0005284856   0.0000025598
        0.0000056566   0.0000950520   0.0000012273   0.0000426983   0.0002854593
        0.0000030426   0.0000555564   0.0001448027   0.0000027577  -0.0000338250
       -0.0000728464   0.0000019716  -0.0001997149  -0.0001406415  -0.0000000261
        0.0001513142  -0.0001174353  -0.0000000986  -0.0004957530   0.0001964471
        0.0000012253   0.0006336306  -0.0002564107  -0.0000040924  -0.0012528861
       -0.0004274194  -0.0000082188  -0.0009844516  -0.0008327120   0.0000148094
        0.1149471320  -0.1237541773  -0.0009175320  -0.0006421054   0.0007204876
        0.0000416097   0.0004263480   0.0001773516   0.0000111213  -0.0016271424
       -0.0017009544  -0.0000436359  -0.0000196617  -0.0002912186  -0.0000034022
        0.0000762487  -0.0001177572  -0.0000008203  -0.0000600281  -0.0000576834
        0.0000008437   0.0000485597  -0.0000522472   0.0000014751   0.0000674954
       -0.0000126890   0.0000021180   0.0000654373   0.0000609925   0.0000016977
        0.0001554618   0.0000774300   0.0000011620   0.0002536593   0.0000201080
        0.0000016662   0.0002283329   0.0009206644  -0.0000070018
        0.0022618968   0.0045911288   0.0365642486  -0.0021126151  -0.0026376168
       -0.0406552113  -0.0004698678  -0.0000721059   0.0044466123   0.0000214118
       -0.0000088283   0.0052453873   0.0000566977  -0.0000296888  -0.0002712460
       -0.0000313064  -0.0000116569  -0.0007922804  -0.0000696703  -0.0001608970
        0.0060101403  -0.0004670185  -0.0007409498   0.0066168738  -0.0001112401
        0.0000462492  -0.0008251792   0.0001183646  -0.0000406019   0.0030735806
        0.0000290660  -0.0000662197   0.0009184565   0.0000305288  -0.0000019300
       -0.0001010438  -0.0000134114   0.0000133836  -0.0001401408   0.0000124685
        0.0000117722   0.0000356282  -0.0000011135  -0.0000152494  -0.0000987024
        0.0000020129   0.0000012908  -0.0000030916   0.0000002362   0.0000055500
       -0.0000167182   0.0000004844   0.0000039045   0.0000046971  -0.0000004656
       -0.0000009472  -0.0000278608  -0.0000038975  -0.0000036353   0.0000211542
        0.0000019839  -0.0000027980  -0.0000331482  -0.0000085675   0.0000048350
        0.0000328314   0.0000103094  -0.0000008759   0.0002008904  -0.0000203173
       -0.0000089104   0.0000946966  -0.0000144823  -0.0000078247  -0.0002362065
        0.0007632074  -0.0009058471  -0.0166454602   0.0000227276   0.0000406897
       -0.0028868926  -0.0000005402   0.0000006374  -0.0000893613  -0.0000184349
       -0.0000154832  -0.0001438682  -0.0000018143  -0.0000019923   0.0000366671
        0.0000004436  -0.0000021004   0.0000246129  -0.0000004854  -0.0000015246
        0.0000042853   0.0000001103  -0.0000035360   0.0000033617   0.0000010481
        0.0000001238  -0.0000107423   0.0000019803   0.0000002308  -0.0000213275
        0.0000024573   0.0000005199  -0.0000368893   0.0000041852   0.0000058041
       -0.0002353446   0.0000036276   0.0000150996  -0.0000634093
       -0.1971354808  -0.1020438989  -0.0021126151   0.6597528239   0.0019358735
        0.0031929944  -0.2575633041   0.1159917126   0.0002028058  -0.0629043170
       -0.0488917917  -0.0010082515  -0.0247359387   0.0335992097   0.0003101285
        0.0023585432   0.0014895596   0.0000029021   0.0384064568  -0.0165487838
        0.0000775527  -0.0914245953   0.0022763074  -0.0002011833  -0.0059093688
        0.0316991123   0.0003531076   0.0087673420  -0.0101746114  -0.0000964003
       -0.0052330172   0.0038876685  -0.0000104912  -0.0045070932  -0.0003032690
       -0.0000191038   0.0005738605  -0.0014705632  -0.0000069192  -0.0012724644
       -0.0008039950  -0.0000073437   0.0003208800   0.0015291724   0.0000062507
       -0.0001812563  -0.0002486585  -0.0000018146   0.0000752152  -0.0003459902
       -0.0000038196  -0.0001028442  -0.0002308046  -0.0000040772   0.0000382038
        0.0001787729  -0.0000005649   0.0003566185   0.0001095265  -0.0000001849
       -0.0003079149   0.0003531837   0.0000018160   0.0008975481  -0.0002885136
       -0.0000001775  -0.0010407882  -0.0001693616  -0.0000018625   0.0023759072
        0.0008362120   0.0000098543  -0.0024651219  -0.0005004412  -0.0000460161
       -0.0488576679  -0.0092125578  -0.0003871523  -0.0040887299   0.0043622783
       -0.0000240804  -0.0022424240  -0.0027679865  -0.0001104134  -0.0031682764
       -0.0032404740  -0.0001139103   0.0001011126   0.0000585876   0.0000013418
       -0.0000728292   0.0000721119  -0.0000003851   0.0000685621   0.0000497181
       -0.0000016678  -0.0000504265   0.0000492070  -0.0000026969  -0.0000708172
        0.0000081044  -0.0000021268  -0.0000684434  -0.0000689366  -0.0000009176
       -0.0001168803  -0.0000504073   0.0000008787  -0.0002605606  -0.0002431598
       -0.0000000989  -0.0003125134  -0.0008821140   0.0000046422
       -0.1257603128  -0.1909605209  -0.0026376168   0.0019358735   0.6226490449
        0.0060501159   0.0492526465  -0.1277705129  -0.0007393441   0.0055158245
        0.0500476598   0.0007372632   0.0269270937  -0.0351722285  -0.0001959868
        0.0027525595   0.0024551878   0.0000174050  -0.0591979709  -0.0389691114
       -0.0008764316   0.0536684004  -0.2570976429  -0.0020931488   0.0320449269
       -0.0194158343  -0.0000627463  -0.0027742174  -0.0118076531  -0.0001443958
       -0.0011201609  -0.0013523846  -0.0000081172   0.0000393344   0.0002850141
        0.0000079275   0.0011877935  -0.0010827963  -0.0000002498  -0.0010605427
       -0.0005729711  -0.0000064327  -0.0000864845   0.0006732762   0.0000020421
        0.0000158882  -0.0000305265  -0.0000007181   0.0000132172  -0.0002164203
       -0.0000019534  -0.0000268518  -0.0000977265  -0.0000020805   0.0000279068
        0.0000361239  -0.0000001955   0.0001775607   0.0000859727  -0.0000001154
       -0.0001250186   0.0000288932   0.0000003869   0.0002882606  -0.0001517197
       -0.0000009200  -0.0002761767   0.0001290544  -0.0000006583   0.0007663438
        0.0002632919   0.0000067145   0.0002162659   0.0035848120  -0.0000257117
       -0.0076588044   0.0220874039   0.0002394512   0.0292125206  -0.0149890146
       -0.0000151698  -0.0032666745  -0.0015358864  -0.0001540130  -0.0019131835
       -0.0002325291  -0.0001007339   0.0000981039   0.0000599377   0.0000005145
       -0.0000423265   0.0000909578  -0.0000003940   0.0000265730   0.0000554607
       -0.0000009260  -0.0000410172   0.0000386483  -0.0000014812  -0.0000560021
        0.0000120433  -0.0000009654  -0.0000569799  -0.0000421063  -0.0000004053
       -0.0001056872  -0.0000229806   0.0000011088  -0.0002670019  -0.0000739224
        0.0000006353  -0.0003316799  -0.0009882941   0.0000073465
       -0.0024754693  -0.0025479269  -0.0406552113   0.0031929944   0.0060501159
        0.1352905052  -0.0006149187  -0.0002557664  -0.0521133998  -0.0003275661
        0.0003705484  -0.0025830995   0.0002396982  -0.0001514054  -0.0053565066
        0.0000353666   0.0000283925   0.0001787943  -0.0005102687  -0.0005959814
       -0.0021630696   0.0005040963  -0.0024682011  -0.0532435982   0.0002755052
       -0.0000220799   0.0005415005   0.0000510054  -0.0001946555  -0.0004301575
       -0.0000484052   0.0000126771  -0.0002207107  -0.0000239720  -0.0000031160
        0.0003658409   0.0000119012  -0.0000214048  -0.0000126842  -0.0000168921
       -0.0000089657  -0.0000573943   0.0000014908   0.0000149854   0.0000042828
       -0.0000007104  -0.0000018512   0.0000193659   0.0000004826  -0.0000042645
       -0.0000254722  -0.0000003295  -0.0000018284  -0.0000051806   0.0000012781
        0.0000027811  -0.0000162194   0.0000037152   0.0000021362   0.0000126067
       -0.0000042453   0.0000026965   0.0000020220   0.0000085176  -0.0000005651
        0.0000162538  -0.0000093844   0.0000005814  -0.0000528621   0.0000220132
        0.0000094243  -0.0000523212  -0.0000374367   0.0000232802   0.0016671117
       -0.0003631591   0.0002504714   0.0003329655   0.0003210881  -0.0001856925
        0.0021137352  -0.0001198629  -0.0001557228   0.0087727799  -0.0001023709
       -0.0001309881   0.0074140104   0.0000017656   0.0000021939  -0.0000132610
       -0.0000010583   0.0000016279  -0.0000122085   0.0000010318   0.0000011224
       -0.0000070296  -0.0000012363  -0.0000000840  -0.0000033768  -0.0000015129
        0.0000008633   0.0000057844  -0.0000007127  -0.0000016697   0.0000127237
       -0.0000020450  -0.0000013870   0.0000177483  -0.0000039149  -0.0000029857
        0.0000784306  -0.0000064787  -0.0000173560   0.0001773011
       -0.0612861688  -0.0043198987  -0.0004698678  -0.2575633041   0.0492526465
       -0.0006149187   0.6527137819   0.0302235395   0.0039680656  -0.2535072733
       -0.0850302494  -0.0026112395   0.0372635669  -0.0744132086  -0.0007230495
        0.0010372246   0.0025536594   0.0000215455  -0.0554526797  -0.0042345849
       -0.0004093384   0.0053799593   0.0707438905   0.0009442042   0.0040235719
       -0.0008379181  -0.0000334745  -0.0040606108   0.0040137612   0.0000205567
        0.0024708274  -0.0024394450   0.0000027984   0.0024310338   0.0009533114
        0.0000199965  -0.0004763888   0.0006953914   0.0000004799   0.0006142953
        0.0004748131   0.0000053442  -0.0002013605  -0.0008580753  -0.0000036024
        0.0001489143   0.0001543733   0.0000015101  -0.0000280990   0.0002135537
        0.0000014805   0.0000773440   0.0001533217   0.0000016356  -0.0000189981
       -0.0001435836  -0.0000003252  -0.0002061766  -0.0000887911  -0.0000003705
        0.0001971790  -0.0002576619  -0.0000022371  -0.0005779822   0.0001569159
        0.0000008502   0.0006805679   0.0001063199   0.0000014278  -0.0012527464
       -0.0005687870  -0.0000077685  -0.0022554821   0.0019248348   0.0000052960
        0.0019658937  -0.0066736463  -0.0000824337  -0.0475157830   0.0338388672
        0.0003514101  -0.0244900096  -0.0158706309  -0.0003664061  -0.0003292839
        0.0000942867  -0.0000180346  -0.0000229093  -0.0001109106   0.0000000241
        0.0000419891  -0.0000491772   0.0000005402  -0.0000418950  -0.0000212086
        0.0000010177   0.0000346931  -0.0000237557   0.0000007548   0.0000404794
        0.0000074233   0.0000002919   0.0000258091   0.0000541332  -0.0000001308
        0.0000652456   0.0000601197  -0.0000003460   0.0000887536   0.0000523267
       -0.0000006098  -0.0000139785   0.0002140436  -0.0000050766
       -0.0274498710   0.0103375863  -0.0000721059   0.1159917126  -0.1277705129
       -0.0002557664   0.0302235395   0.6791642712   0.0075323546  -0.1627335080
       -0.1881489513  -0.0029678253  -0.0141374914  -0.0516872832  -0.0008108606
       -0.0008812584  -0.0040601213  -0.0001113413  -0.0095771655   0.0022190240
        0.0000056296   0.0294842912  -0.0148232700  -0.0000228424   0.0006975742
       -0.0057963586  -0.0001340365  -0.0009244474   0.0005464631  -0.0000198184
       -0.0002006387   0.0000531346   0.0000108305  -0.0002837713  -0.0001941366
        0.0000069184   0.0002842296  -0.0000801299   0.0000012125  -0.0001026939
       -0.0000721735  -0.0000009998   0.0000077922   0.0000867546  -0.0000001107
       -0.0000272618   0.0000004098   0.0000007189   0.0000065840  -0.0000100294
       -0.0000003538  -0.0000086671  -0.0000121514   0.0000000573   0.0000069181
        0.0000180316   0.0000016584   0.0000106057   0.0000117752   0.0000013893
       -0.0000187596   0.0000151681   0.0000008133   0.0000195462   0.0000091224
        0.0000021935  -0.0000205918  -0.0000217166   0.0000009709   0.0000864211
        0.0000060258  -0.0000009474   0.0018742762  -0.0005355397   0.0000073903
       -0.0019375991  -0.0024522667  -0.0000663859   0.0329363092  -0.3036832028
       -0.0032294878   0.0067180904   0.0060476305   0.0001294280  -0.0001689669
        0.0007761533  -0.0000057038  -0.0000064194   0.0000142514  -0.0000015197
        0.0000208991  -0.0000049507  -0.0000017957   0.0000023004  -0.0000001971
       -0.0000004087   0.0000007922   0.0000023614  -0.0000003119  -0.0000042471
        0.0000008890   0.0000011011   0.0000037922  -0.0000021511   0.0000018209
        0.0000035557  -0.0000015437   0.0000022737   0.0000589160   0.0000175616
        0.0000017385   0.0000452128   0.0000300728  -0.0000058777
       -0.0007174604   0.0000733676   0.0044466123   0.0002028058  -0.0007393441
       -0.0521133998   0.0039680656   0.0075323546   0.1067905699  -0.0035899642
       -0.0024342843  -0.0398948121   0.0000622122  -0.0012184518   0.0024710072
       -0.0000404354  -0.0000941684   0.0038795797  -0.0004664959   0.0000533543
       -0.0023199094   0.0003923119   0.0003034466   0.0010647231   0.0000046207
       -0.0001467358   0.0056344342  -0.0000531952   0.0000051961   0.0013421358
        0.0000129177  -0.0000089772  -0.0008716424   0.0000121022   0.0000007959
       -0.0004792745   0.0000016648   0.0000015082  -0.0001286842   0.0000028568
       -0.0000001153   0.0000311158   0.0000002084  -0.0000040570   0.0000491238
        0.0000021407   0.0000009562   0.0000224070   0.0000002209   0.0000013281
       -0.0000079611   0.0000004628   0.0000021072   0.0000077197  -0.0000001496
        0.0000008663  -0.0000081455  -0.0000013759  -0.0000009053   0.0000324956
       -0.0000001809  -0.0000008439  -0.0000057262  -0.0000039254   0.0000039134
        0.0000347388   0.0000042852   0.0000011884  -0.0000111528  -0.0000058747
       -0.0000018343  -0.0000181906   0.0000169373   0.0000089224   0.0002834139
       -0.0000369849  -0.0000846281   0.0019346107   0.0003243450  -0.0032211070
       -0.0327732815  -0.0000915325  -0.0000448463   0.0008571921  -0.0000050084
        0.0000112711  -0.0001606751   0.0000003955   0.0000009643  -0.0000504430
        0.0000001036   0.0000004619   0.0000212918   0.0000001261   0.0000000677
       -0.0000007732  -0.0000003680  -0.0000013981   0.0000078827  -0.0000001436
        0.0000008940   0.0000176182   0.0000005592  -0.0000004305   0.0000172336
        0.0000000684  -0.0000005903   0.0000195514   0.0000014739   0.0000009846
        0.0000002957   0.0000022101  -0.0000012311  -0.0001216816
       -0.0005594980   0.0042801895   0.0000214118  -0.0629043170   0.0055158245
       -0.0003275661  -0.2535072733  -0.1627335080  -0.0035899642   0.6858197333
       -0.0069191924   0.0037890596  -0.0899027463   0.0807424746   0.0008111288
       -0.0060884350  -0.0248033037  -0.0004044700   0.0060311164   0.0285560744
        0.0004202763  -0.0020666529  -0.0182214886  -0.0002184759  -0.0026890467
        0.0005523520  -0.0000033658   0.0021403017  -0.0011563745   0.0000075813
       -0.0011675113   0.0013271606   0.0000021200  -0.0012119584  -0.0005357193
       -0.0000118504   0.0001988570  -0.0003011685  -0.0000013339  -0.0003428822
       -0.0002476308  -0.0000047319   0.0001025672   0.0004569874   0.0000010440
       -0.0000890936  -0.0000718376  -0.0000012206   0.0000165279  -0.0001163874
       -0.0000019007  -0.0000528285  -0.0000632578  -0.0000017616  -0.0000164558
        0.0000840012   0.0000006316   0.0001042164   0.0000506890   0.0000007363
       -0.0001318717   0.0001482469   0.0000020134   0.0002823583  -0.0000654992
        0.0000005357  -0.0003311833  -0.0001531033  -0.0000006533   0.0006475998
        0.0002936432   0.0000048021   0.0010877891  -0.0008591599  -0.0000113975
       -0.0027910085   0.0002080523  -0.0000225365   0.0020372159  -0.0000181839
        0.0000140441  -0.2698809924   0.0915206598  -0.0004378852  -0.0047504172
        0.0026825074  -0.0000388957   0.0000172702   0.0000662018  -0.0000029494
       -0.0000400882   0.0000495716  -0.0000027770   0.0000261768   0.0000240611
       -0.0000026229  -0.0000316075   0.0000247119  -0.0000021660  -0.0000383746
        0.0000055886   0.0000001220  -0.0000229099  -0.0000292796   0.0000017137
       -0.0000472916  -0.0000427955   0.0000026855   0.0000260852   0.0000029200
        0.0000020615   0.0001266289  -0.0002540277   0.0000065571
        0.0092757819   0.0008353786  -0.0000088283  -0.0488917917   0.0500476598
        0.0003705484  -0.0850302494  -0.1881489513  -0.0024342843  -0.0069191924
        0.6369426467   0.0069550591   0.0129187002  -0.3052555373  -0.0034361629
       -0.0105041186  -0.0240552481  -0.0004659480   0.0815038655  -0.0228550624
        0.0002607686  -0.0247265445  -0.0453708233  -0.0007200236   0.0027045939
       -0.0010245969   0.0000147288   0.0002725218  -0.0025175041  -0.0000336256
       -0.0009554743   0.0009163435   0.0000004630  -0.0016179735   0.0000192210
       -0.0000039438   0.0006730149  -0.0007016006   0.0000034575  -0.0006537551
       -0.0004100666  -0.0000010772   0.0000989296   0.0006476514   0.0000033454
       -0.0000980592  -0.0000687652  -0.0000009411   0.0000009407  -0.0001966675
       -0.0000016624  -0.0000639190  -0.0001075380  -0.0000029318   0.0000109090
        0.0001059995  -0.0000024023   0.0001421194   0.0000993751  -0.0000035596
       -0.0001591118   0.0001500457  -0.0000018012   0.0003464055  -0.0000874112
       -0.0000036592  -0.0003766087  -0.0000824718  -0.0000044608   0.0007972046
        0.0003825506   0.0000041025   0.0010834589   0.0002070594   0.0000104923
       -0.0014879416   0.0014945856   0.0000002846  -0.0227720905  -0.0209505373
       -0.0004132666   0.0926901398  -0.0794548662  -0.0000201605   0.0020378614
       -0.0006047428  -0.0000654447   0.0000077523   0.0001419092   0.0000059919
       -0.0000478808   0.0000734654   0.0000031719   0.0000309767   0.0000415987
        0.0000013829  -0.0000475517   0.0000376735  -0.0000015329  -0.0000595405
        0.0000056533  -0.0000048394  -0.0000288704  -0.0000415470  -0.0000059722
       -0.0000614894  -0.0000467969  -0.0000043231  -0.0000088541   0.0000107537
       -0.0000022305  -0.0000841588  -0.0001788363   0.0000092850
        0.0000678846  -0.0000428691   0.0052453873  -0.0010082515   0.0007372632
       -0.0025830995  -0.0026112395  -0.0029678253  -0.0398948121   0.0037890596
        0.0069550591   0.1091012705  -0.0000748177  -0.0029560338  -0.0445662680
       -0.0002031357  -0.0005415921   0.0009075001   0.0011296084  -0.0001064809
        0.0001216373  -0.0003308916  -0.0006711656  -0.0030241673   0.0000194814
       -0.0000051210   0.0000840398   0.0000162393  -0.0000412287   0.0000096491
       -0.0000198934   0.0000192665   0.0000247378  -0.0000271069  -0.0000030315
        0.0000265729   0.0000099089  -0.0000117781  -0.0000155353  -0.0000126603
       -0.0000057770  -0.0000057900   0.0000028189   0.0000098251  -0.0000098996
       -0.0000017145  -0.0000020075   0.0000057582  -0.0000010025  -0.0000047244
       -0.0000200218  -0.0000009869  -0.0000034221  -0.0000034614   0.0000001795
        0.0000015839  -0.0000176229   0.0000021630   0.0000002953   0.0000092461
       -0.0000039375   0.0000024171  -0.0000080344   0.0000066093  -0.0000013246
        0.0000226935  -0.0000063552  -0.0000022192   0.0000140798   0.0000145637
        0.0000059621   0.0000037556   0.0000241135  -0.0000073484  -0.0001083046
       -0.0000435022   0.0000049000   0.0011859713  -0.0002781870  -0.0002715929
       -0.0000211582  -0.0003907299  -0.0000007691  -0.0335803187  -0.0000617687
       -0.0000809694   0.0070731265  -0.0000008667   0.0000025283  -0.0000035847
       -0.0000015715   0.0000004253  -0.0000053497  -0.0000000426  -0.0000003917
       -0.0000082645  -0.0000018607  -0.0000017403  -0.0000041757  -0.0000013292
       -0.0000017230  -0.0000010081   0.0000005169  -0.0000032252   0.0000017022
       -0.0000006285  -0.0000021026   0.0000003743   0.0000009039  -0.0000005666
       -0.0000015524  -0.0000015707  -0.0000024958   0.0000449268
        0.0044000635   0.0019312833   0.0000566977  -0.0247359387   0.0269270937
        0.0002396982   0.0372635669  -0.0141374914   0.0000622122  -0.0899027463
        0.0129187002  -0.0000748177   0.5127067097  -0.1037768995   0.0015032363
       -0.0674939507  -0.0370816020  -0.0007660962  -0.2895013055   0.1293692475
       -0.0001114481  -0.0678837581  -0.0397492299  -0.0010364927   0.0032191949
       -0.0035283491  -0.0000690657  -0.0022812862  -0.0016846838  -0.0000351790
        0.0000404143  -0.0005122359   0.0000018581  -0.0003269905   0.0003738461
        0.0000001169   0.0004165176  -0.0001692654   0.0000011176  -0.0002384268
       -0.0000601812  -0.0000014899  -0.0000524216   0.0000458433   0.0000002543
       -0.0000129472   0.0000284163   0.0000009525   0.0000046483  -0.0000022798
        0.0000012033  -0.0000199544   0.0000230409   0.0000019002  -0.0000261785
        0.0000070892   0.0000018611  -0.0000094723   0.0000074722   0.0000015289
       -0.0000394356  -0.0000119380   0.0000017315  -0.0000266553  -0.0000338409
        0.0000003717   0.0000559464   0.0000041289   0.0000018140  -0.0000504185
       -0.0000146906   0.0000026695   0.0005830655   0.0005424514   0.0000252629
       -0.0009911508   0.0002780308  -0.0000108461  -0.0025304197  -0.0030921069
       -0.0001221477  -0.0061402061   0.0273659775   0.0003284495  -0.0060567933
        0.0034982488  -0.0000104388  -0.0000199345   0.0000036370  -0.0000012639
       -0.0000103401   0.0000096200  -0.0000002680  -0.0000132547   0.0000083275
        0.0000002569  -0.0000174797   0.0000175306   0.0000011076  -0.0000279111
        0.0000198027   0.0000023389  -0.0000334056   0.0000107021   0.0000026027
       -0.0000488542   0.0000058612   0.0000022739  -0.0000362289   0.0000463874
        0.0000009906  -0.0001622620   0.0004120555  -0.0000029533
       -0.0030831560  -0.0002352137  -0.0000296888   0.0335992097  -0.0351722285
       -0.0001514054  -0.0744132086  -0.0516872832  -0.0012184518   0.0807424746
       -0.3052555373  -0.0029560338  -0.1037768995   0.5509003023   0.0055077987
       -0.0372461891  -0.0496204451  -0.0008175264   0.0654236447  -0.1261556607
       -0.0006022342   0.0166514829   0.0462886601   0.0006860550  -0.0086265756
        0.0000222461  -0.0001609050  -0.0000127671   0.0029177786   0.0000281043
        0.0006583585  -0.0007164113   0.0000126412   0.0017845051  -0.0002705585
        0.0000085791  -0.0008800053   0.0008403769   0.0000033348   0.0008200325
        0.0004503684   0.0000076675  -0.0000961869  -0.0007396679  -0.0000032948
        0.0000567239   0.0000720304   0.0000004025   0.0000086082   0.0002072791
        0.0000016129   0.0000475259   0.0001314621   0.0000010382  -0.0000301223
       -0.0001108218  -0.0000019570  -0.0001598789  -0.0000985227  -0.0000035186
        0.0001479617  -0.0001522238  -0.0000029895  -0.0003593134   0.0000886067
       -0.0000022869   0.0004139472  -0.0000116514  -0.0000028809  -0.0009505962
       -0.0003197427  -0.0000022638  -0.0006972006  -0.0012716832  -0.0000028587
        0.0008843765  -0.0008999459  -0.0000097686  -0.0027090162  -0.0006891858
       -0.0001304369   0.0033369016  -0.0135991974  -0.0001516593   0.0285848744
       -0.0154534730  -0.0000011134  -0.0000248281  -0.0001130413   0.0000024417
        0.0000505318  -0.0000475683   0.0000024680  -0.0000478450  -0.0000130554
        0.0000016382   0.0000267206  -0.0000120217   0.0000000013   0.0000211276
        0.0000203485  -0.0000021287  -0.0000088554   0.0000519145  -0.0000033162
        0.0000266476   0.0000548889  -0.0000027244  -0.0000582925  -0.0000121028
       -0.0000025814  -0.0001047184   0.0006109807  -0.0000017587
       -0.0000046671   0.0000182000  -0.0002712460   0.0003101285  -0.0001959868
       -0.0053565066  -0.0007230495  -0.0008108606   0.0024710072   0.0008111288
       -0.0034361629  -0.0445662680   0.0015032363   0.0055077987   0.0868425734
       -0.0007739365  -0.0007930697  -0.0141082074  -0.0009124364  -0.0001703952
       -0.0426970164  -0.0002869717   0.0003166146   0.0019824656  -0.0001329195
       -0.0001157552   0.0069043993  -0.0000383409   0.0000259623   0.0005451314
        0.0000145499  -0.0000152667  -0.0006093352   0.0000287744  -0.0000018910
       -0.0001093215  -0.0000096872   0.0000116322  -0.0000670500   0.0000092695
        0.0000053243   0.0000060797  -0.0000007087  -0.0000108548   0.0000525820
        0.0000017072   0.0000007212   0.0000244693  -0.0000008952   0.0000017047
        0.0000116090   0.0000003657   0.0000005763   0.0000031454  -0.0000014702
       -0.0000023086  -0.0000048720  -0.0000024320  -0.0000022410  -0.0000111965
        0.0000018843  -0.0000027695  -0.0000069046  -0.0000064163   0.0000002487
        0.0000083448   0.0000074245  -0.0000009525   0.0000093762  -0.0000150427
       -0.0000042044  -0.0001903404   0.0000003051  -0.0000106175  -0.0002213617
        0.0000027166  -0.0000089128   0.0000880462  -0.0001039091  -0.0001313008
        0.0079660665  -0.0000005490   0.0000034231   0.0005515889   0.0003277852
       -0.0001855333   0.0005940941  -0.0000007455  -0.0000018645   0.0000241879
        0.0000001600  -0.0000006611   0.0000279142  -0.0000016249  -0.0000009669
        0.0000105589  -0.0000000676  -0.0000009553   0.0000084947   0.0000003227
       -0.0000009903  -0.0000000414   0.0000002281  -0.0000002816  -0.0000096465
        0.0000003166   0.0000009723  -0.0000227643  -0.0000015806  -0.0000007886
       -0.0000170796  -0.0000028527   0.0000124131   0.0001370235
       -0.0025306803  -0.0021534758  -0.0000313064   0.0023585432   0.0027525595
        0.0000353666   0.0010372246  -0.0008812584  -0.0000404354  -0.0060884350
       -0.0105041186  -0.0002031357  -0.0674939507  -0.0372461891  -0.0007739365
        0.1075919632   0.0641434525   0.0015145100  -0.0325809268  -0.0183338809
       -0.0004634243  -0.0034453118   0.0030528746  -0.0000171493  -0.0006896998
       -0.0016807535  -0.0000257032  -0.0001645004   0.0001968252   0.0000057336
       -0.0000463271   0.0002141904   0.0000022472  -0.0003545878  -0.0000255293
       -0.0000030827   0.0001489277  -0.0001211460   0.0000018366  -0.0000653622
       -0.0000746982  -0.0000002249   0.0000336890   0.0001020489  -0.0000000054
        0.0000019078  -0.0000179641  -0.0000010353  -0.0000075423  -0.0000151880
        0.0000002366  -0.0000009610  -0.0000405774  -0.0000005889   0.0000231069
        0.0000110297  -0.0000012207   0.0000218386  -0.0000080256  -0.0000019235
        0.0000105553   0.0000317489  -0.0000012225   0.0000570930   0.0000109760
       -0.0000026948  -0.0000902964   0.0000828787  -0.0000021549   0.0001659654
        0.0000998712   0.0000012994   0.0005355729   0.0000974513  -0.0000009999
        0.0006865117   0.0002174596   0.0000003370  -0.0003641852  -0.0002559464
       -0.0000072002   0.0012460532   0.0006298159   0.0000182060  -0.0000638448
       -0.0001668248   0.0000015998   0.0000120445   0.0000590326   0.0000020556
        0.0000055601   0.0000141899   0.0000012130   0.0000227395  -0.0000114797
        0.0000007921   0.0000236826  -0.0000297276   0.0000002505   0.0000412046
       -0.0000317474  -0.0000017050   0.0000493123  -0.0000226110  -0.0000029840
        0.0000502986  -0.0000234907  -0.0000033258   0.0000967567  -0.0000252669
       -0.0000026414  -0.0002339399  -0.0000465055   0.0000024166
       -0.0019428402  -0.0014237397  -0.0000116569   0.0014895596   0.0024551878
        0.0000283925   0.0025536594  -0.0040601213  -0.0000941684  -0.0248033037
       -0.0240552481  -0.0005415921  -0.0370816020  -0.0496204451  -0.0007930697
        0.0641434525   0.0750594445   0.0014208354  -0.0045380169   0.0010790525