$hessian                                                                        
        0.2123917754   0.1502612081   0.2255202901  -0.1835426821  -0.1298892638
       -0.1842217515  -0.0404344608  -0.0253244627  -0.0434831688   0.0027102935
       -0.0025504378  -0.0043324152  -0.0004316179   0.0018393913  -0.0021618955
        0.0038058730   0.0002506913   0.0000867305  -0.0030124351  -0.0003959919
       -0.0002825153   0.0005970468   0.0001454982  -0.0009668708   0.0000381666
        0.0001342870  -0.0001690589  -0.0005309216  -0.0000309752   0.0000184379
        0.0004302522  -0.0003225695   0.0002724396   0.0001743004   0.0005764840
       -0.0003224884   0.0001457820  -0.0007628167   0.0006011896  -0.0008584139
       -0.0000293521  -0.0000811525   0.0003756461   0.0007781754  -0.0005403118
        0.0000940660  -0.0005631416   0.0003395143   0.0004623334   0.0003100580
       -0.0001638944  -0.0004951705   0.0000322836  -0.0001088834  -0.0000079679
       -0.0001175433   0.0001513749   0.0003857869  -0.0000975667   0.0009825251
       -0.0033116708   0.0004974331  -0.0012126323  -0.0062323117   0.0014504387
        0.0028555017   0.0173205600   0.0003256201   0.0029300188  -0.0025436083
        0.0010298734   0.0012718326   0.0014693744  -0.0008077952  -0.0010250179
        0.0001343005   0.0007219409   0.0005692685   0.0004194066   0.0008294828
        0.0006812254  -0.0017550444  -0.0003190319  -0.0001661385   0.0005918782
        0.0001216600  -0.0000619463   0.0008254334   0.0001931306   0.0000045406
       -0.0003830408   0.0000924898   0.0001839142   0.0003220554  -0.0002122862
        0.0002578542  -0.0005382199   0.0001044187   0.0002082378   0.0004938721
       -0.0003793055  -0.0000067846  -0.0002159808   0.0002274733  -0.0001745212
        0.0000102566  -0.0001002421  -0.0001416265   0.0001015803  -0.0000839286
       -0.0000064844  -0.0000759938  -0.0001124881   0.0000373038  -0.0000059258
        0.0000585270  -0.0001025324   0.0001428556   0.0000629165   0.0000805289
        0.0001690017  -0.0003711062   0.0000787820  -0.0002492096   0.0003283059
       -0.0001289053   0.0000029395  -0.0000964483  -0.0000099798  -0.0000378169
        0.0000304975  -0.0000446178   0.0000214990   0.0000101124  -0.0000341645
       -0.0000182141  -0.0000544535   0.0000044472   0.0001723545   0.0002882181
        0.0000022453   0.0002739506   0.0000803782  -0.0001711872  -0.0002840333
       -0.0001808741  -0.0001742350   0.0001944535   0.0025778269   0.0025898148
        0.0002480176  -0.0006579474   0.0000883579   0.0000456323  -0.0000178477
       -0.0000164404   0.0000288901   0.0001189502  -0.0000580949   0.0000164600
       -0.0000636776   0.0000835121  -0.0000580364  -0.0000612268   0.0000448947
       -0.0000574823  -0.0000185115   0.0000079468  -0.0000660460   0.0000254288
       -0.0000118221  -0.0000505246   0.0000677945  -0.0000562025   0.0000305937
        0.0000586399  -0.0000696859  -0.0000348679  -0.0001331492   0.0000548683
       -0.0007126150  -0.0000477199  -0.0001767765  -0.0001327781  -0.0002827258
        0.0001331052   0.0012989236   0.0002017168   0.0003274286   0.0002092598
       -0.0001557961  -0.0000138426   0.0000354768   0.0001194758   0.0000548358
       -0.0001461506   0.0000361932   0.0000417058   0.0000508153   0.0000758080
       -0.0001079005  -0.0000550282   0.0000874386   0.0000777502  -0.0000012188
       -0.0000045203   0.0000646715   0.0000015866   0.0000232245   0.0000267619
       -0.0000056040   0.0000242188   0.0000325243   0.0000065431   0.0000225817
        0.0000259158  -0.0000054588  -0.0000110413   0.0000312671   0.0000159362
       -0.0000186402   0.0000225888   0.0000176369   0.0000106277   0.0000095865
        0.0000194191   0.0000411079  -0.0000224720  -0.0000117342   0.0000028574
       -0.0000273215
        0.1502612081   0.2398300574   0.2985105918  -0.1307338243  -0.2178454524
       -0.2320573684  -0.0194843668   0.0086090359  -0.0152397384   0.0032350225
       -0.0015014736  -0.0020782134  -0.0011698625  -0.0002103371  -0.0006038415
        0.0016536997  -0.0001307435   0.0001613341  -0.0008584984   0.0003920201
       -0.0000616807  -0.0000308672  -0.0004531773  -0.0001432894  -0.0000586206
        0.0003178767  -0.0002098429  -0.0004092686  -0.0000897842   0.0000773371
        0.0003404961  -0.0001848688   0.0001742044   0.0001525841   0.0003669365
       -0.0001796994   0.0003395688  -0.0005671776   0.0004134514  -0.0005291218
        0.0001807959  -0.0001436330   0.0002306322   0.0003989769  -0.0003119375
        0.0000964254  -0.0003707179   0.0002510731   0.0004074419   0.0002274379
       -0.0000865643  -0.0004455292   0.0001341138  -0.0001636310  -0.0001493491
       -0.0002561836   0.0002540906   0.0000994181   0.0001968993   0.0002888955
       -0.0014186894  -0.0012061417  -0.0001975808  -0.0004366046   0.0027977772
        0.0015523327  -0.0021314538  -0.0241006416  -0.0470458083  -0.0037979537
       -0.0007214118  -0.0006712859  -0.0006000307  -0.0007420107   0.0008876327
       -0.0012221166  -0.0000164047   0.0002387773   0.0014413419  -0.0048040642
       -0.0005531379   0.0011434935   0.0004075997   0.0008339629  -0.0001247257
       -0.0004283299  -0.0006658844  -0.0003487860  -0.0001167232  -0.0000170057
        0.0001385482  -0.0000860879  -0.0001431185  -0.0001509713   0.0000355951
       -0.0001253651   0.0003474632   0.0000319043  -0.0000142468  -0.0003794540
       -0.0000892278   0.0000495857   0.0000560648  -0.0000009344   0.0001138870
        0.0000050893  -0.0000348518  -0.0000172387  -0.0000527271  -0.0000377778
        0.0000053063   0.0000531789   0.0000060347  -0.0000339606   0.0000436838
       -0.0000767133   0.0000198509   0.0000707800   0.0001549833  -0.0000622331
       -0.0000959271  -0.0001312382   0.0000168389  -0.0000197091  -0.0000214014
        0.0000536997   0.0000234268   0.0000665987  -0.0000725863   0.0000674562
       -0.0000345696   0.0000092420  -0.0000662589   0.0000029190   0.0000059834
        0.0000072023   0.0000009456  -0.0000221305   0.0001130688   0.0001358212
       -0.0001837496  -0.0001028277  -0.0000504273   0.0001507330   0.0001003459
        0.0001020595   0.0001746495   0.0038804423  -0.0003888082  -0.0036719054
        0.0000442099  -0.0000511369   0.0008498808  -0.0000623949   0.0001152143
       -0.0000162380  -0.0000055292  -0.0000402648  -0.0000036639   0.0000136409
       -0.0000269118   0.0000272107  -0.0000141394  -0.0000360943   0.0000153450
       -0.0000177559  -0.0000129622  -0.0000057214  -0.0000141684   0.0000058920
       -0.0000094942  -0.0000067216   0.0000348016  -0.0000335304   0.0000268253
        0.0000350621  -0.0000662929   0.0000397939  -0.0000479465  -0.0000192979
       -0.0002856842  -0.0002210270   0.0001298662   0.0001038178  -0.0000524601
        0.0002460794   0.0006464000  -0.0000161040  -0.0001291021   0.0000747430
        0.0001565215  -0.0001344291   0.0000268006   0.0003780754  -0.0003062956
        0.0000364385   0.0000128720  -0.0000870203  -0.0000277087   0.0000256977
       -0.0000077038  -0.0000185062   0.0000007464   0.0000220137   0.0000026994
        0.0000119105   0.0000066181  -0.0000098706   0.0000245221  -0.0000000606
       -0.0000147415   0.0000140204   0.0000141074  -0.0000169234   0.0000057779
        0.0000127893  -0.0000135606  -0.0000216837   0.0000271790   0.0000157586
       -0.0000132969   0.0000161567   0.0000009278   0.0000150832  -0.0000024146
       -0.0000398947  -0.0000086911  -0.0000142499   0.0000250049   0.0000136749
        0.0000014855
        0.2255202901   0.2985105918   0.4319663014  -0.1838798731  -0.2307377332
       -0.3758265764  -0.0411659877  -0.0146968529  -0.0149607251   0.0062910917
       -0.0027290705  -0.0049160714  -0.0028774054   0.0017777065  -0.0019232863
        0.0043279675   0.0000042370   0.0004569749  -0.0028166735  -0.0002986285
       -0.0001069878   0.0004137892  -0.0004002236  -0.0008847633  -0.0001166458
        0.0004621572  -0.0003200570  -0.0007915826  -0.0001259205   0.0001160317
        0.0006469047  -0.0004021356   0.0003562705   0.0002744890   0.0007569652
       -0.0003727390   0.0003451658  -0.0010055163   0.0007210177  -0.0010783297
        0.0000043261  -0.0000575033   0.0006136675   0.0009637541  -0.0006823955
        0.0001709068  -0.0007277468   0.0004418216   0.0006874868   0.0004092558
       -0.0001724657  -0.0007336813   0.0001746772  -0.0002401932  -0.0001803387
       -0.0003798834   0.0003602126   0.0001997650   0.0004579864   0.0008022285
       -0.0038049526   0.0005442987   0.0008347950   0.0003577726   0.0008314462
        0.0045825229  -0.0026769318  -0.0453747997  -0.0369671442  -0.0047644535
       -0.0004227631  -0.0004344222  -0.0004270801  -0.0002668384  -0.0006947309
       -0.0007739126   0.0005079275   0.0005169182   0.0001861996  -0.0030190486
       -0.0025217651   0.0005420941   0.0004060788   0.0003114123   0.0000594187
       -0.0006656603  -0.0007412645   0.0000596355  -0.0000482996   0.0000189440
       -0.0001571579  -0.0000596866  -0.0001213448   0.0000670148  -0.0000655063
        0.0000096989  -0.0000464209   0.0000746315   0.0000668370  -0.0000329321
       -0.0003449729   0.0001124788  -0.0001212336   0.0001739019  -0.0000281275
       -0.0000009032  -0.0000897426  -0.0000678339   0.0000204779  -0.0000670879
       -0.0000090169   0.0000025226  -0.0000681829  -0.0000082877   0.0000426135
       -0.0000375649  -0.0000448611   0.0001856011   0.0002086983  -0.0000377492
        0.0000317176  -0.0004041732   0.0001040784  -0.0002108690   0.0002011046
       -0.0000506344   0.0000309499   0.0000138966  -0.0000736477   0.0000530874
       -0.0000155526  -0.0000159982  -0.0000661413   0.0000105965  -0.0000019932
       -0.0000126701  -0.0000099558  -0.0000098540   0.0002316797   0.0003191187
       -0.0002093408   0.0000296164   0.0000000803   0.0000841504  -0.0000291263
        0.0000214330   0.0001176295   0.0057009883  -0.0043088235  -0.0014866311
       -0.0006648722  -0.0002877079   0.0015283472  -0.0001479279   0.0001730916
       -0.0000819871   0.0000179927   0.0000093501  -0.0000594074   0.0000195777
       -0.0000924719   0.0000918271  -0.0000414886  -0.0000794043   0.0000435147
       -0.0000442304  -0.0000320786   0.0000032094  -0.0000599550   0.0000206797
       -0.0000141943  -0.0000365717   0.0000739224  -0.0000654157   0.0000491451
        0.0000506397  -0.0000887416   0.0000034524  -0.0000657716  -0.0000206785
       -0.0002268011  -0.0000498602   0.0000976514   0.0000545607  -0.0003980855
        0.0004443398   0.0006849112   0.0003526903   0.0000110340   0.0001266948
        0.0000581571   0.0000087647   0.0000134139   0.0000616966   0.0001034640
        0.0000391196  -0.0000085659  -0.0001621692  -0.0000708550   0.0000530285
       -0.0000672026  -0.0000424475   0.0000481338   0.0000482292  -0.0000024276
        0.0000017065   0.0000489948  -0.0000005747   0.0000323624   0.0000197225
       -0.0000146433   0.0000287190   0.0000332272  -0.0000102669   0.0000163747
        0.0000282827  -0.0000174451  -0.0000330053   0.0000460954   0.0000287374
       -0.0000384513   0.0000321267   0.0000177442   0.0000106616  -0.0000100624
       -0.0000273604   0.0000151144  -0.0000106158   0.0000249064   0.0000165742
       -0.0000002687
       -0.1835426821  -0.1307338243  -0.1838798731   0.5373219072   0.0623546998
        0.1577920919  -0.1766212525   0.0134249154  -0.0120490542  -0.0391231710
        0.0080658465   0.0142580000   0.0042153328  -0.0012609083   0.0074750039
       -0.0108804759  -0.0002042936  -0.0012670417   0.0088803052   0.0001657526
        0.0011614005  -0.0019566586  -0.0007802171   0.0027796031  -0.0000705027
       -0.0000297408   0.0002448174   0.0010525797  -0.0000043373   0.0000396187
       -0.0008779884   0.0007233550  -0.0005804530  -0.0003705599  -0.0012727481
        0.0007268054  -0.0000418585   0.0016377685  -0.0013071123   0.0018040835
        0.0001716073   0.0001651814  -0.0005614274  -0.0018539874   0.0012639189
       -0.0001624883   0.0012987568  -0.0007151039  -0.0009640508  -0.0006706322
        0.0003779791   0.0009726626   0.0000324205   0.0001977943  -0.0000358370
        0.0001482390  -0.0001415036  -0.0009866194   0.0005133362  -0.0031100498
        0.0078037811   0.0016593839  -0.0037124738  -0.0174763593  -0.0071971486
       -0.0199377657  -0.1089029941   0.0449177823   0.0306206769  -0.0246212468
        0.0177702399   0.0156877633  -0.0071274290  -0.0000863491   0.0009811928
       -0.0024553580  -0.0012698381  -0.0008309944   0.0024244210  -0.0073905554
       -0.0052066108   0.0063264454   0.0019506038   0.0010127347  -0.0017594262
       -0.0011364997  -0.0005388882  -0.0028439225  -0.0007144054   0.0000709586
        0.0011413415  -0.0003046760  -0.0008507585  -0.0010329321   0.0006464192
       -0.0007984635   0.0019541993  -0.0002201483  -0.0005680986  -0.0017726105
        0.0008717658   0.0000991250   0.0006295023  -0.0005717272   0.0005941589
        0.0000369523   0.0001992204   0.0003276338  -0.0003417949   0.0001960669
        0.0000094388   0.0002565539   0.0003068721  -0.0001295561   0.0000650698
       -0.0002562793   0.0003038345  -0.0002846868   0.0000282195  -0.0003174531
       -0.0005764152   0.0008160511  -0.0001653536   0.0006327690  -0.0009131936
        0.0004052578   0.0000220701   0.0003525439  -0.0000601518   0.0001894833
       -0.0001309378   0.0001359177  -0.0001431121  -0.0000258090   0.0001049236
        0.0000491346   0.0001489744  -0.0000300415  -0.0002912247  -0.0005728234
       -0.0002591424  -0.0008255307  -0.0002759379   0.0006736568   0.0008882732
        0.0006408021   0.0007312523   0.0102475833  -0.0020529955  -0.0022910118
        0.0004972384  -0.0002156404  -0.0013298471  -0.0003101978  -0.0001632066
       -0.0001012998  -0.0000870950  -0.0002819230   0.0000818196  -0.0000466704
        0.0001489619  -0.0002084410   0.0001339708   0.0001259774  -0.0001064487
        0.0001336611   0.0000228152  -0.0000187008   0.0001539857  -0.0000682911
        0.0000107100   0.0001122191  -0.0001503177   0.0001045060  -0.0000730147
       -0.0001349843   0.0001511247   0.0000085688   0.0002404661  -0.0001752222
        0.0002832486   0.0003491338   0.0002408074   0.0008802090   0.0001665448
        0.0016136914  -0.0012382541   0.0005150233   0.0002186937  -0.0008935328
        0.0011131707   0.0005092829  -0.0000091073  -0.0000083630  -0.0000652331
        0.0003847046  -0.0001500414  -0.0001761166  -0.0001560629  -0.0001739539
        0.0002475261   0.0001107167  -0.0001900132  -0.0001464545   0.0000132946
       -0.0000047006  -0.0001436576  -0.0000175167  -0.0000418351  -0.0000718041
       -0.0000029093  -0.0000524223  -0.0000725390  -0.0000342943  -0.0000592780
       -0.0000542728  -0.0000017400   0.0000011736  -0.0000538891  -0.0000279641
        0.0000256316  -0.0000401931  -0.0000646288  -0.0000068644  -0.0000388099
       -0.0000783126  -0.0001235266   0.0000550992   0.0000656477   0.0000048337
        0.0000758835
       -0.1298892638  -0.2178454524  -0.2307377332   0.0623546998   0.3883477171
        0.2776866821   0.0181054217  -0.0652715407   0.0052016711   0.0037734466
        0.0014495457   0.0015859449   0.0022322618   0.0069553947  -0.0017942277
       -0.0005791908   0.0006482091   0.0001579737  -0.0003179182  -0.0021293171
        0.0000548827   0.0001898967   0.0007483036  -0.0003912324   0.0001233153
       -0.0003406938   0.0002429517   0.0003732466   0.0001209487  -0.0000842969
       -0.0002758634   0.0001352755  -0.0001398333  -0.0001544700  -0.0002473549
        0.0001167406  -0.0005161288   0.0004316998  -0.0002891358   0.0004190990
       -0.0002497029   0.0001713079  -0.0001883542  -0.0003057311   0.0002620419
       -0.0000706988   0.0003262883  -0.0002229139  -0.0004155170  -0.0002115076
        0.0000677950   0.0004539291  -0.0001975054   0.0002335548   0.0001935874
        0.0004196051  -0.0003290940   0.0002961330  -0.0004371522   0.0000420137
        0.0007265937   0.0074937376  -0.0016215300  -0.0041258766  -0.0018399222
       -0.0011030023   0.0357739558  -0.0918992862  -0.0200992380   0.0140349879
        0.0005973364  -0.0020052796  -0.0006398394   0.0048877852  -0.0025546701
        0.0015322626  -0.0002181293  -0.0005720495  -0.0057399212   0.0059214579
       -0.0046747629  -0.0019690900  -0.0019230066  -0.0018314098   0.0003245637
        0.0004084266   0.0004062468   0.0012067330   0.0003961119   0.0000497808
       -0.0004442201   0.0001777871   0.0003646345   0.0004847528  -0.0001583320
        0.0003084378  -0.0008468090  -0.0000150528   0.0000733078   0.0008411033
       -0.0000151757  -0.0000934522  -0.0001929213   0.0001038305  -0.0002706968
        0.0000067030   0.0000159862  -0.0000512681   0.0001379247   0.0000198690
       -0.0000078479  -0.0001285661  -0.0000638142   0.0000772468  -0.0000790159
        0.0001599384  -0.0000850477  -0.0000561812  -0.0002294444   0.0001494045
        0.0002392705   0.0000386093  -0.0000044728  -0.0000841890   0.0001963221
       -0.0001469279  -0.0000411311  -0.0001623043   0.0001182904  -0.0001418319
        0.0000754650  -0.0000400519   0.0001272582   0.0000025696  -0.0000314640
       -0.0000114234  -0.0000357660   0.0000381027  -0.0001099906  -0.0000942301
        0.0003072081   0.0002640167   0.0001219487  -0.0003046529  -0.0002841477
       -0.0002427692  -0.0003366402   0.0045044077  -0.0297463532  -0.0193479979
        0.0008436323  -0.0024852550  -0.0005464991   0.0003366725  -0.0000988300
       -0.0000499220   0.0000287740   0.0000829242  -0.0000360475  -0.0000100550
        0.0000149780   0.0000000680   0.0000001777   0.0000224204  -0.0000072011
       -0.0000004281   0.0000031882   0.0000079743   0.0000010715  -0.0000071133
        0.0000077963  -0.0000114269  -0.0000262557   0.0000226624  -0.0000257569
       -0.0000240039   0.0000646749  -0.0000979538  -0.0000128994   0.0000135956
       -0.0000014510   0.0002442965  -0.0003384055  -0.0003594199  -0.0023615784
       -0.0002667510  -0.0016282400  -0.0003452597   0.0008270385  -0.0004503793
       -0.0001129717   0.0005934884  -0.0000969529  -0.0011767696   0.0011826231
       -0.0000827145  -0.0000517544  -0.0000151738   0.0000446429  -0.0000138090
       -0.0000196146  -0.0000047450   0.0000352803   0.0000027432  -0.0000056413
       -0.0000238144   0.0000239064   0.0000184640  -0.0000297574   0.0000150718
        0.0000256228  -0.0000113722  -0.0000052865   0.0000311654   0.0000020430
       -0.0000084020   0.0000207380   0.0000314394  -0.0000303622  -0.0000183798
        0.0000176422  -0.0000186026   0.0000057875  -0.0000155174   0.0000077793
        0.0000635542   0.0000402494   0.0000145672  -0.0000437695  -0.0000181249
        0.0000129881
       -0.1842217515  -0.2320573684  -0.3758265764   0.1577920919   0.2776866821
        0.5418640570  -0.0065503076  -0.0024227694  -0.0635378474   0.0152940524
        0.0029940941   0.0078418937   0.0068010797  -0.0023033050  -0.0011729799
       -0.0036700291  -0.0000368690  -0.0018025032   0.0023333080   0.0002730469
        0.0003321724  -0.0002021126   0.0005966262   0.0005952769   0.0001529349
       -0.0004946087   0.0003932084   0.0008265754   0.0001518723  -0.0001209256
       -0.0006480705   0.0003886950  -0.0003467316  -0.0002854122  -0.0007197667
        0.0003634961  -0.0004617340   0.0010137842  -0.0007565128   0.0010718742
       -0.0000793376   0.0001176090  -0.0005764567  -0.0009407304   0.0006419777
       -0.0001748997   0.0007302031  -0.0004497449  -0.0007369138  -0.0004243717
        0.0001793383   0.0007843047  -0.0002198348   0.0002997971   0.0002386854
        0.0004824848  -0.0003824484  -0.0000997065  -0.0005818492  -0.0007066280
        0.0008426130  -0.0007351172  -0.0053403134  -0.0270009062  -0.0003166809
       -0.0101771777   0.0294979270  -0.0180686928  -0.0806503479   0.0123650912
       -0.0015020458   0.0015859148  -0.0010382871  -0.0018939673   0.0064254526
        0.0010930748  -0.0009808595  -0.0005894893  -0.0037386728  -0.0039626062
        0.0074028102  -0.0010221082  -0.0018297227  -0.0003799759   0.0001703022
        0.0008343543   0.0003120262   0.0005218365   0.0002593875  -0.0000184037
       -0.0000391759   0.0001818951   0.0001521788   0.0001636239   0.0000001728
        0.0001236337  -0.0001920959  -0.0000606508  -0.0000210008   0.0002952429
        0.0002638657  -0.0001185269   0.0000362323  -0.0000973949  -0.0000722868
        0.0000514474   0.0000588411  -0.0000133870   0.0000396942   0.0000474505
        0.0000108200  -0.0000584358   0.0000369160   0.0000419523  -0.0000694424
        0.0000798134   0.0000142509  -0.0001602840  -0.0002384813   0.0000628354
        0.0000336723   0.0003320227  -0.0000728926   0.0001361032  -0.0001006517
       -0.0000080161  -0.0000455693  -0.0000668302   0.0001082721  -0.0001011100
        0.0000378468   0.0000035167   0.0001086121  -0.0000013186  -0.0000149688
        0.0000193392  -0.0000255737   0.0000360171  -0.0001950205  -0.0002452803
        0.0002363155   0.0000786106   0.0000347869  -0.0001656770  -0.0001098937
       -0.0001103443  -0.0002011458   0.0010855944  -0.0178846790  -0.0222616222
        0.0022915592  -0.0002342517  -0.0012709350   0.0014020411  -0.0003341691
        0.0001478476  -0.0000315452  -0.0000192509   0.0000227685  -0.0000206940
        0.0000816997  -0.0000801211   0.0000329812   0.0000708133  -0.0000410378
        0.0000399388   0.0000243312   0.0000018139   0.0000466649  -0.0000152188
        0.0000092551   0.0000236047  -0.0000705699   0.0000585968  -0.0000551915
       -0.0000521592   0.0000956868  -0.0000654489  -0.0000142549   0.0000152333
       -0.0011367181  -0.0000009290  -0.0004020432  -0.0005130837   0.0000163935
        0.0003327327  -0.0018622336   0.0009779302  -0.0010622796  -0.0005126573
        0.0005191954  -0.0001797881  -0.0000688600   0.0010844016  -0.0016594757
       -0.0001131822  -0.0000151107   0.0001634016   0.0000879584  -0.0000514970
        0.0000302821   0.0000061885   0.0000017898  -0.0000017278   0.0000050456
       -0.0000283388  -0.0000151875   0.0000011909  -0.0000394503  -0.0000111716
        0.0000176378  -0.0000290387  -0.0000294028   0.0000165918  -0.0000156328
       -0.0000258055   0.0000186270   0.0000356583  -0.0000477489  -0.0000315914
        0.0000370618  -0.0000331243  -0.0000213891  -0.0000048277   0.0000078208
        0.0000459039   0.0000084820   0.0000137353  -0.0000388664  -0.0000161912
        0.0000239815
       -0.0404344608  -0.0194843668  -0.0411659877  -0.1766212525   0.0181054217
       -0.0065503076   0.5878014718  -0.0301771496   0.0150739444  -0.1604939378
        0.0220504783   0.1283089376  -0.0536423993   0.0075073084   0.0106596607
        0.0121419793   0.0015998132   0.0099625315  -0.0071981367  -0.0003262586
       -0.0011659321   0.0016014613  -0.0003301009  -0.0022092640  -0.0003099616
        0.0003201090  -0.0003888751  -0.0009407543  -0.0001492034   0.0000347910
        0.0008309017  -0.0005727689   0.0004273974   0.0003872698   0.0010799684
       -0.0005110846   0.0002953246  -0.0013941279   0.0010449894  -0.0013396681
       -0.0000794140  -0.0001745499   0.0005408491   0.0015158270  -0.0009435398
        0.0002419153  -0.0011591129   0.0005597026   0.0009506294   0.0005454822
       -0.0002555077  -0.0008971750   0.0001286972  -0.0003350543  -0.0002134927
       -0.0004354047   0.0003682326   0.0009364253   0.0003475391   0.0026917901
       -0.0272862451  -0.0047408746  -0.0284955294  -0.1114043565  -0.0053124605
       -0.1005274867  -0.0240270630   0.0084256930   0.0054967773  -0.0005818988
        0.0028134523   0.0015170764  -0.0003242964  -0.0004118788  -0.0002136687
        0.0010064553   0.0001880771   0.0002701160  -0.0011886473   0.0006705993
        0.0017502001  -0.0028447434  -0.0011987109  -0.0005184190   0.0008272106
        0.0003452146  -0.0000619141   0.0015669150   0.0003472505  -0.0001555299
       -0.0007272240   0.0001244675   0.0004431117   0.0006451220  -0.0002951598
        0.0004557825  -0.0016258094   0.0001214310   0.0002790029   0.0013027155
       -0.0005261585  -0.0000814362  -0.0004602005   0.0004523438  -0.0004536928
       -0.0000412307  -0.0002091940  -0.0002249176   0.0002186765  -0.0000974123
       -0.0000387377  -0.0001438455  -0.0002470073   0.0001118702   0.0000014873
        0.0001566420  -0.0002251821   0.0001774125  -0.0000161378   0.0002393325
        0.0004440063  -0.0005965406   0.0000645753  -0.0004550204   0.0006556096
       -0.0002858881   0.0000244089  -0.0002281568   0.0000434756  -0.0001107286
        0.0001120625  -0.0001239580   0.0000967394   0.0000007039  -0.0000476541
       -0.0000635842  -0.0000440630   0.0000127382   0.0001721259   0.0003312787
        0.0002086850   0.0004481027   0.0001863897  -0.0004253467  -0.0005523106
       -0.0003086609  -0.0003611289   0.0001796243  -0.0008682569  -0.0015015572
        0.0065670185  -0.0007518461  -0.0064012274  -0.0057417611   0.0005630473
       -0.0011467749  -0.0001771488   0.0000604269   0.0001028410   0.0000317257
       -0.0001190363   0.0001694781  -0.0000778789  -0.0001031604   0.0000980110
       -0.0000877687  -0.0000384908   0.0000290290  -0.0001102724   0.0000728643
       -0.0000080849  -0.0000600372   0.0001378725  -0.0000737072   0.0000656333
        0.0001085012  -0.0001283136  -0.0001255634  -0.0000440279  -0.0000251478
       -0.0056678895   0.0000369106  -0.0009228404   0.0060403099   0.0007503991
        0.0154552027   0.0006538577  -0.0001730269  -0.0002099344  -0.0001729169
        0.0001187142   0.0002068072  -0.0000045816   0.0001356749  -0.0002376648
        0.0000479276   0.0000806692   0.0001584592  -0.0000875837   0.0000376977
       -0.0000944135  -0.0001532737   0.0001704039   0.0000733152  -0.0000070745
       -0.0000337651   0.0001295308   0.0000291753   0.0000208739   0.0000542768
        0.0000144920   0.0000407926   0.0000553569   0.0000220704   0.0000384349
        0.0000422802   0.0000005153  -0.0000146433   0.0000436898   0.0000334195
       -0.0000267591   0.0000265314   0.0000437202  -0.0000349766   0.0000299331
        0.0000367156   0.0000665383   0.0000329022  -0.0000236170  -0.0000233686
       -0.0000421068
       -0.0253244627   0.0086090359  -0.0146968529   0.0134249154  -0.0652715407
       -0.0024227694  -0.0301771496   0.1478466980   0.0967559480   0.0138617969
       -0.0561751173  -0.0371706918   0.0137160933   0.0018917469   0.0066105093
       -0.0004569133  -0.0083086389  -0.0091871786   0.0008451324  -0.0001603352
        0.0003066101  -0.0000722209   0.0002157625   0.0001052287   0.0002135933
        0.0000977685  -0.0000000762   0.0001074040   0.0000233938   0.0000986813
       -0.0000655235   0.0000605488  -0.0000179415  -0.0000644650  -0.0000709852
        0.0000298736  -0.0001454201   0.0001779242  -0.0001524472   0.0002073228
        0.0000206229   0.0000701243   0.0000056414  -0.0002300839   0.0001614888
       -0.0000368479   0.0001982829  -0.0001056515  -0.0001997195  -0.0000664322
        0.0000389703   0.0001511605  -0.0000151246   0.0001519736  -0.0001420542
        0.0002042279  -0.0001368352  -0.0000705989   0.0000309231  -0.0003413255
       -0.0116958095   0.0035042197   0.0030790646   0.0004631104  -0.0513752797
       -0.0261932975   0.0184804222   0.0055156091  -0.0042326540   0.0022571256
       -0.0024746409  -0.0028689108   0.0011508283  -0.0000625818   0.0007235336
        0.0000116445  -0.0001159406  -0.0000278286   0.0001243524  -0.0001317760
        0.0008741193   0.0007195180   0.0003968440   0.0002604805  -0.0001948620
       -0.0001165471  -0.0000481345  -0.0003495771  -0.0000794664   0.0000260085
        0.0001435880  -0.0000679518  -0.0001353648  -0.0001552055   0.0000861144
       -0.0000626745   0.0003017437  -0.0000160710  -0.0000377518  -0.0002887628
        0.0000828894   0.0000217335   0.0001341609  -0.0000888409   0.0001095804
       -0.0000205873   0.0000502181   0.0000674651  -0.0000245452   0.0000116927
        0.0000056850   0.0000482949   0.0000435774  -0.0000303492   0.0000062257
       -0.0000482881   0.0000472839  -0.0000190967   0.0000249720  -0.0000594153
       -0.0000892498   0.0000901783  -0.0000110748   0.0000833455  -0.0001165014
        0.0000564426  -0.0000044704   0.0000595809  -0.0000225976   0.0000325184
       -0.0000321542   0.0000281453  -0.0000179936  -0.0000029726   0.0000105718
        0.0000111905   0.0000182936  -0.0000091205   0.0000000177  -0.0000222548
       -0.0000739735  -0.0001110686  -0.0000322024   0.0000948250   0.0001138785
        0.0000822373   0.0001004635   0.0004021580  -0.0006639363  -0.0006825438
        0.0021747329   0.0005451746  -0.0044029414  -0.0000706215   0.0081511292
       -0.0012555488   0.0001453763   0.0000327841  -0.0000352674  -0.0000036260
        0.0000188533  -0.0000251427   0.0000169532  -0.0000024252  -0.0000316835
        0.0000083369  -0.0000047244  -0.0000073662   0.0000167345  -0.0000106956
       -0.0000074741   0.0000061449  -0.0000322243  -0.0000094373  -0.0000156139
       -0.0000050144   0.0000087837  -0.0001339768   0.0000376024  -0.0000690725
        0.0009073416   0.0080259867  -0.0008284279  -0.0005904679  -0.0000377533
       -0.0038731079  -0.0001095852  -0.0000815935  -0.0001220355   0.0002593376
       -0.0002573301  -0.0002173643   0.0000647619   0.0001274715  -0.0001555808
        0.0000538638  -0.0000647913  -0.0000176663   0.0000083719   0.0000121527
        0.0000159611   0.0000136826  -0.0000349270  -0.0000217629  -0.0000012624
        0.0000068006  -0.0000174774  -0.0000059253  -0.0000015920  -0.0000099848
       -0.0000055264  -0.0000042943  -0.0000080982  -0.0000072565  -0.0000076366
       -0.0000045877  -0.0000024390  -0.0000008880  -0.0000042611  -0.0000044843
        0.0000026688  -0.0000022714  -0.0000118045   0.0000032633  -0.0000028560