$hessian                                                                        
        0.4098832088   0.0975991660   0.1866246465  -0.3676457349  -0.0850413694
       -0.1688381432  -0.0349776449  -0.0096110413  -0.0090302507  -0.0032876957
        0.0011168320  -0.0011819319  -0.0020563233   0.0009604171   0.0008378268
        0.0005841988  -0.0001409586   0.0003256022   0.0004295281   0.0008156894
        0.0004305722  -0.0011849156  -0.0021398919  -0.0010646435   0.0025281885
       -0.0002884711  -0.0008646500  -0.0079526196  -0.0059420181  -0.0031938342
        0.0009773202   0.0029876087  -0.0045358226   0.0008592423  -0.0000829464
        0.0016099524  -0.0018551494   0.0009981862  -0.0011664426   0.0004907989
        0.0006091076   0.0001340462   0.0001600488  -0.0000361477  -0.0001955379
       -0.0001104181   0.0001820454  -0.0000370384   0.0000939005  -0.0001105477
       -0.0000006293   0.0000797582   0.0002582875   0.0000725372   0.0001305246
       -0.0006050795  -0.0000228310  -0.0004119486   0.0002548064  -0.0001386413
       -0.0000196240   0.0004303313   0.0001326752   0.0000195868  -0.0002682781
       -0.0000750239   0.0001818744   0.0001595621   0.0000893059  -0.0001325384
       -0.0000588226  -0.0000779522  -0.0000249634   0.0001028642   0.0000184230
        0.0003716494  -0.0011807153   0.0001169550   0.0000961016  -0.0002160417
        0.0004466941  -0.0013141985  -0.0009356476   0.0014575019   0.0019184298
        0.0008324277  -0.0009193263  -0.0009140073  -0.0002147743  -0.0007644958
        0.0001720904  -0.0001926341   0.0001529872   0.0001803632  -0.0000191644
        0.0000100214  -0.0000826851   0.0000118963   0.0003113479  -0.0000018810
       -0.0001998844  -0.0001686253   0.0000735450   0.0002640105   0.0002747769
        0.0003483975   0.0002090555  -0.0000631804  -0.0001932532  -0.0002557684
       -0.0004661083   0.0000446963   0.0001099654   0.0002912014  -0.0000882014
       -0.0001181098  -0.0000759133   0.0000941673   0.0000709458   0.0000372618
        0.0000619730  -0.0000736644   0.0000187447  -0.0000145024   0.0000941686
        0.0007335832  -0.0016162873  -0.0003317013   0.0000369854   0.0013942125
       -0.0004793188  -0.0005856640   0.0001173689  -0.0002588545  -0.0001529802
        0.0001578414   0.0000234745  -0.0001065540   0.0008742340   0.0005564263
        0.0003361717   0.0011370075  -0.0005139349   0.0002259341  -0.0000907755
        0.0000697801   0.0002279905   0.0000210489  -0.0000092521   0.0000414547
       -0.0000509611  -0.0000313372  -0.0000081782  -0.0000612987   0.0000023647
       -0.0000117674  -0.0000370570   0.0000144870  -0.0000010732  -0.0000262936
        0.0000389554   0.0000044709   0.0000067759   0.0000674241   0.0000178280
       -0.0000403991  -0.0001145314  -0.0000125631   0.0001056952  -0.0000523743
       -0.0001411809  -0.0002228214   0.0001343987  -0.0001245384  -0.0000015028
        0.0000860336   0.0000334479   0.0000106883   0.0000363382  -0.0000144106
       -0.0000018112   0.0000330621  -0.0000184079   0.0000180736   0.0000105772
       -0.0000364074  -0.0000008563  -0.0000070163  -0.0000195271  -0.0000342309
       -0.0000211785  -0.0000139123  -0.0000807363  -0.0000022527   0.0000620597
        0.0009107973   0.0004130332  -0.0009848196
        0.0975991660   0.0695744261   0.0520081746  -0.0847334082  -0.0769523294
       -0.0476169709  -0.0062960763   0.0075157344   0.0000649993  -0.0187582244
        0.0010382385  -0.0121196436  -0.0011506675  -0.0002187068  -0.0006512436
       -0.0009327097  -0.0002942797   0.0012844854   0.0004755243   0.0007345853
        0.0004011268  -0.0023977008  -0.0038876730  -0.0012014013   0.0032129960
       -0.0030017154  -0.0026906852   0.0094369077   0.0082105273   0.0078016765
        0.0008969468  -0.0020207566   0.0031505231  -0.0002005056  -0.0008969975
       -0.0006946208   0.0009273650  -0.0001053910   0.0005172292  -0.0004097047
       -0.0004773368  -0.0000709387   0.0000656129   0.0001139889  -0.0000213906
        0.0001005482  -0.0000041398  -0.0000080586  -0.0000636981   0.0001317660
        0.0000068088  -0.0000001190  -0.0000493465  -0.0000339086   0.0000591148
        0.0000665468   0.0000556611   0.0001165057   0.0001593762   0.0000683538
       -0.0000795893  -0.0002537084  -0.0000850904   0.0000047639   0.0001143208
        0.0000384423  -0.0000169760  -0.0000344092  -0.0000103958   0.0000604847
        0.0000043352   0.0000439830  -0.0000473400  -0.0000048140   0.0000035894
        0.0000169345   0.0001969117  -0.0000627004   0.0003586128   0.0001097648
       -0.0000312175   0.0006898926  -0.0000049961  -0.0012965504  -0.0001725971
       -0.0000508106   0.0005035835  -0.0000834826  -0.0000896769  -0.0000777053
        0.0003088530  -0.0001033415  -0.0000476439   0.0000367151  -0.0000027858
        0.0001199188  -0.0000392137   0.0000052690   0.0000566553   0.0000132491
        0.0000257148   0.0000817302   0.0000679554  -0.0000115603  -0.0003447811
       -0.0000897776   0.0000235806   0.0003515834  -0.0000747293  -0.0000385901
        0.0000533230  -0.0000153704  -0.0000307433  -0.0000407494   0.0000545736
        0.0000687728   0.0000457026  -0.0000606089  -0.0000270598   0.0000332077
        0.0000010843   0.0000974865   0.0000874739   0.0000798244  -0.0000138459
       -0.0005754747   0.0004088594   0.0001879250   0.0013787856  -0.0004806202
       -0.0001394931  -0.0001138901   0.0000422036  -0.0000432444  -0.0000247702
       -0.0000126425   0.0001197019  -0.0003759617   0.0002444166   0.0000394984
       -0.0001518418   0.0002342130   0.0001103113   0.0003372880  -0.0000498639
       -0.0002391421   0.0000122441   0.0000593575   0.0000343360   0.0000545238
        0.0000118092   0.0000034608   0.0000078054  -0.0000012518   0.0000010639
        0.0000043157   0.0000211084  -0.0000082520   0.0000068318   0.0000083475
       -0.0000078387  -0.0000000010  -0.0000164904   0.0000120217  -0.0000029477
       -0.0000109048   0.0000651156  -0.0000216192   0.0000387526   0.0000912930
        0.0001467574  -0.0001919939   0.0002342513  -0.0001205588   0.0000503971
        0.0000912447   0.0000167490  -0.0000273765  -0.0000274827  -0.0000056661
       -0.0000290552  -0.0000266856   0.0000195884  -0.0000057925  -0.0000071860
        0.0000068772  -0.0000085721  -0.0000020675   0.0000223153   0.0000082518
        0.0000015912   0.0000292797  -0.0000032578  -0.0000688049  -0.0000643957
        0.0007489734  -0.0000379491  -0.0002587700
        0.1866246465   0.0520081746   0.1522736915  -0.1702919724  -0.0480630345
       -0.1575859424   0.0158194930   0.0047965103   0.0197346091  -0.0129391609
       -0.0021001859  -0.0027409962  -0.0010957480  -0.0001575383   0.0001033754
       -0.0005086148   0.0002211176   0.0003667992   0.0005043167   0.0006864212
        0.0003198625  -0.0020648533  -0.0024962457  -0.0013284657   0.0024262669
       -0.0023666542  -0.0013538120  -0.0152498474  -0.0068590492  -0.0041141752
       -0.0007035412   0.0045288314  -0.0054045360   0.0004649480  -0.0002304607
        0.0015577196  -0.0020997822   0.0009734854  -0.0010128268   0.0005013106
        0.0006588543  -0.0000136328   0.0001854991  -0.0000689472  -0.0000743798
       -0.0001391790   0.0001241104  -0.0000168962   0.0000596220  -0.0001516252
        0.0000005543   0.0000231058   0.0002735691   0.0001050260   0.0001246026
       -0.0005708603  -0.0000719909  -0.0004261433   0.0002543705  -0.0000979756
       -0.0000253500   0.0004411980   0.0000907915  -0.0000117226  -0.0002843095
       -0.0000640087   0.0001575122   0.0001796545   0.0000998773  -0.0001483532
       -0.0000287318  -0.0000578522   0.0000042182   0.0000889894   0.0000963301
        0.0003549655  -0.0011759471   0.0000397650  -0.0000499164  -0.0000699812
        0.0002036034  -0.0016365747  -0.0014466421   0.0018243021   0.0013952278
        0.0009993471  -0.0007365356  -0.0007821529  -0.0004501683  -0.0006010135
       -0.0000008500   0.0000072287   0.0001756974   0.0001183591  -0.0000419467
       -0.0001438942  -0.0000814427   0.0000058932   0.0002254939  -0.0000392092
       -0.0001316085  -0.0001224242   0.0000688948   0.0001725420   0.0003191671
        0.0003009073   0.0002276029  -0.0000709406  -0.0001350414  -0.0002605529
       -0.0003940448   0.0000104124   0.0001031363   0.0002278391  -0.0000780355
       -0.0000920915  -0.0000499782   0.0000980314   0.0001064156   0.0000252305
       -0.0000560664  -0.0000621082  -0.0000557539   0.0000392042  -0.0000523169
        0.0008442870  -0.0012056179   0.0005966657  -0.0009841953  -0.0001176303
        0.0003038143  -0.0004837708   0.0000588517  -0.0000750799  -0.0000267593
        0.0000257781  -0.0000378353  -0.0000935843   0.0004605340   0.0001012056
       -0.0000854222   0.0005572884  -0.0002181150  -0.0003162564   0.0000063590
        0.0000838905   0.0001783381   0.0000422578   0.0000031367   0.0000320349
       -0.0000497399  -0.0000271978  -0.0000214986  -0.0000596982   0.0000018632
       -0.0000274444  -0.0000353966   0.0000214263  -0.0000189368  -0.0000267171
        0.0000412567  -0.0000076070   0.0000101851   0.0000637001   0.0000022606
       -0.0000029655  -0.0001301765  -0.0000685402  -0.0000186860  -0.0000523546
       -0.0001882698  -0.0000462872  -0.0000767213  -0.0002581973   0.0000360942
        0.0000953727   0.0000392133   0.0000432299   0.0000447419  -0.0000034678
        0.0000225857   0.0000262256  -0.0000112576   0.0000322929   0.0000048316
       -0.0000329707   0.0000166309  -0.0000116565  -0.0000335311  -0.0000244035
       -0.0000278449  -0.0000079108   0.0000143748  -0.0000063291   0.0001097330
       -0.0004573070  -0.0004212668  -0.0002139057
       -0.3676457349  -0.0847334082  -0.1702919724   0.8108962940   0.0854198964
       -0.0230072144  -0.3386688275  -0.0256411368   0.2017874948  -0.0435090999
        0.0095164048   0.0043671944  -0.0014735701   0.0138510987   0.0075431148
       -0.0044993226   0.0012282602   0.0007235630  -0.0004491293   0.0005307529
        0.0003091778  -0.0041710211  -0.0057082756  -0.0035332789   0.0072415386
       -0.0080111814  -0.0039609981  -0.0416807770   0.0127517755  -0.0111844539
       -0.0048081281   0.0110109330  -0.0121342066  -0.0038544363   0.0001806282
       -0.0018441003  -0.0004339280  -0.0000206900   0.0001675484   0.0000561884
        0.0001492159  -0.0002621858  -0.0003142897  -0.0000200521   0.0004321716
       -0.0000313868  -0.0002266533   0.0000846878  -0.0000501302  -0.0000309231
        0.0000237120  -0.0000860849  -0.0000780688   0.0000659144  -0.0003080194
        0.0005028920  -0.0001724616   0.0001936207  -0.0005555593   0.0000960215
        0.0001616852   0.0000949361  -0.0000734719  -0.0000652179   0.0001043246
        0.0000914918  -0.0001185296  -0.0000756590  -0.0000297657   0.0000619211
        0.0000369732   0.0001078995   0.0000039260  -0.0001390582   0.0001208122
       -0.0004919958   0.0009622180  -0.0004973173  -0.0008537523  -0.0001507281
       -0.0002981984  -0.0004869542  -0.0015928711   0.0003808835  -0.0021849035
       -0.0010221568   0.0011943325   0.0010479888   0.0001859872   0.0008858877
       -0.0003746922   0.0003553672  -0.0001993486  -0.0002804916   0.0000179194
       -0.0000882374   0.0000414763  -0.0000183217  -0.0003029800  -0.0000437380
        0.0002169948   0.0001325611  -0.0001724713  -0.0003311025   0.0000497494
       -0.0003458655  -0.0002313541  -0.0003098999   0.0003126027   0.0002927225
        0.0005358920  -0.0000802621  -0.0000645837  -0.0002161427   0.0000446596
        0.0000970657   0.0000612808  -0.0000909714  -0.0000138588  -0.0000111156
       -0.0000573589   0.0001748798  -0.0000809933  -0.0001355445  -0.0002874194
       -0.0001416751   0.0041034606  -0.0082282816   0.0089341631  -0.0017609775
        0.0015518657   0.0008518382  -0.0002339365   0.0008584285   0.0006265431
       -0.0002977778  -0.0000162999  -0.0001102152  -0.0016580937  -0.0015308150
       -0.0011950926  -0.0020172232   0.0009305479  -0.0011794354   0.0003101343
       -0.0000749247  -0.0004764970   0.0000589614  -0.0000684021  -0.0000614711
        0.0000795962   0.0000193691  -0.0000165206   0.0000778844  -0.0000052759
       -0.0000231076   0.0000295106  -0.0000064554  -0.0000249950   0.0000323825
       -0.0000461205  -0.0000235491   0.0000060711  -0.0000707987  -0.0000312317
        0.0001119715   0.0001029289  -0.0000704132  -0.0002757480   0.0000087526
        0.0001137705   0.0004864381  -0.0003140781   0.0001588191   0.0000286871
       -0.0001283776  -0.0000524310   0.0000267117  -0.0000309057   0.0000126201
        0.0000361575  -0.0000382240   0.0000054144  -0.0000042080  -0.0000305250
        0.0000318312   0.0000018856  -0.0000156762   0.0000048197   0.0000292107
       -0.0000174552  -0.0000205831   0.0001188075  -0.0000627097  -0.0000416021
       -0.0015851727  -0.0015147514   0.0020659519
       -0.0850413694  -0.0769523294  -0.0480630345   0.0854198964   0.3615017839
        0.0220852421  -0.0267751025  -0.0550518193   0.0162787139   0.0126852536
       -0.1178664160  -0.0333852670   0.0110607268  -0.0089673014  -0.0056494599
        0.0027282369   0.0050087073  -0.0026428725  -0.0016666310  -0.0023427627
       -0.0013108038  -0.0013216408   0.0065027849  -0.0006186274  -0.0079478894
       -0.0153700232  -0.0085762515   0.0137038850  -0.0907504281   0.0429741708
        0.0065243084  -0.0015179426   0.0028102937   0.0054437330   0.0042989438
        0.0047310206  -0.0048347826   0.0000719779  -0.0022409718   0.0019587595
        0.0024767989   0.0001796517  -0.0002764233  -0.0003302507  -0.0000272136
       -0.0004667325   0.0000834928  -0.0000296446   0.0003875852  -0.0005943928
       -0.0000190875   0.0000974092   0.0005116386   0.0002598990  -0.0002311282
       -0.0007693445  -0.0002719119  -0.0008694075  -0.0004681450  -0.0004233666
        0.0003985322   0.0013531137   0.0004888783   0.0000678457  -0.0006827242
       -0.0002100253   0.0002943737   0.0002760553   0.0001501061  -0.0003314530
       -0.0000937125  -0.0002405766   0.0001379327   0.0000811027   0.0000484094
        0.0003494313  -0.0016878410   0.0006625707  -0.0006756365  -0.0008525886
        0.0008504139  -0.0053605054   0.0019548201   0.0052494244   0.0026229435
        0.0012284714  -0.0020756926  -0.0008844253  -0.0000887323  -0.0008115308
       -0.0005608890   0.0000816554   0.0003065121   0.0001964320   0.0000366805
       -0.0003310638  -0.0000547624   0.0000054641   0.0002246113  -0.0001054396
       -0.0003213505  -0.0004126607  -0.0000326105   0.0003363121   0.0012479982
        0.0005782405   0.0001798251  -0.0009938100   0.0000328978  -0.0001817984
       -0.0006432315   0.0000386091   0.0002291082   0.0004566805  -0.0002892641
       -0.0003387095  -0.0001962653   0.0002840400   0.0001734073  -0.0000352316
        0.0000896845  -0.0003126062  -0.0003133580  -0.0001511375  -0.0000702333
        0.0026500153  -0.0053172274  -0.0092435042   0.0072604717  -0.0013729586
        0.0002769525   0.0019190388  -0.0005255445   0.0004275418   0.0002020377
       -0.0001940256  -0.0005498689   0.0013109259   0.0005991834   0.0003428515
        0.0012740103  -0.0010449339  -0.0006718339  -0.0017231034   0.0002221367
        0.0006695243   0.0000152940  -0.0001301573  -0.0001701680  -0.0001501436
       -0.0000671926  -0.0000309909  -0.0000380702  -0.0000416060   0.0000057547
       -0.0000332651  -0.0000985066   0.0000302182  -0.0000218041  -0.0000591145
        0.0000569741   0.0000143646   0.0000522155   0.0000172895   0.0000298229
       -0.0000261963  -0.0002777343   0.0000515931   0.0000712941  -0.0007874325
       -0.0008314187   0.0001391301  -0.0003248861   0.0000260399  -0.0001074789
       -0.0001168163  -0.0000224350   0.0000825164   0.0000981924   0.0000041223
        0.0000810947   0.0000994317  -0.0000682700   0.0000470159   0.0000335210
       -0.0000477174   0.0000282946   0.0000084107  -0.0000889759  -0.0000572968
       -0.0000260359  -0.0001157087  -0.0000171322   0.0001767005   0.0002000752
        0.0005129634  -0.0008247838  -0.0012995375
       -0.1688381432  -0.0476169709  -0.1575859424  -0.0230072144   0.0220852421
        0.5292727848   0.2004117572   0.0155210136  -0.2088340755   0.0067966228
       -0.0422716445  -0.0603621199   0.0071167946  -0.0052805268  -0.0038125432
        0.0005709965  -0.0024273168   0.0057068192  -0.0006931430  -0.0014111909
       -0.0011590976  -0.0002349878   0.0001623969   0.0057881818  -0.0052931501
       -0.0093999587  -0.0076621886  -0.0125712696   0.0518002258  -0.0871333241
       -0.0099911614   0.0023801071  -0.0073880244  -0.0062437271   0.0034809752
        0.0006689432   0.0052785495  -0.0016041709   0.0012269691  -0.0011189114
       -0.0017007514   0.0005028361  -0.0006349314   0.0003145420  -0.0000528201
        0.0003855662  -0.0004001853  -0.0000405819  -0.0002866731   0.0004424195
       -0.0000504666  -0.0001192439  -0.0006966790  -0.0003556703  -0.0003788061
        0.0016563119   0.0002267895   0.0013054480  -0.0008332977   0.0002977678
        0.0000676392  -0.0011400473  -0.0002097028  -0.0000520538   0.0007687443
        0.0001718888  -0.0004566812  -0.0004337067  -0.0002862698   0.0003837156
        0.0001614853   0.0001354802   0.0000531853  -0.0003061520  -0.0003401469
       -0.0009724903   0.0031477946  -0.0004094769  -0.0005549356   0.0007355169
       -0.0009421041   0.0052995715   0.0063744536  -0.0003579455  -0.0044573030
       -0.0033082077   0.0023392960   0.0024968064   0.0012844535   0.0020677969
       -0.0001202213  -0.0000945724  -0.0003588745  -0.0003117648  -0.0000081887
        0.0004046094   0.0003082909  -0.0000182664  -0.0007706530   0.0002090035
        0.0005053389   0.0005214864  -0.0002293757  -0.0005578870  -0.0011054093
       -0.0010094176  -0.0007962113   0.0002856436   0.0005069674   0.0009239602
        0.0012508629  -0.0000088033  -0.0003719207  -0.0008224638   0.0003785483
        0.0003794525   0.0001767405  -0.0002827175  -0.0003795720  -0.0000884853
        0.0001498967   0.0001295292   0.0000670978  -0.0001403544   0.0002597553
       -0.0026695700   0.0058825290   0.0077053213  -0.0085413923  -0.0007050645
        0.0017683523  -0.0005528520  -0.0002676608   0.0003726088   0.0003790279
       -0.0001297486   0.0010561924  -0.0013233869   0.0004790116   0.0013034456
        0.0001396045   0.0012538284  -0.0013190480   0.0007201086   0.0001118519
       -0.0001224880  -0.0001682842  -0.0000875078   0.0000038992  -0.0000434572
        0.0001604309   0.0000802010   0.0000996167   0.0001622665  -0.0000332647
        0.0000999232   0.0001104443  -0.0000490120   0.0000516690   0.0000742700
       -0.0001196846   0.0000168547  -0.0000476633  -0.0001775215  -0.0000160794
       -0.0000337801   0.0002014310   0.0001748558   0.0000978246  -0.0005394426
       -0.0003894240   0.0001198844   0.0001172152   0.0005444606  -0.0001007818
       -0.0001952485  -0.0001421690  -0.0001261239  -0.0001165841  -0.0000227365
       -0.0000870774  -0.0000812693   0.0000281421  -0.0001113009  -0.0000277816
        0.0000924995  -0.0000676912   0.0000314316   0.0001147720   0.0000608594
        0.0000825868   0.0000485213  -0.0001238879   0.0000155838  -0.0002518655
       -0.0003367914  -0.0014132174   0.0006275537
       -0.0349776449  -0.0062960763   0.0158194930  -0.3386688275  -0.0267751025
        0.2004117572   0.3780840942   0.0322076050  -0.2247533334  -0.0054260650
       -0.0030604343   0.0054046922   0.0012720503   0.0026992815   0.0027757346
       -0.0004757203   0.0008627809  -0.0006104542  -0.0001145384  -0.0007598297
       -0.0002774099   0.0012783959   0.0021011668   0.0002972471  -0.0037541783
       -0.0018439384  -0.0012330774  -0.0027465280   0.0005942861  -0.0002161240
       -0.0012199290  -0.0004262327  -0.0007975671  -0.0010783222   0.0001380451
       -0.0006488284   0.0017436305  -0.0002391837   0.0000924889  -0.0004264456
       -0.0006365467   0.0002883312   0.0000922273   0.0000663976  -0.0001842185
        0.0001208006   0.0000091808  -0.0000309941  -0.0000761745   0.0001690393
       -0.0000185651   0.0000001420  -0.0001874400  -0.0001481740   0.0000529268
        0.0002316825   0.0001620331   0.0003117398   0.0000816100   0.0000805147
       -0.0001065522  -0.0004256872  -0.0000585154   0.0000116006   0.0002134478
        0.0000168277  -0.0000913259  -0.0000998398  -0.0000713535   0.0000714968
        0.0000231988   0.0000089748   0.0000476627   0.0000353724  -0.0001358600
       -0.0000817620   0.0003998007   0.0000886044   0.0001413087   0.0003774052
       -0.0002897432   0.0002143095   0.0008858708  -0.0008400069  -0.0006228458
       -0.0009181205   0.0010707533   0.0003171580   0.0003203185   0.0002648343
        0.0001611680  -0.0001559520  -0.0000370030   0.0000172489   0.0000050333
        0.0001266295   0.0000718925   0.0000063570  -0.0001008046   0.0000703398
        0.0000695234   0.0001229376   0.0000060586  -0.0000548778  -0.0004470319
       -0.0001581614  -0.0000839787   0.0002995914  -0.0000217700   0.0001245250
        0.0002267293   0.0000013705  -0.0000839180  -0.0001658986   0.0000953844
        0.0000914323   0.0000450302  -0.0000559045  -0.0000887358  -0.0000311090
        0.0000220744  -0.0000245581   0.0000961465   0.0000417114  -0.0000135926
       -0.0009138543   0.0021564295  -0.0008298728   0.0021074603   0.0009242150
       -0.0006673251   0.0000039806   0.0000261389   0.0004270023   0.0001843537
        0.0000694610  -0.0000828460   0.0002777282   0.0009196139   0.0005093094
        0.0009558626   0.0014864820   0.0000890159   0.0007895278  -0.0001336831
        0.0000205427   0.0001713038  -0.0000434716   0.0000580118   0.0000211569
       -0.0000008837   0.0000133760   0.0000330386   0.0000032673  -0.0000051978
        0.0000385275   0.0000126150  -0.0000120073   0.0000313153   0.0000026086
       -0.0000098215   0.0000123242  -0.0000177343  -0.0000204056   0.0000051073
       -0.0000843734   0.0000070688   0.0000624111   0.0001007506   0.0000962422
        0.0000768982  -0.0001633937   0.0001403496   0.0000616464  -0.0000257123
        0.0000172623  -0.0000051176  -0.0000370136  -0.0000184505  -0.0000042194
       -0.0000356667  -0.0000082967   0.0000171978  -0.0000205108   0.0000061742
        0.0000133227  -0.0000116091   0.0000140450   0.0000239122   0.0000113087
        0.0000366255   0.0000353607  -0.0000655597   0.0000237957  -0.0000556086
        0.0007826251   0.0006560859  -0.0005469148
       -0.0096110413   0.0075157344   0.0047965103  -0.0256411368  -0.0550518193
        0.0155210136   0.0322076050   0.0446929510  -0.0197879423   0.0141359117
        0.0069876139  -0.0130938258  -0.0001573940  -0.0035007560  -0.0027021956
        0.0006757704  -0.0016898561   0.0009923879   0.0007516330   0.0003389100
        0.0002442586  -0.0000462755  -0.0003904908   0.0009219081   0.0004427424
        0.0000242840  -0.0005636323  -0.0132055478   0.0051453321   0.0101649288
       -0.0004132233  -0.0002057273   0.0013182103  -0.0016973188  -0.0002617070
       -0.0018591728   0.0013032306   0.0000100389   0.0006874987  -0.0005808336
       -0.0007200521  -0.0001214190   0.0000485719   0.0001245799  -0.0000078051
        0.0001524499  -0.0000555037  -0.0000034272  -0.0000939197   0.0001640358
        0.0000026388  -0.0000216132  -0.0001219601  -0.0000623541   0.0000582615
        0.0002000928   0.0000722676   0.0002406978   0.0001423468   0.0001232370
       -0.0001125734  -0.0003852280  -0.0001444200  -0.0000194755   0.0001811112
        0.0000578016  -0.0000683867  -0.0000635892  -0.0000350222   0.0000952834
        0.0000354003   0.0000694517  -0.0000425316  -0.0000396061   0.0000095641
       -0.0001217952   0.0005036527  -0.0001908467  -0.0000597614   0.0000870569
       -0.0001295716   0.0003033896  -0.0004920744  -0.0010644724  -0.0009477633
       -0.0007631925   0.0010065972   0.0003721222   0.0001436680   0.0003370811
        0.0001127626  -0.0000163841  -0.0000900946  -0.0000754838  -0.0000130587
        0.0000817010   0.0000030202  -0.0000055778  -0.0000772218   0.0000221880
        0.0000977782   0.0001425581  -0.0000233403  -0.0001186157  -0.0003301970
       -0.0001667222  -0.0000617384   0.0002191044   0.0000118465   0.0000881016
        0.0002350860  -0.0000308151  -0.0000692026  -0.0001336337   0.0000786071
        0.0000976811   0.0000681686  -0.0000929322  -0.0000523369   0.0000114394
        0.0000005381   0.0001044041   0.0000850295   0.0000426293  -0.0000872487
       -0.0007733144   0.0014713874  -0.0024853388   0.0043687291   0.0000780255
        0.0001095445  -0.0005402938   0.0000864423  -0.0003795471  -0.0001634069
        0.0000592921   0.0001637851  -0.0003693079   0.0007255319   0.0001116424
        0.0001088895  -0.0003559745  -0.0002536892   0.0001918521  -0.0000456749
       -0.0002457080  -0.0000084651   0.0000424642   0.0000575861   0.0000553655
        0.0000270329   0.0000111595   0.0000170667   0.0000125800  -0.0000024085
        0.0000083545   0.0000311523  -0.0000122346   0.0000036350   0.0000148713
       -0.0000196884  -0.0000069179  -0.0000183851  -0.0000085904  -0.0000132775
        0.0000075943   0.0000968665  -0.0000260275  -0.0000331629   0.0000999043
        0.0001876486   0.0000215201   0.0000838981   0.0000091134   0.0000321954
        0.0000245770  -0.0000053058  -0.0000177613  -0.0000248197  -0.0000038274
       -0.0000225248  -0.0000266522   0.0000154254  -0.0000118535  -0.0000096087
        0.0000174315  -0.0000067935  -0.0000030721   0.0000266784   0.0000170218
        0.0000064884   0.0000320955  -0.0000036695  -0.0000747153  -0.0000839887
        0.0000593123   0.0002615732   0.0001806598
       -0.0090302507   0.0000649993   0.0197346091   0.2017874948   0.0162787139
       -0.2088340755  -0.2247533334  -0.0197879423   0.2084575205   0.0124561206
        0.0029711353  -0.0043618156  -0.0006906711  -0.0037216889  -0.0029173232
        0.0010931547  -0.0006838586   0.0004560365   0.0003699591   0.0006501284
        0.0002053595  -0.0004714153  -0.0009669631   0.0001702417   0.0016108915
        0.0008239427   0.0004061827   0.0173855578  -0.0006886248  -0.0068037817
        0.0007715291   0.0013597137  -0.0008696113   0.0026266055  -0.0004297053
        0.0018491024  -0.0020385591   0.0005211938  -0.0005152954   0.0004624694
        0.0006209714  -0.0001533380   0.0001576328  -0.0001189817  -0.0000116958
       -0.0001435500   0.0001413633   0.0000123761   0.0000730714  -0.0001338583
        0.0000173263   0.0000275378   0.0002343218   0.0001315342   0.0001116221
       -0.0005939231  -0.0001053480  -0.0004743604   0.0002481257  -0.0001063048
       -0.0000144585   0.0004522721   0.0000780974   0.0000092651  -0.0002670839
       -0.0000522736   0.0001542700   0.0001512458   0.0001018374  -0.0001621363
       -0.0000381294  -0.0000546165  -0.0000106167   0.0001057739   0.0001479126
        0.0003493517  -0.0010781149   0.0001158313  -0.0000390679  -0.0001540629
        0.0002229201  -0.0000015733  -0.0007570608   0.0015106934   0.0015802115
        0.0016285441  -0.0015425409  -0.0009139423  -0.0006363485  -0.0007468318
       -0.0000720287   0.0001055679   0.0001600909   0.0000998066  -0.0000096071
       -0.0001770464  -0.0000759770   0.0000256948   0.0002615541  -0.0000592768
       -0.0001532152  -0.0002216656   0.0000727080   0.0001750674   0.0004441990
        0.0003311265   0.0002404805  -0.0001389843  -0.0001357875  -0.0003085234
       -0.0004781023   0.0000385372   0.0001489076   0.0002808916  -0.0001153767
       -0.0001325632  -0.0000953780   0.0001118461   0.0001247506   0.0000263634
       -0.0000869152  -0.0000540348  -0.0000757604   0.0000345540   0.0000678210
        0.0011896205  -0.0022480951   0.0043812529  -0.0058178776  -0.0005452247
        0.0001875352  -0.0002795278   0.0000297038  -0.0004895240  -0.0002461928
        0.0000314051   0.0000015990  -0.0001916929   0.0002998223   0.0002354828
       -0.0001367509   0.0003774568  -0.0002855721  -0.0005080049   0.0000338629
        0.0000811096   0.0001218368   0.0000434990  -0.0000167811   0.0000165686
       -0.0000509991  -0.0000291852  -0.0000346490  -0.0000536285   0.0000122321
       -0.0000384872  -0.0000347525   0.0000177390  -0.0000230527  -0.0000236036
        0.0000421746  -0.0000062361   0.0000223957   0.0000610945   0.0000041901
        0.0000431291  -0.0001148035  -0.0000808290   0.0000027380  -0.0000625044
       -0.0002058619   0.0000210742  -0.0001309707  -0.0002487386   0.0000441746
        0.0000603935   0.0000467661   0.0000492965   0.0000438645   0.0000065997
        0.0000382711   0.0000297606  -0.0000090892   0.0000387845   0.0000070255
       -0.0000387339   0.0000170696  -0.0000069378  -0.0000405800  -0.0000207792
       -0.0000303696  -0.0000214528   0.0000616052   0.0000114269   0.0001318658
       -0.0006032324  -0.0004324873  -0.0001185811
       -0.0032876957  -0.0187582244  -0.0129391609  -0.0435090999   0.0126852536
        0.0067966228  -0.0054260650   0.0141359117   0.0124561206   0.6511619929
        0.0086527383   0.0132435931  -0.2992649578   0.0445516499   0.0229449967
        0.0156342127   0.0745861493   0.0484064314  -0.0686765274  -0.0010104818
       -0.0016631138   0.0424396621  -0.0753123650  -0.0483942186  -0.2385618264
       -0.0568122788  -0.0371955738   0.0025102308   0.0020291873   0.0015737248
       -0.0001210855  -0.0000075014  -0.0001642115   0.0000864852  -0.0002031973
       -0.0000714197   0.0000344416   0.0001356040  -0.0000391518  -0.0000061839
       -0.0000758188   0.0000347276  -0.0000014214  -0.0000099206  -0.0000782721
        0.0000585856   0.0000004544  -0.0000115086   0.0000349204   0.0000150561
        0.0000079657   0.0000086598   0.0000131279  -0.0000063018   0.0000574133
       -0.0000980312   0.0000226628  -0.0000277702   0.0000973564  -0.0000059832