47
 energy: -67.184346501393 gnorm: 0.000017740988 xtb: 6.7.1 (edcfbbe)
C           -1.55117053251201       -2.25276300327670       -1.43901331981201
C           -1.06645176308979       -1.75247665802780       -0.05920275529325
C           -1.79561615921228       -2.44414615861110        1.12214446751130
C            0.39876534067524       -2.14745657496989        0.01660125811792
C            0.73148882717213       -3.49479796958724        0.04940775743199
C            2.04643755676585       -3.92109976938384        0.08191536320019
C            3.06308663811732       -2.98273341250492        0.07975446000573
C            2.75859814633436       -1.63790125211682        0.05109252139136
C            1.42911360917747       -1.20774726229046        0.02026257198819
N            1.13214886824733        0.14280073914033       -0.00545580964242
C            2.21258465745373        1.06994996113996       -0.01313351398443
C            2.77933563323036        1.48958617982106        1.18416119869037
C            3.83868455643671        2.37919048292863        1.16926400827409
C            4.33438678195908        2.85011134856432       -0.03544493083447
C            3.77028144872669        2.43067450596244       -1.22874298721073
C            2.71092135661736        1.54056859311125       -1.22123010354745
C           -0.17223533282869        0.60979049455352        0.01590419957835
C           -0.35431735449254        2.01257116735194        0.05729505309132
C           -1.59798437940748        2.55652001879821        0.07303367293196
C           -2.73940981758508        1.73307697742552        0.04736906126410
C           -4.02456424686349        2.31012269730340        0.05523716548300
C           -5.14767027234103        1.53536918237528        0.02584580825263
C           -5.00724567374441        0.14270851489230       -0.01151207996522
C           -3.77177213582729       -0.44322209310534       -0.01717591642453
C           -2.57664306291039        0.31894911972484        0.01108843151317
C           -1.26546005454696       -0.24330798237556        0.00105656330119
H           -2.55506216072198       -1.91446431679851       -1.67231260607060
H           -0.88406693667070       -1.86821899784879       -2.20957531394170
H           -1.52673224694632       -3.33879327967934       -1.48357390618368
H           -2.36967533888270       -1.72881900475078        1.70428986723619
H           -1.06922440743873       -2.89598729058220        1.79497290577491
H           -2.46391209993538       -3.22973060842138        0.77669315208755
H           -0.05634841262916       -4.23312327611877        0.05112095840571
H            2.27376996478732       -4.97603574281862        0.10547523172747
H            4.09655909217860       -3.29536823974376        0.10147805144076
H            3.55616755228007       -0.91072535804642        0.05080219254108
H            2.38423911312907        1.11431819168689        2.11671883120656
H            4.27838607436910        2.70522909332668        2.10012816480850
H            5.16148860248331        3.54410645190071       -0.04410412263702
H            4.15676482946360        2.79643713732049       -2.16839991946649
H            2.26275699130788        1.20566631504792       -2.14504853475026
H            0.51344933837003        2.65353301486275        0.07659950445896
H           -1.72514037108960        3.62897739104207        0.10394465366777
H           -4.09860388946706        3.38835531852823        0.08437019072090
H           -6.13154807548795        1.98051514219084        0.03111244567318
H           -5.89138101575478       -0.47862786274210       -0.03539503691652
H           -3.73293938419993       -1.51721270663507       -0.04115646285465
