$hessian                                                                        
        0.5111598564  -0.0163470754  -0.0209498614  -0.0774463715  -0.0120974011
       -0.0386351535   0.0052257475   0.0018862325   0.0081612900  -0.0246466686
       -0.0056638444  -0.0234708416  -0.0002950981  -0.0005192780  -0.0014230619
       -0.0004264366  -0.0004847201   0.0008300027  -0.0000744793   0.0003119109
        0.0001089887  -0.0004330187  -0.0006189655   0.0012132688  -0.0025434102
        0.0039800559  -0.0010883322   0.0006869423  -0.0015980988   0.0001501967
        0.0001406044   0.0001085211   0.0000526053  -0.0000078170  -0.0000264598
        0.0000081605   0.0000145239   0.0000079420   0.0000078045   0.0000072989
        0.0000037090   0.0000184696   0.0000055869   0.0000061066   0.0000018398
       -0.0000201616  -0.0000131173  -0.0000600045   0.0000670599   0.0003287849
       -0.0004845725   0.0000841842  -0.0003423307   0.0000531718  -0.0000616346
        0.0001238421   0.0000275509   0.0000474482  -0.0000995066   0.0002184335
        0.0000249627   0.0000023859  -0.0000467405  -0.0000734372  -0.0000869791
       -0.0000293671   0.0001145005   0.0003160642   0.0001209640  -0.0005956746
        0.0000094370   0.0005804349  -0.0011192025   0.0008818619   0.0000143638
        0.0005892369  -0.0068293028  -0.0027204320  -0.1707117471   0.1087504545
       -0.0584168546  -0.1615477554   0.0091953388   0.1192029676  -0.0768075225
       -0.0822070017   0.0138496334  -0.0000916746  -0.0001186766   0.0001454040
       -0.0003752503  -0.0005195736   0.0019256935   0.0007128642   0.0003328245
        0.0007523473  -0.0004272817  -0.0000881384  -0.0007334239   0.0000284691
       -0.0000224564   0.0000381381  -0.0000100217  -0.0000153279  -0.0002197097
       -0.0002464927   0.0000743947  -0.0002074967   0.0000004469   0.0000154548
        0.0000280351  -0.0000086095  -0.0000033433  -0.0000002827  -0.0000071255
       -0.0000036260   0.0000040736  -0.0000156883  -0.0000090610   0.0000104695
       -0.0000169537  -0.0000128829   0.0000147400  -0.0000060720  -0.0000071486
       -0.0000178937   0.0000132442   0.0000101055   0.0000013517   0.0000154866
        0.0000052279  -0.0000320877  -0.0000091397   0.0000591830   0.0000101486
        0.0000291636  -0.0000211255   0.0000301023  -0.0009428822   0.0013456034
        0.0009554659
       -0.0163470754   0.5140234146  -0.0337352404  -0.0139218508  -0.0716021187
       -0.0327358591   0.0018861891   0.0014886714   0.0048778061   0.0029000365
        0.0056834742   0.0046379163   0.0016260933  -0.0012050399   0.0005863023
       -0.0008910200   0.0004722817   0.0001281912   0.0003505731   0.0001384547
        0.0001126301   0.0001045813   0.0001583852  -0.0003432148   0.0008283032
       -0.0019952292   0.0000595539  -0.0015690916   0.0019905417  -0.0001115225
        0.0000612383   0.0000380286   0.0000868919  -0.0000173173   0.0000136374
       -0.0000060921  -0.0000076222  -0.0000053873   0.0000037718   0.0000016676
        0.0000031676   0.0000033889  -0.0000012112  -0.0000001782  -0.0000061962
       -0.0000144598   0.0000077693   0.0000030436   0.0033516948  -0.0035183472
       -0.0011006136  -0.0006343701  -0.0002652622   0.0014789560   0.0000805238
       -0.0001176136   0.0000174094  -0.0003594191   0.0001519899   0.0005145510
        0.0001326779   0.0000789523   0.0000646126  -0.0000556315  -0.0001870971
       -0.0000670995  -0.0002641385   0.0002546942  -0.0001895897   0.0005258762
       -0.0005278142  -0.0005618175  -0.0008816570  -0.0000202303  -0.0007513541
       -0.0132175054  -0.0202817723  -0.0216109153   0.1088409356  -0.1349386564
        0.0505327849   0.0081979239  -0.0453823217  -0.0084119567  -0.0824909402
       -0.2441314389   0.0332517704   0.0001229755   0.0000251834   0.0001899842
       -0.0005127084  -0.0004785283   0.0018229744   0.0003847283   0.0007043277
        0.0017916583   0.0007897663  -0.0002767982   0.0003673328   0.0000119817
       -0.0000327791  -0.0000513448   0.0000462116   0.0000199790   0.0000113468
        0.0001188006  -0.0000083586  -0.0000328452   0.0000100500  -0.0000095010
        0.0000176263  -0.0000031697  -0.0000032784  -0.0000019100  -0.0000055611
       -0.0000051214  -0.0000016067  -0.0000061058  -0.0000079449   0.0000038186
        0.0000090779   0.0000002405  -0.0000152585   0.0000003228  -0.0002589803
       -0.0001254201   0.0000073177   0.0000253661  -0.0002720108   0.0000094104
        0.0000325161   0.0000737939   0.0000076878  -0.0000094676   0.0000063043
        0.0000566690  -0.0000041386   0.0000429215   0.0007375407  -0.0000376718
       -0.0005554738
       -0.0209498614  -0.0337352404   0.4478633653  -0.0352287165  -0.0270928021
       -0.1319163515  -0.0081676467  -0.0048797063  -0.0253250456  -0.0113851313
        0.0002903839  -0.0060054625   0.0001569031  -0.0005968802  -0.0000852062
        0.0000903864  -0.0001057649   0.0002856136  -0.0001006260  -0.0002660955
        0.0000233464  -0.0004383994   0.0002890489   0.0003740139   0.0007794327
        0.0007048129  -0.0008028433   0.0000683075  -0.0002020886  -0.0001818695
       -0.0000533528  -0.0000387568   0.0001032504   0.0000421548   0.0000262962
       -0.0000350113   0.0000036933   0.0000011612   0.0000041280  -0.0000027204
       -0.0000011177  -0.0000040007  -0.0000267661  -0.0000187360   0.0000127132
        0.0000028132  -0.0000098419   0.0000090207   0.0005457263   0.0008387481
       -0.0008042031   0.0001003534  -0.0005717634   0.0000421184  -0.0002600731
        0.0000715080  -0.0000163812  -0.0001560549   0.0002369866   0.0002774138
        0.0002151784  -0.0000334561  -0.0000371950   0.0000524949  -0.0003131508
        0.0001721176  -0.0002694363  -0.0002511027  -0.0001458967   0.0014887986
        0.0002121743  -0.0015576658  -0.0002516696   0.0006174255   0.0003994863
       -0.0023967851  -0.0086176793  -0.0019147525  -0.0587998625   0.0510159300
       -0.0682853118   0.1196435952  -0.0094382602  -0.1600736204   0.0143066450
        0.0344154792  -0.0468877465   0.0000775791   0.0000033306  -0.0008745652
        0.0015210337   0.0005840479  -0.0043863859  -0.0012063325  -0.0015632103
        0.0010608268  -0.0003590813   0.0000358384  -0.0003572849  -0.0000015573
       -0.0000183985  -0.0000378677   0.0000173877  -0.0000145288  -0.0000609800
       -0.0000021931   0.0000313552   0.0000501577   0.0000026912   0.0000074556
        0.0000193414  -0.0000003827  -0.0000011619   0.0000003631  -0.0000054786
       -0.0000028518   0.0000041452  -0.0000040164  -0.0000020298   0.0000012795
       -0.0000041712   0.0000112096  -0.0000141217   0.0000260103   0.0000137144
        0.0000846728  -0.0000106251   0.0000150456  -0.0000044664  -0.0000061495
        0.0000146546  -0.0000573381   0.0000025550  -0.0000780290   0.0000394349
       -0.0000056332  -0.0000323341  -0.0000567542   0.0009489832  -0.0015516195
       -0.0008984816
       -0.0774463715  -0.0139218508  -0.0352287165   0.4546234852  -0.0204115347
        0.0000080821  -0.0774369323  -0.0139179142   0.0352216257  -0.1725494169
        0.0390788541   0.0000039153  -0.0082646029   0.0116319067   0.0000005722
        0.0010747426   0.0001443413  -0.0000000431  -0.0004760283   0.0008498373
       -0.0000000162  -0.0013072046  -0.0036803894  -0.0000001208  -0.0285343871
        0.0023804959   0.0000004154   0.0010234007   0.0033576501   0.0000001150
       -0.0001454366  -0.0000121774   0.0000000093   0.0001316232   0.0001411013
        0.0000630229   0.0000047042   0.0000023697   0.0000121755   0.0000293391
        0.0000201735  -0.0000000150   0.0000046982   0.0000023725  -0.0000121992
        0.0001316137   0.0001410979  -0.0000630388   0.0019394975  -0.0238058286
        0.0000000344  -0.0041657930  -0.0011479192  -0.0000000224   0.0006208734
       -0.0004144107  -0.0000000145  -0.0046575504   0.0018074069  -0.0000001139
        0.0005231588   0.0010569923   0.0000000901  -0.0000276828  -0.0004912646
       -0.0000000158   0.0001225453   0.0001879286   0.0000000519   0.0014968714
        0.0005557270   0.0000001547  -0.0010662802   0.0232903778  -0.0000002192
       -0.0644801456   0.0057652201  -0.0000001480  -0.0112094835  -0.0059196609
       -0.0190484063   0.0065729878   0.0063294073   0.0137660470  -0.0047963910
       -0.0055081916  -0.0087366891  -0.0112135848  -0.0059237329   0.0190579584
        0.0065705164   0.0063290920  -0.0137671385  -0.0047876373  -0.0055015781
        0.0087227607   0.0004409912  -0.0013747747  -0.0000000290  -0.0000659399
       -0.0002186324   0.0000000858   0.0002362092  -0.0001010818   0.0000000065
       -0.0008182349   0.0004560098  -0.0000000929  -0.0000317033  -0.0000342670
        0.0000082473   0.0000126876   0.0000055499   0.0000086387   0.0000073702
        0.0000025180  -0.0000000152   0.0000126744   0.0000055578  -0.0000086661
       -0.0000317168  -0.0000342575  -0.0000082731  -0.0001144466  -0.0012032272
       -0.0000000145  -0.0000074450   0.0000596725   0.0000000402  -0.0003029104
        0.0002784785   0.0000000218  -0.0000354634  -0.0000584852  -0.0000000068
       -0.0000024345  -0.0000991268   0.0000000369  -0.0016047666  -0.0000998331
       -0.0000000930
       -0.0120974011  -0.0716021187  -0.0270928021  -0.0204115347   0.4765671121
        0.0000041950  -0.0120949443  -0.0715993200   0.0270923865   0.0401943968
       -0.0796142898  -0.0000017638   0.0286987423  -0.0156710538  -0.0000009415
       -0.0009114250  -0.0053563697  -0.0000002873   0.0001690290   0.0008072127
       -0.0000000009  -0.0021954162  -0.0027922691  -0.0000001619  -0.0124502968
        0.0101697772   0.0000004872   0.0033988575  -0.0012897716   0.0000000362
        0.0000239779  -0.0001143421  -0.0000000177   0.0001394770   0.0000357093
        0.0000354581  -0.0000065880   0.0000030698   0.0000288878   0.0000425210
        0.0000318033  -0.0000000112  -0.0000065852   0.0000030682  -0.0000289014
        0.0001394748   0.0000357021  -0.0000354669  -0.0106000046  -0.0241109514
       -0.0000001064  -0.0027868958   0.0011605986  -0.0000001342   0.0007842808
       -0.0006170244  -0.0000000146   0.0016101534   0.0004559534  -0.0000001189
        0.0001150555  -0.0007504092   0.0000000255  -0.0001596794   0.0000655325
        0.0000000077   0.0002167008  -0.0003758631  -0.0000000327  -0.0019394574
        0.0004841815   0.0000001211   0.0096520150  -0.0187708194   0.0000000092
        0.0039899712  -0.1795432449   0.0000004661   0.0057693514   0.0047106849
        0.0128867473  -0.0006919466  -0.0005167773  -0.0027816569  -0.0122474796
       -0.0129792705  -0.0215118601   0.0057639899   0.0047074885  -0.0128796092
       -0.0006853918  -0.0005096397   0.0027644092  -0.0122463598  -0.0129848187
        0.0215203818   0.0006103032   0.0004745966   0.0000002132   0.0012704075
       -0.0007634831   0.0000000453  -0.0000271912   0.0000244090   0.0000000417
       -0.0009985283   0.0001976349   0.0000000520  -0.0000367516   0.0000026586
        0.0000242553   0.0000077712   0.0000107766   0.0000000600  -0.0000050992
        0.0000039381  -0.0000000104   0.0000077721   0.0000107630  -0.0000000766
       -0.0000367499   0.0000026466  -0.0000242626   0.0001705062  -0.0005629482
       -0.0000000463   0.0000154738   0.0002238732   0.0000000150   0.0000909052
        0.0000223961  -0.0000000045  -0.0000449524  -0.0000051363  -0.0000000512
       -0.0001418064  -0.0000003319   0.0000000458  -0.0000586483   0.0003186661
       -0.0000000080
       -0.0386351535  -0.0327358591  -0.1319163515   0.0000080821   0.0000041950
        0.4193155592   0.0386312684   0.0327374535  -0.1319230599   0.0000019946
       -0.0000014471  -0.0517118436  -0.0000007689   0.0000004870  -0.0012621702
        0.0000010260  -0.0000001223   0.0063341685  -0.0000002469  -0.0000008244
        0.0000119560  -0.0000005538   0.0000005446   0.0062103810   0.0000005382
       -0.0000003041   0.0015271300  -0.0000000791   0.0000002114  -0.0037118616
       -0.0000000435  -0.0000000317   0.0001319256  -0.0000664312  -0.0000571474
        0.0001023271   0.0000159973   0.0000002218  -0.0000150570   0.0000000062
        0.0000000040  -0.0000398948  -0.0000159972  -0.0000002178  -0.0000150687
        0.0000664220   0.0000571576   0.0001023371   0.0000001881   0.0000003701
        0.0018942561   0.0000003107  -0.0000006574   0.0076270954  -0.0000005917
        0.0000000477   0.0000132200   0.0000003623   0.0000001851   0.0046351796
       -0.0000002400   0.0000000579   0.0000494377   0.0000000855   0.0000002420
       -0.0003100350   0.0000001596  -0.0000003596  -0.0001399532  -0.0000002678
        0.0000001575  -0.0026319630   0.0000009663  -0.0000009765  -0.0009612681
       -0.0000008753  -0.0000011138  -0.0537398669  -0.0066469917  -0.0025549856
       -0.0085888721  -0.0073697059  -0.0091142154  -0.0232907957  -0.0007320541
       -0.0019323231  -0.0001690803   0.0066420638   0.0025529707  -0.0085810304
        0.0073677879   0.0091111919  -0.0232952327   0.0007328603   0.0019351933
       -0.0001743281   0.0000002344   0.0000000103  -0.0024978134   0.0000000208
       -0.0000000041   0.0001321192  -0.0000000146   0.0000000140  -0.0014745826
       -0.0000000302   0.0000000013  -0.0005417469  -0.0000211107  -0.0000168779
       -0.0000963218  -0.0000106639  -0.0000055189  -0.0000137771   0.0000000011
       -0.0000000000  -0.0000105721   0.0000106702   0.0000055222  -0.0000137768
        0.0000211165   0.0000168733  -0.0000963091  -0.0000000254  -0.0000000269
       -0.0005696281  -0.0000000400  -0.0000000021  -0.0016831829   0.0000000076
       -0.0000000190   0.0003940956   0.0000000093  -0.0000000001   0.0000189549
        0.0000000133  -0.0000000126   0.0002567399  -0.0000003068  -0.0000000649
        0.0007185604
        0.0052257475   0.0018861891  -0.0081676467  -0.0774369323  -0.0120949443
        0.0386312684   0.5111099002  -0.0163418138   0.0209158671  -0.0246471821
       -0.0056626747   0.0234730828  -0.0002952370  -0.0005191859   0.0014237100
       -0.0004270167  -0.0004848238  -0.0008301158  -0.0000743637   0.0003124686
       -0.0001091397  -0.0004326570  -0.0006193295  -0.0012134868  -0.0025438864
        0.0039805082   0.0010882318   0.0006866800  -0.0015984800  -0.0001503899
        0.0001406366   0.0001085667  -0.0000525756  -0.0000201492  -0.0000131214
        0.0000599994   0.0000056109   0.0000061181  -0.0000019183   0.0000072934
        0.0000037232  -0.0000185579   0.0000145114   0.0000079658  -0.0000078709
       -0.0000078604  -0.0000264600  -0.0000082195   0.0000669364   0.0003283978
        0.0004843329   0.0000840061  -0.0003420068  -0.0000530715  -0.0000613012
        0.0001238121  -0.0000275381   0.0000471140  -0.0000994352  -0.0002184181
        0.0000253475   0.0000022931   0.0000468053  -0.0000735756  -0.0000873105
        0.0000294255   0.0001142749   0.0003160354  -0.0001208775  -0.0005947491
        0.0000091386  -0.0005790594  -0.0011186146   0.0008813651  -0.0000143188
        0.0005906723  -0.0068274387   0.0027182620  -0.0000926773  -0.0001188508
       -0.0001469709  -0.0003756678  -0.0005186714  -0.0019258139   0.0007133761
        0.0003335292  -0.0007524801  -0.1708395440   0.1087195692   0.0583850123
       -0.1614951299   0.0090803260  -0.1191724128  -0.0766915949  -0.0820713295
       -0.0138037427  -0.0004278379  -0.0000882743   0.0007337437   0.0000284956
       -0.0000224838  -0.0000381387  -0.0000100149  -0.0000153331   0.0002196527
       -0.0002464633   0.0000743763   0.0002074985  -0.0000169400  -0.0000128824
       -0.0000148144  -0.0000156618  -0.0000090518  -0.0000105497  -0.0000071305
       -0.0000036080  -0.0000041719  -0.0000086532  -0.0000033293   0.0000002020
        0.0000004085   0.0000154661  -0.0000280851  -0.0000060914  -0.0000071141
        0.0000179146   0.0000132110   0.0000100769  -0.0000013212   0.0000154677
        0.0000051737   0.0000321613  -0.0000091300   0.0000590937  -0.0000100688
        0.0000291426  -0.0000211639  -0.0000300044  -0.0009427703   0.0013449240
       -0.0009553912
        0.0018862325   0.0014886714  -0.0048797063  -0.0139179142  -0.0715993200
        0.0327374535  -0.0163418138   0.5139528359   0.0337145338   0.0029003936
        0.0056839999  -0.0046399166   0.0016254128  -0.0012049979  -0.0005858535
       -0.0008907741   0.0004723530  -0.0001276881   0.0003504408   0.0001382523
       -0.0001126697   0.0001043594   0.0001584659   0.0003434505   0.0008285652
       -0.0019955512  -0.0000597755  -0.0015692867   0.0019906206   0.0001115510
        0.0000612467   0.0000380017  -0.0000868521  -0.0000144556   0.0000078012
       -0.0000030524  -0.0000011992  -0.0000001639   0.0000061351   0.0000016808
        0.0000031455  -0.0000034559  -0.0000076091  -0.0000054346  -0.0000038257
       -0.0000173121   0.0000135895   0.0000060499   0.0033518945  -0.0035185021
        0.0011003693  -0.0006344158  -0.0002650165  -0.0014792284   0.0000807788
       -0.0001176034  -0.0000174853  -0.0003594771   0.0001518841  -0.0005149989
        0.0001327756   0.0000789994  -0.0000646496  -0.0000556986  -0.0001871620
        0.0000670621  -0.0002643801   0.0002550161   0.0001896001   0.0005262580
       -0.0005277954   0.0005621787  -0.0008820192  -0.0000198572   0.0007511794
       -0.0132156096  -0.0202836027   0.0216129922   0.0001229658   0.0000247519
       -0.0001903530  -0.0005127185  -0.0004794726  -0.0018228627   0.0003833131
        0.0007049593  -0.0017917031   0.1088087067  -0.1348063442  -0.0504455954
        0.0080827643  -0.0453726942   0.0082994158  -0.0823540802  -0.2442027537
       -0.0332038859   0.0007906951  -0.0002774542  -0.0003681891   0.0000119447
       -0.0000328145   0.0000515002   0.0000461736   0.0000199441  -0.0000113446
        0.0001188148  -0.0000083900   0.0000328785   0.0000090873   0.0000002632
        0.0000152112  -0.0000060925  -0.0000079128  -0.0000038824  -0.0000055406
       -0.0000051447   0.0000015219  -0.0000031573  -0.0000033510   0.0000018420
        0.0000100542  -0.0000095657  -0.0000176585   0.0000003351  -0.0002589672
        0.0001253743   0.0000073500   0.0000253757   0.0002719924   0.0000094332
        0.0000325418  -0.0000739106   0.0000076987  -0.0000094186  -0.0000063986
        0.0000566926  -0.0000041273  -0.0000428894   0.0007374864  -0.0000380550
        0.0005555396
        0.0081612900   0.0048778061  -0.0253250456   0.0352216257   0.0270923865
       -0.1319230599   0.0209158671   0.0337145338   0.4478246206   0.0113870154
       -0.0002917037  -0.0060067138  -0.0001572955   0.0005969409  -0.0000851020
       -0.0000896135   0.0001057271   0.0002856827   0.0001004653   0.0002657115
        0.0000233820   0.0004381342  -0.0002888097   0.0003738539  -0.0007791991
       -0.0007047000  -0.0008023512  -0.0000683213   0.0002020251  -0.0001819275
        0.0000534007   0.0000387799   0.0001033226  -0.0000028170   0.0000098445
        0.0000090602   0.0000267743   0.0000187467   0.0000126610   0.0000027256
        0.0000011211  -0.0000040698  -0.0000036829  -0.0000011569   0.0000040800
       -0.0000421842  -0.0000263216  -0.0000350368  -0.0005458512  -0.0008390387
       -0.0008039359  -0.0001003413   0.0005715989   0.0000419607   0.0002598771
       -0.0000715720  -0.0000164072   0.0001561467  -0.0002366184   0.0002773178
       -0.0002152020   0.0000335095  -0.0000371611  -0.0000524575   0.0003131578
        0.0001721921   0.0002694546   0.0002509698  -0.0001457392  -0.0014885218
       -0.0002126760  -0.0015576095   0.0002519286  -0.0006173943   0.0003996083
        0.0023954698   0.0086189701  -0.0019138342  -0.0000782504  -0.0000038703
       -0.0008778712  -0.0015204610  -0.0005833731  -0.0043849177   0.0012073126
        0.0015635033   0.0010609067   0.0587672534  -0.0509282341  -0.0682386478
       -0.1196134691   0.0093254029  -0.1600833473  -0.0142590218  -0.0343670769
       -0.0468777301   0.0003591474  -0.0000358121  -0.0003574775   0.0000015540
        0.0000184025  -0.0000378011  -0.0000173992   0.0000145366  -0.0000609781
        0.0000021605  -0.0000313636   0.0000500307   0.0000041569  -0.0000112154
       -0.0000141890   0.0000040242   0.0000020429   0.0000012220   0.0000054771
        0.0000028511   0.0000040761   0.0000003659   0.0000011445   0.0000003116
       -0.0000026973  -0.0000074652   0.0000192940  -0.0000260201  -0.0000137473
        0.0000846102   0.0000106224  -0.0000150492  -0.0000044462   0.0000061530
       -0.0000146565  -0.0000573482  -0.0000025360   0.0000780207   0.0000394577
        0.0000057057   0.0000323277  -0.0000567478  -0.0009487663   0.0015517933
       -0.0008981553
       -0.0246466686   0.0029000365  -0.0113851313  -0.1725494169   0.0401943968
        0.0000019946  -0.0246471821   0.0029003936   0.0113870154   0.6114992296
        0.0248341988  -0.0000037176  -0.0955606305   0.0671307026   0.0000018204
        0.0119273312   0.0311362305   0.0000003553  -0.0053392766  -0.0231401968
       -0.0000003199  -0.0571082624   0.0113099333   0.0000005161  -0.2322507729
       -0.1367885063  -0.0000012647   0.0008098244  -0.0092676827  -0.0000005200
        0.0003256980   0.0011640669  -0.0000000063  -0.0001361753  -0.0000014851
        0.0000635056   0.0000720380  -0.0000257008  -0.0000490145   0.0000639076
        0.0000412706   0.0000000074   0.0000720031  -0.0000257098   0.0000490003
       -0.0001361683  -0.0000014727  -0.0000635486   0.0016800974  -0.0009520486
       -0.0000001335  -0.0002884667   0.0007053926   0.0000000915   0.0000807139
       -0.0000149374  -0.0000000049  -0.0001115898   0.0003698162   0.0000000519
        0.0000665763   0.0000140594  -0.0000000107  -0.0000743617   0.0002011408
        0.0000000032   0.0001038521  -0.0003055433  -0.0000000026  -0.0003230836
       -0.0000370899  -0.0000000480   0.0008553244  -0.0008421171   0.0000001986
       -0.0034381558   0.0096654239  -0.0000001291  -0.0020772087  -0.0005475457
       -0.0025720656   0.0002897843   0.0005849609   0.0007530730   0.0001963377
       -0.0004855872  -0.0000581071  -0.0020770810  -0.0005478763   0.0025739160
        0.0002905278   0.0005842290  -0.0007534777   0.0001979301  -0.0004845652
        0.0000560875   0.0011378644  -0.0238123284  -0.0000003188  -0.0047588148
        0.0027272542  -0.0000000748   0.0006167617  -0.0004055195   0.0000000357
       -0.0047396002   0.0019157235   0.0000001848   0.0000262570  -0.0000481768
       -0.0000813785  -0.0000239214  -0.0000131276  -0.0000050845   0.0000046184
        0.0000065654  -0.0000000083  -0.0000239288  -0.0000131340   0.0000050709
        0.0000262411  -0.0000481900   0.0000814015  -0.0000014059  -0.0002416262
       -0.0000000181  -0.0000037359  -0.0001086914  -0.0000000264   0.0000213266
       -0.0001017731   0.0000000052   0.0000804178  -0.0000373620   0.0000000279
        0.0001081842   0.0000177069  -0.0000000200  -0.0002369394  -0.0001055082
        0.0000000686
       -0.0056638444   0.0056834742   0.0002903839   0.0390788541  -0.0796142898
       -0.0000014471  -0.0056626747   0.0056839999  -0.0002917037   0.0248341988
        0.6514061966   0.0000128802  -0.0058794971  -0.3152778255  -0.0000045952
        0.0894868787  -0.0226809240  -0.0000010414  -0.0259644495  -0.0528117817
       -0.0000006537  -0.0366977303   0.0502047724   0.0000008317  -0.0674022861
       -0.1499978706  -0.0000012262  -0.0287780860  -0.0510076048  -0.0000009738
        0.0031827913  -0.0045269234  -0.0000001835  -0.0011793989  -0.0004771916
        0.0000947934  -0.0002689235   0.0003915541  -0.0001884333   0.0000396623
        0.0000136431   0.0000000116  -0.0002689475   0.0003915523   0.0001883806
       -0.0011793230  -0.0004770682  -0.0000948269  -0.0037205499   0.0051242316
        0.0000001541   0.0005814079  -0.0002273783   0.0000001057  -0.0002983658
        0.0005008136   0.0000000015   0.0014189887  -0.0004672655   0.0000000436
       -0.0001383787  -0.0001614267  -0.0000000206   0.0000165300   0.0001024246
       -0.0000000082  -0.0001068925  -0.0001060753   0.0000000069  -0.0004302313
       -0.0001942520  -0.0000000245  -0.0000854047  -0.0050670734  -0.0000001212
        0.0240444826  -0.0145641153  -0.0000009430  -0.0011112436  -0.0005054775
       -0.0015358436  -0.0001620906   0.0009938179  -0.0002862341  -0.0000359016
       -0.0001110314  -0.0000024346  -0.0011113443  -0.0005053912   0.0015368892
       -0.0001604699   0.0009931266   0.0002849266  -0.0000360118  -0.0001105617
        0.0000012546  -0.0013539264  -0.0214569648   0.0000000745   0.0021307997
        0.0001611424  -0.0000000615  -0.0006174941  -0.0004458215   0.0000001647
        0.0030015352  -0.0004275109  -0.0000001072   0.0001717811  -0.0001593586
       -0.0000182599  -0.0001200940  -0.0001063394  -0.0000605511   0.0000348966
       -0.0001296838  -0.0000000038  -0.0001200879  -0.0001063488   0.0000605448
        0.0001717826  -0.0001593680   0.0000182854   0.0000650472   0.0002819774
       -0.0000000079  -0.0000219269  -0.0000261271  -0.0000000367   0.0000937517
       -0.0001105752  -0.0000000034   0.0000567756  -0.0000048878  -0.0000000054
        0.0000763787   0.0000276741  -0.0000000041   0.0000890320   0.0000641126
        0.0000000226
       -0.0234708416   0.0046379163  -0.0060054625   0.0000039153  -0.0000017638
       -0.0517118436   0.0234730828  -0.0046399166  -0.0060067138  -0.0000037176
        0.0000128802   0.1505896636   0.0000008899  -0.0000062943  -0.0454836285
        0.0000003761  -0.0000004647   0.0000743038  -0.0000001475  -0.0000001147
       -0.0044528353  -0.0000000143   0.0000005762  -0.0011131668  -0.0000007055
       -0.0000006902  -0.0475653086  -0.0000004375  -0.0000013636   0.0023466852
        0.0000000352  -0.0000000851   0.0018627205   0.0002520362   0.0002790325
       -0.0000479924   0.0000777835   0.0000428130   0.0000471771   0.0000000070
        0.0000000059   0.0000852023  -0.0000778038  -0.0000428007   0.0000471708
       -0.0002520402  -0.0002790217  -0.0000480097  -0.0000000396  -0.0000000339
       -0.0002844813  -0.0000000283   0.0000000312  -0.0000715182   0.0000001004
        0.0000000441   0.0000122054  -0.0000001063  -0.0000000313   0.0000087935
        0.0000000641   0.0000000244  -0.0000670182  -0.0000000413  -0.0000000397
        0.0000061058  -0.0000000214   0.0000000221   0.0000139345   0.0000000169
        0.0000000193   0.0001000150   0.0000000841   0.0000000561   0.0007858836
       -0.0000001935  -0.0000002007   0.0000167864  -0.0031696216  -0.0011602229
       -0.0033240173  -0.0025142372   0.0006450891  -0.0006458269  -0.0003236317
       -0.0002073323  -0.0002320678   0.0031705826   0.0011611300  -0.0033257456
        0.0025126140  -0.0006452353  -0.0006451614   0.0003216234   0.0002067001
       -0.0002303378   0.0000001437  -0.0000005211   0.0008283744   0.0000000250
       -0.0000000850   0.0073462087  -0.0000000026  -0.0000000118   0.0001364087
        0.0000002456  -0.0000001098   0.0071183953   0.0000046311   0.0000226540
       -0.0000252493   0.0000388085   0.0000014113  -0.0000003102   0.0000000019
       -0.0000000023  -0.0000105639  -0.0000388109  -0.0000014113  -0.0000003101
       -0.0000046296  -0.0000226665  -0.0000252491   0.0000000027   0.0000000245
       -0.0000067929  -0.0000000045   0.0000000089  -0.0000047876  -0.0000000049
        0.0000000038   0.0000198513   0.0000000000   0.0000000003  -0.0000079432
       -0.0000000090   0.0000000021  -0.0000187759   0.0000000202  -0.0000000262
       -0.0000847682
       -0.0002950981   0.0016260933   0.0001569031  -0.0082646029   0.0286987423
       -0.0000007689  -0.0002952370   0.0016254128  -0.0001572955  -0.0955606305
       -0.0058794971   0.0000008899   0.6773014388   0.0005345912   0.0000021568
       -0.2980615862   0.1268717742   0.0000008846  -0.0673777914  -0.0446996925
       -0.0000006757  -0.0194361342   0.0327315273   0.0000005733   0.0393770486
       -0.0139692508  -0.0000000692  -0.0058586340  -0.0058433964  -0.0000000461
        0.0004342632  -0.0013617465  -0.0000000503  -0.0003341730  -0.0001436494
       -0.0000165410  -0.0001251895   0.0000725067  -0.0000022904   0.0000347021
        0.0000137881   0.0000000148  -0.0001252074   0.0000724959   0.0000022810
       -0.0003341513  -0.0001436133   0.0000165351  -0.0000783994   0.0002630020
        0.0000000190  -0.0001867711   0.0001987242  -0.0000000259   0.0002554326
       -0.0000101361   0.0000000011  -0.0005316803   0.0000658156  -0.0000000147
        0.0002006483   0.0000721618   0.0000000083  -0.0000288148  -0.0001513647
       -0.0000000030  -0.0000515714   0.0001482380   0.0000000219   0.0002122692
       -0.0000852016   0.0000000446  -0.0001156549   0.0014616675   0.0000000108
       -0.0059140670   0.0005518640   0.0000003961  -0.0003344697   0.0000077388
       -0.0001793114  -0.0002214383   0.0002388961  -0.0002315818  -0.0005850722
        0.0004353901  -0.0000819686  -0.0003339541   0.0000083580   0.0001794816
       -0.0002208590   0.0002380561   0.0002310854  -0.0005863992   0.0004363503
        0.0000832027  -0.2044014767  -0.1252836260  -0.0000041424  -0.0049938073
        0.0037966964   0.0000002449  -0.0036869947  -0.0032141230   0.0000000299
        0.0003700606   0.0006488278  -0.0000000380   0.0000737603  -0.0000381223
        0.0000397164  -0.0000203025  -0.0000228214  -0.0000325995  -0.0000113675
       -0.0000449009   0.0000000035  -0.0000202996  -0.0000228321   0.0000326068
        0.0000737628  -0.0000381349  -0.0000396964   0.0000292245   0.0000620541
        0.0000000079  -0.0000009709  -0.0000060931  -0.0000000066  -0.0000307459
        0.0000244086  -0.0000000112   0.0000159345  -0.0000082394   0.0000000014
       -0.0000015014   0.0000121136   0.0000000011   0.0000465080   0.0000491467
        0.0000000148
       -0.0005192780  -0.0012050399  -0.0005968802   0.0116319067  -0.0156710538
        0.0000004870  -0.0005191859  -0.0012049979   0.0005969409   0.0671307026