$hessian                                                                        
        0.4647595000   0.0241342028  -0.0195987170  -0.1610591983   0.0425913302
       -0.0268783072  -0.0162751562   0.0105730351   0.0010031571  -0.0005398084
        0.0031160671  -0.0044642486  -0.0005502326  -0.0009490835   0.0003336684
        0.0002113073   0.0000479675  -0.0000089448  -0.0000995284  -0.0000402905
        0.0000251626  -0.0000592996   0.0001839310  -0.0001238922   0.0001060470
       -0.0000877248   0.0008438468   0.0007047512   0.0001997598   0.0000025345
       -0.0001684926  -0.0000098642  -0.0000114897   0.0000340237  -0.0000389877
       -0.0000024465  -0.0000256350   0.0000268922  -0.0000023920   0.0000115584
        0.0000194721   0.0000035130  -0.0000278078   0.0000173455   0.0000011374
        0.0000025653   0.0000292500  -0.0000016102  -0.0000161106  -0.0000371027
        0.0000019676   0.0000078937   0.0000252324  -0.0000002200   0.0000002169
        0.0000005867   0.0000015360   0.0000004505   0.0000024135   0.0000028339
        0.0000007962  -0.0000005950  -0.0000009071  -0.0000004909   0.0000004773
        0.0000010129  -0.0000021342   0.0000011441   0.0000008744  -0.0000010228
       -0.0000003589  -0.0000027266   0.0000016307  -0.0000015165  -0.0000003395
       -0.0000005314   0.0000006589   0.0000011161   0.0000002110   0.0000023879
       -0.0000001204  -0.0000000849   0.0000020025  -0.0000002809  -0.0000014427
        0.0000004218  -0.0000005763  -0.0000018908   0.0000047584   0.0000003850
       -0.0000009203  -0.0000108118  -0.0000003011   0.0000084161   0.0000096254
        0.0000114369  -0.0000024337  -0.0000240272  -0.0000089514  -0.0000127731
        0.0000217749  -0.0000035388   0.0000118496  -0.0000300183   0.0000117577
        0.0000959282   0.0000969779  -0.0000323555  -0.0019509180  -0.0032446202
        0.0003256857  -0.0010087437   0.0001524215  -0.0008363727  -0.0001821861
        0.0000529126  -0.0001263564  -0.0000279509   0.0005023194  -0.0003722577
       -0.0000021088   0.0001108771  -0.0000520135  -0.0237940498   0.0033888078
       -0.0073366557  -0.0442661538  -0.0138125026   0.0225571731  -0.1419064210
       -0.1148442019  -0.0289035121  -0.0726304996   0.0483048971   0.0624647054
       -0.0009862285   0.0018013730   0.0019635921   0.0002246351  -0.0002011871
       -0.0008484380   0.0006691037  -0.0007603913  -0.0007022535   0.0002698618
       -0.0004436819   0.0010324190  -0.0000141534   0.0000079569   0.0000221412
        0.0000452538  -0.0000358244   0.0000227674   0.0000512046  -0.0000171241
        0.0000307234  -0.0000241528  -0.0000110764   0.0000130926  -0.0000123638
        0.0000026075  -0.0000022285  -0.0000052923   0.0000002648   0.0000014909
       -0.0000021913   0.0000015150   0.0000006387   0.0000036891  -0.0000008507
       -0.0000000905  -0.0000002184   0.0000005691   0.0000015694  -0.0000016906
        0.0000001874   0.0000007547  -0.0000009662   0.0000004286   0.0000002386
       -0.0000023146   0.0000016328  -0.0000006137   0.0000039103  -0.0000005644
        0.0000011006  -0.0000001208  -0.0000001192   0.0000008441  -0.0000002810
       -0.0000001371   0.0000001738   0.0000004907   0.0000001117   0.0000000319
       -0.0000023818   0.0000018699  -0.0000001968  -0.0000032911  -0.0000001756
       -0.0000011429  -0.0000027948  -0.0000010611  -0.0000022629   0.0000040384
        0.0000101391   0.0000001426   0.0000117729  -0.0000044485  -0.0000049787
       -0.0002223131  -0.0002285503  -0.0000173107  -0.0000512500   0.0000190393
        0.0000276453   0.0000143304   0.0000190530   0.0000007404  -0.0013094061
       -0.0006498008  -0.0003645608
        0.0241342028   0.5159901335   0.0114181318   0.0416637977  -0.0837982664
        0.0137529731   0.0190919768  -0.0105720603  -0.0003289638   0.0153300841
       -0.0083386309   0.0076682053  -0.0001918413  -0.0003526949  -0.0003587425
        0.0004839516   0.0003372158  -0.0000310684   0.0000519264  -0.0000529048
        0.0001167753   0.0008291344   0.0000502025   0.0005988170  -0.0012338406
       -0.0018243117   0.0027508100   0.0002218989   0.0006849641  -0.0003317077
        0.0000585935  -0.0001124566  -0.0000184893  -0.0000716292   0.0000273214
       -0.0000073565  -0.0000136682   0.0000156516  -0.0000014124   0.0000099613
        0.0000292927  -0.0000007434   0.0000022869  -0.0000027009   0.0000009285
        0.0000074513   0.0000130248   0.0000000328   0.0000298071  -0.0000237094
       -0.0000056691  -0.0000115283   0.0000197251   0.0000060038   0.0000187913
       -0.0000044028  -0.0000017933  -0.0000061298   0.0000021909  -0.0000000586
        0.0000024495  -0.0000013317  -0.0000021490   0.0000012547   0.0000002227
        0.0000010021   0.0000007584   0.0000004721   0.0000017962  -0.0000040476
       -0.0000013749  -0.0000020008  -0.0000009672   0.0000019601  -0.0000017030
       -0.0000014072   0.0000019409  -0.0000013253  -0.0000023508   0.0000004444
        0.0000000066   0.0000036412   0.0000002899   0.0000019256  -0.0000003928
       -0.0000031919  -0.0000015651   0.0000022820   0.0000077387   0.0000031254
        0.0000039139  -0.0000061645   0.0000053011  -0.0000041970   0.0000025512
        0.0000057192   0.0000032909  -0.0000204140  -0.0000067580  -0.0000228359
        0.0000294928   0.0000099976   0.0000704969  -0.0000749172  -0.0000063853
       -0.0000478119   0.0001180160   0.0000315213  -0.0024778016  -0.0033265691
       -0.0002657981  -0.0007364524   0.0001924718  -0.0006986968  -0.0001742158
       -0.0000078297  -0.0000823425  -0.0001791892   0.0006721474  -0.0003998358
       -0.0007632297  -0.0011505727   0.0003962445  -0.0163881242   0.0069761252
       -0.0048078722  -0.0135921247  -0.1129328742   0.1083199769  -0.1150966044
       -0.1747067729  -0.0350886635   0.0483423296  -0.1241664372  -0.1021194357
        0.0020745030  -0.0021947231  -0.0027706797  -0.0003461149   0.0004754192
        0.0007414928   0.0008929530   0.0003171614   0.0005058697   0.0003960542
       -0.0008633074   0.0016437658   0.0000044927   0.0000200812  -0.0000072105
        0.0000386006  -0.0000637416  -0.0000156786   0.0000362926  -0.0001840292
        0.0002059456   0.0000191232   0.0000746439   0.0000069485   0.0000042917
        0.0000132829   0.0000014666  -0.0000016068   0.0000073696  -0.0000003926
        0.0000006608   0.0000032659  -0.0000011351  -0.0000011075  -0.0000010663
       -0.0000008937  -0.0000008629   0.0000006275   0.0000009465  -0.0000003151
       -0.0000001345   0.0000003856   0.0000005589  -0.0000007691  -0.0000000578
       -0.0000012513   0.0000011736  -0.0000004786  -0.0000020465  -0.0000032237
        0.0000001621   0.0000010141  -0.0000007952   0.0000019249   0.0000019054
       -0.0000003326  -0.0000004001   0.0000012840  -0.0000005075   0.0000020902
       -0.0000009645   0.0000001607  -0.0000001300  -0.0000017410   0.0000007496
       -0.0000006050   0.0000006158  -0.0000001680  -0.0000000149   0.0000027201
        0.0000112718  -0.0000008907   0.0000072192  -0.0000104274  -0.0000082330
       -0.0001928231  -0.0002433898  -0.0000649155  -0.0001162606   0.0000179781
       -0.0000026059   0.0000245881   0.0000013508  -0.0000112009  -0.0021856747
       -0.0010709278  -0.0007442334
       -0.0195987170   0.0114181318   0.5257582636  -0.0281160337   0.0145549844
       -0.0697977309   0.0181270397  -0.0104178109   0.0012811450  -0.0206629924
        0.0126227473  -0.0105110522   0.0001352733   0.0004953111  -0.0008865751
       -0.0007255743  -0.0002542107   0.0001316270  -0.0003147730   0.0000394907
       -0.0000901091  -0.0009570262   0.0002238912  -0.0008528434   0.0011869881
        0.0032716828  -0.0032076982  -0.0000627293  -0.0002432039   0.0004133855
        0.0002082762  -0.0001878368  -0.0000652238  -0.0000190201   0.0000837673
        0.0000658248   0.0000607697  -0.0000057008  -0.0000072484  -0.0000815894
        0.0000112375   0.0000028262   0.0000584858  -0.0000041142  -0.0000021817
       -0.0000351012  -0.0000364508   0.0000004994   0.0000647404   0.0000471687
       -0.0000094179  -0.0000600819  -0.0000362012   0.0000068900   0.0000187507
       -0.0000091120  -0.0000060411  -0.0000049085   0.0000015611   0.0000020811
        0.0000039545  -0.0000008187  -0.0000015662  -0.0000018523   0.0000010731
        0.0000008330   0.0000023254  -0.0000018251  -0.0000009733  -0.0000047080
        0.0000000668   0.0000012808   0.0000016074   0.0000016875  -0.0000000963
        0.0000012134  -0.0000000445   0.0000011801  -0.0000001068  -0.0000001128
       -0.0000002562  -0.0000021408  -0.0000026917  -0.0000007014  -0.0000017701
       -0.0000006431   0.0000014276   0.0000024795   0.0000006323   0.0000016088
       -0.0000005615   0.0000058832   0.0000009749   0.0000006021  -0.0000034582
        0.0000013851   0.0000006515   0.0000153266   0.0000000840  -0.0000411605
       -0.0000014021   0.0000221652   0.0000478074  -0.0000168278  -0.0000211886
       -0.0001089255   0.0000030098   0.0000481514  -0.0008063722  -0.0004222303
        0.0005010680  -0.0003701514  -0.0001258883  -0.0000924347  -0.0000839657
        0.0001662574  -0.0000691124  -0.0000833544   0.0001358583   0.0000150771
       -0.0002428513  -0.0002673924  -0.0006947800  -0.0073778272  -0.0000477880
       -0.0016628926   0.0223186928   0.1079541593  -0.2121137185  -0.0285770440
       -0.0347941235  -0.0517400225   0.0625657769  -0.1021971359  -0.1737911826
        0.0025375922  -0.0031411706  -0.0028399264   0.0009048521  -0.0007784348
        0.0007547871   0.0007244873   0.0001366117   0.0004176730  -0.0006229196
        0.0011626244  -0.0010461930   0.0000035518  -0.0000238479   0.0000262139
       -0.0000571290   0.0000549450  -0.0000365243  -0.0000698502   0.0001945079
       -0.0003312252   0.0000315871  -0.0000347928  -0.0000468783  -0.0000044838
        0.0000105183  -0.0000024526  -0.0000018296   0.0000050923   0.0000000157
       -0.0000030673   0.0000017063  -0.0000003455  -0.0000009229   0.0000005872
       -0.0000020392  -0.0000016619   0.0000015048   0.0000011397  -0.0000016627
        0.0000009835  -0.0000000197  -0.0000015973   0.0000003243  -0.0000003445
       -0.0000011395   0.0000013933  -0.0000004556  -0.0000000431  -0.0000010751
        0.0000000573   0.0000011088  -0.0000003184  -0.0000007690  -0.0000004986
       -0.0000005981   0.0000006932   0.0000004406  -0.0000003565  -0.0000004609
       -0.0000009138   0.0000007410  -0.0000002239  -0.0000021742  -0.0000011526
       -0.0000006265  -0.0000016530  -0.0000030779  -0.0000010707   0.0000021833
       -0.0000003753   0.0000018114   0.0000024006   0.0000012825  -0.0000039956
       -0.0000458618  -0.0000461855  -0.0000423807  -0.0000037670  -0.0000122495
       -0.0000218259   0.0000125014   0.0000109798   0.0000116997   0.0001363742
        0.0004829284   0.0005309350
       -0.1610591983   0.0416637977  -0.0281160337   0.4926110173  -0.0086473921
        0.0314097337  -0.0706824891   0.0242280125   0.0296210572  -0.0647524112
       -0.0007400458   0.0012071625  -0.0009018503  -0.0131641817   0.0198641337
       -0.0039256024  -0.0011231803   0.0010841371  -0.0004240681  -0.0001670952
        0.0002635550  -0.0041569550   0.0012158602  -0.0026670119   0.0004783295
        0.0118142823  -0.0190125532   0.0023821495  -0.0022932656   0.0018204885
       -0.0009110858   0.0004653250  -0.0002988841   0.0002460680  -0.0004261276
        0.0000545674  -0.0002900955   0.0000072530   0.0000205432   0.0002971894
        0.0000175351  -0.0000162456  -0.0002250798   0.0000292894   0.0000149719
        0.0001174338   0.0001746572   0.0000020408  -0.0002123298  -0.0002299768
       -0.0000110826   0.0002203690   0.0001483250  -0.0000129405  -0.0000796795
        0.0000441123   0.0000235801   0.0000115557  -0.0000110771  -0.0000154707
       -0.0000115444   0.0000078915   0.0000120597   0.0000030878   0.0000014286
        0.0000023491  -0.0000118614   0.0000051642  -0.0000008474   0.0000192900
       -0.0000008600  -0.0000098273  -0.0000057812  -0.0000084841   0.0000003721
       -0.0000034251  -0.0000006255  -0.0000000250   0.0000014623   0.0000009110
        0.0000014674   0.0000055105   0.0000155016   0.0000021329   0.0000027952
        0.0000013884  -0.0000032686  -0.0000025182   0.0000039064  -0.0000010106
        0.0000065160  -0.0000296651   0.0000000183  -0.0000072551   0.0000211317
        0.0000100924   0.0000028732  -0.0000954328  -0.0000164796   0.0001090322
        0.0000139050   0.0000190656  -0.0000648866  -0.0000567646  -0.0000012599
        0.0003665379   0.0002007676   0.0000501710  -0.0257801227  -0.0134597031
       -0.0099854085  -0.0024299679   0.0012310997  -0.0043711970  -0.0005781237
        0.0000584542  -0.0001607760   0.0023075630   0.0008100163  -0.0025778383
        0.0015168795  -0.0057019557   0.0022058821  -0.1187015597  -0.0581460156
       -0.0198087983   0.0006771643   0.0016822905  -0.0023240169  -0.0235836475
        0.0050621258  -0.0071679259  -0.0130239416   0.0072139669  -0.0007561365
       -0.0110809431   0.0155675699   0.0187718303  -0.0011279152   0.0017721080
        0.0036603947   0.0047312773  -0.0103911311  -0.0134650684   0.0001573868
        0.0001768562  -0.0000397861  -0.0002172188  -0.0008183738   0.0010048095
       -0.0000405176   0.0000020299   0.0000232641  -0.0002668928   0.0007951533
       -0.0011397045   0.0000446153   0.0000562778  -0.0000324433   0.0000163828
       -0.0000205043  -0.0000148489   0.0000038507  -0.0000120195  -0.0000011546
        0.0000112304  -0.0000050688   0.0000022368   0.0000014974   0.0000013369
        0.0000087167   0.0000005235  -0.0000037112  -0.0000043943   0.0000076095
       -0.0000046077  -0.0000025251   0.0000080619   0.0000011278   0.0000032183
        0.0000024066  -0.0000030505  -0.0000001611   0.0000063748   0.0000029205
       -0.0000077359  -0.0000011465   0.0000043089   0.0000055876   0.0000003494
        0.0000025948  -0.0000019407  -0.0000008288   0.0000053302   0.0000025052
        0.0000019893  -0.0000005851  -0.0000009644   0.0000040883   0.0000053426
        0.0000048919   0.0000008689   0.0000106660   0.0000039559  -0.0000036667
        0.0000122954  -0.0000041675  -0.0000031296  -0.0000191643  -0.0000074507
       -0.0009461235  -0.0008011832  -0.0000750565  -0.0002154131   0.0002363464
        0.0005780858   0.0001585111   0.0003746506  -0.0001375783  -0.0008105724
        0.0012159340   0.0005109401
        0.0425913302  -0.0837982664   0.0145549844  -0.0086473921   0.4464711876
       -0.0251849377   0.0206979017  -0.0914645275  -0.0495253214  -0.0038385751
       -0.0933590279   0.0612250172  -0.0052900289  -0.0072873066   0.0110570830
       -0.0019991103   0.0053898728   0.0024813287   0.0007498088  -0.0002841943
        0.0002418131   0.0007305993   0.0035613927   0.0032041831   0.0072611114
       -0.0075320891   0.0116885302  -0.0012706981  -0.0021884363  -0.0002412868
        0.0004054352   0.0002356162   0.0001431468  -0.0000089161   0.0000936596
       -0.0001925954   0.0000824221  -0.0000051624  -0.0000116838  -0.0001301853
        0.0000118497   0.0000083488   0.0000867015   0.0000018127  -0.0000147970
       -0.0000534496  -0.0000596531  -0.0000018831   0.0000693457   0.0000727596
        0.0000000577  -0.0000815390  -0.0000447152   0.0000022455   0.0000285006
       -0.0000107725  -0.0000061505  -0.0000048564   0.0000064414   0.0000110303
        0.0000038506  -0.0000035961  -0.0000053121   0.0000030357  -0.0000023214
       -0.0000028400   0.0000046897   0.0000011449   0.0000040553  -0.0000095612
       -0.0000002025  -0.0000010940   0.0000082033  -0.0000022631   0.0000022108
       -0.0000003548  -0.0000009742  -0.0000000192   0.0000015723   0.0000018779
       -0.0000017616  -0.0000033406  -0.0000100441  -0.0000037005   0.0000050911
        0.0000019684   0.0000064552  -0.0000028819   0.0000075216  -0.0000005401
        0.0000057822  -0.0000111081  -0.0000009123   0.0000113462  -0.0000005888
        0.0000062292  -0.0000069509   0.0000187780  -0.0000039715  -0.0000640547
       -0.0000161658   0.0000007062   0.0000577136   0.0000225103   0.0000467100
       -0.0000850201  -0.0001058021  -0.0000285675  -0.0047825889   0.0056351185
       -0.0026969395   0.0023132305   0.0008541172   0.0016664801  -0.0003283560
       -0.0009593838   0.0000441295   0.0014581545  -0.0033333789   0.0026446636
       -0.0189791371  -0.0248712421  -0.0034447236  -0.0531963751  -0.1182520061
       -0.0114045932   0.0158625073  -0.0085126748   0.0072682972  -0.0188542544
        0.0074920169  -0.0059302625   0.0169788389  -0.0086405643   0.0029557547
        0.0062016044  -0.0085181731  -0.0089979395  -0.0037726495   0.0075970493
        0.0096402137   0.0050576486  -0.0156061407  -0.0188185725   0.0010158330
       -0.0013941109  -0.0013393996   0.0000718395  -0.0001318021   0.0003061219
        0.0000838743  -0.0009693790  -0.0007183043   0.0000229871  -0.0003767264
        0.0002366786   0.0000113782  -0.0000932874   0.0000474306  -0.0000072909
        0.0000086835   0.0000224973  -0.0000021880   0.0000006952   0.0000047255
       -0.0000001587  -0.0000005715   0.0000041627  -0.0000021476  -0.0000014196
       -0.0000043054  -0.0000007711   0.0000008503   0.0000018115  -0.0000040707
        0.0000016357   0.0000008396  -0.0000027354  -0.0000000895  -0.0000016051
       -0.0000003198   0.0000026549  -0.0000006944   0.0000019031  -0.0000008630
        0.0000025470   0.0000013702  -0.0000008356  -0.0000015200   0.0000010324
        0.0000010042   0.0000005859   0.0000012301  -0.0000010260  -0.0000018224
       -0.0000024307   0.0000026475  -0.0000005103  -0.0000044942  -0.0000024674
       -0.0000018434  -0.0000018649  -0.0000037466  -0.0000021656   0.0000003630
        0.0000056258   0.0000018175  -0.0000012348   0.0000027788  -0.0000045782
        0.0004357900   0.0002542536   0.0001934272   0.0001480105   0.0000169756
       -0.0001219870  -0.0009256782  -0.0008713633  -0.0001778483  -0.0001063760
        0.0009539693  -0.0008293304
       -0.0268783072   0.0137529731  -0.0697977309   0.0314097337  -0.0251849377
        0.4470550724   0.0223078927  -0.0451989801  -0.1192543472   0.0068615213
        0.0628211073  -0.1407397994   0.0067474436   0.0093734982  -0.0113909558
        0.0011090692   0.0029620006   0.0027030421   0.0006487145   0.0005349323
       -0.0008005594  -0.0023017383   0.0016734567   0.0021625068  -0.0096162417
        0.0117998780  -0.0177309920   0.0028477544  -0.0009051732  -0.0010733194
       -0.0000135067   0.0001576822   0.0002494200   0.0001476613  -0.0000737201
       -0.0000654842   0.0000479384  -0.0000288253   0.0000218862  -0.0000331432
       -0.0000159875  -0.0000013450   0.0000215810   0.0000200379  -0.0000058188
       -0.0000185124  -0.0000149075   0.0000011805  -0.0000324579   0.0000141839
        0.0000141050   0.0000190889  -0.0000037390  -0.0000140276  -0.0000155950
        0.0000095575   0.0000078364   0.0000045740  -0.0000002273   0.0000028330
        0.0000010951   0.0000008983   0.0000044202   0.0000013075  -0.0000008105
        0.0000009236  -0.0000032956   0.0000025314   0.0000021738   0.0000053948
        0.0000027618   0.0000023215   0.0000009705  -0.0000019260   0.0000005440
       -0.0000011109   0.0000019098   0.0000001544  -0.0000001572   0.0000017622
       -0.0000003548  -0.0000053853   0.0000011318  -0.0000038084   0.0000016638
        0.0000028213   0.0000003211  -0.0000037773   0.0000023961  -0.0000049711
       -0.0000046845  -0.0000029370  -0.0000074836   0.0000104685   0.0000054101
        0.0000052215   0.0000003025   0.0000026710   0.0000014563   0.0000336365
       -0.0000075977  -0.0000251973  -0.0000144075   0.0000132822   0.0000008235
        0.0002681324  -0.0002115816  -0.0000310580  -0.0101609895  -0.0081100790
       -0.0035660643  -0.0034263585   0.0024859363   0.0030250300   0.0001940189
       -0.0006038689   0.0000664031  -0.0031899584   0.0027602096   0.0050405150
        0.0055600292   0.0043521871   0.0027649682  -0.0224724224  -0.0158025000
       -0.0576724784  -0.0221031706   0.0116708101  -0.0098467312  -0.0063128629
        0.0009020039  -0.0019288854   0.0186125748  -0.0084176461   0.0047929370
        0.0000099525   0.0017649268   0.0032387304   0.0089033332  -0.0129392987
       -0.0249245996   0.0008563777  -0.0074776203  -0.0075930497  -0.0011209935
       -0.0014360891  -0.0005320838  -0.0001915468   0.0001153532  -0.0002388935
        0.0000192881  -0.0007044914  -0.0002438839   0.0000770035   0.0002690955
       -0.0003566785  -0.0000782286   0.0000038830   0.0000028543   0.0000058066
       -0.0000167898   0.0000165329  -0.0000000009  -0.0000092549   0.0000017251
        0.0000058433  -0.0000017834   0.0000049893  -0.0000013336  -0.0000027371
       -0.0000010479   0.0000014260  -0.0000033719  -0.0000000423   0.0000024270
       -0.0000014180   0.0000016491   0.0000018343   0.0000017136   0.0000027831
        0.0000015074   0.0000005284   0.0000022215   0.0000032575   0.0000017257
        0.0000004393  -0.0000010681   0.0000027006   0.0000002698  -0.0000003002
        0.0000023353  -0.0000011508  -0.0000011658   0.0000033927  -0.0000006179
        0.0000009731   0.0000022553   0.0000014079   0.0000000584   0.0000022655
        0.0000002463  -0.0000027377   0.0000009780  -0.0000024890   0.0000020454
        0.0000021738   0.0000000416   0.0000030086  -0.0000011149  -0.0000035054
       -0.0004222118  -0.0003480021  -0.0002088306   0.0005714105  -0.0001646936
       -0.0011123682   0.0002973838   0.0004743180   0.0000466678   0.0008021653
       -0.0002835663  -0.0020660009
       -0.0162751562   0.0190919768   0.0181270397  -0.0706824891   0.0206979017
        0.0223078927   0.5188443571   0.0122005464   0.0220066792  -0.0002023280
        0.0001719147   0.0072863418   0.0003798927  -0.0001651966   0.0001913783
       -0.0000838837  -0.0003172966  -0.0000580243   0.0000538669   0.0001067900
       -0.0000761807   0.0000731239  -0.0004443235   0.0000420883  -0.0009338257
        0.0004951499  -0.0010316126  -0.0001927500   0.0008758864  -0.0000218094
        0.0003194161  -0.0003175623  -0.0002209917  -0.0000072877  -0.0000281497
        0.0002142534  -0.0000001683   0.0000589352  -0.0000090828   0.0000231799
        0.0000384489  -0.0000089256  -0.0000050542   0.0000095949  -0.0000008875
        0.0000116498   0.0000395169   0.0000057657  -0.0000174358  -0.0000748219
       -0.0000200634   0.0000435372   0.0000579779   0.0000140083  -0.0000066655
        0.0000080614  -0.0000003317  -0.0000021574  -0.0000001999  -0.0000003175
       -0.0000027013   0.0000000387  -0.0000000772   0.0000045220  -0.0000006501
        0.0000003721  -0.0000019896   0.0000025168   0.0000027727  -0.0000024836
       -0.0000003135  -0.0000049608  -0.0000032888   0.0000003763  -0.0000014848
       -0.0000025936   0.0000018545  -0.0000028152  -0.0000005826   0.0000013694
        0.0000013034   0.0000069271   0.0000056281   0.0000030243   0.0000002541
       -0.0000013492  -0.0000039680   0.0000053706   0.0000077665   0.0000044831
        0.0000056547  -0.0000103524   0.0000044141  -0.0000043898   0.0000077855
        0.0000044984   0.0000019073  -0.0000493431  -0.0000182043  -0.0000087243
        0.0000430217   0.0000339622   0.0000944739  -0.0001598270  -0.0000558239
       -0.0002213503   0.0000965180   0.0001230974  -0.0008211146  -0.0018361483
       -0.0006801766   0.0003323974   0.0007393043   0.0004631339   0.0001765172
       -0.0004470045   0.0001846792  -0.0008270048  -0.0000602536   0.0007261528
       -0.0008003899  -0.0004770149  -0.0007625334   0.0039419487  -0.0114617944
       -0.0119503695   0.0005746111  -0.0003041038   0.0009008887   0.0005963388
        0.0008505881   0.0009205739  -0.0053513251   0.0031888231  -0.0002975564
       -0.2361574552   0.0854874096  -0.0473666627  -0.0458249821  -0.0126871283
        0.0165914148  -0.1472708015  -0.1155096794  -0.0271396149   0.0000030281
        0.0001670245   0.0000370302  -0.0000172815  -0.0000187400   0.0000301546
        0.0000099138   0.0000734497   0.0000498890   0.0000015011  -0.0000333429
       -0.0000093190   0.0000565889   0.0001466429  -0.0000747928  -0.0000020779
        0.0000079877  -0.0000103148  -0.0000028968   0.0000015533  -0.0000055771
        0.0000076161  -0.0000014802  -0.0000028653  -0.0000004582   0.0000011175
        0.0000021669  -0.0000008190  -0.0000004721  -0.0000003535   0.0000017024
       -0.0000026330  -0.0000016562   0.0000037336   0.0000007287   0.0000024914
        0.0000017054  -0.0000014324  -0.0000003100   0.0000007977  -0.0000026906
       -0.0000045770   0.0000017367   0.0000002082   0.0000058790   0.0000008779
       -0.0000007700  -0.0000007414   0.0000008230   0.0000004011   0.0000031243
        0.0000007146  -0.0000004929  -0.0000007216   0.0000008335   0.0000033986
        0.0000006042   0.0000013035   0.0000031222   0.0000018374   0.0000002698
        0.0000119073  -0.0000036751   0.0000025797  -0.0000114483  -0.0000042960
        0.0000599921  -0.0000699521  -0.0000723165   0.0000791627  -0.0000281504
       -0.0001265537  -0.0000689634  -0.0000655996   0.0000273071   0.0000780483
       -0.0001135261  -0.0002701578
        0.0105730351  -0.0105720603  -0.0104178109   0.0242280125  -0.0914645275
       -0.0451989801   0.0122005464   0.4916865418  -0.0413434163  -0.0037037821
        0.0079363958   0.0084653095  -0.0000535361  -0.0008559432   0.0012726777
        0.0001274704  -0.0007794233  -0.0003487770  -0.0004073210  -0.0000827943
        0.0000750871   0.0002677510   0.0001005448  -0.0008908396  -0.0007352740
       -0.0007848921   0.0018493905   0.0003603534   0.0006626145  -0.0013116553
        0.0001112126  -0.0002432370   0.0002048594  -0.0001262338  -0.0000733188
       -0.0000684729  -0.0000021658   0.0000497844   0.0000092929  -0.0000181732
       -0.0000112140   0.0000094899   0.0000134964   0.0000246544   0.0000011121
       -0.0000102381  -0.0000000900  -0.0000011201  -0.0000030879   0.0000010741
        0.0000070007  -0.0000041008   0.0000100337  -0.0000007897   0.0000021754
        0.0000020668   0.0000037880  -0.0000043470   0.0000013540   0.0000030081
        0.0000001836  -0.0000012867  -0.0000015119   0.0000011481  -0.0000003658
       -0.0000001939  -0.0000018182   0.0000027566   0.0000035202  -0.0000014838
        0.0000008714  -0.0000008102   0.0000005460  -0.0000008401  -0.0000019245
       -0.0000018124   0.0000005950  -0.0000006836  -0.0000006316   0.0000019094
       -0.0000000837  -0.0000015545   0.0000006302  -0.0000011390   0.0000005263
       -0.0000029192   0.0000001428  -0.0000014160   0.0000055631   0.0000008300
       -0.0000006341  -0.0000069236  -0.0000001260   0.0000037094   0.0000028373
        0.0000062214   0.0000015878  -0.0000150184  -0.0000050429  -0.0000057172
        0.0000109152  -0.0000161197   0.0000397126  -0.0000076100   0.0000183021
        0.0000968013   0.0000515246  -0.0000808827   0.0013071919  -0.0011619501
        0.0006348623  -0.0002115353   0.0004177343   0.0007412136   0.0002789777
       -0.0002938552   0.0001233450  -0.0011673014  -0.0003626714   0.0010286898
       -0.0010189054   0.0003054284  -0.0012258793  -0.0019085235  -0.0209262679
       -0.0193765505  -0.0001114310   0.0002050714  -0.0008610992  -0.0009549259
        0.0006016491  -0.0000122801   0.0028370186  -0.0011916429   0.0001526037
        0.0857309095  -0.0821127981   0.0221741814  -0.0127875906  -0.1203819683
        0.1125935356  -0.1150822712  -0.1709497196  -0.0279915727  -0.0000401438
        0.0002411620   0.0001797804  -0.0000497555  -0.0000671967   0.0000847948
       -0.0000008747   0.0001262069   0.0000865409   0.0000014138   0.0000265793
        0.0000491345   0.0000557703   0.0000494309   0.0000088614  -0.0000043481
        0.0000142742   0.0000072894  -0.0000053465   0.0000003912   0.0000022175
        0.0000033610   0.0000028649  -0.0000000992   0.0000013394  -0.0000010062
       -0.0000017237  -0.0000004589   0.0000007385   0.0000006708  -0.0000002498
        0.0000010800   0.0000007969   0.0000001797   0.0000002791  -0.0000006137
       -0.0000010342   0.0000012018  -0.0000003326   0.0000020977   0.0000000345
        0.0000014347  -0.0000003174   0.0000006717   0.0000003850   0.0000002095
        0.0000005780  -0.0000005477   0.0000003692   0.0000007381   0.0000003510
       -0.0000013006   0.0000008817  -0.0000002771  -0.0000021634   0.0000009332
       -0.0000008113  -0.0000015584   0.0000001438  -0.0000016404   0.0000032517
        0.0000056801   0.0000002605   0.0000067092  -0.0000024630  -0.0000032042
       -0.0000039125  -0.0000217811  -0.0000142055   0.0001124087  -0.0000218065
       -0.0002169857  -0.0001032399  -0.0000826743   0.0000350147   0.0001710392
       -0.0000761546  -0.0004377933
        0.0010031571  -0.0003289638   0.0012811450   0.0296210572  -0.0495253214
       -0.1192543472   0.0220066792  -0.0413434163   0.4637232117   0.0103155367
       -0.0054822659  -0.0315219027  -0.0016551414  -0.0005817895  -0.0009739608
       -0.0000580839   0.0019229079  -0.0002422818   0.0006638810   0.0000396079
       -0.0000391329  -0.0000882103   0.0003398172   0.0008682206   0.0014046303
       -0.0001010085  -0.0002284226  -0.0009792915  -0.0006754862  -0.0012108137
        0.0006921435  -0.0003461786   0.0000246296   0.0000736808   0.0000377841
        0.0000409520   0.0000824147   0.0000004559  -0.0000132808  -0.0000810201
       -0.0000017659   0.0000101567   0.0000130001   0.0000069656  -0.0000008046
       -0.0000178141  -0.0000012277   0.0000054455  -0.0000366442  -0.0000021377
       -0.0000095813   0.0000203874   0.0000139768   0.0000009075  -0.0000130013
        0.0000111033   0.0000037671  -0.0000037451  -0.0000010497   0.0000015819
       -0.0000029466   0.0000007916   0.0000021921   0.0000052886  -0.0000022871