$hessian                                                                        
        0.0612988239   0.0286723485  -0.0151533880  -0.0565762526  -0.0279276466
        0.0116676697   0.0086406106   0.0014106746   0.0039200552   0.0023874909
        0.0327073774  -0.0077877318  -0.0141012185  -0.0324681792   0.0076705917
       -0.0020357776   0.0005873015   0.0028697684  -0.0026503757   0.0002331091
       -0.0014624241   0.0026076453  -0.0007800737  -0.0005169181  -0.0018469242
        0.0004521930   0.0005752185   0.0005377728  -0.0006565412  -0.0004833097
       -0.0000366635   0.0002251355   0.0000424058  -0.0000431008  -0.0000286428
       -0.0000146821   0.0000476405   0.0000623085   0.0000291300  -0.0000149788
       -0.0000035183  -0.0000108984   0.0001900609   0.0000847608   0.0000419431
       -0.0000816669  -0.0003580658  -0.0000143270  -0.0001376232   0.0001651737
       -0.0000197202  -0.0001936779  -0.0001988690  -0.0000469040   0.0002584685
       -0.0000176366   0.0000573140  -0.0000276836   0.0002091755   0.0000031217
        0.0004617558  -0.0002007487   0.0000765310  -0.0004079419  -0.0002065743
       -0.0000934598   0.0001287939   0.0005034253   0.0000545602   0.0001491822
       -0.0001568808   0.0000210395   0.0001470493   0.0002064117   0.0000264666
       -0.0002653591  -0.0000251586  -0.0000541889   0.0000374411  -0.0002197868
       -0.0000064111  -0.0003371949   0.0001688384  -0.0000601299   0.0000743050
       -0.0000156011   0.0000084290  -0.0000373483  -0.0000472048  -0.0000009556
       -0.0003168804   0.0004620147   0.0002437273   0.0001582480  -0.0003937053
       -0.0001027686  -0.0001659958   0.0000743541  -0.0000250624   0.0000988774
       -0.0000564128  -0.0000379497  -0.0000369008   0.0000156925   0.0000048184
        0.0001294988  -0.0000890906  -0.0000309196  -0.0002881131  -0.0000802985
        0.0000624082   0.0000591160   0.0001844051   0.0000072773  -0.0002252798
        0.0000627756   0.0000613808   0.0001014087  -0.0002027271  -0.0000314803
        0.0001610910   0.0001232621  -0.0000255300   0.0000342799  -0.0004606432
       -0.0000554023  -0.0003339565   0.0002355575   0.0001006811   0.0004394609
        0.0001187463  -0.0000868452  -0.0000536353  -0.0001837045  -0.0000024095
        0.0002346960  -0.0000211650  -0.0000631542  -0.0001439042   0.0001984366
        0.0000525004  -0.0001317514  -0.0001221288   0.0000212878  -0.0000308663
        0.0003022474   0.0000174094   0.0001155695  -0.0000773454  -0.0000256223
       -0.0000670301   0.0001289576   0.0000896347   0.0006080695  -0.0011038238
       -0.0004060684  -0.0001968996   0.0010824203  -0.0005690827   0.0021241814
       -0.0022116583  -0.0008646713  -0.0000751801  -0.0001131725   0.0004074029
       -0.0003382696  -0.0000130591  -0.0003098141   0.0000189173   0.0000026317
       -0.0000076264  -0.0000133739  -0.0000131400  -0.0000046508   0.0000026670
        0.0000165533   0.0000007482   0.0000105769  -0.0000104623   0.0000005323
       -0.0000012051  -0.0000141061  -0.0000016550  -0.0000120071  -0.0000022904
       -0.0000017864  -0.0000104053  -0.0000055315  -0.0000017827  -0.0000085440
        0.0000112867   0.0000011261   0.0000012686   0.0000160928   0.0000081836
        0.0000083221   0.0000025184   0.0000056231  -0.0000220837   0.0000035608
       -0.0000007962   0.0000011375   0.0000243681  -0.0000029498  -0.0000029477
       -0.0000245872  -0.0000070723  -0.0000248834   0.0000053096  -0.0000040867
        0.0000090228  -0.0000022575  -0.0000064132  -0.0000020164  -0.0000174979
       -0.0000081705  -0.0000106094  -0.0000106732  -0.0000003647  -0.0000114807
        0.0000062103   0.0000027040  -0.0000125077   0.0000042718   0.0000027324
       -0.0000017499   0.0000151947   0.0000027843   0.0000097331   0.0000066055
       -0.0000005532  -0.0000051184  -0.0000200333   0.0000002371  -0.0000145345
        0.0000122661   0.0000099072   0.0000083401  -0.0000021257   0.0000098908
        0.0000503946  -0.0002412050   0.0002328957
        0.0286723485   0.2445114432  -0.0947903235  -0.0383832095  -0.1468478300
        0.0433723299   0.0018824258  -0.0053225230   0.0364532536   0.0297590455
       -0.0625911758   0.0070469929  -0.0229141144  -0.0294332007   0.0070133917
       -0.0003884160   0.0026268023   0.0046272804  -0.0052394335   0.0006440669
       -0.0014329284   0.0055655287  -0.0003286652  -0.0002978294  -0.0038721088
       -0.0002408050   0.0004647090   0.0009588589  -0.0003969831  -0.0005104646
       -0.0001401802   0.0002056519   0.0000189485  -0.0000774615   0.0000046992
        0.0000272409   0.0000412293   0.0000798733   0.0000391781  -0.0000580813
       -0.0000299851  -0.0000236061   0.0001634366   0.0000742874   0.0000318247
       -0.0000650483  -0.0002699114  -0.0000061158  -0.0001516357   0.0001362178
       -0.0000238912  -0.0001901242  -0.0001791185  -0.0000461498   0.0002311909
       -0.0000059346   0.0000521670  -0.0000155493   0.0002003302   0.0000040645
        0.0003896779  -0.0001635442   0.0000666225  -0.0003284370  -0.0001698736
       -0.0000759024   0.0001170165   0.0004204071   0.0000489264   0.0001501287
       -0.0001384061   0.0000216352   0.0001432720   0.0001808424   0.0000234145
       -0.0002462831  -0.0000374551  -0.0000539634   0.0000067312  -0.0002094037
       -0.0000157462  -0.0002526496   0.0001245711  -0.0000431115   0.0000799017
       -0.0000176466  -0.0000038678  -0.0000094050  -0.0000955999  -0.0000453753
       -0.0016950975  -0.0002163609  -0.0001494019   0.0005112173  -0.0006911888
       -0.0001632238  -0.0003698310   0.0001634646  -0.0000747772   0.0001757221
       -0.0001574359  -0.0000842335  -0.0001476519   0.0000809601   0.0000387351
        0.0000998550  -0.0000330120  -0.0000141445  -0.0001834945  -0.0000300894
        0.0000475015   0.0000242163   0.0001907584   0.0000161236  -0.0002024166
        0.0000730784   0.0000578785   0.0001043916  -0.0001763544  -0.0000318020
        0.0001712924   0.0001140310  -0.0000296205   0.0000265379  -0.0003992320
       -0.0000481747  -0.0002675228   0.0001996325   0.0000826669   0.0003734187
        0.0000922252  -0.0000756381  -0.0000352360  -0.0001791938  -0.0000058362
        0.0002395061  -0.0000296279  -0.0000660412  -0.0001574770   0.0001711860
        0.0000560366  -0.0001388336  -0.0000769218   0.0000273646  -0.0000394089
        0.0001490459   0.0000041738   0.0002424720  -0.0001134490  -0.0000150296
       -0.0001916531   0.0003242743   0.0001524187   0.0020376196  -0.0002050039
       -0.0000261890  -0.0015768255   0.0002827486  -0.0010433056   0.0054084518
       -0.0024699096  -0.0020497608   0.0002738796   0.0000907716   0.0007351953
       -0.0002773588   0.0000101362  -0.0003423934   0.0000323284  -0.0000076330
       -0.0000165925  -0.0000141770  -0.0000161824  -0.0000032307   0.0000101092
        0.0000162829   0.0000040362   0.0000158991  -0.0000116260   0.0000017119
        0.0000037057  -0.0000120022  -0.0000007221  -0.0000085353   0.0000002258
       -0.0000005582  -0.0000080373  -0.0000049809  -0.0000005570  -0.0000058963
        0.0000130124   0.0000023359   0.0000017765   0.0000221841   0.0000099560
        0.0000139374   0.0000008457   0.0000084613  -0.0000243492   0.0000050453
        0.0000023265   0.0000008323   0.0000339941   0.0000198078  -0.0000045485
       -0.0000484751  -0.0000193334  -0.0000280625   0.0000070734  -0.0000056724
        0.0000148540  -0.0000131176  -0.0000097152  -0.0000016847  -0.0000254373
       -0.0000093181  -0.0000075201  -0.0000155665  -0.0000023941  -0.0000070319
        0.0000060108   0.0000034526  -0.0000113608   0.0000007820   0.0000016291
       -0.0000013670   0.0000165409   0.0000031662   0.0000046113   0.0000231355
        0.0000013685  -0.0000199592  -0.0000456632   0.0000008555  -0.0000303080
        0.0000102439   0.0000257587   0.0000104989  -0.0000120958   0.0000529078
       -0.0001701431   0.0001617390   0.0009890929
       -0.0151533880  -0.0947903235   0.1057162422   0.0183727528   0.0468473923
       -0.0591735170   0.0032953642   0.0402203658  -0.0601884863  -0.0068369858
        0.0049986387   0.0082620561   0.0009012533   0.0024968824   0.0057105220
        0.0003616657  -0.0002306540  -0.0012427219   0.0005396131   0.0001062363
        0.0001704589  -0.0007588831   0.0000220510  -0.0000977406   0.0004747547
        0.0000432219   0.0000515171  -0.0000972585   0.0000702153   0.0000432613
       -0.0000194369  -0.0000412135  -0.0000031057   0.0000353299  -0.0000010779
       -0.0000178980  -0.0000128727  -0.0000185404  -0.0000034817   0.0000179399
        0.0000144698   0.0000072582  -0.0000585279  -0.0000120507   0.0000010368
        0.0000108134   0.0000593055   0.0000004277   0.0000394028  -0.0000283136
        0.0000080396   0.0000441671   0.0000374174   0.0000125696  -0.0000486571
        0.0000007792  -0.0000040189   0.0000033426  -0.0000453652  -0.0000016939
       -0.0000762094   0.0000333550  -0.0000157768   0.0000601082   0.0000413478
        0.0000154740  -0.0000281639  -0.0000889535  -0.0000088397  -0.0000282286
        0.0000218641  -0.0000024582  -0.0000295167  -0.0000338464  -0.0000045023
        0.0000547671   0.0000065700   0.0000107127  -0.0000031387   0.0000468448
        0.0000103037   0.0000648475  -0.0000375073   0.0000041247  -0.0000257731
       -0.0000062939   0.0000031476   0.0000100853   0.0000139832   0.0000088653
        0.0001588531  -0.0000108881  -0.0000379194  -0.0000521558   0.0000923739
        0.0000231121   0.0000444298  -0.0000342744   0.0000100391  -0.0000207226
        0.0000202024   0.0000141425   0.0000198024  -0.0000068707  -0.0000064163
       -0.0000028383   0.0000187068   0.0000148719   0.0000035699   0.0000015610
       -0.0000073725   0.0000010187  -0.0000204543  -0.0000011933   0.0000197871
       -0.0000083644  -0.0000055244  -0.0000076314   0.0000090092   0.0000085362
       -0.0000153019  -0.0000079794   0.0000019543  -0.0000011349   0.0000228316
       -0.0000012366   0.0000319701  -0.0000019202  -0.0000062460  -0.0000409261
       -0.0000115884   0.0000088549   0.0000027871   0.0000121627   0.0000009955
       -0.0000202233   0.0000042123   0.0000074961   0.0000106067  -0.0000125104
       -0.0000027002   0.0000128122   0.0000027280   0.0000085966  -0.0000017826
       -0.0000270546  -0.0000081818  -0.0000319551   0.0000133740   0.0000033083
        0.0000140050  -0.0000413739  -0.0000289591  -0.0002052512   0.0000147405
        0.0001103685  -0.0000171341   0.0002154681  -0.0001688780  -0.0008257277
       -0.0001205115   0.0009264125  -0.0001445228   0.0000951798   0.0000031963
        0.0000824711   0.0000326295   0.0001111240  -0.0000046960   0.0000092769
        0.0000079353   0.0000122592   0.0000065208   0.0000012494  -0.0000025443
       -0.0000027522  -0.0000038600  -0.0000043223   0.0000033182  -0.0000020421
       -0.0000016037   0.0000006191  -0.0000001526  -0.0000008992  -0.0000005989
        0.0000006356   0.0000006851   0.0000012827  -0.0000012527   0.0000004061
       -0.0000015855  -0.0000012699  -0.0000009524  -0.0000029720  -0.0000013678
       -0.0000024944   0.0000010058  -0.0000039637   0.0000035117  -0.0000010227
       -0.0000027057  -0.0000059411  -0.0000062208  -0.0000112180   0.0000099236
        0.0000147508   0.0000085652   0.0000064513   0.0000016410   0.0000015756
       -0.0000003967   0.0000046703  -0.0000000833  -0.0000023288   0.0000037329
       -0.0000013763   0.0000002640   0.0000024136  -0.0000010975   0.0000006176
        0.0000012394  -0.0000002296  -0.0000000080   0.0000021941  -0.0000027766
       -0.0000001418   0.0000011954  -0.0000022884   0.0000011663   0.0000001834
       -0.0000050777   0.0000030698   0.0000056887  -0.0000088751  -0.0000046718
        0.0000054925  -0.0000022640  -0.0000102620  -0.0000023064  -0.0000145724
       -0.0001210649  -0.0000459571  -0.0002036451
       -0.0565762526  -0.0383832095   0.0183727528   0.4728157443   0.0187549644
        0.0152784344  -0.0549751736  -0.0061365321  -0.0395156858  -0.1685920352
        0.0782969863   0.0360075273  -0.1474011528  -0.0444469913  -0.0251844588
       -0.0117939414  -0.0184270998  -0.0109676676   0.0112631864  -0.0013150833
       -0.0010720830  -0.0113874764   0.0017778987   0.0016555220   0.0081730692
       -0.0007827798  -0.0010408175  -0.0016357431   0.0019800860   0.0017308702
       -0.0000920589  -0.0009760430  -0.0001835735   0.0002983612   0.0001704196
        0.0000415112  -0.0003033611  -0.0002513535  -0.0000990486   0.0002150601
        0.0000835991   0.0000704112  -0.0006509680  -0.0002655471  -0.0001282478
        0.0002780035   0.0011038669   0.0000533234   0.0005327418  -0.0005613501
        0.0000802227   0.0007224799   0.0006958279   0.0001745229  -0.0009541688
        0.0000394384  -0.0002129726   0.0000672070  -0.0007833653  -0.0000198071
       -0.0016028127   0.0006749039  -0.0002676273   0.0013844011   0.0007072492
        0.0003155632  -0.0004570446  -0.0017387028  -0.0001944650  -0.0005880892
        0.0005662653  -0.0000837914  -0.0005540339  -0.0007229322  -0.0000988846
        0.0009512077   0.0001243661   0.0001984969  -0.0000815036   0.0008177240
        0.0000368558   0.0010842235  -0.0005127065   0.0001810134  -0.0003895361
       -0.0000387854  -0.0000596682   0.0002794841   0.0002534657  -0.0000152690
        0.0022703895  -0.0009874271  -0.0005019431  -0.0009004351   0.0017016482
        0.0003924024   0.0007710787  -0.0003685675   0.0001187671  -0.0004663516
        0.0003083381   0.0001823839   0.0002360644  -0.0001300266  -0.0000595738
       -0.0003718213   0.0002599990   0.0000754379   0.0008561592   0.0002041546
       -0.0002030151  -0.0001614515  -0.0006851061  -0.0000476643   0.0007947006
       -0.0002562864  -0.0002261925  -0.0003860010   0.0007216643   0.0001138761
       -0.0006181570  -0.0004407494   0.0000999495  -0.0001134029   0.0015993591
        0.0001931252   0.0011615398  -0.0007947811  -0.0003461945  -0.0015362242
       -0.0004171028   0.0003061578   0.0001782955   0.0006930030   0.0000100539
       -0.0008473849   0.0000929530   0.0002313123   0.0005340020  -0.0006908713
       -0.0001916518   0.0005045378   0.0003927150  -0.0000898065   0.0001325715
       -0.0008953775  -0.0000324526  -0.0005463266   0.0003465408   0.0000912814
        0.0003581872  -0.0006533596  -0.0004023331  -0.0029613228   0.0025450568
        0.0008930155  -0.0004074784   0.0012140575   0.0008099386  -0.0403257898
        0.0035810288   0.0022659651   0.0004198806   0.0017395990   0.0011131821
        0.0004996518   0.0003771749   0.0001060054  -0.0000622636   0.0000029291
        0.0000945875   0.0000630584   0.0000519648   0.0000276524  -0.0000085178
       -0.0000731392  -0.0000061024  -0.0000407055   0.0000484703  -0.0000030912
       -0.0000004613   0.0000517650   0.0000047502   0.0000407364   0.0000062482
        0.0000050065   0.0000395333   0.0000194348   0.0000047554   0.0000269915
       -0.0000475286  -0.0000070551  -0.0000042259  -0.0000718688  -0.0000336267
       -0.0000370953  -0.0000229775  -0.0000238665   0.0000906301  -0.0000170408
       -0.0000023001   0.0000061755  -0.0001193498  -0.0000380693   0.0000316795
        0.0001114654   0.0000685116   0.0000939272  -0.0000224362   0.0000213829
       -0.0000397522   0.0000166000   0.0000286523   0.0000106313   0.0000744618
        0.0000329107   0.0000356014   0.0000458794   0.0000030614   0.0000406959
       -0.0000215226  -0.0000102581   0.0000476191  -0.0000146654  -0.0000087031
        0.0000034185  -0.0000547430  -0.0000076785  -0.0000363662  -0.0000355172
        0.0000019249   0.0000157475   0.0000798185   0.0000023030   0.0000596426
       -0.0000417485  -0.0000399182  -0.0000428392  -0.0000300837  -0.0001037636
        0.0005614094  -0.0000986328   0.0000339480
       -0.0279276466  -0.1468478300   0.0468473923   0.0187549644   0.3634914363
        0.0245657926  -0.0052338707  -0.0465672994  -0.0294753960   0.0569206358
       -0.0864083632  -0.0201907316  -0.0295143136  -0.0706235622  -0.0110254470
       -0.0252616661  -0.0182326985  -0.0107857369   0.0075953234  -0.0034275458
       -0.0054307388  -0.0079223485   0.0005075440   0.0004497080   0.0059148447
       -0.0005393679  -0.0000917105  -0.0012907985   0.0008489741   0.0009511386
        0.0000862175  -0.0004323429  -0.0001266486   0.0001409396   0.0000110922
        0.0000192201  -0.0001378235  -0.0000978787  -0.0000288571   0.0001085532
        0.0000479771   0.0000326961  -0.0002404040  -0.0001494880  -0.0000434520
        0.0001157356   0.0004651950   0.0000274613   0.0002107554  -0.0002129706
        0.0000347382   0.0002711584   0.0002711885   0.0000654178  -0.0003519747
        0.0000107617  -0.0000777191   0.0000296984  -0.0003006257  -0.0000088896
       -0.0006402845   0.0002731459  -0.0001043477   0.0005563714   0.0002260385
        0.0001240510  -0.0001729098  -0.0006447944  -0.0000756945  -0.0002261543
        0.0002184236  -0.0000303318  -0.0002195625  -0.0002856398  -0.0000386528
        0.0003759258   0.0000585458   0.0000836271  -0.0000190953   0.0003112867
        0.0000226878   0.0003884366  -0.0001729224   0.0000541573  -0.0001672946
       -0.0000422385  -0.0000446957   0.0001123714   0.0001502176   0.0000175198
        0.0028296149   0.0000419575   0.0001379746  -0.0008219373   0.0012824823
        0.0002632261   0.0006205153  -0.0002875178   0.0001328304  -0.0003191444
        0.0002444945   0.0001668809   0.0001754622  -0.0000857692  -0.0000489485
       -0.0002275908   0.0000566825   0.0000345282   0.0004989280   0.0001186989
       -0.0001308840  -0.0000917572  -0.0003677841  -0.0000197443   0.0004104978
       -0.0001272505  -0.0001129886  -0.0001993506   0.0003765812   0.0000588771
       -0.0003310476  -0.0002403797   0.0000543029  -0.0000491048   0.0008912434
        0.0001053778   0.0005602006  -0.0004732760  -0.0001805071  -0.0007839812
       -0.0002124958   0.0001558407   0.0000839968   0.0003566911   0.0000046040
       -0.0004896252   0.0000427199   0.0001298257   0.0003073627  -0.0003610403
       -0.0001127337   0.0002663502   0.0001889136  -0.0000555453   0.0000802288
       -0.0003960675  -0.0000005285  -0.0004265069   0.0002151439   0.0000238961
        0.0003074836  -0.0005695241  -0.0002715912  -0.0023236215   0.0008263103
        0.0003571004   0.0053219419   0.0004716326  -0.0032365528   0.0014302634
        0.0082929170   0.0066963719  -0.0002644446  -0.0010773268   0.0004842348
       -0.0008544783  -0.0003362480  -0.0004890857  -0.0000268269   0.0000186280
        0.0000381355   0.0000201873   0.0000326208   0.0000086252  -0.0000104201
       -0.0000181822  -0.0000046587  -0.0000165527   0.0000140203  -0.0000019302
       -0.0000000421   0.0000191174   0.0000013788   0.0000210967   0.0000033195
        0.0000024574   0.0000145623   0.0000072063   0.0000008216   0.0000126545
       -0.0000208232  -0.0000036375  -0.0000019998  -0.0000345066  -0.0000162333
       -0.0000234563  -0.0000032202  -0.0000136858   0.0000411943  -0.0000005088
       -0.0000053756  -0.0000010046  -0.0000427115  -0.0000235688   0.0000113401
        0.0000821644   0.0000226112   0.0000554200  -0.0000119223   0.0000076382
       -0.0000265747   0.0000173261   0.0000141725   0.0000019946   0.0000380676
        0.0000142507   0.0000147938   0.0000214364  -0.0000006753   0.0000244804
       -0.0000105750  -0.0000071039   0.0000156655  -0.0000053219  -0.0000042228
        0.0000058685  -0.0000294203  -0.0000062521  -0.0000154668  -0.0000444043
        0.0000013182   0.0000376373   0.0000806157   0.0000020142   0.0000617038
       -0.0000192405  -0.0000451539  -0.0000036004   0.0000385216  -0.0000714304
        0.0018213051  -0.0009102553   0.0002271844
        0.0116676697   0.0433723299  -0.0591735170   0.0152784344   0.0245657926
        0.3407465667  -0.0252049095  -0.0258301284  -0.1679391011   0.0248521529
       -0.0192982812  -0.0541012901  -0.0190439699  -0.0122252046  -0.0583513684
       -0.0144022063  -0.0108083295  -0.0048753476   0.0037280582  -0.0052027932
        0.0021890067  -0.0039537285  -0.0000344120   0.0006999500   0.0028657644
        0.0003953405  -0.0012681982  -0.0005962340   0.0003526414   0.0005143172
        0.0000884299  -0.0002875764   0.0000020762   0.0000386039   0.0000584587
        0.0000026827  -0.0000631122  -0.0000835915  -0.0000309075   0.0000219962
       -0.0000055521   0.0000131809  -0.0001162873  -0.0000496474  -0.0000685985
        0.0000622278   0.0002521220   0.0000144063   0.0001334082  -0.0001283324
        0.0000037506   0.0001789318   0.0001639785   0.0000378632  -0.0002315152
        0.0000124214  -0.0000480083   0.0000189695  -0.0001875371  -0.0000096806
       -0.0003874002   0.0001681889  -0.0000559141   0.0003333866   0.0001636317
        0.0000701295  -0.0001067826  -0.0004155125  -0.0000332118  -0.0001387893
        0.0001343688  -0.0000299298  -0.0001302213  -0.0001700118  -0.0000255957
        0.0002299090   0.0000325458   0.0000405935  -0.0000129496   0.0001975821
        0.0000004423   0.0002422878  -0.0001180007   0.0000738515  -0.0000802906
        0.0000251426  -0.0000169929   0.0000228088   0.0001101273   0.0000296486
        0.0012617029   0.0000433369   0.0001239881  -0.0002933614   0.0004997525
        0.0001420559   0.0002488641  -0.0000926856   0.0000088527  -0.0001459073
        0.0001229633   0.0000428494   0.0000780301  -0.0000637000  -0.0000329693
       -0.0001717707   0.0000926820  -0.0000285603   0.0002842057   0.0000732412
       -0.0000333846  -0.0000560536  -0.0002042770  -0.0000339645   0.0002325646
       -0.0000708857  -0.0000730780  -0.0001146837   0.0002108017   0.0000331847
       -0.0001784955  -0.0001229997   0.0000166894  -0.0000371045   0.0004713609
        0.0000677135   0.0003232068  -0.0002389030  -0.0001114948  -0.0004390379
       -0.0001193661   0.0001008777   0.0000473145   0.0002015913  -0.0000068901
       -0.0002518565   0.0000278231   0.0000592491   0.0001542108  -0.0002029475
       -0.0000740719   0.0001525502   0.0001177573  -0.0000583141   0.0000428889
       -0.0002773375   0.0000036639  -0.0001829929   0.0000965787   0.0000126214
        0.0001831939  -0.0001872222  -0.0000586813  -0.0006889248   0.0005688697
       -0.0003205400   0.0025275131  -0.0032769500   0.0044261478   0.0012470920
        0.0070606847  -0.0001772929  -0.0001925316   0.0004983384  -0.0016155927
       -0.0005168154  -0.0003978772   0.0000509216  -0.0000281322  -0.0000127141
        0.0000305113   0.0000134919  -0.0000002665   0.0000103319  -0.0000006039
       -0.0000226226   0.0000155364  -0.0000101905   0.0000138521   0.0000100796
        0.0000010088   0.0000112923   0.0000081290   0.0000087821  -0.0000007965
        0.0000077591   0.0000094717   0.0000030168   0.0000043538   0.0000058560
       -0.0000140548  -0.0000001573  -0.0000040514  -0.0000210167  -0.0000034466
       -0.0000117984  -0.0000079497   0.0000037861   0.0000395295  -0.0000042861
        0.0000020846   0.0000202471  -0.0000467354  -0.0000023160  -0.0000137330
        0.0000192185   0.0000205941   0.0000169863  -0.0000122200   0.0000081569
       -0.0000104602   0.0000056056   0.0000216841   0.0000016177   0.0000209607
        0.0000107159   0.0000099954   0.0000114149   0.0000018674   0.0000096706
       -0.0000066525   0.0000005222   0.0000089661  -0.0000033483  -0.0000007031
       -0.0000031763  -0.0000144319   0.0000015213  -0.0000136905  -0.0000149340
        0.0000122682   0.0000042001   0.0000228984   0.0000247547   0.0000477833
       -0.0000345838  -0.0000127512   0.0000272977  -0.0000154101  -0.0000094418
        0.0010624876   0.0001333723  -0.0010406256
        0.0086406106   0.0018824258   0.0032953642  -0.0549751736  -0.0052338707
       -0.0252049095   0.0597901533   0.0030164876   0.0226360050   0.0002503947
        0.0137248118   0.0324347052  -0.0112967714  -0.0115529540  -0.0307348740
       -0.0028129287   0.0020997109  -0.0012191640  -0.0020140480  -0.0012975509
        0.0007840460   0.0020986952  -0.0007112582  -0.0005563836  -0.0014382689
        0.0005931384   0.0002358026   0.0003537724  -0.0005922529  -0.0004529829
        0.0000266877   0.0002223422   0.0000615393  -0.0000547076  -0.0000418316
       -0.0000389156   0.0000616638   0.0000481116   0.0000214155  -0.0000341268
       -0.0000108261  -0.0000093211   0.0001858663   0.0000790390   0.0000392221
       -0.0000744016  -0.0003237837  -0.0000227195  -0.0001248010   0.0001502200
       -0.0000161213  -0.0001768049  -0.0001800661  -0.0000419401   0.0002364938
       -0.0000169540   0.0000511656  -0.0000262938   0.0001906665   0.0000053659
        0.0004204451  -0.0001803102   0.0000674925  -0.0003698763  -0.0001906723
       -0.0000834479   0.0001191203   0.0004578653   0.0000489491   0.0001350805
       -0.0001433057   0.0000195060   0.0001328428   0.0001872240   0.0000248310
       -0.0002406538  -0.0000226454  -0.0000477294   0.0000351180  -0.0001997200
       -0.0000045534  -0.0003095764   0.0001521734  -0.0000495628   0.0000796239
        0.0000086278   0.0000155632  -0.0000753306  -0.0000414609   0.0000238606
       -0.0001222492   0.0005071974   0.0002710189   0.0001208297  -0.0003451179
       -0.0000802629  -0.0001323306   0.0000658099  -0.0000209127   0.0000854798
       -0.0000388628  -0.0000306028  -0.0000264591   0.0000110860   0.0000037703
        0.0001023745  -0.0000709182  -0.0000233586  -0.0002454656  -0.0000667087
        0.0000562011   0.0000531565   0.0001623526   0.0000080521  -0.0001988582
        0.0000567081   0.0000554100   0.0000898534  -0.0001802563  -0.0000276053
        0.0001435470   0.0001101186  -0.0000220897   0.0000298910  -0.0004069448
       -0.0000488085  -0.0002946765   0.0002084917   0.0000901426   0.0003861413
        0.0001053985  -0.0000777798  -0.0000483402  -0.0001655316  -0.0000006812
        0.0002077484  -0.0000183951  -0.0000557091  -0.0001286433   0.0001742889
        0.0000474762  -0.0001163543  -0.0001073508   0.0000193126  -0.0000295221
        0.0002556185   0.0000106019   0.0000951262  -0.0000716771  -0.0000273090
       -0.0000489983   0.0001098403   0.0000824538   0.0003600617  -0.0010141079
       -0.0004889913   0.0001378324   0.0001904447   0.0009559842   0.0016736429
       -0.0015674335  -0.0015089867  -0.0000941073   0.0002979560  -0.0002411689
       -0.0003754872  -0.0003168248   0.0001725375   0.0000152037   0.0000046165
       -0.0000103963  -0.0000120291  -0.0000121846  -0.0000056791   0.0000025347
        0.0000165469  -0.0000007568   0.0000099587  -0.0000097053  -0.0000001616
       -0.0000009381  -0.0000127039  -0.0000023374  -0.0000099651  -0.0000021479
       -0.0000021875  -0.0000097099  -0.0000049660  -0.0000014144  -0.0000078244
        0.0000099739   0.0000012294   0.0000013456   0.0000142191   0.0000068751
        0.0000078971   0.0000024279   0.0000043263  -0.0000202982   0.0000028410
       -0.0000001100   0.0000036504   0.0000208569  -0.0000041724  -0.0000042160
       -0.0000231975  -0.0000086885  -0.0000230740   0.0000042739  -0.0000046799
        0.0000081041  -0.0000017075  -0.0000064020  -0.0000014768  -0.0000157866
       -0.0000070424  -0.0000099374  -0.0000096337   0.0000002406  -0.0000102902
        0.0000053903   0.0000026784  -0.0000111217   0.0000041570   0.0000027166
       -0.0000013126   0.0000139115   0.0000023303   0.0000087114   0.0000067481
       -0.0000006699  -0.0000047742  -0.0000181872   0.0000004354  -0.0000128757
        0.0000103742   0.0000083435   0.0000129251  -0.0000028877   0.0000055038
       -0.0000974852   0.0000382072  -0.0003808846
        0.0014106746  -0.0053225230   0.0402203658  -0.0061365321  -0.0465672994
       -0.0258301284   0.0030164876   0.0635718878   0.0359444792   0.0128276324
       -0.0106278073  -0.0326070679  -0.0112134321  -0.0012934667  -0.0175593683
       -0.0002381090   0.0021346151   0.0000244457  -0.0025024574  -0.0004614130
        0.0007521460   0.0024023183  -0.0003974075  -0.0003382330  -0.0018277318
        0.0004034766   0.0002007365   0.0005779588  -0.0004169917  -0.0003960836
       -0.0000861788   0.0001074930   0.0000349301  -0.0000126552   0.0000239745
        0.0000104725   0.0000180200   0.0000275630   0.0000135598  -0.0000024714
       -0.0000002600  -0.0000037164   0.0001046361   0.0000645539   0.0000240283
       -0.0000398375  -0.0002054317  -0.0000152103  -0.0000650376   0.0000783332
       -0.0000065577  -0.0000889356  -0.0000947518  -0.0000239134   0.0001156153
       -0.0000091320   0.0000247257  -0.0000159959   0.0000945757  -0.0000006183
        0.0002332024  -0.0001052055   0.0000378748  -0.0002057182  -0.0000906290
       -0.0000467869   0.0000598741   0.0002389592   0.0000242835   0.0000670143
       -0.0000701280   0.0000073268   0.0000687419   0.0000960343   0.0000144497
       -0.0001290135  -0.0000132028  -0.0000265474   0.0000156312  -0.0001023755
       -0.0000033025  -0.0001670289   0.0000868970  -0.0000251816   0.0000302952
       -0.0000023114   0.0000056388   0.0000086736  -0.0000394582  -0.0000189405
       -0.0007358308   0.0000495566  -0.0000248861   0.0002573489  -0.0003760835
       -0.0000778494  -0.0001862417   0.0000729231  -0.0000446621   0.0000958252
       -0.0000746553  -0.0000488685  -0.0000350914   0.0000171127   0.0000113883
        0.0001015526  -0.0000296675  -0.0000130384  -0.0002138923  -0.0000633254
        0.0000515088   0.0000416024   0.0001223248   0.0000047233  -0.0001463686
        0.0000354828   0.0000384599   0.0000644560  -0.0001268169  -0.0000229430
        0.0000988674   0.0000760664  -0.0000130752   0.0000186568  -0.0003178326
       -0.0000366367  -0.0001980438   0.0001716503   0.0000669440   0.0002727174
        0.0000787840  -0.0000578923  -0.0000324820  -0.0001191213   0.0000039562
        0.0001602493  -0.0000110699  -0.0000409011  -0.0001002790   0.0001282455