$hessian                                                                        
        0.6745111509  -0.0027845254   0.0012287982  -0.1514516478  -0.0403614091
       -0.1340716834  -0.0353155807  -0.0069979178  -0.0250549973   0.0067217397
        0.0002245242   0.0009266323  -0.0025830633   0.0000073399  -0.0000297026
        0.0006437322  -0.0002912220  -0.0005838163  -0.0003286755  -0.0002632328
       -0.0000104827   0.0004188932  -0.0000035652   0.0000037455  -0.0003104797
        0.0000006023  -0.0000042530   0.0000462581  -0.0001427742  -0.0000216041
        0.0000353755   0.0000520631  -0.0000230856   0.0000158456  -0.0000132087
        0.0000081722  -0.0000154422   0.0000135611  -0.0000133207  -0.0000103610
       -0.0000052959   0.0000077617  -0.0000329764   0.0000056439  -0.0000030587
       -0.0000345313   0.0000001722  -0.0000005447   0.0000807290   0.0000008690
        0.0000005353  -0.0000247964  -0.0000805312  -0.0000262957   0.0000070102
        0.0000869263   0.0000490557  -0.0000926719  -0.0000516754  -0.0000312323
        0.0000926655  -0.0000539492  -0.0000349139  -0.0000129850   0.0000817872
        0.0000484744   0.0000278151  -0.0000779887  -0.0000280316  -0.0000783685
       -0.0000003563   0.0000004335   0.0000439496  -0.0000001997  -0.0000005336
       -0.0000117096  -0.0000118386  -0.0000011216   0.0000084497  -0.0000027356
        0.0000013403  -0.0000096886   0.0000011259  -0.0000007110   0.0000074122
        0.0000002690  -0.0000002502  -0.0000017643   0.0000002285  -0.0000024163
        0.0000012104   0.0000001998  -0.0000008812  -0.0000004296  -0.0000000686
       -0.0000002107   0.0000011541  -0.0000001299   0.0000008470  -0.0000017587
       -0.0000001991   0.0000023869   0.0000083626   0.0000027326  -0.0000015377
       -0.0000117507   0.0000116919   0.0000013716   0.0000281877   0.0000779621
        0.0000276258  -0.0000134870  -0.0000820445  -0.0000482602   0.0000932133
        0.0000539740   0.0000337987  -0.0000923144   0.0000518153   0.0000319065
        0.0000064627  -0.0000870791  -0.0000490736  -0.0000242359   0.0000809034
        0.0000260371  -0.0000331292  -0.0000055509   0.0000026643  -0.0000101543
        0.0000049690  -0.0000078985  -0.0000155557  -0.0000136896   0.0000130284
        0.0000158819   0.0000129753  -0.0000078648   0.0000353366  -0.0000521509
        0.0000233239   0.0000462017   0.0001425799   0.0000227888  -0.0003337325
        0.0002624842   0.0000069137   0.0006412069   0.0003003191   0.0005981179
       -0.0382464813   0.0068869211   0.0233234867  -0.1568318850   0.0423586619
        0.1366857990  -0.2992469882   0.0003876286  -0.0036557975   0.0066893397
        0.0036937622   0.0125810034  -0.0058796074  -0.0000972023  -0.0003630001
       -0.0000057326  -0.0001122865  -0.0000227320   0.0000112791  -0.0000230154
        0.0000044450   0.0000006330  -0.0000115547   0.0000067990  -0.0000039793
       -0.0000010216  -0.0000062753  -0.0000021919  -0.0000029224  -0.0000020169
        0.0000002351   0.0000013070  -0.0000013358   0.0000026436   0.0000000578
        0.0000038666   0.0000000139  -0.0000060023   0.0000021639  -0.0000018841
       -0.0000046192   0.0000038886  -0.0000020972  -0.0000008746   0.0000007359
        0.0000005679   0.0000013263   0.0000013564  -0.0000007544   0.0000003900
        0.0000025519  -0.0000007011   0.0000004928  -0.0000007737  -0.0000018004
       -0.0000007410  -0.0000006961  -0.0000035097   0.0000000686   0.0000000245
       -0.0000018333   0.0000008426   0.0000006413  -0.0000007051  -0.0000004844
        0.0000005732  -0.0000007827  -0.0000004170  -0.0000025261   0.0000005709
       -0.0000014230  -0.0000014130  -0.0000020911   0.0000006801  -0.0000006777
       -0.0000019066   0.0000044915  -0.0000039232   0.0000000326   0.0000057750
       -0.0000022097   0.0000026486  -0.0000002555  -0.0000028805   0.0000002082
       -0.0000014579   0.0000012537  -0.0000022277   0.0000028136   0.0000019420
       -0.0000040947   0.0000009447   0.0000061349   0.0000007282   0.0000117287
       -0.0000066145   0.0000118359   0.0000221145  -0.0000048254  -0.0000070641
        0.0001056373   0.0000174294  -0.0058767645   0.0001755429   0.0001373194
        0.0067173913  -0.0034912899  -0.0117116951
       -0.0027845254   0.1613607127   0.1491276628  -0.0174715491  -0.0668968130
       -0.0627065588  -0.0246318484   0.0033854641   0.0065912033   0.0002070188
       -0.0113419331  -0.0161956444   0.0000030590  -0.0003303273   0.0000690403
        0.0001069235  -0.0000307074   0.0000143692  -0.0000110966   0.0000040856
       -0.0000601621  -0.0000019404   0.0000344761   0.0000125421   0.0000007916
       -0.0000107364   0.0000258556   0.0000060666  -0.0000011775  -0.0000017105
        0.0000031809   0.0000034166   0.0000011596   0.0000001906  -0.0000015826
        0.0000009498   0.0000002672  -0.0000003752   0.0000001509   0.0000002213
        0.0000015774  -0.0000013196  -0.0000004362  -0.0000023622   0.0000005574
        0.0000003668  -0.0000014733   0.0000012408   0.0000005196  -0.0000000579
       -0.0000015118  -0.0000009462  -0.0000010836  -0.0000007051   0.0000019780
        0.0000005604   0.0000009869  -0.0000002058  -0.0000009998  -0.0000012141
        0.0000004310  -0.0000017565   0.0000008505  -0.0000008509   0.0000005105
       -0.0000000985   0.0000008696  -0.0000004984   0.0000001475   0.0000006020
       -0.0000000508  -0.0000001479  -0.0000016149   0.0000006020   0.0000004991
       -0.0000006276   0.0000001398   0.0000010015  -0.0000001972   0.0000003065
        0.0000002635   0.0000005500   0.0000008901  -0.0000003057   0.0000001168
        0.0000002511  -0.0000004404  -0.0000002661   0.0000007970  -0.0000001648
        0.0000001627  -0.0000003049   0.0000002720  -0.0000001236   0.0000006558
        0.0000002653   0.0000001428  -0.0000001196   0.0000010436   0.0000000840
        0.0000008238   0.0000005792  -0.0000000588   0.0000005007   0.0000004808
       -0.0000002026   0.0000004867   0.0000005504  -0.0000003798   0.0000002997
        0.0000012997  -0.0000008957   0.0000002074  -0.0000012376   0.0000003083
        0.0000002377   0.0000019953  -0.0000002906   0.0000012568  -0.0000006305
       -0.0000005834   0.0000002131   0.0000004396   0.0000015307  -0.0000005261
       -0.0000003368   0.0000000615  -0.0000006769  -0.0000006290   0.0000010862
        0.0000006123  -0.0000008525  -0.0000013742   0.0000018840  -0.0000008414
        0.0000010559   0.0000008532   0.0000008639  -0.0000043023   0.0000034336
        0.0000020506  -0.0000058543  -0.0000007432  -0.0000027390   0.0000133190
        0.0000031167  -0.0000592737  -0.0001095807  -0.0000312770   0.0000100202
        0.0245445435   0.0033230329   0.0072234011   0.0194706971  -0.0671309855
       -0.0625708962   0.0003822897  -0.0347419894  -0.0028096179  -0.0032572044
       -0.0015364386  -0.0076190069   0.0001255150   0.0076792389  -0.0018375466
       -0.0000387939   0.0000453565   0.0000544416   0.0000085596   0.0000078738
        0.0000033912  -0.0000014434  -0.0000043510  -0.0000021076  -0.0000006443
       -0.0000008298  -0.0000004657  -0.0000003693  -0.0000007598  -0.0000003525
        0.0000007659   0.0000003151   0.0000005869  -0.0000011035  -0.0000016988
        0.0000002745  -0.0000004225   0.0000014986   0.0000014968  -0.0000007792
        0.0000003826  -0.0000000317  -0.0000004684   0.0000010272   0.0000005205
       -0.0000001374   0.0000009730   0.0000002231  -0.0000001048   0.0000005180
        0.0000001591   0.0000009692   0.0000010102   0.0000001603   0.0000003958
        0.0000006779   0.0000004012  -0.0000003360   0.0000018653   0.0000000018
       -0.0000000398   0.0000013534   0.0000006211  -0.0000008447   0.0000004991
        0.0000005482   0.0000001099  -0.0000000555   0.0000000446   0.0000004533
        0.0000006541   0.0000002527   0.0000008757   0.0000013080   0.0000001103
        0.0000008440   0.0000003409  -0.0000008149   0.0000002633   0.0000018223
        0.0000006075   0.0000007344  -0.0000012859  -0.0000004407  -0.0000014170
        0.0000007181   0.0000010087   0.0000003060  -0.0000007049   0.0000006919
        0.0000008350  -0.0000006721   0.0000003680   0.0000015473  -0.0000042747
       -0.0000018125  -0.0000085894   0.0000077134   0.0000033187   0.0000376594
        0.0000447379   0.0000558260  -0.0000427224   0.0076804058  -0.0018432810
        0.0034569030  -0.0015320658  -0.0074938989
        0.0012287982   0.1491276628   0.6025616707  -0.0575601099  -0.0627829404
       -0.2549362997  -0.0824570888   0.0073562075   0.0231529599   0.0009280407
       -0.0169863573  -0.0600270362  -0.0000317371  -0.0003427668  -0.0003380198
        0.0004647578  -0.0003214184   0.0000863773  -0.0001345031   0.0000138370
       -0.0001450431  -0.0000067448   0.0002013697   0.0000717620   0.0000007773
       -0.0000197555   0.0000816058   0.0000149012  -0.0000041173  -0.0000021522
        0.0000039781   0.0000075031   0.0000048884   0.0000046412  -0.0000058192
        0.0000055803  -0.0000036588  -0.0000068966   0.0000026595   0.0000028899
        0.0000053958  -0.0000021598   0.0000016309  -0.0000097679   0.0000027309
        0.0000054580  -0.0000021372   0.0000027862   0.0000054085  -0.0000001609
       -0.0000021079  -0.0000020426  -0.0000091824  -0.0000037848   0.0000095809
        0.0000055914   0.0000032028  -0.0000037803  -0.0000112527  -0.0000031477
        0.0000066578  -0.0000087641  -0.0000072475  -0.0000052288   0.0000024010
        0.0000032277   0.0000036493  -0.0000062333  -0.0000046597   0.0000041329
       -0.0000008987   0.0000019969  -0.0000092316   0.0000004675  -0.0000021719
       -0.0000023743   0.0000002177   0.0000025405  -0.0000003612  -0.0000018520
       -0.0000014396   0.0000001763   0.0000011016   0.0000013596  -0.0000007261
       -0.0000024902   0.0000015312  -0.0000002309  -0.0000004343   0.0000016053
       -0.0000002063  -0.0000007319  -0.0000021241   0.0000001003   0.0000001747
       -0.0000025821   0.0000000806  -0.0000008553  -0.0000011393  -0.0000002547
        0.0000000388   0.0000012551  -0.0000009514  -0.0000002417  -0.0000012112
       -0.0000018782   0.0000009492  -0.0000005646   0.0000024115   0.0000067028
        0.0000044842  -0.0000028218  -0.0000049321  -0.0000036119   0.0000043670
        0.0000098274   0.0000032334  -0.0000080087   0.0000068748   0.0000056062
        0.0000011919  -0.0000041037  -0.0000020441   0.0000003214   0.0000046856
        0.0000041862  -0.0000017554  -0.0000000456  -0.0000042667   0.0000056889
       -0.0000029353   0.0000020517  -0.0000054803   0.0000086500  -0.0000066828
        0.0000061134   0.0000133092  -0.0000027065  -0.0000140975   0.0000002341
        0.0000092711  -0.0000070857   0.0000098955  -0.0000123864   0.0001259946
        0.0000228556  -0.0001375270  -0.0004523698  -0.0003125663   0.0000898425
        0.0807236072   0.0073599069   0.0261683523   0.0601906825  -0.0618246719
       -0.2493804261  -0.0036755579  -0.0027687914  -0.0432392578  -0.0106893509
       -0.0078226153  -0.0241333686   0.0002298102  -0.0017306585   0.0019339434
       -0.0000432510   0.0002279207   0.0001842242   0.0000174444   0.0000267974
        0.0000224467  -0.0000007353  -0.0000062492  -0.0000075985  -0.0000011981
       -0.0000032268   0.0000021772  -0.0000008299  -0.0000014927  -0.0000001765
        0.0000001362   0.0000005352   0.0000009099  -0.0000027358   0.0000001405
        0.0000012899  -0.0000004671   0.0000027918   0.0000031353   0.0000000234
        0.0000005397   0.0000015012   0.0000006512   0.0000003957   0.0000007348
        0.0000005311  -0.0000004530   0.0000005665   0.0000010362  -0.0000005958
       -0.0000007403   0.0000003351  -0.0000001095  -0.0000000546  -0.0000003977
       -0.0000005033  -0.0000010181  -0.0000002781  -0.0000007148  -0.0000007201
        0.0000002732  -0.0000005302  -0.0000007652   0.0000001055  -0.0000003153
       -0.0000001576  -0.0000005271  -0.0000009134  -0.0000010992  -0.0000011047
       -0.0000001728   0.0000003908   0.0000006538   0.0000007657  -0.0000000316
        0.0000005089  -0.0000001319   0.0000000142   0.0000000415   0.0000024093
        0.0000005647   0.0000004813   0.0000001227  -0.0000008510  -0.0000017083
        0.0000006064   0.0000027342   0.0000000523  -0.0000012808   0.0000019753
        0.0000014071  -0.0000037701   0.0000038463   0.0000020436  -0.0000062137
       -0.0000070485  -0.0000174840   0.0000274521   0.0000213475   0.0000384560
        0.0002308020   0.0001864336  -0.0004550107  -0.0017192116   0.0019298887
        0.0115633353  -0.0079448597  -0.0241494619
       -0.1514516478  -0.0174715491  -0.0575601099   0.6581611096  -0.0040468104
       -0.0080642333  -0.3354785515  -0.0123064733  -0.0402672959  -0.0390657047
        0.0240107525   0.0768856764   0.0032357642   0.0012313394   0.0025046252
       -0.0019209588   0.0007404426   0.0008068100   0.0005018474   0.0004366817
        0.0001454167  -0.0006174078  -0.0001369968  -0.0000360072   0.0004538041
        0.0000249713  -0.0000601338  -0.0000948511   0.0002112435   0.0000345590
       -0.0000014593  -0.0000735961   0.0000244945  -0.0000135705   0.0000032115
       -0.0000050196   0.0000131437  -0.0000065964   0.0000086283  -0.0000029048
        0.0000053572  -0.0000130284   0.0000603483  -0.0000011881   0.0000055550
        0.0000172811   0.0000021614  -0.0000026044  -0.0000893594   0.0000006356
        0.0000014977   0.0000336858   0.0001081827   0.0000398701   0.0000029303
       -0.0001125713  -0.0000630208   0.0001315103   0.0000702824   0.0000443393
       -0.0001184568   0.0000635746   0.0000435666   0.0000069232  -0.0001095668
       -0.0000624586  -0.0000263100   0.0000979826   0.0000340066   0.0000989062
        0.0000008265  -0.0000007224  -0.0000627126   0.0000001264   0.0000008185
        0.0000155731   0.0000150180   0.0000026076  -0.0000103491   0.0000035720
       -0.0000023447   0.0000113301  -0.0000001083  -0.0000002950  -0.0000041038
       -0.0000005494  -0.0000002642   0.0000026132  -0.0000036396   0.0000005624
        0.0000004019  -0.0000008466  -0.0000005426   0.0000011582  -0.0000003571
       -0.0000008745   0.0000006384  -0.0000000115  -0.0000009731   0.0000027532
        0.0000030590  -0.0000014245  -0.0000100744  -0.0000038302   0.0000015133
        0.0000157049  -0.0000144479  -0.0000036557  -0.0000283318  -0.0000983378
       -0.0000349731   0.0000074450   0.0001099677   0.0000620264  -0.0001217452
       -0.0000646227  -0.0000429519   0.0001291563  -0.0000704390  -0.0000454938
        0.0000014740   0.0001125645   0.0000620921   0.0000328423  -0.0001092680
       -0.0000395983   0.0000586647   0.0000095377  -0.0000033308  -0.0000004355
       -0.0000044503   0.0000126566   0.0000100124   0.0000096967  -0.0000065181
       -0.0000181859  -0.0000037620   0.0000028706  -0.0000022230   0.0000607130
       -0.0000414829  -0.0000696924  -0.0002071936  -0.0000303084   0.0006033078
       -0.0003328748   0.0000630448  -0.0002819416  -0.0003199688  -0.0010298016
       -0.0475528101  -0.0080609050  -0.0277003082   0.0600869751  -0.0083146172
       -0.0266632796  -0.0182360462  -0.0076886756  -0.0251864281  -0.1098600460
        0.0327217670   0.1063297280  -0.0175216983  -0.0010214664  -0.0025925879
        0.0000129131  -0.0002559707  -0.0001439572  -0.0000409209   0.0000024048
       -0.0000612019  -0.0000213875   0.0000013652   0.0000112344  -0.0000077828
        0.0000033546   0.0000008600  -0.0000059860   0.0000037830   0.0000005388
       -0.0000051882   0.0000018849  -0.0000027461  -0.0000097873   0.0000001997
       -0.0000002507  -0.0000035332   0.0000049229  -0.0000017329  -0.0000015679
        0.0000044111  -0.0000023173   0.0000009584  -0.0000006890  -0.0000008452
       -0.0000019219  -0.0000009683  -0.0000012134  -0.0000006466  -0.0000008058
       -0.0000022324  -0.0000003511   0.0000002673  -0.0000000165  -0.0000009118
        0.0000004508  -0.0000002444  -0.0000004426  -0.0000003998  -0.0000008040
       -0.0000005482  -0.0000010339  -0.0000011905  -0.0000002316  -0.0000004059
       -0.0000009784  -0.0000007096   0.0000003871   0.0000013701  -0.0000021842
        0.0000009262   0.0000012055   0.0000006661   0.0000018139   0.0000001087
       -0.0000019735  -0.0000034865   0.0000025472  -0.0000023852  -0.0000030186
        0.0000025214  -0.0000066359   0.0000019284   0.0000021833  -0.0000040331
       -0.0000033099   0.0000015180  -0.0000052235  -0.0000031672   0.0000009053
       -0.0000039432  -0.0000026157   0.0000010658  -0.0000091454   0.0000124661
        0.0000106435   0.0000396095  -0.0000078629   0.0000539442  -0.0002375985
       -0.0000885126  -0.0001626375  -0.0001561707  -0.0003232249  -0.0005908622
       -0.0005586635   0.0011869584   0.0033276901
       -0.0403614091  -0.0668968130  -0.0627829404  -0.0040468104   0.1621722263
        0.1527348155   0.0114539113  -0.0500659593  -0.0128694511   0.0065093393
        0.0026532617   0.0064028890   0.0015185886   0.0063710103  -0.0030896736
       -0.0011247150   0.0001505709   0.0001639424   0.0001741456   0.0000459587
        0.0006524423  -0.0000709892  -0.0001515095  -0.0001137475   0.0000809807
        0.0000621359  -0.0000733701  -0.0000500363   0.0000774938  -0.0000225245
        0.0000292222  -0.0000299220   0.0000229173  -0.0000289814   0.0000447073
       -0.0000325646   0.0000222424   0.0000411538  -0.0000211300  -0.0000297476
       -0.0000166835   0.0000053200   0.0000124255   0.0000255266  -0.0000168168
       -0.0000219960   0.0000021712  -0.0000048033  -0.0000468377   0.0000010188
        0.0000015341   0.0000082677   0.0000507760   0.0000275830  -0.0000294509
       -0.0000471372  -0.0000220560   0.0000516986   0.0000590589   0.0000318267
       -0.0000483924   0.0000584655   0.0000399601   0.0000288395  -0.0000391307
       -0.0000290456  -0.0000210253   0.0000491699   0.0000330783  -0.0000032134
       -0.0000007553   0.0000003732   0.0000384763  -0.0000009505   0.0000004142
        0.0000132135   0.0000065102  -0.0000069226  -0.0000005427   0.0000049960
        0.0000022312   0.0000063273  -0.0000019893  -0.0000007436  -0.0000033363
       -0.0000032489   0.0000006024   0.0000009819  -0.0000039755   0.0000019743
       -0.0000008958  -0.0000045396   0.0000019955   0.0000017370  -0.0000026481
        0.0000004694  -0.0000005004  -0.0000020549  -0.0000020239   0.0000023486
        0.0000008744  -0.0000028755  -0.0000009256  -0.0000079592  -0.0000017141
        0.0000128751  -0.0000096005   0.0000081682  -0.0000231532  -0.0000506081
       -0.0000332901   0.0000277791   0.0000391604   0.0000284862  -0.0000516511
       -0.0000617901  -0.0000371946   0.0000503614  -0.0000595178  -0.0000348221
       -0.0000313954   0.0000475292   0.0000249795   0.0000079332  -0.0000540201
       -0.0000273202   0.0000089184  -0.0000206566   0.0000220420  -0.0000272172
        0.0000218596  -0.0000136250   0.0000261486  -0.0000417056   0.0000259150
       -0.0000280820  -0.0000488772   0.0000348100   0.0000251009   0.0000271369
       -0.0000245761  -0.0000135038  -0.0000606838   0.0000278848   0.0000213940
       -0.0000374297   0.0004478180   0.0007606797  -0.0001118430  -0.0000950332
       -0.0087452732  -0.0060779155  -0.0021387074   0.0087271891  -0.0047419634
       -0.0192870686  -0.0005189878   0.0005667119  -0.0005191947   0.0324969672
       -0.0513721927  -0.0550705389  -0.0076242556   0.0004861179  -0.0009266674
       -0.0000248564   0.0000705424  -0.0001496956  -0.0000755480   0.0000325313
       -0.0000213525  -0.0000065738  -0.0000017905   0.0000032946  -0.0000037626
       -0.0000039599   0.0000042054   0.0000009918  -0.0000027268   0.0000062672
        0.0000083716  -0.0000013382   0.0000024132   0.0000072155  -0.0000018427
       -0.0000044383   0.0000036546  -0.0000013648  -0.0000050513  -0.0000021032
       -0.0000051777  -0.0000037537  -0.0000047078  -0.0000006464  -0.0000019111
        0.0000003921  -0.0000004492   0.0000015937  -0.0000009604  -0.0000035653
        0.0000004047   0.0000004175  -0.0000022203   0.0000010550  -0.0000003462
       -0.0000024798   0.0000009466  -0.0000001688  -0.0000020631  -0.0000000986
        0.0000004517  -0.0000024394  -0.0000003477  -0.0000001371  -0.0000017909
       -0.0000002310  -0.0000016056  -0.0000003002  -0.0000003332   0.0000000162
       -0.0000006975  -0.0000018596  -0.0000044892   0.0000008338   0.0000017418
       -0.0000026960   0.0000034429   0.0000028527   0.0000018404   0.0000032491
        0.0000061002   0.0000075622  -0.0000012761   0.0000040147   0.0000095726
       -0.0000014549  -0.0000047755   0.0000042337   0.0000039395  -0.0000051574
       -0.0000005115   0.0000066640  -0.0000061943  -0.0000069813  -0.0000030283
        0.0000028658   0.0000540806   0.0000128303  -0.0000082637   0.0001297240
        0.0000589205  -0.0001544009  -0.0001876829  -0.0001480483   0.0002498377
        0.0009298382   0.0069541849  -0.0033637598
       -0.1340716834  -0.0627065588  -0.2549362997  -0.0080642333   0.1527348155
        0.6199074212   0.0345779363  -0.0139193503  -0.0908788995   0.0222281597
        0.0085439044   0.0262234755   0.0035316265  -0.0030515589  -0.0031571363
        0.0007604809   0.0001325845   0.0002322510   0.0003463787  -0.0002015765
        0.0000358423  -0.0003318229  -0.0000210475  -0.0000148716   0.0002548889
        0.0000471086  -0.0000401391  -0.0000701378   0.0000987633   0.0000209645
       -0.0000020025  -0.0000346538   0.0000186001  -0.0000146913  -0.0000042175
        0.0000009025   0.0000089372  -0.0000119223   0.0000057402   0.0000065239
        0.0000030379  -0.0000047852   0.0000272743  -0.0000032773   0.0000001046
        0.0000119033   0.0000004399  -0.0000020328  -0.0000747023   0.0000013000
        0.0000003967   0.0000315007   0.0000681995   0.0000261726  -0.0000135305
       -0.0000667892  -0.0000364890   0.0000644297   0.0000411408   0.0000311648
       -0.0000609434   0.0000407968   0.0000259787   0.0000177973  -0.0000658636
       -0.0000351914  -0.0000251157   0.0000615845   0.0000163000   0.0000846674
        0.0000007222   0.0000014175  -0.0000359643  -0.0000003943  -0.0000008485
       -0.0000015256   0.0000230022   0.0000040058  -0.0000057337   0.0000048051
       -0.0000085314   0.0000074886   0.0000010043   0.0000020119   0.0000027712
       -0.0000013606   0.0000015273  -0.0000039035  -0.0000026665   0.0000036320
       -0.0000002878  -0.0000020090  -0.0000032924  -0.0000004694   0.0000012561
       -0.0000019114  -0.0000001536   0.0000025552   0.0000013866  -0.0000044349
        0.0000040695   0.0000001272  -0.0000059163  -0.0000061932   0.0000063482
       -0.0000004277  -0.0000211100  -0.0000021470  -0.0000251676  -0.0000604130
       -0.0000183331   0.0000195382   0.0000660744   0.0000346717  -0.0000626266
       -0.0000398185  -0.0000284801   0.0000641055  -0.0000441229  -0.0000296795
       -0.0000147447   0.0000684053   0.0000381759   0.0000304602  -0.0000713754
       -0.0000230717   0.0000280637   0.0000049705  -0.0000003413   0.0000101977
       -0.0000022173   0.0000040021   0.0000092166   0.0000118278  -0.0000061365
       -0.0000158558   0.0000045478  -0.0000037774  -0.0000065820   0.0000352091
       -0.0000055091  -0.0000411320  -0.0000929099  -0.0000235961   0.0002361612
       -0.0001874403   0.0001151204  -0.0006277360  -0.0003772028  -0.0002821374
       -0.0296976785  -0.0020368756  -0.0133904705   0.0300808166  -0.0195952140
       -0.0617860605  -0.0020085441  -0.0005849664  -0.0012774426   0.1064832948
       -0.0548478508  -0.2156839715  -0.0258772358  -0.0009495797  -0.0023728709
        0.0000398406   0.0000572451  -0.0000132294   0.0000681815   0.0000129440
       -0.0000151797  -0.0000021880  -0.0000066414  -0.0000025476   0.0000023626
        0.0000003015   0.0000027491  -0.0000066853   0.0000033467  -0.0000051819
       -0.0000095259  -0.0000045423  -0.0000015638   0.0000009376  -0.0000021222
       -0.0000004037   0.0000019328  -0.0000014888  -0.0000010359  -0.0000048552
       -0.0000029814  -0.0000039370  -0.0000040371  -0.0000005335   0.0000003295
        0.0000029340  -0.0000009608  -0.0000011164  -0.0000014296  -0.0000026352
        0.0000004501   0.0000026943   0.0000001045  -0.0000008410  -0.0000001235
        0.0000023516  -0.0000007729  -0.0000001477   0.0000004213   0.0000000112
       -0.0000000708  -0.0000015737   0.0000003590   0.0000022417   0.0000006583
        0.0000013850  -0.0000029085   0.0000027275  -0.0000017209   0.0000017448
        0.0000016381   0.0000021116  -0.0000035417   0.0000023689  -0.0000003147
       -0.0000032684   0.0000023882   0.0000045914   0.0000018301   0.0000033329
        0.0000017167   0.0000008553   0.0000011254  -0.0000004149  -0.0000091420
        0.0000024004   0.0000000837  -0.0000067360  -0.0000040415   0.0000069157
        0.0000018867  -0.0000048677   0.0000003970  -0.0000072330   0.0000051834
       -0.0000068329  -0.0000253788  -0.0000265159   0.0000227193  -0.0000496512
        0.0001552368  -0.0001473965  -0.0005568678   0.0001818925   0.0005223262
        0.0028067123  -0.0033683521  -0.0030669439
       -0.0353155807  -0.0246318484  -0.0824570888  -0.3354785515   0.0114539113
        0.0345779363   0.6637081712   0.0012662880   0.0141403565  -0.1425981531
        0.0169011547   0.0593079116  -0.0308764238   0.0078424030   0.0243995676
       -0.0017838823  -0.0025760723  -0.0014923132  -0.0021049322   0.0008262425
       -0.0007343998   0.0012666056   0.0004717298   0.0002508783  -0.0006453399
       -0.0001412524   0.0002198029   0.0001503599  -0.0003860153  -0.0000419785
        0.0000540219   0.0001212358  -0.0000879402   0.0000444164  -0.0000500193
        0.0000492572  -0.0000258892   0.0000069867  -0.0000103016   0.0000074580
       -0.0000005221   0.0000212917  -0.0000764604  -0.0000014993  -0.0000111787
       -0.0000449634  -0.0000048705   0.0000067870   0.0001276873   0.0000001082
       -0.0000033847  -0.0000407966  -0.0001682460  -0.0000635094  -0.0000071442
        0.0001838972   0.0000960231  -0.0002201413  -0.0001072116  -0.0000657395
        0.0002163895  -0.0001078520  -0.0000789211   0.0000009445   0.0001754545
        0.0001028706   0.0000411447  -0.0001603948  -0.0000661797  -0.0001171737
       -0.0000016962   0.0000000981   0.0000933906   0.0000007781  -0.0000021270
       -0.0000392757  -0.0000010223  -0.0000029604   0.0000204300  -0.0000025588
       -0.0000086838  -0.0000186916   0.0000017267  -0.0000005832   0.0000237366
        0.0000008681  -0.0000005746  -0.0000116406  -0.0000010293   0.0000004691
        0.0000029395  -0.0000021068  -0.0000029873  -0.0000018286   0.0000011464
       -0.0000006473   0.0000027688   0.0000043191   0.0000018927  -0.0000120422
        0.0000030559  -0.0000007393   0.0000204200   0.0000033245   0.0000074122
       -0.0000395100   0.0000008058   0.0000033929   0.0000417675   0.0001616881
        0.0000677601   0.0000009632  -0.0001784196  -0.0001058591   0.0002184394
        0.0001088047   0.0000747709  -0.0002203782   0.0001099189   0.0000682875
       -0.0000074057  -0.0001847042  -0.0001010835  -0.0000384666   0.0001700101
        0.0000615732  -0.0000755485  -0.0000155529   0.0000023464   0.0000006419
       -0.0000034036  -0.0000174581  -0.0000295720  -0.0000036202   0.0000027429
        0.0000467022   0.0000474350  -0.0000408642   0.0000665130  -0.0001193845
        0.0000591857   0.0000423393   0.0003583357   0.0000337656  -0.0005400625
        0.0009245882  -0.0007284017   0.0005244698   0.0017929302   0.0028557188
        0.0562326898   0.0069952542   0.0263794844  -0.0491107824   0.0088930899
        0.0286778440  -0.0004627851  -0.0008088802  -0.0027240840  -0.0184357253
        0.0006737730   0.0024422447  -0.1025988447  -0.0289868736  -0.1035856334
       -0.0000378862  -0.0001100846   0.0003536165  -0.0004042599   0.0000380882
        0.0000557846  -0.0000196761  -0.0000355298   0.0000490086  -0.0000030308
        0.0000137558  -0.0000082256  -0.0000118451   0.0000040953  -0.0000100844
       -0.0000097230   0.0000013112   0.0000029449   0.0000095368   0.0000014878
        0.0000047557   0.0000034310  -0.0000146062  -0.0000013627  -0.0000081489
       -0.0000126883  -0.0000048011  -0.0000099270   0.0000002603  -0.0000015176
        0.0000056449   0.0000001704  -0.0000018140  -0.0000044146  -0.0000031991
        0.0000048467   0.0000035743   0.0000003557  -0.0000009504  -0.0000011837
        0.0000024025   0.0000002093  -0.0000035261   0.0000014322  -0.0000002365
       -0.0000017725   0.0000001003  -0.0000007520   0.0000029870   0.0000015882
        0.0000004368  -0.0000046681   0.0000050842  -0.0000053892   0.0000061275
        0.0000014395   0.0000012307  -0.0000090819  -0.0000000325   0.0000026794
       -0.0000055613   0.0000125110   0.0000040816   0.0000061089   0.0000124556
        0.0000011609   0.0000123650   0.0000001954  -0.0000004935  -0.0000133099
        0.0000051508   0.0000024238  -0.0000126695  -0.0000031267   0.0000071376
       -0.0000030858  -0.0000040068   0.0000036797  -0.0000037626   0.0000391669
       -0.0000346287  -0.0000750827   0.0000421823  -0.0000443880  -0.0004644761
       -0.0003217839   0.0007308533  -0.0007246152  -0.0007111888  -0.0032472758
       -0.0001954868   0.0001768047   0.0006610190
       -0.0069979178   0.0033854641   0.0073562075  -0.0123064733  -0.0500659593
       -0.0139193503   0.0012662880   0.1579740580   0.1460735015   0.0326456610
       -0.0678478024  -0.0575433572   0.0089138118   0.0009979619  -0.0004136393
       -0.0009454436   0.0013741474   0.0001494400   0.0008207022   0.0003513890
        0.0000541687  -0.0010379616   0.0001494016   0.0000782569   0.0006187655
        0.0000200570  -0.0000096644  -0.0001038587   0.0002080493   0.0000463194
       -0.0000641537  -0.0000997443   0.0000296591  -0.0000599800   0.0000206676