128
 energy: -204.828292909629 gnorm: 0.000093238887 xtb: 6.7.1 (edcfbbe)
N           -8.56511243606374        3.93082860781962        1.31982591119331
C           -7.76438225057892        3.17548326078865        0.99201871752399
C           -6.76645464140995        2.25170593968464        0.61857058143344
C           -5.69174326650826        2.04683530718398        1.46151635928722
C           -4.73368363346169        1.08464436502102        1.15256465039288
C           -4.82151720960966        0.35591869641306       -0.01531945906838
N           -3.93967390616809       -0.71657182405483       -0.22896842712437
C           -4.33400300805399       -2.04311833501550       -0.33052074378427
C           -5.72787805640583       -2.43888438921108       -0.49773502000017
C           -6.05351160658456       -3.20514371675028       -1.61597115070419
C           -7.36734743308888       -3.44341109121638       -1.95619440142906
C           -8.40837965103040       -2.89088328385556       -1.20569115571814
C           -9.77456299428169       -3.01700211886315       -1.59140631778876
C          -10.76596932564656       -2.46207340898013       -0.85547832704730
C          -10.48380990627027       -1.74945534169893        0.34748782682917
C          -11.48926072902780       -1.16677309112736        1.12184147110858
C          -11.18152653393986       -0.49212279628183        2.28958005618669
C           -9.87071951924801       -0.39018020186522        2.71922223685567
C           -8.83266749755581       -0.95189553823593        1.97382173296209
C           -7.47351167201200       -0.89933553652373        2.39910138518211
C           -6.47716330162777       -1.40106529250921        1.63259149018112
C           -6.74495340964994       -1.99828080495592        0.36574978023815
C           -8.09559205487700       -2.17920043606950       -0.02122967450213
C           -9.13569443151752       -1.63037116015232        0.76768769097646
N           -3.31453497048607       -2.85646676347969       -0.36628723519202
C           -2.20122817842635       -2.07494094595328       -0.27329185754114
C           -0.84278052498727       -2.49153128488195       -0.23507950104164
C           -0.48892001484202       -3.84528676675601       -0.27759417551911
C            0.82621754276112       -4.22516030777240       -0.21188929646301
C            1.83122162478897       -3.25458084408661       -0.09066541821085
C            3.24577979638697       -3.64822495114579       -0.01492394947326
C            4.11799310417631       -3.01366774686488        0.86844597126359
C            5.44887857967939       -3.37407136456699        0.93452618297002
C            5.94501428088067       -4.37293291527981        0.10118582983899
N            7.30145569684048       -4.72863718902771        0.15361685744157
C            7.79771607954961       -6.00962737899028        0.29069030813611
C            7.11765169026048       -7.20884140789752        0.45281060056518
C            7.86609213260665       -8.36171228973058        0.59480753602567
C            9.25944179999396       -8.33059212798034        0.58593069322539
C            9.94190324587662       -7.13807300046972        0.44911108320029
C            9.21142528259265       -5.96528584110443        0.30439167731396
C            9.57724873299746       -4.58346891601624        0.16270414803609
C           10.79517478651174       -3.91895750518233        0.09101700302705
C           10.79299505883612       -2.54817758975920       -0.07469201113553
C            9.59641730206654       -1.84161407139747       -0.18159288060062
C            8.37274984299207       -2.47999058224961       -0.11336735416621
C            8.36785314646409       -3.85510773026172        0.07606952339758
C            5.08231423460836       -5.01317784452276       -0.78438143692492
C            3.74896990003006       -4.65847157122369       -0.83292901707087
C            1.48047668817352       -1.91639788131296       -0.05150253178206
C            0.14935579837858       -1.48898056352441       -0.13070891446797
C           -0.22575282941514       -0.08426810115010       -0.13533437640966
C            0.73668259296498        0.93087933969738       -0.11167844398053
C            0.41035690241305        2.27426619411298       -0.16926287717282
C            1.46463732978650        3.29698584537366       -0.13332552783014
C            1.40259285659141        4.41935372408196       -0.95763773528056
C            2.40144221437665        5.37214539393964       -0.93497614210169
C            3.48393684183970        5.23056028671068       -0.07093461415851
N            4.49968099458246        6.19761880427360       -0.04134428274160
C            5.85347398519209        5.94966644067709       -0.15066241956693
C            6.51786449846320        4.74928610719132       -0.36102250367139
C            7.89588067763730        4.78277416024652       -0.45907657051700
C            8.60361021665233        5.97939486932333       -0.36116167018126
C            7.94659661917431        7.17951168674462       -0.17487498530395
C            6.56109217609952        7.17179284143429       -0.07252529571419
C            5.57576091882176        8.20295260264907        0.09915587499821
C            5.65013147843320        9.58151379636947        0.25404063961455
C            4.47903002625554       10.29310076824048        0.42408720796876
C            3.24524426847524        9.64566435136204        0.45490654506926
C            3.14536389816032        8.27580872087543        0.30326309944520
C            4.31715170057074        7.55769207513284        0.10910776624395
C            3.54954848956044        4.11897080222593        0.76489889769979
C            2.55452095416006        3.16332658126079        0.72605407686510
C           -0.93796388911953        2.63547457673105       -0.27953093908637
C           -1.91206555183821        1.67096732450415       -0.29101949100178
C           -1.59117990379947        0.30855988039015       -0.19430170449940
C           -2.56083941565970       -0.73164252978020       -0.19470835873551
C           -5.85175976973652        0.61900191934041       -0.95765102813125
C           -5.89994181785039       -0.00209289993840       -2.22321400752951
C           -6.94328793897614        0.23122290985432       -3.07501628339275
C           -7.98323793267687        1.09591387302203       -2.70407618390472
C           -7.93898451496684        1.75403616784064       -1.50599406555194
C           -6.86744750565845        1.54898252359423       -0.61431680545247
H           -5.61350272908881        2.60580647813082        2.38192353370408
H           -3.92832730889522        0.88995983985577        1.84548470000741
H           -5.25074542998885       -3.58352711245703       -2.23172693848169
H           -7.59989695281945       -4.02881008018070       -2.83362319603307
H           -9.99797526795150       -3.56331357913396       -2.49664181499852
H          -11.79836491449358       -2.55322268817352       -1.16199970239930
H          -12.51704197935299       -1.24755366655672        0.79818668699272
H          -11.97224114193532       -0.04578447577651        2.87506840860616
H           -9.63917946704914        0.13000448876679        3.63769013397045
H           -7.25665430635974       -0.45453608660157        3.36007053725872
H           -5.45712562286964       -1.39301167347373        1.98953005235032
H           -1.28281161607239       -4.57266434840704       -0.35486143255635
H            1.09281734322934       -5.27147217582097       -0.22657776982059
H            3.74176589051260       -2.24914579463520        1.53227318297278
H            6.10986743010652       -2.89335293458436        1.64055720936989
H            6.03880342467301       -7.24135083587881        0.47740846845452
H            7.35995504895220       -9.30818526462145        0.71920208212982
H            9.80888078831653       -9.25404589941802        0.69711449546832
H           11.02153797135378       -7.11263005023474        0.45803976221023
H           11.72259566410476       -4.46813680227004        0.15843221034832
H           11.72952536829735       -2.01259160582439       -0.13058907404958
H            9.62645000887445       -0.77113171480398       -0.32532508391976
H            7.45183310469546       -1.92571311753719       -0.21431759922666
H            5.46706399583062       -5.77644504974623       -1.44444034764728
H            3.09417219357435       -5.14960184530717       -1.53747568132063
H            2.27744447205485       -1.19428180690888        0.02113135554724
H            1.78239149593795        0.67292738343578       -0.08011337964217
H            0.57832905122615        4.53127577738911       -1.64647414839281
H            2.35739734183050        6.22377996516057       -1.59768487523269
H            5.97735791663478        3.81938274895667       -0.45479209832784
H            8.43651064633769        3.86118666333164       -0.61957485467109
H            9.68086198314926        5.96388261218285       -0.44084930497162
H            8.49447211095532        8.10814885314276       -0.11442768637821
H            6.60694209315236       10.08219842695230        0.24563100070729
H            4.51512652442744       11.36610591152821        0.54402681860257
H            2.34717237976538       10.22738574465273        0.60471852758732
H            2.18648175046638        7.78137193727906        0.34511444978104
H            4.37640061981956        4.01851142812866        1.45241976348523
H            2.60692356495847        2.31523035749982        1.39278971377833
H           -1.21280526506053        3.67798413341391       -0.33819203043589
H           -2.94511284020803        1.96577686723776       -0.39041049656455
H           -5.09224091973282       -0.65395109843622       -2.52006213427857
H           -6.96937545183983       -0.24903100693246       -4.04118743471795
H           -8.81033869474548        1.25410745368278       -3.37911085703253
H           -8.72075505719400        2.44483640282798       -1.22485244588394
