 Entering Gaussian System
 *********************************************
 Gaussian 98:
 frequency output generated by the xtb code
 *********************************************
                         Standard orientation:
 --------------------------------------------------------------------
  Center     Atomic     Atomic              Coordinates (Angstroms)
  Number     Number      Type              X           Y           Z
 --------------------------------------------------------------------
    1          6             0       10.187010    3.769678   -1.432633
    2          6             0        8.915203    4.230567   -1.124222
    3          6             0        7.916460    3.349333   -0.764061
    4          6             0        8.166228    1.972266   -0.703623
    5          6             0        7.150811    1.002200   -0.335141
    6          6             0        5.796036    1.277092   -0.307324
    7          6             0        4.903400    0.251765    0.057163
    8          6             0        3.483265    0.392257    0.110429
    9          6             0        2.801653    1.592805   -0.189724
   10          6             0        1.433688    1.670148   -0.123885
   11          6             0        0.671378    0.553662    0.239304
   12          7             0       -0.725607    0.635251    0.298683
   13          6             0       -1.446779    1.585668    0.990785
   14          6             0       -0.982270    2.623471    1.787822
   15          6             0       -1.918895    3.438558    2.396078
   16          6             0       -3.282861    3.221006    2.222302
   17          6             0       -3.750430    2.171223    1.450168
   18          6             0       -2.832041    1.337527    0.830521
   19          6             0       -2.940141    0.167032   -0.004331
   20          6             0       -3.974232   -0.582595   -0.532159
   21          6             0       -3.669116   -1.687872   -1.352522
   22          6             0       -2.354205   -2.037862   -1.661688
   23          6             0       -1.309835   -1.303966   -1.141813
   24          6             0       -1.603622   -0.226621   -0.306844
   25          6             0       -4.906583   -2.305694   -1.777971
   26          6             0       -5.148203   -3.409935   -2.584960
   27          6             0       -6.460153   -3.778326   -2.827719
   28          6             0       -7.515762   -3.062892   -2.277437
   29          6             0       -7.282467   -1.957659   -1.468507
   30          6             0       -5.978458   -1.587779   -1.225587
   31          6             0       -5.466749   -0.432783   -0.389637
   32          6             0       -6.005969   -0.513316    1.019534
   33          6             0       -5.755697   -1.467658    1.980803
   34          6             0       -6.401345   -1.356934    3.205649
   35          6             0       -7.285565   -0.317029    3.451701
   36          6             0       -7.542278    0.643189    2.485657
   37          6             0       -6.895979    0.543869    1.264193
   38          6             0       -6.926172    1.403478    0.089028
   39          6             0       -7.613214    2.579391   -0.165264
   40          6             0       -7.411753    3.215733   -1.380089
   41          6             0       -6.541919    2.690456   -2.324114
   42          6             0       -5.856266    1.507298   -2.080125
   43          6             0       -6.052552    0.873294   -0.873159
   44          6             0        1.327974   -0.646495    0.543658
   45          6             0        2.692856   -0.722687    0.479981
   46          7             0        5.428080   -0.973417    0.364464
   47          6             0        6.718195   -1.194317    0.311703
   48          6             0        7.225223   -2.528763    0.640708
   49          6             0        6.343388   -3.571314    0.916882
   50          6             0        6.826322   -4.827596    1.229187
   51          6             0        8.193108   -5.057153    1.269032
   52          6             0        9.076670   -4.024552    0.995425
   53          6             0        8.597178   -2.766807    0.682719
   54          7             0        7.585732   -0.252418   -0.018625
   55          6             0        9.459656    1.523038   -1.008919
   56          6             0       10.451720    2.409010   -1.369651
   57          1             0       10.964351    4.464468   -1.714324
   58          1             0        8.703360    5.290025   -1.161594
   59          1             0        6.941433    3.737282   -0.509775
   60          1             0        5.426883    2.250452   -0.581841
   61          1             0        3.354601    2.469909   -0.487335
   62          1             0        0.930190    2.590446   -0.382806
   63          1             0        0.075068    2.780579    1.935640
   64          1             0       -1.585474    4.254906    3.019292
   65          1             0       -3.989514    3.877369    2.707702
   66          1             0       -4.807955    2.006327    1.338038
   67          1             0       -2.157688   -2.876760   -2.310965
   68          1             0       -0.286128   -1.545766   -1.381920
   69          1             0       -4.330870   -3.969293   -3.014686
   70          1             0       -6.667796   -4.634119   -3.453560
   71          1             0       -8.531377   -3.369323   -2.480518
   72          1             0       -8.104882   -1.402635   -1.041051
   73          1             0       -5.071100   -2.281184    1.788693
   74          1             0       -6.214210   -2.091617    3.975250
   75          1             0       -7.778952   -0.253892    4.410860
   76          1             0       -8.229748    1.452225    2.683577
   77          1             0       -8.289725    2.994244    0.567150
   78          1             0       -7.938327    4.134490   -1.594677
   79          1             0       -6.397497    3.206179   -3.262265
   80          1             0       -5.183809    1.096064   -2.819146
   81          1             0        0.747168   -1.502007    0.856747
   82          1             0        3.203847   -1.640553    0.726181
   83          1             0        5.282222   -3.377125    0.880692
   84          1             0        6.137236   -5.631930    1.442085
   85          1             0        8.569322   -6.039717    1.513554
   86          1             0       10.141862   -4.201883    1.027052
   87          1             0        9.271382   -1.950336    0.471989
   88          1             0        9.657555    0.462639   -0.963573
   89          1             0       11.440054    2.039962   -1.605028
 --------------------------------------------------------------------
     1 basis functions        1 primitive gaussians
     1 alpha electrons        1 beta electrons
 
 Harmonic frequencies (cm**-1), IR intensities (km*mol⁻¹),
 Raman scattering activities (A**4/amu), Raman depolarization ratios,
 reduced masses (AMU), force constants (mDyne/A) and normal coordinates:
                      1                      2                      3
                        a                      a                      a 
 Frequencies --     8.7340                11.3781                13.9509
 Red. masses --    10.9862                11.1502                11.1839
 Frc consts  --     0.0000                 0.0000                 0.0000
 IR Inten    --     0.4021                 0.1552                 0.0014
 Raman Activ --     0.0000                 0.0000                 0.0000
 Depolar     --     0.0000                 0.0000                 0.0000
 Atom AN      X      Y      Z        X      Y      Z        X      Y      Z
   1   6    -0.05  -0.07  -0.27    -0.07   0.04  -0.09     0.08  -0.12  -0.07
   2   6    -0.03  -0.05  -0.24    -0.06   0.03  -0.05     0.10  -0.08  -0.04
   3   6    -0.02  -0.04  -0.17    -0.05   0.02  -0.02     0.08  -0.04  -0.02
   4   6    -0.02  -0.03  -0.13    -0.04   0.02  -0.04     0.03  -0.05  -0.02
   5   6    -0.01  -0.02  -0.05    -0.02   0.01  -0.01     0.01  -0.01   0.01
   6   6    -0.01  -0.02  -0.03    -0.02   0.01   0.04     0.02   0.04   0.05
   7   6    -0.00  -0.00   0.03    -0.00  -0.00   0.06    -0.01   0.06   0.07
   8   6    -0.00  -0.00   0.04    -0.00  -0.01   0.11    -0.00   0.10   0.10
   9   6    -0.00   0.00   0.07    -0.01  -0.01   0.13     0.02   0.11   0.10
  10   6    -0.00  -0.00   0.07    -0.01  -0.02   0.15     0.02   0.13   0.09
  11   6    -0.00  -0.01   0.05     0.00  -0.03   0.15    -0.00   0.14   0.08
  12   7    -0.00  -0.01   0.05    -0.00  -0.05   0.16    -0.00   0.15   0.05
  13   6    -0.01  -0.03   0.07    -0.01  -0.04   0.13    -0.04   0.12   0.02
  14   6    -0.01  -0.06   0.10    -0.03  -0.04   0.13    -0.08   0.14   0.02
  15   6    -0.01  -0.07   0.12    -0.04  -0.03   0.11    -0.11   0.12  -0.00
  16   6    -0.01  -0.07   0.10    -0.04  -0.03   0.07    -0.10   0.08  -0.03
  17   6    -0.01  -0.04   0.07    -0.02  -0.03   0.06    -0.06   0.07  -0.02
  18   6    -0.01  -0.03   0.05    -0.01  -0.03   0.09    -0.03   0.08   0.00
  19   6     0.00   0.00   0.01     0.00  -0.04   0.09     0.02   0.08   0.01
  20   6     0.00   0.02  -0.02     0.01  -0.03   0.07     0.05   0.04  -0.00
  21   6     0.01   0.05  -0.06     0.03  -0.04   0.08     0.09   0.04   0.01
  22   6     0.01   0.05  -0.05     0.03  -0.05   0.13     0.11   0.09   0.02
  23   6     0.01   0.03  -0.02     0.02  -0.06   0.15     0.08   0.12   0.04
  24   6     0.00   0.01   0.01     0.01  -0.05   0.13     0.03   0.11   0.03
  25   6     0.01   0.06  -0.09     0.04  -0.03   0.05     0.12  -0.00   0.00
  26   6     0.02   0.09  -0.13     0.05  -0.03   0.05     0.16  -0.02   0.00
  27   6     0.02   0.11  -0.16     0.05  -0.02   0.01     0.18  -0.06  -0.00
  28   6     0.02   0.09  -0.15     0.04   0.00  -0.04     0.15  -0.10  -0.01
  29   6     0.01   0.06  -0.11     0.03   0.01  -0.04     0.10  -0.09  -0.02
  30   6     0.01   0.05  -0.08     0.02  -0.01   0.00     0.09  -0.04  -0.01
  31   6     0.00   0.02  -0.03     0.01  -0.00   0.00     0.04  -0.02  -0.01
  32   6    -0.01  -0.04  -0.04    -0.06   0.04  -0.02     0.04  -0.04  -0.01
  33   6    -0.01  -0.08  -0.07    -0.13   0.06   0.01     0.08  -0.03  -0.01
  34   6    -0.02  -0.13  -0.07    -0.19   0.10  -0.02     0.08  -0.06  -0.01
  35   6    -0.02  -0.14  -0.04    -0.19   0.13  -0.10     0.04  -0.09  -0.01
  36   6    -0.02  -0.10  -0.00    -0.12   0.11  -0.13    -0.00  -0.10  -0.01
  37   6    -0.01  -0.05  -0.00    -0.05   0.07  -0.10    -0.00  -0.08  -0.01
  38   6     0.00  -0.00   0.03     0.03   0.04  -0.12    -0.04  -0.08  -0.01
  39   6     0.00   0.01   0.07     0.07   0.05  -0.18    -0.09  -0.11  -0.01
  40   6     0.01   0.06   0.10     0.14   0.02  -0.19    -0.11  -0.10  -0.01
  41   6     0.02   0.09   0.09     0.18  -0.02  -0.13    -0.09  -0.06  -0.01
  42   6     0.02   0.08   0.04     0.14  -0.03  -0.07    -0.04  -0.03  -0.01
  43   6     0.01   0.04   0.02     0.06   0.00  -0.06    -0.01  -0.04  -0.01
  44   6    -0.00  -0.01   0.03     0.01  -0.03   0.15    -0.02   0.13   0.10
  45   6     0.00  -0.01   0.03     0.01  -0.01   0.13    -0.02   0.12   0.11
  46   7     0.01   0.02   0.09     0.02  -0.00   0.03    -0.04   0.05   0.05
  47   6     0.01   0.01   0.07     0.01  -0.00  -0.03    -0.05  -0.01  -0.00
  48   6     0.02   0.03   0.12     0.03  -0.01  -0.08    -0.10  -0.03  -0.04
  49   6     0.03   0.06   0.27     0.04  -0.01  -0.04    -0.13   0.01  -0.01
  50   6     0.04   0.08   0.31     0.06  -0.01  -0.08    -0.17  -0.02  -0.05
  51   6     0.04   0.06   0.21     0.06  -0.02  -0.17    -0.18  -0.08  -0.11
  52   6     0.03   0.03   0.07     0.05  -0.02  -0.21    -0.15  -0.12  -0.14
  53   6     0.02   0.02   0.02     0.03  -0.01  -0.17    -0.10  -0.09  -0.10
  54   7    -0.00   0.00   0.01    -0.00   0.01  -0.06    -0.03  -0.04  -0.02
  55   6    -0.04  -0.05  -0.16    -0.04   0.03  -0.08     0.01  -0.10  -0.04
  56   6    -0.05  -0.07  -0.24    -0.06   0.04  -0.10     0.03  -0.13  -0.07
  57   1    -0.02  -0.02  -0.10    -0.02   0.01  -0.03     0.03  -0.04  -0.03
  58   1    -0.01  -0.02  -0.08    -0.02   0.01  -0.01     0.04  -0.02  -0.01
  59   1    -0.00  -0.01  -0.04    -0.01   0.00   0.00     0.03  -0.00  -0.00
  60   1    -0.01  -0.01  -0.02    -0.01   0.00   0.02     0.01   0.01   0.02
  61   1    -0.00   0.00   0.03    -0.01  -0.00   0.04     0.01   0.03   0.03
  62   1    -0.00   0.00   0.03    -0.01  -0.01   0.05     0.01   0.04   0.03
  63   1    -0.00  -0.02   0.03    -0.01  -0.01   0.05    -0.03   0.05   0.01
  64   1    -0.01  -0.03   0.04    -0.01  -0.01   0.03    -0.04   0.04  -0.00
  65   1    -0.00  -0.02   0.03    -0.01  -0.01   0.02    -0.04   0.02  -0.01
  66   1    -0.00  -0.01   0.02    -0.01  -0.01   0.01    -0.02   0.01  -0.01
  67   1     0.01   0.02  -0.02     0.01  -0.02   0.04     0.04   0.03   0.01
  68   1     0.00   0.01  -0.00     0.01  -0.02   0.05     0.03   0.04   0.01
  69   1     0.01   0.03  -0.04     0.02  -0.01   0.03     0.05   0.00   0.00
  70   1     0.01   0.04  -0.06     0.02  -0.01   0.00     0.06  -0.02  -0.00
  71   1     0.01   0.03  -0.05     0.01   0.00  -0.02     0.05  -0.04  -0.01
  72   1     0.00   0.01  -0.03     0.01   0.01  -0.02     0.02  -0.03  -0.01
  73   1    -0.00  -0.02  -0.03    -0.04   0.01   0.02     0.03  -0.00  -0.00
  74   1    -0.01  -0.05  -0.03    -0.07   0.03   0.00     0.03  -0.02  -0.00
  75   1    -0.01  -0.05  -0.01    -0.07   0.05  -0.04     0.01  -0.03  -0.00
  76   1    -0.00  -0.03   0.01    -0.03   0.04  -0.05    -0.01  -0.04  -0.00
  77   1    -0.00  -0.01   0.03     0.01   0.03  -0.07    -0.03  -0.04  -0.00
  78   1     0.00   0.02   0.04     0.05   0.01  -0.07    -0.04  -0.04  -0.00
  79   1     0.01   0.04   0.03     0.07  -0.01  -0.04    -0.03  -0.02  -0.00
  80   1     0.01   0.03   0.01     0.05  -0.02  -0.01    -0.01  -0.00  -0.00
  81   1     0.00  -0.01   0.00     0.01  -0.01   0.05    -0.01   0.04   0.03
  82   1     0.00  -0.00   0.00     0.01  -0.00   0.03    -0.01   0.03   0.03
  83   1     0.01   0.02   0.10     0.01  -0.00   0.01    -0.04   0.02   0.01
  84   1     0.01   0.03   0.12     0.02  -0.00  -0.01    -0.06   0.00  -0.01
  85   1     0.02   0.02   0.07     0.02  -0.01  -0.06    -0.06  -0.03  -0.04
  86   1     0.01   0.01  -0.00     0.01  -0.01  -0.08    -0.04  -0.05  -0.05
  87   1     0.00  -0.00  -0.03     0.01  -0.00  -0.06    -0.02  -0.04  -0.03
  88   1    -0.01  -0.01  -0.04    -0.01   0.01  -0.03    -0.01  -0.03  -0.01
  89   1    -0.02  -0.02  -0.08    -0.02   0.01  -0.04     0.00  -0.05  -0.02
                      4                      5                      6
                        a                      a                      a 
 Frequencies --    20.8176                27.0714                30.4514
 Red. masses --     9.9181                10.7633                10.9890
 Frc consts  --     0.0000                 0.0000                 0.0000
 IR Inten    --     1.3601                 0.0847                 0.4479
 Raman Activ --     0.0000                 0.0000                 0.0000
 Depolar     --     0.0000                 0.0000                 0.0000
 Atom AN      X      Y      Z        X      Y      Z        X      Y      Z
   1   6    -0.01   0.05   0.11     0.01  -0.02  -0.03     0.15  -0.03   0.10
   2   6    -0.02   0.03   0.12     0.02  -0.01  -0.03     0.14  -0.01   0.00
   3   6    -0.01   0.01   0.09     0.01  -0.00  -0.02     0.09   0.01  -0.06
   4   6    -0.00   0.01   0.05     0.01  -0.00  -0.01     0.06   0.01  -0.03
   5   6     0.00  -0.00   0.03     0.00   0.00   0.00     0.02   0.03  -0.07
   6   6     0.00  -0.01   0.03     0.00   0.01   0.00     0.03   0.06  -0.12
   7   6     0.01  -0.01   0.02    -0.00   0.01  -0.00     0.00   0.08  -0.13
   8   6     0.00  -0.02  -0.00    -0.00   0.01  -0.01     0.00   0.08  -0.14
   9   6     0.01  -0.01  -0.00     0.00   0.04   0.08    -0.01   0.08  -0.14
  10   6     0.01  -0.02  -0.02     0.00   0.04   0.08    -0.01   0.07  -0.12
  11   6     0.00  -0.02  -0.04    -0.00   0.01  -0.01     0.00   0.06  -0.11
  12   7     0.00  -0.01  -0.05    -0.00   0.01  -0.01     0.01   0.05  -0.07
  13   6     0.01  -0.01  -0.04    -0.00  -0.06   0.08     0.01   0.00  -0.00
  14   6     0.02  -0.02  -0.04     0.00  -0.14   0.18     0.01  -0.00  -0.01
  15   6     0.02  -0.01  -0.04     0.00  -0.20   0.27     0.01  -0.06   0.08
  16   6     0.02   0.00  -0.04     0.00  -0.19   0.25     0.01  -0.12   0.16
  17   6     0.01   0.01  -0.04     0.00  -0.11   0.15     0.01  -0.12   0.16
  18   6     0.01   0.00  -0.04    -0.00  -0.05   0.07     0.01  -0.05   0.07
  19   6    -0.00   0.00  -0.04    -0.00   0.02  -0.03     0.01  -0.04   0.05
  20   6    -0.01   0.00  -0.03     0.00   0.03  -0.05     0.01  -0.05   0.07
  21   6    -0.02  -0.00  -0.03     0.00   0.08  -0.11     0.01  -0.03   0.03
  22   6    -0.02  -0.00  -0.04    -0.00   0.13  -0.17     0.00   0.01  -0.02
  23   6    -0.02  -0.01  -0.05    -0.00   0.12  -0.16     0.00   0.04  -0.06
  24   6    -0.01  -0.00  -0.05    -0.00   0.05  -0.08     0.01   0.02  -0.03
  25   6    -0.03  -0.00  -0.00     0.00   0.04  -0.06     0.01  -0.03   0.04
  26   6    -0.04  -0.01   0.01     0.00   0.05  -0.08     0.01  -0.03   0.03
  27   6    -0.04  -0.02   0.04     0.00  -0.01   0.01     0.01  -0.03   0.04
  28   6    -0.03  -0.02   0.05     0.01  -0.08   0.10     0.01  -0.04   0.05
  29   6    -0.02  -0.01   0.04     0.00  -0.08   0.11     0.01  -0.05   0.05
  30   6    -0.02  -0.01   0.01     0.00  -0.02   0.03     0.01  -0.04   0.05
  31   6    -0.01   0.00  -0.01     0.00  -0.00  -0.00     0.01  -0.05   0.06
  32   6     0.02   0.02   0.00     0.04   0.06   0.01    -0.06  -0.04   0.04
  33   6     0.04   0.03   0.01     0.09   0.13   0.06    -0.14  -0.06   0.04
  34   6     0.07   0.05   0.03     0.13   0.20   0.08    -0.22  -0.06  -0.00
  35   6     0.07   0.05   0.03     0.12   0.20   0.05    -0.21  -0.05  -0.04
  36   6     0.05   0.04   0.02     0.07   0.13  -0.00    -0.13  -0.02  -0.05
  37   6     0.02   0.02   0.01     0.03   0.07  -0.02    -0.05  -0.02  -0.01
  38   6    -0.01   0.00  -0.00    -0.02  -0.00  -0.07     0.04  -0.01   0.00
  39   6    -0.02  -0.00  -0.00    -0.06  -0.03  -0.12     0.10   0.03  -0.02
  40   6    -0.04  -0.02  -0.02    -0.11  -0.10  -0.17     0.19   0.03   0.00
  41   6    -0.06  -0.03  -0.03    -0.12  -0.14  -0.16     0.21   0.01   0.04
  42   6    -0.05  -0.02  -0.02    -0.08  -0.10  -0.10     0.15  -0.02   0.06
  43   6    -0.02  -0.00  -0.01    -0.03  -0.03  -0.06     0.06  -0.03   0.04
  44   6    -0.00  -0.02  -0.05    -0.01  -0.01  -0.10     0.01   0.06  -0.12
  45   6    -0.00  -0.02  -0.04    -0.01  -0.01  -0.09     0.01   0.07  -0.14
  46   7     0.01  -0.00   0.04    -0.01   0.01  -0.01    -0.03   0.08  -0.11
  47   6     0.01  -0.01   0.02    -0.01   0.01   0.00    -0.03   0.05  -0.06
  48   6     0.01  -0.01   0.01    -0.01   0.01   0.01    -0.07   0.04  -0.01
  49   6     0.02   0.09   0.39    -0.02  -0.00  -0.03    -0.12   0.09   0.06
  50   6     0.02   0.08   0.36    -0.02   0.00  -0.01    -0.17   0.09   0.11
  51   6     0.02  -0.02  -0.05    -0.02   0.01   0.04    -0.18   0.03   0.09
  52   6     0.01  -0.12  -0.43    -0.02   0.01   0.08    -0.14  -0.03   0.01
  53   6     0.01  -0.11  -0.40    -0.01   0.01   0.06    -0.09  -0.02  -0.04
  54   7     0.01  -0.01   0.00    -0.00   0.00   0.01    -0.00   0.03  -0.05
  55   6     0.00   0.03   0.04     0.00  -0.01  -0.01     0.08  -0.02   0.07
  56   6    -0.00   0.05   0.07     0.00  -0.02  -0.02     0.12  -0.04   0.13
  57   1    -0.00   0.02   0.04     0.00  -0.01  -0.01     0.05  -0.01   0.04
  58   1    -0.01   0.01   0.05     0.01  -0.00  -0.01     0.05  -0.00  -0.01
  59   1    -0.00  -0.00   0.03     0.00   0.00  -0.01     0.02   0.01  -0.04
  60   1    -0.00  -0.00   0.01     0.00   0.00  -0.00     0.01   0.02  -0.04
  61   1     0.00  -0.00   0.01     0.00   0.02   0.04    -0.00   0.02  -0.04
  62   1     0.00  -0.00  -0.00     0.00   0.02   0.04    -0.00   0.02  -0.03
  63   1     0.01  -0.01  -0.01     0.00  -0.04   0.06     0.00   0.01  -0.02
  64   1     0.01  -0.00  -0.01     0.00  -0.08   0.10     0.00  -0.02   0.02
  65   1     0.01   0.00  -0.01     0.00  -0.07   0.09     0.00  -0.05   0.07
  66   1     0.00   0.01  -0.01     0.00  -0.03   0.04     0.00  -0.05   0.07
  67   1    -0.01  -0.00  -0.01    -0.00   0.05  -0.07     0.00   0.01  -0.01
  68   1    -0.01  -0.00  -0.02    -0.00   0.04  -0.06     0.00   0.02  -0.03
  69   1    -0.01  -0.00  -0.00     0.00   0.03  -0.04     0.00  -0.01   0.01
  70   1    -0.01  -0.01   0.01     0.00  -0.00  -0.00     0.00  -0.01   0.01
  71   1    -0.01  -0.01   0.02     0.00  -0.04   0.05     0.00  -0.01   0.02
  72   1    -0.00  -0.00   0.01     0.00  -0.04   0.05     0.00  -0.02   0.02
  73   1     0.01   0.01   0.00     0.03   0.04   0.03    -0.04  -0.02   0.02
  74   1     0.02   0.02   0.01     0.05   0.07   0.03    -0.08  -0.02   0.00
  75   1     0.03   0.02   0.01     0.05   0.07   0.02    -0.08  -0.01  -0.02
  76   1     0.01   0.01   0.01     0.02   0.04  -0.01    -0.04  -0.00  -0.02
  77   1    -0.00   0.00   0.00    -0.01  -0.00  -0.04     0.02   0.01  -0.01
  78   1    -0.01  -0.01  -0.01    -0.04  -0.04  -0.06     0.07   0.02  -0.00
  79   1    -0.02  -0.01  -0.01    -0.05  -0.06  -0.06     0.08   0.00   0.02
  80   1    -0.02  -0.01  -0.01    -0.03  -0.04  -0.03     0.05  -0.01   0.02
  81   1    -0.00  -0.01  -0.02    -0.00  -0.01  -0.05     0.01   0.02  -0.03
  82   1    -0.00  -0.01  -0.02    -0.00  -0.01  -0.04     0.01   0.02  -0.04
  83   1     0.01   0.05   0.21    -0.00  -0.00  -0.02    -0.03   0.04   0.02
  84   1     0.01   0.04   0.19    -0.01  -0.00  -0.01    -0.06   0.04   0.05
  85   1     0.01  -0.01  -0.02    -0.01   0.00   0.01    -0.06   0.01   0.04
  86   1     0.00  -0.06  -0.22    -0.01   0.01   0.03    -0.04  -0.02  -0.00
  87   1     0.00  -0.05  -0.20    -0.00   0.00   0.03    -0.02  -0.02  -0.03
  88   1     0.00   0.01   0.00    -0.00  -0.00   0.00     0.02  -0.01   0.03
  89   1    -0.00   0.02   0.02     0.00  -0.01  -0.01     0.04  -0.02   0.06
                      7                      8                      9
                        a                      a                      a 
 Frequencies --    41.7178                44.6941                48.6746
 Red. masses --    10.8123                10.3855                10.9145
 Frc consts  --     0.0000                 0.0000                 0.0000
 IR Inten    --     0.0387                 2.4921                 0.6442
 Raman Activ --     0.0000                 0.0000                 0.0000
 Depolar     --     0.0000                 0.0000                 0.0000
 Atom AN      X      Y      Z        X      Y      Z        X      Y      Z
   1   6    -0.10   0.04  -0.13     0.01   0.03   0.11    -0.07   0.10   0.17
   2   6    -0.04   0.05   0.07    -0.08  -0.01  -0.23    -0.04   0.05   0.35
   3   6    -0.01   0.05   0.16    -0.11  -0.01  -0.31    -0.03  -0.02   0.23
   4   6    -0.03   0.04   0.05    -0.04   0.01  -0.06    -0.04  -0.03  -0.07
   5   6    -0.02   0.05   0.10    -0.05  -0.00  -0.11    -0.03  -0.08  -0.16
   6   6    -0.01   0.06   0.10    -0.05  -0.02  -0.11    -0.03  -0.07  -0.16
   7   6    -0.02   0.06   0.09    -0.04  -0.01  -0.07    -0.03  -0.08  -0.17
   8   6    -0.02   0.04   0.05    -0.04  -0.01  -0.02    -0.02  -0.05  -0.11
   9   6    -0.03   0.03   0.02    -0.05  -0.02  -0.02    -0.01  -0.04  -0.10
  10   6    -0.03   0.00  -0.02    -0.05  -0.03   0.03    -0.00  -0.01  -0.02
  11   6    -0.02  -0.01  -0.04    -0.03  -0.02   0.09    -0.01   0.02   0.05
  12   7    -0.02  -0.03  -0.06    -0.03  -0.04   0.10    -0.00   0.03   0.09
  13   6    -0.02  -0.04  -0.05    -0.04  -0.03   0.06    -0.01   0.03   0.06
  14   6    -0.02  -0.04  -0.04    -0.05  -0.02   0.06    -0.02   0.05   0.04
  15   6    -0.01  -0.05  -0.03    -0.05   0.00   0.02    -0.03   0.06   0.02
  16   6    -0.01  -0.05  -0.02    -0.05   0.01  -0.02    -0.03   0.04   0.02
  17   6    -0.01  -0.05  -0.02    -0.04   0.00  -0.01    -0.02   0.03   0.03
  18   6    -0.02  -0.04  -0.04    -0.04  -0.02   0.03    -0.01   0.02   0.05
  19   6    -0.02  -0.05  -0.04    -0.02  -0.03   0.04     0.00   0.01   0.06
  20   6    -0.01  -0.06  -0.04    -0.00  -0.03   0.00     0.02   0.00   0.04
  21   6    -0.01  -0.06  -0.03     0.02  -0.03   0.02     0.04   0.01   0.04
  22   6    -0.00  -0.05  -0.04     0.02  -0.05   0.07     0.05   0.02   0.06
  23   6    -0.01  -0.04  -0.04     0.01  -0.06   0.11     0.04   0.02   0.08
  24   6    -0.01  -0.04  -0.05    -0.01  -0.04   0.08     0.01   0.02   0.08
  25   6    -0.01  -0.06  -0.03     0.02  -0.02  -0.03     0.06   0.01  -0.00
  26   6    -0.00  -0.07  -0.02     0.05   0.00  -0.06     0.09   0.04  -0.04
  27   6    -0.00  -0.08  -0.01     0.05   0.02  -0.13     0.10   0.04  -0.09
  28   6    -0.01  -0.07  -0.02     0.04   0.02  -0.15     0.08   0.01  -0.10
  29   6    -0.01  -0.06  -0.03     0.02  -0.00  -0.12     0.05  -0.01  -0.06
  30   6    -0.01  -0.06  -0.03     0.01  -0.02  -0.05     0.04  -0.01  -0.01
  31   6    -0.01  -0.06  -0.04    -0.01  -0.03  -0.03     0.02  -0.01   0.01
  32   6     0.03  -0.03  -0.02     0.03  -0.02  -0.02     0.01  -0.00   0.01
  33   6     0.01  -0.05  -0.03     0.05  -0.01  -0.02     0.02   0.01   0.02
  34   6     0.10   0.01   0.01     0.15   0.04   0.03     0.05   0.03   0.03
  35   6     0.21   0.09   0.06     0.22   0.10   0.07     0.06   0.04   0.03
  36   6     0.23   0.11   0.07     0.20   0.09   0.07     0.04   0.03   0.02
  37   6     0.13   0.04   0.03     0.10   0.03   0.03     0.02   0.00   0.01
  38   6     0.15   0.05   0.03     0.07   0.02   0.02     0.01  -0.01  -0.00
  39   6     0.26   0.13   0.08     0.11   0.05   0.04     0.01  -0.02  -0.01
  40   6     0.27   0.12   0.08     0.07   0.03   0.03    -0.00  -0.03  -0.03
  41   6     0.16   0.04   0.03     0.00  -0.01  -0.01    -0.01  -0.04  -0.02
  42   6     0.05  -0.04  -0.02    -0.03  -0.04  -0.03     0.00  -0.03  -0.01
  43   6     0.05  -0.03  -0.02     0.00  -0.02  -0.02     0.01  -0.02   0.00
  44   6    -0.01  -0.00  -0.02    -0.01  -0.01   0.11    -0.02   0.01   0.06
  45   6    -0.01   0.03   0.02    -0.01   0.00   0.06    -0.02  -0.02  -0.02
  46   7    -0.03   0.07   0.09    -0.04  -0.00  -0.07    -0.03  -0.08  -0.20
  47   6    -0.03   0.05   0.08    -0.03   0.00  -0.07    -0.03  -0.08  -0.18
  48   6    -0.07   0.02   0.05    -0.04   0.01  -0.04    -0.02  -0.05  -0.09
  49   6    -0.12   0.05  -0.01    -0.05   0.03  -0.01    -0.02  -0.03  -0.00
  50   6    -0.18   0.01  -0.05    -0.07   0.03   0.03    -0.02   0.01   0.16
  51   6    -0.19  -0.04  -0.05    -0.07   0.01   0.03    -0.02   0.03   0.24
  52   6    -0.14  -0.07   0.01    -0.06  -0.01  -0.01    -0.02   0.01   0.15
  53   6    -0.08  -0.03   0.05    -0.04  -0.01  -0.04    -0.02  -0.03  -0.01
  54   7    -0.02   0.05   0.10    -0.05  -0.00  -0.10    -0.03  -0.09  -0.22
  55   6    -0.08   0.03  -0.14     0.05   0.04   0.26    -0.07   0.02  -0.25
  56   6    -0.12   0.03  -0.23     0.07   0.05   0.35    -0.08   0.08  -0.13
  57   1    -0.04   0.01  -0.06     0.01   0.01   0.05    -0.02   0.04   0.08
  58   1    -0.01   0.02   0.05    -0.04  -0.01  -0.12    -0.01   0.02   0.17
  59   1     0.01   0.02   0.10    -0.05  -0.01  -0.17    -0.00  -0.02   0.11
  60   1    -0.00   0.02   0.03    -0.02  -0.01  -0.03    -0.01  -0.02  -0.04
  61   1    -0.01   0.01   0.01    -0.02  -0.01  -0.02    -0.00  -0.02  -0.05
  62   1    -0.01  -0.00  -0.01    -0.02  -0.01   0.01     0.00  -0.00  -0.00
  63   1    -0.00  -0.01  -0.01    -0.01  -0.01   0.02    -0.01   0.02   0.01
  64   1    -0.00  -0.01  -0.01    -0.02   0.00   0.00    -0.01   0.02   0.00
  65   1    -0.00  -0.02  -0.00    -0.02   0.01  -0.01    -0.01   0.01   0.00
  66   1    -0.00  -0.01  -0.00    -0.01   0.01  -0.01    -0.00   0.01   0.01
  67   1     0.00  -0.02  -0.01     0.01  -0.02   0.03     0.02   0.01   0.02
  68   1    -0.00  -0.01  -0.01     0.00  -0.02   0.04     0.01   0.01   0.03
  69   1    -0.00  -0.02  -0.00     0.02   0.00  -0.01     0.03   0.02  -0.01
  70   1    -0.00  -0.02  -0.00     0.02   0.01  -0.05     0.04   0.02  -0.04
  71   1    -0.00  -0.02  -0.01     0.01   0.01  -0.06     0.03   0.00  -0.04
  72   1    -0.00  -0.02  -0.01     0.00   0.00  -0.04     0.01  -0.01  -0.02
  73   1    -0.02  -0.03  -0.02    -0.00  -0.01  -0.02     0.01   0.00   0.01
  74   1     0.02  -0.00  -0.00     0.05   0.01   0.01     0.02   0.01   0.01
  75   1     0.08   0.04   0.03     0.09   0.04   0.03     0.02   0.02   0.01
  76   1     0.09   0.05   0.03     0.07   0.04   0.03     0.02   0.01   0.01
  77   1     0.10   0.06   0.04     0.05   0.02   0.02     0.00  -0.00  -0.00
  78   1     0.11   0.05   0.03     0.03   0.02   0.01    -0.00  -0.01  -0.01
  79   1     0.05   0.01   0.01    -0.01  -0.01  -0.01    -0.00  -0.02  -0.01
  80   1    -0.01  -0.03  -0.02    -0.02  -0.02  -0.02     0.00  -0.01  -0.00
  81   1    -0.00  -0.00  -0.01     0.00  -0.00   0.05    -0.01   0.01   0.03
  82   1     0.00   0.01   0.01     0.00   0.00   0.02    -0.01  -0.01  -0.01
  83   1    -0.03   0.03  -0.00    -0.01   0.01  -0.00    -0.01  -0.01  -0.02
  84   1    -0.06   0.01  -0.03    -0.02   0.01   0.02    -0.01   0.01   0.07
  85   1    -0.07  -0.02  -0.02    -0.02   0.01   0.02    -0.00   0.02   0.11
  86   1    -0.04  -0.03   0.00    -0.02  -0.01  -0.00    -0.01   0.01   0.06
  87   1    -0.01  -0.02   0.03    -0.01  -0.01  -0.02    -0.01  -0.01  -0.02
  88   1    -0.03   0.01  -0.06     0.03   0.02   0.13    -0.02   0.00  -0.14
  89   1    -0.04   0.01  -0.11     0.04   0.02   0.18    -0.03   0.03  -0.08
                     10                     11                     12
                        a                      a                      a 
 Frequencies --    51.2148                57.3661                58.1047
 Red. masses --    10.9153                10.7147                10.7571
 Frc consts  --     0.0000                 0.0000                 0.0000
 IR Inten    --     0.2296                 1.1747                 0.5644
 Raman Activ --     0.0000                 0.0000                 0.0000
 Depolar     --     0.0000                 0.0000                 0.0000
 Atom AN      X      Y      Z        X      Y      Z        X      Y      Z
   1   6    -0.12   0.02   0.05     0.20  -0.22   0.08    -0.16   0.07  -0.09
   2   6    -0.15  -0.03  -0.03     0.25  -0.11   0.10    -0.18   0.01  -0.10
   3   6    -0.13  -0.06  -0.05     0.15  -0.02   0.06    -0.12  -0.03  -0.03
   4   6    -0.08  -0.05  -0.01     0.02  -0.05  -0.01    -0.04  -0.01   0.06
   5   6    -0.05  -0.08  -0.02    -0.04   0.02  -0.01    -0.00  -0.04   0.08
   6   6    -0.06  -0.10  -0.02    -0.04   0.04   0.02    -0.01  -0.06   0.03
   7   6    -0.04  -0.10  -0.02    -0.04   0.04   0.02    -0.00  -0.07   0.03
   8   6    -0.04  -0.06   0.00    -0.05   0.05   0.02    -0.00  -0.05  -0.02
   9   6     0.02  -0.01   0.07    -0.05   0.04   0.01     0.04  -0.04  -0.08
  10   6     0.02   0.05   0.07    -0.06   0.04  -0.01     0.04   0.01  -0.10
  11   6    -0.03   0.07   0.00    -0.06   0.04  -0.01     0.01   0.05  -0.07
  12   7    -0.03   0.12  -0.04    -0.07   0.03  -0.02     0.01   0.09  -0.07
  13   6    -0.04   0.08  -0.01    -0.08   0.02  -0.02     0.01   0.07  -0.05
  14   6    -0.06   0.06   0.03    -0.09   0.05  -0.05     0.01   0.15  -0.15
  15   6    -0.07   0.03   0.05    -0.11   0.04  -0.05     0.01   0.13  -0.13
  16   6    -0.07   0.03   0.03    -0.10  -0.01  -0.01     0.01   0.04  -0.01
  17   6    -0.05   0.05  -0.01    -0.09  -0.04   0.02     0.01  -0.03   0.08
  18   6    -0.04   0.07  -0.03    -0.08  -0.02   0.01     0.01  -0.00   0.05
  19   6    -0.02   0.09  -0.06    -0.06  -0.03   0.02     0.01  -0.02   0.07
  20   6    -0.00   0.06  -0.06    -0.05  -0.05   0.03     0.02  -0.05   0.10
  21   6     0.03   0.08  -0.07    -0.04  -0.03   0.00     0.03   0.03  -0.01
  22   6     0.03   0.15  -0.12    -0.03   0.00  -0.01     0.03   0.10  -0.09
  23   6     0.01   0.18  -0.13    -0.04   0.01  -0.00     0.02   0.10  -0.08
  24   6    -0.02   0.13  -0.08    -0.05   0.00   0.01     0.01   0.05  -0.02
  25   6     0.05   0.00  -0.01    -0.03  -0.02  -0.03     0.03   0.05  -0.04
  26   6     0.08  -0.08   0.09    -0.02   0.03  -0.10     0.04   0.17  -0.22
  27   6     0.10  -0.19   0.19    -0.01   0.04  -0.14     0.05   0.18  -0.25
  28   6     0.08  -0.23   0.19    -0.02  -0.00  -0.10     0.04   0.06  -0.10
  29   6     0.04  -0.14   0.09    -0.04  -0.05  -0.03     0.03  -0.05   0.06
  30   6     0.03  -0.03  -0.00    -0.04  -0.06   0.00     0.03  -0.05   0.08
  31   6    -0.01   0.01  -0.04    -0.06  -0.07   0.03     0.02  -0.09   0.13
  32   6    -0.00  -0.00  -0.04    -0.05  -0.04   0.03    -0.01  -0.04   0.12
  33   6    -0.04  -0.04  -0.07    -0.08  -0.04   0.04    -0.04   0.00   0.17
  34   6    -0.05  -0.07  -0.08    -0.03   0.03   0.06    -0.08   0.05   0.15
  35   6    -0.02  -0.05  -0.05     0.05   0.09   0.08    -0.08   0.06   0.09
  36   6     0.02  -0.01  -0.02     0.08   0.09   0.07    -0.05   0.03   0.04
  37   6     0.03   0.01  -0.02     0.02   0.02   0.05    -0.02  -0.02   0.06
  38   6     0.05   0.05   0.01     0.03   0.01   0.03     0.02  -0.06   0.03
  39   6     0.13   0.10   0.06     0.10   0.04   0.03     0.03  -0.07  -0.03
  40   6     0.17   0.14   0.08     0.09   0.01   0.02     0.07  -0.11  -0.05
  41   6     0.11   0.11   0.05     0.03  -0.07  -0.01     0.10  -0.15  -0.01
  42   6     0.03   0.05  -0.00    -0.03  -0.10  -0.01     0.08  -0.14   0.06
  43   6     0.00   0.02  -0.02    -0.03  -0.06   0.01     0.04  -0.10   0.08
  44   6    -0.09   0.02  -0.05    -0.05   0.05   0.01    -0.04   0.04  -0.03
  45   6    -0.09  -0.04  -0.05    -0.05   0.05   0.02    -0.04  -0.01  -0.01
  46   7    -0.04  -0.11  -0.03    -0.06   0.03   0.02     0.00  -0.06   0.06
  47   6    -0.03  -0.08  -0.03    -0.06   0.02   0.00     0.01  -0.04   0.09
  48   6     0.02  -0.06  -0.01     0.01   0.05  -0.01     0.01  -0.04   0.06
  49   6     0.08  -0.10   0.01     0.11  -0.03   0.01     0.02  -0.06   0.03
  50   6     0.15  -0.07   0.02     0.24   0.01  -0.02     0.02  -0.07  -0.03
  51   6     0.17   0.00   0.02     0.26   0.13  -0.06     0.02  -0.08  -0.07
  52   6     0.11   0.05   0.00     0.16   0.21  -0.08     0.02  -0.06  -0.03
  53   6     0.04   0.01  -0.01     0.04   0.16  -0.05     0.01  -0.05   0.03
  54   7    -0.05  -0.08  -0.03    -0.07   0.01  -0.03     0.01  -0.03   0.13
  55   6    -0.04  -0.00   0.07    -0.03  -0.17  -0.05    -0.02   0.05   0.08
  56   6    -0.06   0.03   0.09     0.06  -0.25  -0.00    -0.08   0.09   0.01
  57   1    -0.04   0.01   0.02     0.08  -0.08   0.03    -0.06   0.03  -0.04
  58   1    -0.06  -0.01  -0.02     0.10  -0.02   0.05    -0.07  -0.00  -0.05
  59   1    -0.05  -0.03  -0.03     0.05   0.02   0.02    -0.04  -0.02  -0.01
  60   1    -0.02  -0.03  -0.00    -0.01   0.02   0.01    -0.00  -0.02  -0.00
  61   1     0.02  -0.01   0.03    -0.02   0.01   0.00     0.02  -0.02  -0.03
  62   1     0.02   0.03   0.03    -0.02   0.01  -0.01     0.02   0.01  -0.04
  63   1    -0.02   0.02   0.01    -0.03   0.03  -0.02     0.00   0.06  -0.07
  64   1    -0.02   0.00   0.02    -0.03   0.02  -0.02     0.00   0.06  -0.06
  65   1    -0.02   0.00   0.01    -0.03  -0.01  -0.00     0.00   0.01   0.00
  66   1    -0.01   0.01  -0.01    -0.02  -0.02   0.01     0.00  -0.03   0.05
  67   1     0.01   0.05  -0.04    -0.01   0.00  -0.01     0.01   0.05  -0.05
  68   1     0.01   0.07  -0.04    -0.01   0.01  -0.00     0.01   0.05  -0.04
  69   1     0.03  -0.02   0.03    -0.00   0.02  -0.04     0.01   0.08  -0.10
  70   1     0.04  -0.08   0.08     0.00   0.02  -0.06     0.01   0.08  -0.11
  71   1     0.03  -0.09   0.08    -0.00   0.00  -0.04     0.01   0.02  -0.04
  72   1     0.01  -0.05   0.03    -0.01  -0.02  -0.00     0.01  -0.04   0.05
  73   1    -0.02  -0.02  -0.03    -0.04  -0.02   0.01    -0.01  -0.00   0.06
  74   1    -0.02  -0.03  -0.03    -0.01   0.01   0.02    -0.03   0.02   0.05
  75   1    -0.01  -0.02  -0.02     0.03   0.04   0.03    -0.03   0.03   0.02
  76   1     0.01   0.00   0.00     0.04   0.04   0.02    -0.02   0.01  -0.00
  77   1     0.05   0.04   0.03     0.04   0.03   0.01     0.00  -0.01  -0.02
  78   1     0.07   0.06   0.04     0.04   0.01   0.00     0.02  -0.03  -0.03
  79   1     0.04   0.04   0.02     0.01  -0.03  -0.01     0.04  -0.05  -0.01
  80   1    -0.00   0.01  -0.01    -0.02  -0.04  -0.01     0.03  -0.05   0.03
  81   1    -0.04   0.01  -0.03    -0.02   0.01   0.00    -0.02   0.02  -0.01
  82   1    -0.04  -0.02  -0.03    -0.02   0.02   0.01    -0.02  -0.01   0.01
  83   1     0.02  -0.05   0.00     0.03  -0.04   0.01     0.00  -0.02   0.02
  84   1     0.06  -0.03   0.01     0.09  -0.02  -0.00     0.01  -0.02  -0.02
  85   1     0.06   0.01   0.01     0.10   0.05  -0.02     0.01  -0.03  -0.04
  86   1     0.03   0.03   0.00     0.05   0.09  -0.03     0.00  -0.02  -0.02
  87   1    -0.00   0.01  -0.01    -0.01   0.07  -0.02     0.00  -0.01   0.02
  88   1     0.00   0.00   0.03    -0.04  -0.05  -0.03     0.01   0.02   0.04
  89   1    -0.01   0.02   0.04     0.01  -0.10  -0.01    -0.02   0.04   0.01
                     13                     14                     15
                        a                      a                      a 
 Frequencies --    73.2242                79.0965                82.0477
 Red. masses --    10.3737                10.1979                10.4249
 Frc consts  --     0.0000                 0.0000                 0.0000
 IR Inten    --     0.1932                 0.0263                 0.3181
 Raman Activ --     0.0000                 0.0000                 0.0000
 Depolar     --     0.0000                 0.0000                 0.0000
 Atom AN      X      Y      Z        X      Y      Z        X      Y      Z
   1   6    -0.05  -0.02  -0.03    -0.02  -0.03   0.02    -0.05  -0.01  -0.10
   2   6    -0.04  -0.02   0.00    -0.02  -0.02   0.01    -0.04  -0.01  -0.05
   3   6    -0.03  -0.02   0.04    -0.03  -0.02   0.00    -0.01  -0.01   0.05
   4   6    -0.01  -0.02   0.04    -0.03  -0.02   0.00     0.01  -0.00   0.09
   5   6    -0.01  -0.02   0.05    -0.04  -0.01  -0.00     0.02  -0.00   0.10
   6   6    -0.01  -0.04  -0.05    -0.04  -0.01  -0.01     0.01  -0.02   0.01
   7   6    -0.02  -0.03  -0.04    -0.04  -0.00   0.00    -0.01  -0.03  -0.08
   8   6    -0.02  -0.02  -0.10    -0.03   0.01  -0.01    -0.00  -0.01  -0.12
   9   6    -0.01  -0.08  -0.37    -0.02   0.00  -0.06     0.03   0.08   0.16
  10   6    -0.01  -0.04  -0.35    -0.02   0.02  -0.07     0.04   0.12   0.17
  11   6    -0.01   0.05  -0.08    -0.02   0.03  -0.02    -0.01   0.07  -0.07
  12   7    -0.01   0.08  -0.06    -0.02   0.03  -0.05     0.00   0.08  -0.04
  13   6     0.01   0.06  -0.02    -0.04   0.01  -0.04    -0.01   0.06  -0.02
  14   6     0.04   0.04  -0.02    -0.07   0.02  -0.03    -0.04   0.06  -0.00
  15   6     0.06  -0.05   0.13    -0.10  -0.04   0.01    -0.05   0.02   0.03
  16   6     0.05  -0.12   0.26    -0.09  -0.10   0.04    -0.05  -0.02   0.05
  17   6     0.02  -0.07   0.20    -0.06  -0.10   0.02    -0.03  -0.02   0.04
  18   6     0.00   0.02   0.05    -0.03  -0.04  -0.02    -0.01   0.03   0.00
  19   6    -0.01   0.04   0.02     0.00  -0.03  -0.02     0.00   0.01   0.03
  20   6    -0.00   0.04   0.01     0.01  -0.04  -0.02     0.00  -0.02   0.07
  21   6     0.02  -0.00   0.07     0.01  -0.05  -0.00     0.02  -0.09   0.16
  22   6     0.02  -0.03   0.11     0.01  -0.05   0.02     0.02  -0.09   0.17
  23   6     0.01   0.01   0.06     0.01  -0.02  -0.00     0.01  -0.00   0.06
  24   6    -0.01   0.05   0.00     0.00  -0.01  -0.03     0.00   0.03   0.02
  25   6     0.04  -0.02   0.05    -0.01  -0.03   0.01     0.03  -0.09   0.14
  26   6     0.08  -0.08   0.12    -0.04  -0.04   0.03     0.05  -0.13   0.18
  27   6     0.09  -0.07   0.06    -0.05  -0.00   0.02     0.06  -0.02   0.00
  28   6     0.06  -0.00  -0.08    -0.03   0.05  -0.01     0.04   0.12  -0.22
  29   6     0.03   0.05  -0.14    -0.01   0.05  -0.03     0.02   0.13  -0.22
  30   6     0.02   0.03  -0.06     0.00   0.01  -0.01     0.01   0.01  -0.02
  31   6    -0.01   0.04  -0.05     0.03   0.00  -0.02    -0.00   0.00  -0.00
  32   6    -0.01   0.02  -0.06     0.05   0.00  -0.01    -0.02  -0.01  -0.01
  33   6    -0.03  -0.02  -0.09     0.27   0.16   0.08    -0.02  -0.01  -0.01
  34   6    -0.00  -0.03  -0.07     0.33   0.20   0.11     0.02   0.01   0.01
  35   6     0.05  -0.00  -0.03     0.12   0.04   0.01     0.05   0.03   0.03
  36   6     0.06   0.03   0.01    -0.11  -0.12  -0.09     0.04   0.03   0.03
  37   6     0.03   0.04  -0.01    -0.12  -0.12  -0.09     0.01   0.01   0.01
  38   6     0.01   0.05  -0.01    -0.12  -0.11  -0.09     0.00   0.01   0.01
  39   6    -0.02   0.04   0.01    -0.14  -0.13  -0.09    -0.02  -0.01  -0.00
  40   6    -0.09   0.01  -0.01     0.07   0.03   0.02    -0.05  -0.02  -0.01
  41   6    -0.14   0.01  -0.05     0.29   0.19   0.14    -0.04  -0.02  -0.01
  42   6    -0.10   0.03  -0.06     0.26   0.17   0.11    -0.01   0.00  -0.00
  43   6    -0.03   0.04  -0.03     0.05   0.01  -0.00     0.01   0.01   0.01
  44   6    -0.03   0.11   0.15    -0.04   0.04   0.03    -0.04  -0.03  -0.36
  45   6    -0.03   0.07   0.15    -0.04   0.03   0.04    -0.05  -0.08  -0.40
  46   7    -0.02  -0.01   0.07    -0.04  -0.00   0.02    -0.02  -0.05  -0.12
  47   6    -0.02   0.00   0.12    -0.04  -0.01   0.02    -0.01  -0.02   0.02
  48   6    -0.00   0.00   0.10    -0.02  -0.00   0.01    -0.00  -0.02   0.02
  49   6     0.02  -0.03   0.06     0.00  -0.02   0.01     0.01  -0.03   0.02
  50   6     0.06  -0.04  -0.05     0.04  -0.01  -0.01     0.03  -0.03   0.01
  51   6     0.06  -0.03  -0.13     0.04   0.02  -0.03     0.03  -0.01  -0.01
  52   6     0.04   0.00  -0.08     0.01   0.04  -0.02     0.02  -0.00  -0.01
  53   6     0.00   0.02   0.04    -0.02   0.03  -0.00     0.00  -0.00   0.01
  54   7    -0.01   0.00   0.15    -0.05  -0.01   0.01     0.01   0.01   0.17
  55   6    -0.02  -0.02   0.02    -0.03  -0.02   0.00     0.01  -0.00   0.06
  56   6    -0.04  -0.01  -0.02    -0.03  -0.03   0.01    -0.03  -0.00  -0.03
  57   1    -0.02  -0.00  -0.02    -0.00  -0.01   0.01    -0.02  -0.01  -0.05
  58   1    -0.01  -0.01   0.00    -0.00  -0.01   0.00    -0.02  -0.01  -0.03
  59   1    -0.01  -0.01   0.02    -0.01  -0.00   0.00     0.00  -0.00   0.02
  60   1    -0.00  -0.02  -0.04    -0.01  -0.00  -0.01     0.01  -0.01  -0.01
  61   1    -0.00  -0.05  -0.17    -0.00  -0.00  -0.03     0.02   0.04   0.11
  62   1    -0.00  -0.02  -0.15    -0.00   0.00  -0.03     0.02   0.06   0.11
  63   1     0.01   0.02  -0.04    -0.02   0.02  -0.02    -0.01   0.03   0.00
  64   1     0.02  -0.02   0.04    -0.04  -0.01   0.00    -0.02   0.00   0.01
  65   1     0.02  -0.06   0.11    -0.03  -0.04   0.03    -0.02  -0.02   0.02
  66   1     0.01  -0.03   0.08    -0.02  -0.04   0.01    -0.01  -0.02   0.02
  67   1     0.01  -0.02   0.05     0.01  -0.02   0.01     0.01  -0.04   0.07
  68   1     0.00   0.00   0.03     0.00  -0.01  -0.00     0.00   0.01   0.00
  69   1     0.03  -0.04   0.06    -0.02  -0.02   0.02     0.02  -0.06   0.10
  70   1     0.03  -0.03   0.03    -0.02  -0.00   0.01     0.02  -0.01   0.01
  71   1     0.02   0.00  -0.04    -0.01   0.02  -0.01     0.01   0.06  -0.11
  72   1     0.00   0.03  -0.07     0.00   0.03  -0.01     0.00   0.07  -0.11
  73   1    -0.02  -0.01  -0.04     0.12   0.08   0.04    -0.01  -0.01  -0.01
  74   1    -0.01  -0.02  -0.03     0.15   0.10   0.06     0.01   0.00   0.00
  75   1     0.02  -0.00  -0.00     0.04   0.02   0.01     0.02   0.02   0.01
  76   1     0.03   0.02   0.01    -0.07  -0.07  -0.04     0.02   0.01   0.01
  77   1     0.00   0.01   0.01    -0.08  -0.07  -0.05    -0.01  -0.01  -0.00
  78   1    -0.04  -0.00  -0.00     0.02   0.01   0.01    -0.02  -0.01  -0.01
  79   1    -0.06  -0.00  -0.02     0.14   0.10   0.07    -0.02  -0.01  -0.01
  80   1    -0.04   0.01  -0.02     0.12   0.08   0.06    -0.00   0.00  -0.00
  81   1    -0.01   0.05   0.10    -0.01   0.02   0.02    -0.02  -0.02  -0.15
  82   1    -0.01   0.03   0.10    -0.01   0.01   0.02    -0.02  -0.05  -0.18
  83   1     0.01  -0.01   0.03    -0.00  -0.01   0.01     0.00  -0.01   0.01
  84   1     0.02  -0.02  -0.02     0.02  -0.01  -0.00     0.01  -0.01   0.00
  85   1     0.02  -0.01  -0.07     0.02   0.01  -0.01     0.01  -0.00  -0.01
  86   1     0.01   0.00  -0.04     0.01   0.02  -0.01     0.01   0.00  -0.01
  87   1    -0.00   0.01   0.02    -0.01   0.01   0.00    -0.00   0.00   0.00
  88   1    -0.00  -0.00   0.01    -0.01  -0.01   0.00     0.01   0.00   0.03
  89   1    -0.01  -0.00  -0.01    -0.01  -0.01   0.00    -0.01  -0.00  -0.02
                     16                     17                     18
                        a                      a                      a 
 Frequencies --    91.7193                99.5180               115.4342
 Red. masses --    11.1868                10.8152                10.8752
 Frc consts  --     0.0000                 0.0000                 0.0000
 IR Inten    --     0.7077                 2.2371                 0.3998
 Raman Activ --     0.0000                 0.0000                 0.0000
 Depolar     --     0.0000                 0.0000                 0.0000
 Atom AN      X      Y      Z        X      Y      Z        X      Y      Z
   1   6    -0.03   0.06   0.03    -0.03  -0.08  -0.26     0.01  -0.03   0.07
   2   6    -0.06   0.01  -0.02     0.03  -0.01  -0.14    -0.00  -0.01   0.02
   3   6    -0.04  -0.02  -0.05     0.06   0.07   0.14    -0.04   0.00  -0.05
   4   6    -0.00  -0.02  -0.04     0.03   0.07   0.27    -0.06  -0.00  -0.05
   5   6     0.02  -0.04  -0.05     0.01   0.08   0.26    -0.06   0.01  -0.04
   6   6     0.03   0.02   0.21     0.01   0.10   0.32    -0.05   0.03   0.09
   7   6     0.04   0.03   0.20    -0.01   0.00  -0.04    -0.03   0.03   0.13
   8   6     0.04   0.07   0.23    -0.02  -0.01  -0.05    -0.03   0.01   0.08
   9   6     0.07   0.08   0.17    -0.03  -0.05  -0.13    -0.03  -0.00   0.05
  10   6     0.07   0.08   0.01    -0.03  -0.05  -0.10    -0.03  -0.04  -0.04
  11   6     0.02   0.09  -0.08    -0.01  -0.03   0.01    -0.01  -0.07  -0.09
  12   7     0.02   0.10  -0.21    -0.01  -0.03   0.05    -0.00  -0.04  -0.09
  13   6     0.01   0.06  -0.15     0.00  -0.02   0.04     0.07  -0.02  -0.04
  14   6     0.00   0.07  -0.16     0.02  -0.01   0.02     0.20  -0.14   0.03
  15   6    -0.00  -0.04  -0.02     0.03   0.01   0.00     0.30  -0.06   0.06
  16   6    -0.00  -0.16   0.13     0.03   0.03  -0.00     0.27   0.11   0.00
  17   6     0.01  -0.14   0.11     0.01   0.03   0.01     0.15   0.19  -0.03
  18   6     0.01  -0.02  -0.05    -0.00  -0.00   0.03     0.05   0.08  -0.04
  19   6     0.02  -0.01  -0.06    -0.01   0.00   0.03    -0.04   0.07  -0.04
  20   6     0.01  -0.04   0.00    -0.01   0.02  -0.00    -0.05   0.03   0.03
  21   6    -0.01  -0.07   0.04     0.00   0.03  -0.02    -0.02   0.01   0.06
  22   6    -0.02  -0.06   0.02     0.00   0.02  -0.00    -0.04   0.01  -0.01
  23   6    -0.01  -0.00  -0.08    -0.00  -0.01   0.03    -0.04   0.04  -0.07
  24   6     0.02   0.03  -0.12    -0.01  -0.01   0.04    -0.05   0.03  -0.07
  25   6    -0.03  -0.06   0.06     0.01   0.03  -0.03     0.03  -0.05   0.06
  26   6    -0.08  -0.07   0.09     0.03   0.03  -0.04     0.16  -0.07   0.05
  27   6    -0.10   0.03   0.03     0.04  -0.02  -0.01     0.20  -0.10  -0.10
  28   6    -0.08   0.13  -0.06     0.03  -0.06   0.02     0.14  -0.11  -0.21
  29   6    -0.03   0.12  -0.07     0.01  -0.05   0.02     0.02  -0.11  -0.17
  30   6    -0.01   0.02   0.00     0.00  -0.00  -0.01    -0.02  -0.07  -0.01
  31   6     0.01  -0.00   0.01    -0.01   0.00  -0.01    -0.08  -0.04   0.02
  32   6     0.01  -0.01   0.00    -0.01   0.00  -0.01    -0.09  -0.02   0.03
  33   6    -0.03  -0.04  -0.01     0.01   0.02  -0.00    -0.04   0.05   0.09
  34   6    -0.03  -0.04  -0.01     0.02   0.02   0.00    -0.01   0.11   0.10
  35   6     0.01  -0.01   0.00     0.00   0.01  -0.00    -0.05   0.09   0.06
  36   6     0.04   0.02   0.02    -0.02  -0.01  -0.01    -0.10   0.02   0.00
  37   6     0.04   0.01   0.02    -0.02  -0.01  -0.01    -0.11  -0.03   0.00
  38   6     0.04   0.01   0.02    -0.02  -0.00  -0.01    -0.10  -0.04   0.00
  39   6     0.02  -0.00  -0.00    -0.02   0.00   0.00    -0.07  -0.02   0.03
  40   6    -0.03  -0.04  -0.03     0.00   0.02   0.02     0.01   0.04   0.07
  41   6    -0.04  -0.05  -0.04     0.01   0.03   0.02     0.04   0.06   0.09
  42   6    -0.01  -0.03  -0.01    -0.00   0.02   0.00    -0.02   0.01   0.05
  43   6     0.03   0.00   0.01    -0.02   0.00  -0.01    -0.09  -0.04   0.02
  44   6    -0.01   0.10   0.05     0.00  -0.01   0.05    -0.02  -0.06  -0.08
  45   6    -0.00   0.10   0.21     0.00  -0.01   0.01    -0.02  -0.03   0.01
  46   7     0.02  -0.02   0.07    -0.04  -0.09  -0.34    -0.03   0.04   0.14
  47   6     0.01  -0.07  -0.16    -0.03  -0.05  -0.20    -0.04   0.01  -0.01
  48   6     0.01  -0.07  -0.16    -0.02  -0.05  -0.23    -0.03   0.02  -0.02
  49   6     0.01  -0.06  -0.10    -0.01  -0.04  -0.12    -0.02   0.01  -0.02
  50   6     0.02  -0.02   0.07     0.02   0.03   0.11    -0.01   0.02  -0.01
  51   6     0.02   0.01   0.18     0.02   0.07   0.21    -0.01   0.04   0.01
  52   6     0.02  -0.01   0.08     0.00   0.04   0.04    -0.02   0.04   0.00
  53   6     0.01  -0.05  -0.09    -0.02  -0.02  -0.18    -0.03   0.03  -0.01
  54   7    -0.01  -0.12  -0.31    -0.02   0.02   0.03    -0.06  -0.01  -0.14
  55   6     0.02   0.03  -0.00    -0.00   0.01   0.22    -0.06  -0.02  -0.03
  56   6     0.01   0.06   0.04    -0.04  -0.07  -0.05    -0.03  -0.04   0.03
  57   1    -0.01   0.02   0.02    -0.02  -0.04  -0.15     0.01  -0.01   0.04
  58   1    -0.03   0.00  -0.01     0.01  -0.00  -0.08     0.01  -0.00   0.01
  59   1    -0.02  -0.01  -0.03     0.03   0.04   0.06    -0.01   0.01  -0.03
  60   1     0.01   0.02   0.12     0.01   0.06   0.18    -0.02   0.01   0.05
  61   1     0.03   0.02   0.06    -0.01  -0.02  -0.07    -0.01   0.00   0.03
  62   1     0.03   0.02  -0.02    -0.01  -0.02  -0.05    -0.01  -0.02  -0.02
  63   1     0.00   0.04  -0.07     0.01  -0.01   0.00     0.06  -0.08   0.01
  64   1    -0.00  -0.01  -0.00     0.01   0.01  -0.00     0.11  -0.04   0.03
  65   1    -0.00  -0.08   0.08     0.01   0.01  -0.01     0.10   0.05   0.00
  66   1     0.00  -0.07   0.06     0.00   0.01   0.00     0.04   0.09  -0.01
  67   1    -0.01  -0.03   0.02     0.00   0.01  -0.00    -0.02   0.00  -0.00
  68   1    -0.00   0.00  -0.03     0.00  -0.00   0.02    -0.01   0.02  -0.03
  69   1    -0.03  -0.04   0.04     0.01   0.02  -0.02     0.07  -0.01   0.04
  70   1    -0.04   0.01   0.01     0.02  -0.01  -0.00     0.08  -0.03  -0.03
  71   1    -0.03   0.06  -0.04     0.01  -0.03   0.01     0.05  -0.03  -0.10
  72   1    -0.00   0.06  -0.04    -0.00  -0.03   0.01    -0.02  -0.04  -0.08
  73   1    -0.02  -0.02  -0.01     0.01   0.01  -0.00    -0.01   0.02   0.04
  74   1    -0.02  -0.02  -0.01     0.01   0.01   0.00     0.01   0.05   0.04
  75   1     0.00  -0.00   0.00     0.00   0.00  -0.00    -0.01   0.04   0.02
  76   1     0.02   0.01   0.01    -0.01  -0.00  -0.00    -0.03   0.00  -0.01
  77   1     0.01   0.00   0.00    -0.01  -0.00   0.00    -0.02  -0.01   0.01
  78   1    -0.02  -0.02  -0.01     0.00   0.01   0.01     0.02   0.02   0.03
  79   1    -0.02  -0.03  -0.02     0.01   0.01   0.01     0.03   0.03   0.04
  80   1    -0.01  -0.01  -0.01     0.00   0.01   0.00    -0.00   0.01   0.02
  81   1    -0.01   0.03   0.00     0.00   0.00   0.03    -0.01  -0.02  -0.04
  82   1    -0.01   0.03   0.08     0.00   0.00   0.01    -0.00  -0.00   0.01
  83   1     0.00  -0.02  -0.05    -0.00  -0.02  -0.05    -0.01   0.00  -0.01
  84   1     0.01  -0.00   0.04     0.01   0.01   0.06    -0.00   0.00  -0.00
  85   1     0.01   0.02   0.10     0.01   0.04   0.12    -0.00   0.01   0.01
  86   1     0.01   0.00   0.04     0.00   0.02   0.03    -0.00   0.02   0.00
  87   1     0.00  -0.02  -0.04    -0.01  -0.01  -0.08    -0.01   0.01  -0.01
  88   1     0.02   0.01   0.00    -0.01   0.00   0.10    -0.03  -0.01  -0.02
  89   1     0.01   0.03   0.02    -0.02  -0.04  -0.03    -0.01  -0.02   0.02
                     19                     20                     21
                        a                      a                      a 
 Frequencies --   118.6762               124.5259               133.7247
 Red. masses --    10.9453                10.6211                 9.9793
 Frc consts  --     0.0000                 0.0000                 0.0000
 IR Inten    --     6.2257                 1.8368                 0.6532
 Raman Activ --     0.0000                 0.0000                 0.0000
 Depolar     --     0.0000                 0.0000                 0.0000
 Atom AN      X      Y      Z        X      Y      Z        X      Y      Z
   1   6     0.07   0.08  -0.03    -0.01  -0.07   0.06     0.03   0.00  -0.01
   2   6     0.06   0.05  -0.02    -0.01  -0.02   0.02     0.03   0.01  -0.01
   3   6     0.08   0.02  -0.02    -0.06   0.01  -0.03     0.03   0.02   0.00
   4   6     0.10   0.02  -0.03    -0.10   0.00  -0.03     0.01   0.02   0.01
   5   6     0.11   0.00  -0.02    -0.10   0.02  -0.02     0.01   0.02   0.01
   6   6     0.10  -0.02   0.00    -0.09   0.03   0.05     0.01  -0.00  -0.00
   7   6     0.10  -0.02   0.02    -0.07   0.02   0.06     0.01  -0.02  -0.02
   8   6     0.08  -0.04   0.02    -0.06  -0.01   0.03     0.01  -0.04  -0.00
   9   6     0.05  -0.05   0.04    -0.05   0.00   0.10    -0.01  -0.06  -0.07
  10   6     0.04  -0.05   0.03    -0.04  -0.03   0.07    -0.01  -0.05  -0.03
  11   6     0.00  -0.03   0.01    -0.01  -0.07   0.00    -0.00  -0.03   0.05
  12   7    -0.02  -0.02   0.02     0.02  -0.08   0.06    -0.01  -0.02   0.05
  13   6    -0.04  -0.00  -0.01     0.06  -0.03   0.03    -0.02  -0.05   0.08
  14   6    -0.09   0.12  -0.14     0.12   0.13  -0.21    -0.04  -0.05   0.10
  15   6    -0.12   0.09  -0.14     0.16   0.19  -0.23    -0.05   0.01  -0.01
  16   6    -0.11  -0.08   0.04     0.15   0.02   0.07    -0.05   0.07  -0.11
  17   6    -0.07  -0.17   0.14     0.10  -0.13   0.30    -0.03   0.04  -0.07
  18   6    -0.04  -0.08   0.08     0.05  -0.11   0.20    -0.02  -0.03   0.04
  19   6    -0.05  -0.07   0.07     0.02  -0.10   0.18    -0.01  -0.01   0.01
  20   6    -0.08   0.00   0.01     0.03  -0.01   0.04    -0.00  -0.03   0.03
  21   6    -0.06   0.04  -0.02     0.02   0.05  -0.04    -0.00   0.02  -0.04
  22   6    -0.06   0.02  -0.01     0.02   0.03  -0.04    -0.00   0.18  -0.22
  23   6    -0.05  -0.02   0.02     0.01  -0.02   0.03    -0.01   0.18  -0.22
  24   6    -0.04  -0.04   0.05     0.01  -0.09   0.12    -0.01   0.04  -0.04
  25   6    -0.02   0.02  -0.07     0.02   0.08  -0.08    -0.01  -0.02   0.03
  26   6     0.07  -0.01  -0.06     0.02   0.04  -0.02    -0.02  -0.11   0.16
  27   6     0.11  -0.13  -0.04     0.02  -0.03   0.09    -0.03  -0.07   0.12
  28   6     0.06  -0.20  -0.04     0.03  -0.05   0.12    -0.03   0.08  -0.08
  29   6    -0.03  -0.15  -0.08     0.03   0.01   0.03    -0.01   0.13  -0.14
  30   6    -0.06  -0.03  -0.07     0.03   0.07  -0.06    -0.01   0.04  -0.04
  31   6    -0.12  -0.00  -0.05     0.04   0.05  -0.04    -0.00  -0.02   0.03
  32   6    -0.14  -0.01  -0.04     0.02   0.01  -0.06    -0.08  -0.07   0.01
  33   6    -0.11   0.04  -0.00     0.01  -0.05  -0.12    -0.22  -0.16  -0.04
  34   6    -0.01   0.13   0.04     0.04  -0.07  -0.10    -0.12  -0.08   0.00
  35   6     0.02   0.16   0.05     0.11  -0.03  -0.04     0.13   0.12   0.11
  36   6    -0.05   0.09   0.01     0.10   0.01  -0.00     0.18   0.14   0.12
  37   6    -0.13   0.01  -0.03     0.04   0.02  -0.03     0.02   0.00   0.04
  38   6    -0.13   0.01  -0.02     0.03   0.03  -0.03    -0.02  -0.04   0.01
  39   6    -0.10   0.04   0.06    -0.07  -0.04  -0.07    -0.17  -0.15  -0.10
  40   6    -0.06   0.13   0.12    -0.10  -0.05  -0.08    -0.12  -0.15  -0.09
  41   6    -0.06   0.16   0.10     0.00   0.04  -0.04     0.13   0.01   0.05
  42   6    -0.11   0.11   0.02     0.09   0.09  -0.00     0.22   0.08   0.13
  43   6    -0.13   0.02  -0.03     0.07   0.07  -0.02     0.08   0.02   0.07
  44   6     0.04  -0.02  -0.01    -0.02  -0.10  -0.09     0.01  -0.01   0.09
  45   6     0.05  -0.03  -0.01    -0.02  -0.07  -0.09     0.01  -0.01   0.08
  46   7     0.15  -0.01   0.02    -0.08   0.02   0.06     0.04  -0.01  -0.02
  47   6     0.15   0.00  -0.00    -0.08   0.02   0.00     0.04   0.01  -0.00
  48   6     0.12  -0.01  -0.00    -0.07   0.03  -0.00     0.04   0.01  -0.00
  49   6     0.06   0.03  -0.02    -0.05   0.02  -0.00     0.02   0.02  -0.01
  50   6    -0.02   0.00  -0.00    -0.02   0.03  -0.01    -0.01   0.02  -0.00
  51   6    -0.04  -0.08   0.02    -0.01   0.06  -0.02    -0.02  -0.01   0.01
  52   6     0.02  -0.13   0.04    -0.03   0.08  -0.02     0.00  -0.03   0.01
  53   6     0.11  -0.10   0.02    -0.06   0.07  -0.01     0.03  -0.02   0.00
  54   7     0.15   0.00  -0.03    -0.10   0.02  -0.05     0.03   0.02   0.01
  55   6     0.12   0.06  -0.04    -0.11  -0.05  -0.01     0.01   0.01   0.00
  56   6     0.10   0.09  -0.04    -0.07  -0.08   0.04     0.02   0.00  -0.01
  57   1     0.01   0.03  -0.01     0.01  -0.03   0.03     0.01  -0.00  -0.01
  58   1     0.01   0.01  -0.00     0.01  -0.00   0.01     0.01   0.00  -0.00
  59   1     0.02  -0.00  -0.00    -0.02   0.01  -0.02     0.01   0.01   0.00
  60   1     0.03  -0.01   0.00    -0.03   0.01   0.02     0.00  -0.00   0.00
  61   1     0.01  -0.01   0.02    -0.01   0.01   0.05    -0.01  -0.02  -0.04
  62   1     0.02  -0.01   0.01    -0.02  -0.01   0.03    -0.00  -0.02  -0.02
  63   1    -0.03   0.07  -0.07     0.04   0.06  -0.11    -0.01  -0.02   0.04
  64   1    -0.04   0.05  -0.07     0.06   0.10  -0.13    -0.02   0.01  -0.01
  65   1    -0.04  -0.04   0.03     0.05   0.01   0.03    -0.02   0.04  -0.06
  66   1    -0.02  -0.09   0.07     0.03  -0.07   0.15    -0.01   0.02  -0.04
  67   1    -0.02   0.01  -0.01     0.00   0.03  -0.03    -0.00   0.08  -0.11
  68   1    -0.01  -0.01   0.00     0.00   0.00  -0.00    -0.00   0.08  -0.09
  69   1     0.04   0.02  -0.01     0.01   0.01  -0.01    -0.01  -0.06   0.08
  70   1     0.05  -0.05  -0.01     0.01  -0.02   0.05    -0.01  -0.04   0.07
  71   1     0.02  -0.08  -0.01     0.01  -0.03   0.06    -0.01   0.04  -0.04
  72   1    -0.02  -0.06  -0.03     0.01  -0.00   0.02    -0.00   0.06  -0.07
  73   1    -0.04   0.01   0.00    -0.01  -0.02  -0.05    -0.10  -0.08  -0.03
  74   1     0.01   0.05   0.02     0.01  -0.03  -0.04    -0.06  -0.04  -0.01
  75   1     0.03   0.07   0.03     0.04  -0.01  -0.00     0.08   0.07   0.05
  76   1    -0.00   0.03  -0.00     0.04   0.01   0.02     0.10   0.07   0.05
  77   1    -0.03   0.00   0.03    -0.04  -0.03  -0.03    -0.09  -0.07  -0.06
  78   1    -0.00   0.05   0.05    -0.05  -0.03  -0.04    -0.07  -0.07  -0.05
  79   1    -0.01   0.06   0.04    -0.00   0.01  -0.01     0.06   0.02   0.03
  80   1    -0.03   0.04  -0.00     0.04   0.04   0.01     0.11   0.04   0.06
  81   1     0.02  -0.01  -0.01    -0.01  -0.04  -0.05     0.00  -0.00   0.03
  82   1     0.01  -0.01  -0.00     0.00  -0.02  -0.05     0.00  -0.00   0.04
  83   1     0.02   0.03  -0.01    -0.01  -0.00   0.00     0.01   0.01  -0.00
  84   1    -0.02   0.01  -0.00     0.00   0.00  -0.00    -0.01   0.01  -0.00
  85   1    -0.03  -0.03   0.01     0.00   0.02  -0.01    -0.01  -0.01   0.00
  86   1     0.00  -0.06   0.02    -0.01   0.03  -0.01    -0.00  -0.02   0.00
  87   1     0.05  -0.04   0.01    -0.02   0.03  -0.00     0.02  -0.01   0.00
  88   1     0.04   0.02  -0.01    -0.05  -0.02  -0.01     0.00   0.00   0.00
  89   1     0.03   0.03  -0.01    -0.02  -0.03   0.02     0.00  -0.00  -0.00
                     22                     23                     24
                        a                      a                      a 
 Frequencies --   144.2235               159.7084               162.5180
 Red. masses --    10.0457                10.9034                11.6332
 Frc consts  --     0.0000                 0.0000                 0.0000
 IR Inten    --     0.4481                 3.7953                 1.0385
 Raman Activ --     0.0000                 0.0000                 0.0000
 Depolar     --     0.0000                 0.0000                 0.0000
 Atom AN      X      Y      Z        X      Y      Z        X      Y      Z
   1   6     0.05  -0.03   0.02    -0.10   0.09  -0.09     0.01  -0.00   0.04
   2   6     0.06   0.02  -0.00    -0.12  -0.04   0.00     0.00   0.01  -0.01
   3   6     0.01   0.06  -0.02     0.01  -0.14   0.09    -0.02   0.02  -0.04
   4   6    -0.04   0.05  -0.01     0.13  -0.12   0.06    -0.03   0.01  -0.03
   5   6    -0.04   0.05   0.01     0.10  -0.12  -0.02    -0.01   0.01  -0.02
   6   6    -0.04   0.01   0.02     0.11   0.02  -0.06     0.00   0.07   0.31
   7   6    -0.01  -0.04  -0.00     0.02   0.14  -0.01     0.02   0.04   0.23
   8   6    -0.01  -0.09   0.01     0.03   0.21  -0.04    -0.01  -0.05  -0.08
   9   6    -0.02  -0.11  -0.02    -0.03   0.18  -0.05    -0.01  -0.10  -0.25
  10   6    -0.01  -0.09   0.01    -0.05   0.08  -0.03    -0.01  -0.07  -0.23
  11   6    -0.01  -0.07   0.07     0.03   0.03  -0.01    -0.01  -0.03  -0.09
  12   7    -0.01  -0.04   0.08     0.03  -0.10   0.08     0.00  -0.00   0.08
  13   6    -0.01  -0.04   0.08     0.02  -0.14   0.12    -0.02  -0.01   0.09
  14   6    -0.02   0.05  -0.02     0.01  -0.09   0.06    -0.11  -0.00   0.13
  15   6    -0.03   0.10  -0.11     0.00   0.01  -0.10    -0.17  -0.01   0.05
  16   6    -0.03   0.03  -0.03     0.00   0.03  -0.15    -0.16   0.01  -0.07
  17   6    -0.02  -0.07   0.09     0.01  -0.07  -0.01    -0.08  -0.01  -0.09
  18   6    -0.01  -0.07   0.11     0.03  -0.14   0.11    -0.02  -0.02   0.03
  19   6    -0.00  -0.03   0.06     0.03  -0.12   0.09     0.02  -0.01   0.04
  20   6     0.01  -0.00   0.01     0.01  -0.04   0.01     0.03   0.01   0.02
  21   6     0.01   0.02  -0.03     0.01   0.00  -0.05     0.04   0.01   0.03
  22   6     0.01   0.16  -0.20     0.01   0.05  -0.12     0.04   0.00   0.05
  23   6     0.00   0.17  -0.20     0.02   0.00  -0.08     0.04   0.00   0.06
  24   6    -0.01   0.02  -0.01     0.04  -0.09   0.05     0.02  -0.01   0.06
  25   6     0.01  -0.04   0.07     0.01  -0.00  -0.03     0.04   0.03   0.01
  26   6    -0.01  -0.13   0.19     0.01  -0.05   0.04     0.05   0.04  -0.00
  27   6    -0.01  -0.04   0.10     0.01  -0.06   0.05     0.04   0.04   0.01
  28   6    -0.01   0.14  -0.14     0.01   0.01  -0.04     0.05   0.02   0.04
  29   6     0.00   0.15  -0.16     0.01   0.04  -0.08     0.05   0.02   0.04
  30   6     0.01   0.01   0.00     0.01   0.01  -0.04     0.04   0.03   0.02
  31   6     0.01  -0.01   0.02     0.01  -0.00  -0.00     0.04   0.03   0.01
  32   6     0.06   0.03   0.03    -0.00   0.00   0.00     0.04   0.04   0.01
  33   6     0.19   0.12   0.10     0.01   0.05   0.04     0.03   0.02   0.00
  34   6     0.11   0.07   0.06    -0.01   0.07   0.03    -0.02  -0.01  -0.01
  35   6    -0.12  -0.10  -0.05    -0.06   0.04  -0.01    -0.02  -0.02  -0.02
  36   6    -0.16  -0.13  -0.07    -0.05   0.01  -0.03     0.01   0.01   0.00
  37   6    -0.01  -0.02  -0.00    -0.01  -0.00  -0.01     0.04   0.03   0.02
  38   6     0.05   0.01   0.02     0.01   0.01   0.01     0.04   0.03   0.02
  39   6     0.18   0.11   0.08     0.02   0.03   0.06     0.01   0.01   0.01
  40   6     0.13   0.06   0.05    -0.02   0.04   0.07    -0.03  -0.00  -0.01
  41   6    -0.09  -0.11  -0.07    -0.08   0.02   0.02    -0.03   0.01  -0.01
  42   6    -0.15  -0.14  -0.09    -0.07   0.01  -0.01     0.02   0.03   0.01
  43   6    -0.02  -0.03  -0.01    -0.00   0.01  -0.00     0.04   0.04   0.01
  44   6    -0.01  -0.08   0.06     0.10   0.07  -0.02    -0.02  -0.07  -0.24
  45   6    -0.01  -0.09   0.04     0.10   0.17  -0.03    -0.02  -0.09  -0.25
  46   7     0.04  -0.02  -0.03    -0.12   0.10   0.09     0.05   0.07   0.36
  47   6     0.05   0.03  -0.01    -0.15  -0.06   0.02     0.02   0.00   0.01
  48   6     0.06   0.04  -0.01    -0.19  -0.08   0.03     0.03   0.00   0.01
  49   6     0.02   0.07  -0.02    -0.08  -0.16   0.05     0.02   0.01  -0.01
  50   6    -0.04   0.05  -0.01     0.08  -0.12   0.02    -0.01  -0.00  -0.02
  51   6    -0.05   0.00   0.00     0.11   0.02  -0.02    -0.01  -0.02  -0.00
  52   6    -0.01  -0.03   0.01    -0.01   0.11  -0.03     0.01  -0.03   0.02
  53   6     0.05  -0.01  -0.00    -0.16   0.06   0.00     0.03  -0.02   0.02
  54   7     0.01   0.07   0.01    -0.05  -0.18  -0.06    -0.03  -0.09  -0.35
  55   6    -0.06  -0.00  -0.01     0.17   0.01   0.06    -0.03   0.00  -0.03
  56   6    -0.01  -0.05   0.00     0.06   0.12  -0.02    -0.01  -0.01   0.02
  57   1     0.02  -0.02   0.01    -0.06   0.04  -0.05     0.01  -0.00   0.02
  58   1     0.03   0.01  -0.00    -0.07  -0.02  -0.00     0.00   0.00  -0.01
  59   1     0.01   0.03  -0.01    -0.00  -0.06   0.05    -0.01   0.01  -0.03
  60   1    -0.02   0.00   0.01     0.05   0.01  -0.03    -0.00   0.04   0.16
  61   1    -0.01  -0.04  -0.02    -0.02   0.06  -0.02    -0.00  -0.04  -0.10
  62   1    -0.00  -0.03  -0.00    -0.03   0.01  -0.00    -0.00  -0.02  -0.07
  63   1    -0.01   0.03  -0.02     0.00  -0.03   0.03    -0.04   0.01   0.05
  64   1    -0.01   0.06  -0.07    -0.00   0.02  -0.05    -0.07  -0.00   0.02
  65   1    -0.01   0.02  -0.02    -0.00   0.04  -0.08    -0.06   0.01  -0.04
  66   1    -0.00  -0.03   0.04     0.00  -0.02  -0.01    -0.02  -0.00  -0.06
  67   1     0.00   0.08  -0.10    -0.00   0.04  -0.06     0.01   0.00   0.01
  68   1     0.00   0.08  -0.09     0.00   0.01  -0.04     0.01   0.00   0.01
  69   1    -0.00  -0.07   0.09     0.00  -0.02   0.03     0.01   0.02  -0.00
  70   1    -0.01  -0.03   0.05     0.00  -0.03   0.03     0.01   0.01   0.00
  71   1    -0.01   0.07  -0.08     0.00   0.01  -0.01     0.01   0.00   0.02
  72   1     0.00   0.08  -0.08     0.00   0.02  -0.04     0.01   0.00   0.02
  73   1     0.09   0.06   0.05     0.01   0.02   0.03     0.01   0.01   0.00
  74   1     0.06   0.04   0.03     0.00   0.03   0.02    -0.01  -0.01  -0.01
  75   1    -0.07  -0.05  -0.03    -0.02   0.01  -0.01    -0.02  -0.01  -0.01
  76   1    -0.09  -0.07  -0.04    -0.02   0.00  -0.02     0.00   0.00   0.00
  77   1     0.09   0.06   0.04     0.02   0.01   0.03     0.00   0.00   0.00
  78   1     0.07   0.04   0.03    -0.00   0.02   0.03    -0.02  -0.01  -0.01
  79   1    -0.06  -0.05  -0.04    -0.04   0.00   0.00    -0.02  -0.00  -0.01
  80   1    -0.08  -0.07  -0.04    -0.03   0.01  -0.01     0.01   0.01   0.00
  81   1    -0.01  -0.02   0.02     0.05   0.01  -0.01    -0.01  -0.02  -0.08
  82   1    -0.00  -0.03   0.01     0.05   0.06  -0.01    -0.01  -0.03  -0.09
  83   1     0.01   0.03  -0.01    -0.03  -0.08   0.02     0.01   0.01  -0.00
  84   1    -0.02   0.02  -0.00     0.05  -0.06   0.01    -0.01   0.00  -0.01
  85   1    -0.03  -0.00   0.00     0.06   0.02  -0.01    -0.01  -0.01  -0.00
  86   1    -0.00  -0.02   0.00     0.00   0.07  -0.02     0.00  -0.01   0.01
  87   1     0.02  -0.01   0.00    -0.08   0.04  -0.00     0.01  -0.01   0.01
  88   1    -0.03  -0.00  -0.01     0.09   0.01   0.02    -0.01  -0.00  -0.01
  89   1    -0.01  -0.03   0.00     0.03   0.06  -0.01    -0.00  -0.00   0.01
                     25                     26                     27
                        a                      a                      a 
 Frequencies --   164.5822               201.9215               208.1539
 Red. masses --    11.0996                11.1338                10.8937
 Frc consts  --     0.0000                 0.0000                 0.0000
 IR Inten    --     2.1944                 3.6490                 1.9573
 Raman Activ --     0.0000                 0.0000                 0.0000
 Depolar     --     0.0000                 0.0000                 0.0000
 Atom AN      X      Y      Z        X      Y      Z        X      Y      Z
   1   6     0.02   0.08  -0.05     0.02   0.01   0.15    -0.06  -0.05  -0.25
   2   6     0.01   0.02  -0.01    -0.02  -0.01   0.00     0.02  -0.02   0.02
   3   6     0.06  -0.03   0.02    -0.05  -0.03  -0.14     0.08   0.01   0.27
   4   6     0.10  -0.02   0.01    -0.03  -0.02  -0.11     0.06   0.01   0.17
   5   6     0.09  -0.03  -0.02     0.01   0.02   0.11    -0.02  -0.02  -0.11
   6   6     0.08  -0.00   0.04     0.00  -0.03  -0.10    -0.04  -0.09  -0.38
   7   6     0.04   0.03   0.04     0.02   0.04   0.14    -0.01   0.00  -0.00
   8   6     0.02   0.04  -0.02     0.02   0.05   0.02    -0.02  -0.08  -0.01
   9   6    -0.01   0.02  -0.03     0.01   0.03  -0.05    -0.03  -0.08   0.03
  10   6    -0.02   0.02  -0.03     0.00   0.02  -0.09    -0.02  -0.09   0.07
  11   6    -0.06   0.04  -0.01     0.00   0.03  -0.07    -0.02  -0.10   0.05
  12   7    -0.08   0.04   0.07     0.00   0.01   0.01    -0.01  -0.02   0.00
  13   6    -0.05   0.04   0.09    -0.00  -0.03   0.05    -0.00   0.05  -0.07
  14   6     0.03   0.02   0.07    -0.01  -0.03   0.07    -0.02   0.06  -0.08
  15   6     0.11   0.11   0.06    -0.02   0.00   0.01    -0.03  -0.00  -0.00
  16   6     0.10   0.19   0.08    -0.02   0.04  -0.05    -0.03  -0.06   0.07
  17   6     0.01   0.18   0.13    -0.01   0.00  -0.01    -0.01  -0.00  -0.01
  18   6    -0.07   0.08   0.12    -0.00  -0.04   0.06    -0.00   0.07  -0.08
  19   6    -0.13   0.07   0.10    -0.00  -0.03   0.05    -0.01   0.06  -0.07
  20   6    -0.10   0.03   0.04    -0.00  -0.01   0.03    -0.01   0.04  -0.02
  21   6    -0.11   0.03   0.03    -0.00  -0.00   0.01    -0.01   0.03   0.00
  22   6    -0.10   0.06   0.05    -0.00   0.00   0.01    -0.02   0.01  -0.01
  23   6    -0.13   0.08   0.07    -0.00   0.00   0.01    -0.01  -0.00  -0.00
  24   6    -0.13   0.06   0.09    -0.00  -0.01   0.03    -0.02   0.02  -0.03
  25   6    -0.09   0.00  -0.00    -0.00   0.01  -0.00    -0.00   0.02   0.03
  26   6    -0.11  -0.00  -0.00     0.00   0.01  -0.01     0.03   0.01   0.03
  27   6    -0.11  -0.00   0.01     0.00   0.00   0.00     0.04   0.00  -0.01
  28   6    -0.13  -0.01  -0.00     0.00  -0.01   0.01     0.03  -0.00  -0.02
  29   6    -0.12  -0.01  -0.01    -0.00   0.00   0.00     0.00  -0.01  -0.00
  30   6    -0.11  -0.02  -0.02    -0.00   0.01  -0.01    -0.01   0.01   0.03
  31   6    -0.11  -0.04  -0.03    -0.00   0.01  -0.00    -0.01   0.02   0.02
  32   6    -0.09  -0.06  -0.06    -0.01   0.00  -0.01     0.02   0.03   0.03
  33   6     0.06  -0.08  -0.13     0.01   0.00  -0.01     0.02   0.02   0.01
  34   6     0.19  -0.12  -0.06     0.02  -0.00  -0.01     0.00  -0.03   0.00
  35   6     0.17  -0.15  -0.00     0.01  -0.01  -0.00    -0.01  -0.04   0.01
  36   6     0.01  -0.15   0.03    -0.00  -0.01  -0.00     0.01  -0.01   0.04
  37   6    -0.09  -0.07  -0.04    -0.01   0.00  -0.00     0.02   0.03   0.04
  38   6    -0.09  -0.05  -0.05    -0.00   0.01  -0.00     0.01   0.03   0.03
  39   6     0.04   0.01  -0.14     0.00   0.01  -0.00    -0.00   0.01  -0.02
  40   6     0.18  -0.02  -0.13     0.00   0.01  -0.01     0.00  -0.02  -0.04
  41   6     0.16  -0.09  -0.11    -0.01   0.00  -0.01     0.03  -0.02  -0.02
  42   6     0.02  -0.15  -0.06    -0.01   0.00  -0.01     0.04  -0.00   0.03
  43   6    -0.09  -0.07  -0.04    -0.00   0.01  -0.00     0.00   0.02   0.03
  44   6    -0.02   0.05  -0.05     0.01   0.03  -0.08    -0.01  -0.11   0.02
  45   6    -0.01   0.05  -0.06     0.01   0.04  -0.03    -0.01  -0.09  -0.00
  46   7     0.05   0.03   0.09     0.03   0.06   0.22     0.04   0.13   0.40
  47   6     0.04  -0.02   0.01     0.02   0.02   0.11     0.00   0.04   0.03
  48   6     0.03  -0.03   0.01     0.00  -0.08  -0.24    -0.01   0.02  -0.10
  49   6     0.03  -0.04   0.01     0.01  -0.10  -0.31    -0.02   0.03  -0.14
  50   6     0.03  -0.04   0.00     0.02  -0.02  -0.00    -0.03   0.06  -0.03
  51   6     0.02  -0.05   0.01     0.02   0.06   0.31    -0.03   0.10   0.10
  52   6     0.03  -0.05   0.02     0.01  -0.02  -0.02    -0.01   0.06  -0.02
  53   6     0.03  -0.05   0.02     0.00  -0.10  -0.32    -0.01   0.03  -0.14
  54   7     0.06  -0.07  -0.09     0.05   0.12   0.46    -0.01  -0.02  -0.16
  55   6     0.12   0.04  -0.00    -0.04  -0.03  -0.15     0.08   0.01   0.27
  56   6     0.08   0.09  -0.03    -0.01  -0.01  -0.01     0.02  -0.02   0.03
  57   1    -0.00   0.03  -0.02     0.02   0.01   0.10    -0.04  -0.02  -0.17
  58   1    -0.01   0.00  -0.00    -0.01  -0.00   0.01     0.00  -0.01  -0.01
  59   1     0.02  -0.02   0.01    -0.02  -0.02  -0.06     0.03   0.00   0.13
  60   1     0.03   0.00   0.02    -0.01  -0.05  -0.15    -0.01  -0.06  -0.21
  61   1    -0.01   0.01  -0.01     0.00   0.01  -0.01    -0.01  -0.02   0.02
  62   1    -0.00   0.01  -0.01     0.00   0.01  -0.03    -0.01  -0.03   0.03
  63   1     0.01  -0.02   0.01    -0.00  -0.01   0.02    -0.01   0.03  -0.03
  64   1     0.05   0.03   0.01    -0.01   0.00  -0.00    -0.01  -0.01   0.01
  65   1     0.04   0.07   0.02    -0.01   0.02  -0.04    -0.01  -0.04   0.05
  66   1    -0.00   0.07   0.05    -0.00   0.00  -0.01    -0.00  -0.01   0.00
  67   1    -0.02   0.02   0.01    -0.00   0.00   0.00    -0.01   0.00   0.00
  68   1    -0.04   0.03   0.02    -0.00   0.01  -0.01    -0.00  -0.01   0.01
  69   1    -0.03  -0.00  -0.00     0.00   0.00  -0.00     0.02   0.01   0.01
  70   1    -0.03  -0.00   0.00     0.00  -0.00   0.00     0.02   0.00  -0.01
  71   1    -0.04  -0.01  -0.00     0.00  -0.01   0.01     0.01  -0.00  -0.02
  72   1    -0.03  -0.00  -0.00    -0.00  -0.00   0.00    -0.01  -0.01  -0.01
  73   1     0.02  -0.01  -0.07     0.00   0.00  -0.01     0.01   0.01  -0.00
  74   1     0.09  -0.03  -0.02     0.01  -0.00  -0.00    -0.00  -0.02  -0.00
  75   1     0.08  -0.05   0.01     0.00  -0.00  -0.00    -0.01  -0.02  -0.00
  76   1    -0.00  -0.06   0.04    -0.00  -0.00   0.00     0.00  -0.00   0.02
  77   1     0.01   0.03  -0.06     0.00   0.00  -0.00    -0.01   0.01  -0.01
  78   1     0.08   0.01  -0.04     0.00   0.00  -0.00    -0.01  -0.01  -0.02
  79   1     0.07  -0.03  -0.03    -0.00  -0.00  -0.00     0.01  -0.01  -0.01
  80   1     0.01  -0.07  -0.00    -0.00  -0.00  -0.00     0.02  -0.01   0.02
  81   1     0.00   0.01  -0.02     0.00   0.01  -0.02     0.00  -0.03   0.00
  82   1    -0.01   0.01  -0.02     0.00   0.01  -0.00     0.00  -0.03  -0.00
  83   1     0.01  -0.01   0.00     0.00  -0.04  -0.13    -0.01   0.01  -0.06
  84   1     0.01  -0.01  -0.00     0.01  -0.00   0.02    -0.01   0.02  -0.00
  85   1     0.01  -0.02   0.00     0.01   0.05   0.21    -0.01   0.04   0.07
  86   1     0.01  -0.02   0.01     0.00   0.00   0.01    -0.00   0.02   0.00
  87   1     0.01  -0.02   0.01    -0.00  -0.04  -0.13    -0.00   0.01  -0.05
  88   1     0.05   0.02   0.00    -0.02  -0.01  -0.06     0.03   0.01   0.11
  89   1     0.03   0.04  -0.01    -0.00   0.00   0.01     0.00  -0.01  -0.00
                     28                     29                     30
                        a                      a                      a 
 Frequencies --   217.9778               226.5262               230.1272
 Red. masses --    10.6981                10.6899                10.7224
 Frc consts  --     0.0000                 0.0000                 0.0000
 IR Inten    --     5.8949                 2.1989                 0.9976
 Raman Activ --     0.0000                 0.0000                 0.0000
 Depolar     --     0.0000                 0.0000                 0.0000
 Atom AN      X      Y      Z        X      Y      Z        X      Y      Z
   1   6    -0.05  -0.09  -0.06     0.02   0.04   0.05    -0.05  -0.09  -0.04
   2   6    -0.01  -0.02   0.01    -0.01   0.00  -0.01    -0.01  -0.01   0.02
   3   6    -0.04   0.05   0.09     0.00  -0.03  -0.06    -0.05   0.05   0.07
   4   6    -0.07   0.04   0.07     0.03  -0.03  -0.04    -0.08   0.04   0.05
   5   6    -0.06   0.01  -0.04     0.03  -0.01   0.04    -0.05   0.01  -0.04
   6   6    -0.06  -0.04  -0.10     0.03   0.03   0.09    -0.05  -0.03  -0.09
   7   6    -0.00  -0.04  -0.01     0.01   0.03   0.03    -0.00  -0.04  -0.03
   8   6     0.00  -0.01  -0.04     0.01  -0.03  -0.04     0.00   0.06   0.01
   9   6     0.06   0.03  -0.03    -0.02  -0.05  -0.04     0.04   0.10   0.03
  10   6     0.06   0.11  -0.00    -0.01  -0.08   0.03     0.03   0.15  -0.04
  11   6     0.03   0.13  -0.00     0.03  -0.08   0.10    -0.01   0.15  -0.12
  12   7     0.03   0.09   0.02     0.04  -0.02   0.09    -0.02   0.04  -0.09
  13   6     0.01   0.00   0.09     0.03   0.13  -0.11    -0.03  -0.04   0.00
  14   6     0.05  -0.02   0.09     0.01   0.15  -0.11     0.00  -0.10   0.06
  15   6     0.08   0.06   0.03    -0.00  -0.00   0.07     0.02  -0.06   0.02
  16   6     0.08   0.10  -0.03    -0.00  -0.08   0.15     0.02   0.05  -0.09
  17   6     0.05   0.04   0.05     0.02   0.06  -0.05    -0.01   0.01  -0.03
  18   6     0.01  -0.03   0.09     0.03   0.15  -0.16    -0.02  -0.07   0.05
  19   6     0.03  -0.04   0.07     0.02   0.10  -0.10    -0.01  -0.09   0.08
  20   6     0.07  -0.08  -0.00     0.03   0.07  -0.09    -0.03  -0.03   0.02
  21   6     0.08  -0.10  -0.01     0.04   0.13  -0.18    -0.05   0.07  -0.12
  22   6     0.11  -0.02   0.03     0.05   0.06  -0.04    -0.05  -0.04   0.01
  23   6     0.08   0.06   0.01     0.05  -0.09   0.19    -0.04  -0.14   0.12
  24   6     0.05   0.04   0.03     0.03  -0.01   0.07    -0.01  -0.07   0.05
  25   6     0.06  -0.11  -0.04     0.04   0.13  -0.21    -0.05   0.17  -0.23
  26   6    -0.12  -0.07  -0.06    -0.03   0.02  -0.05     0.01   0.07  -0.10
  27   6    -0.18   0.06   0.01    -0.06  -0.08   0.20     0.04  -0.18   0.14
  28   6    -0.12   0.09   0.08    -0.04   0.06   0.06     0.02  -0.12   0.02
  29   6     0.03   0.04   0.08     0.02   0.19  -0.16    -0.04   0.09  -0.24
  30   6     0.09  -0.08  -0.04     0.05   0.10  -0.16    -0.05   0.15  -0.19
  31   6     0.06  -0.08  -0.07     0.02  -0.04   0.00    -0.02   0.00   0.02
  32   6    -0.03  -0.14  -0.10    -0.06  -0.14  -0.00    -0.02  -0.02   0.04
  33   6    -0.12  -0.10  -0.03    -0.12  -0.09   0.08     0.04   0.04   0.09
  34   6    -0.06   0.10  -0.00    -0.05   0.07   0.11     0.03   0.04   0.09
  35   6     0.05   0.20  -0.04     0.01   0.12   0.09    -0.07  -0.04   0.04
  36   6     0.00   0.05  -0.16    -0.05  -0.02  -0.02    -0.06  -0.05   0.03
  37   6    -0.03  -0.15  -0.15    -0.07  -0.14  -0.02     0.02   0.01   0.07
  38   6    -0.03  -0.17  -0.12    -0.05  -0.12   0.01     0.09   0.07   0.10
  39   6    -0.00  -0.12   0.09     0.03  -0.07   0.05     0.08   0.05   0.03
  40   6     0.02   0.06   0.20     0.11  -0.04   0.07    -0.02  -0.09  -0.06
  41   6    -0.09   0.07   0.09     0.02  -0.11   0.02    -0.01  -0.11  -0.04
  42   6    -0.14  -0.01  -0.10    -0.04  -0.14  -0.00     0.10  -0.01   0.08
  43   6    -0.02  -0.11  -0.13    -0.03  -0.08   0.02     0.09   0.07   0.11
  44   6    -0.02   0.10  -0.01     0.05  -0.09   0.01    -0.04   0.16  -0.04
  45   6    -0.03   0.03  -0.03     0.04  -0.07  -0.09    -0.04   0.11   0.02
  46   7     0.05   0.01   0.13    -0.03   0.02   0.03     0.06  -0.02   0.01
  47   6     0.05   0.02  -0.00    -0.05  -0.00   0.02     0.07   0.00  -0.02
  48   6     0.09   0.03  -0.02    -0.09  -0.01  -0.01     0.14   0.02   0.00
[...]
  29   6     0.06  -0.04  -0.03    -0.02   0.01   0.01    -0.01   0.01   0.00
  30   6    -0.00  -0.00  -0.00     0.00   0.00   0.00     0.00   0.00   0.00
  31   6    -0.00   0.00   0.00     0.00  -0.00  -0.00     0.00  -0.00  -0.00
  32   6     0.00   0.00   0.00     0.00  -0.00  -0.00     0.00  -0.00  -0.00
  33   6    -0.00   0.01   0.00     0.00  -0.00  -0.00     0.00  -0.00  -0.00
  34   6    -0.00   0.01  -0.01     0.00  -0.00   0.00     0.00  -0.00   0.00
  35   6     0.01  -0.00  -0.01    -0.00   0.00   0.00    -0.00   0.00   0.00
  36   6     0.01  -0.01  -0.00    -0.00   0.00   0.00    -0.00   0.00   0.00
  37   6    -0.00  -0.00   0.00    -0.00   0.00  -0.00    -0.00   0.00  -0.00
  38   6    -0.00   0.00  -0.00    -0.00  -0.00   0.00    -0.00  -0.00   0.00
  39   6     0.01  -0.00  -0.01    -0.00   0.00   0.00    -0.00   0.00   0.00
  40   6     0.00  -0.01   0.00    -0.00   0.00  -0.00    -0.00   0.00  -0.00
  41   6    -0.00  -0.01   0.01     0.00   0.00  -0.00     0.00   0.00  -0.00
  42   6    -0.00   0.00   0.00     0.00  -0.00  -0.00     0.00  -0.00  -0.00
  43   6     0.00   0.00  -0.00     0.00  -0.00   0.00     0.00  -0.00   0.00
  44   6     0.00   0.00  -0.00     0.01   0.02  -0.01     0.01   0.01  -0.00
  45   6    -0.01   0.02  -0.00    -0.04   0.07  -0.02    -0.02   0.03  -0.01
  46   7    -0.00  -0.00   0.00    -0.00  -0.00   0.00     0.00   0.00  -0.00
  47   6    -0.00   0.00  -0.00     0.00   0.00   0.00    -0.00  -0.00   0.00
  48   6    -0.00   0.00  -0.00     0.00   0.00  -0.00    -0.00  -0.00   0.00
  49   6    -0.01   0.00  -0.00     0.06  -0.01   0.00    -0.15   0.03  -0.01
  50   6    -0.00  -0.00   0.00     0.01   0.02  -0.00    -0.04  -0.04   0.01
  51   6     0.00  -0.00   0.00     0.00  -0.01   0.00     0.00   0.01  -0.00
  52   6     0.00  -0.00   0.00     0.03  -0.01   0.00    -0.07   0.01  -0.00
  53   6     0.00   0.00  -0.00     0.05   0.06  -0.02    -0.11  -0.14   0.04
  54   7     0.00  -0.00  -0.00    -0.00   0.00  -0.00     0.00  -0.00  -0.00
  55   6    -0.00   0.01  -0.00     0.01  -0.03   0.00    -0.00   0.02  -0.00
  56   6    -0.00   0.00   0.00     0.01  -0.00  -0.00    -0.01   0.00   0.00
  57   1     0.02   0.02  -0.01    -0.03  -0.03   0.01     0.02   0.02  -0.01
  58   1    -0.00   0.02  -0.00     0.00  -0.01   0.00    -0.00   0.02  -0.00
  59   1    -0.03   0.01   0.01    -0.02   0.01   0.01    -0.04   0.02   0.01
  60   1    -0.01   0.04  -0.01    -0.06   0.16  -0.04    -0.02   0.06  -0.02
  61   1    -0.12  -0.18   0.06    -0.37  -0.57   0.19    -0.16  -0.25   0.08
  62   1     0.04  -0.08   0.02     0.14  -0.26   0.07     0.06  -0.11   0.03
  63   1    -0.01  -0.00  -0.00     0.01   0.00   0.00     0.01   0.00   0.00
  64   1     0.00   0.00   0.00     0.00   0.00   0.00     0.00   0.00   0.00
  65   1    -0.00   0.00   0.00    -0.00   0.00   0.00     0.00  -0.00  -0.00
  66   1     0.00   0.00   0.00    -0.00  -0.00  -0.00    -0.00  -0.00  -0.00
  67   1     0.04  -0.15  -0.12    -0.00   0.01   0.01    -0.00   0.01   0.01
  68   1    -0.26   0.06   0.06     0.06  -0.01  -0.01     0.04  -0.01  -0.01
  69   1     0.32  -0.22  -0.17    -0.08   0.06   0.04    -0.04   0.03   0.02
  70   1    -0.08  -0.35  -0.26     0.02   0.09   0.07     0.01   0.04   0.03
  71   1    -0.50  -0.15  -0.10     0.13   0.04   0.03     0.06   0.02   0.01
  72   1    -0.21   0.14   0.11     0.05  -0.04  -0.03     0.03  -0.02  -0.01
  73   1     0.01  -0.02  -0.00    -0.01   0.01   0.00    -0.00   0.00   0.00
  74   1     0.01  -0.03   0.03    -0.00   0.01  -0.01    -0.00   0.01  -0.01
  75   1    -0.02   0.00   0.03     0.01  -0.00  -0.01     0.00  -0.00  -0.01
  76   1    -0.02   0.03   0.01     0.01  -0.01  -0.00     0.00  -0.01  -0.00
  77   1    -0.02   0.01   0.02     0.01  -0.01  -0.01     0.00  -0.00  -0.00
  78   1    -0.02   0.03  -0.01     0.01  -0.01   0.00     0.00  -0.01   0.00
  79   1     0.00   0.02  -0.03    -0.00  -0.01   0.01    -0.00  -0.00   0.01
  80   1     0.01  -0.01  -0.01    -0.01   0.00   0.01    -0.00   0.00   0.00
  81   1    -0.01  -0.01   0.00    -0.04  -0.06   0.02    -0.03  -0.04   0.01
  82   1     0.03  -0.06   0.02     0.14  -0.25   0.07     0.07  -0.12   0.03
  83   1     0.02  -0.00   0.00    -0.23   0.04  -0.01     0.53  -0.10   0.02
  84   1     0.00   0.01  -0.00    -0.04  -0.05   0.01     0.12   0.14  -0.04
  85   1    -0.00   0.00  -0.00    -0.01   0.02  -0.00     0.01  -0.03   0.01
  86   1    -0.00   0.00  -0.00    -0.10   0.02  -0.00     0.23  -0.04   0.01
  87   1    -0.01  -0.01   0.00    -0.17  -0.21   0.05     0.39   0.47  -0.12
  88   1     0.01  -0.03   0.00    -0.02   0.11  -0.00     0.01  -0.06   0.00
  89   1     0.01  -0.01  -0.00    -0.04   0.01   0.01     0.02  -0.01  -0.00
                    256                    257                    258
                        a                      a                      a 
 Frequencies --  3095.8552              3097.2017              3098.4940
 Red. masses --     1.8915                 1.8563                 1.8920
 Frc consts  --     0.0000                 0.0000                 0.0000
 IR Inten    --     9.1315                21.9076               191.3010
 Raman Activ --     0.0000                 0.0000                 0.0000
 Depolar     --     0.0000                 0.0000                 0.0000
 Atom AN      X      Y      Z        X      Y      Z        X      Y      Z
   1   6    -0.00  -0.00   0.00    -0.00  -0.00   0.00     0.00   0.00  -0.00
   2   6     0.00  -0.00   0.00     0.00  -0.00   0.00    -0.00   0.00  -0.00
   3   6     0.00  -0.00  -0.00     0.00  -0.00   0.00    -0.00   0.00   0.00
   4   6     0.00   0.00  -0.00     0.00   0.00  -0.00    -0.00  -0.00   0.00
   5   6    -0.00  -0.00   0.00     0.00   0.00  -0.00    -0.00   0.00  -0.00
   6   6     0.00  -0.01   0.00    -0.01   0.03  -0.01     0.00  -0.01   0.00
   7   6     0.00  -0.00   0.00    -0.00   0.00  -0.00     0.00   0.00   0.00
   8   6     0.00  -0.00  -0.00    -0.01   0.00  -0.00     0.00  -0.00   0.00
   9   6     0.02   0.03  -0.01    -0.04  -0.06   0.02     0.00   0.00  -0.00
  10   6    -0.01   0.01  -0.00     0.02  -0.03   0.01    -0.00   0.01  -0.00
  11   6    -0.00   0.00  -0.00     0.00  -0.00   0.00    -0.00   0.00  -0.00
  12   7     0.00  -0.00  -0.00    -0.00   0.00   0.00     0.00   0.00  -0.00
  13   6     0.00  -0.00   0.00     0.00  -0.00  -0.00     0.00  -0.01  -0.00
  14   6     0.00   0.00   0.00     0.01   0.00   0.00     0.21   0.03   0.03
  15   6     0.00   0.00   0.00     0.00   0.01   0.01     0.05   0.12   0.09
  16   6    -0.00   0.00   0.00    -0.00   0.00   0.00    -0.06   0.05   0.04
  17   6     0.00   0.00   0.00     0.00  -0.00  -0.00     0.01   0.00   0.00
  18   6     0.00  -0.00  -0.00    -0.00   0.00   0.00    -0.00  -0.00   0.00
  19   6     0.00   0.00   0.00    -0.00  -0.00  -0.00     0.00  -0.00  -0.00
  20   6    -0.00  -0.00  -0.00     0.00   0.00   0.00    -0.00  -0.00  -0.00
  21   6    -0.00   0.00   0.00    -0.00   0.00  -0.00     0.00   0.00   0.00
  22   6     0.00  -0.00  -0.00     0.00  -0.00  -0.00    -0.00   0.02   0.01
  23   6     0.00  -0.00  -0.00     0.01  -0.00  -0.00    -0.02   0.00   0.00
  24   6     0.00  -0.00  -0.00     0.00   0.00   0.00    -0.00   0.00   0.00
  25   6    -0.00  -0.00  -0.00    -0.00  -0.00  -0.00     0.00   0.00   0.00
  26   6    -0.00   0.00   0.00    -0.00   0.00   0.00    -0.00  -0.00  -0.00
  27   6     0.00   0.00   0.00     0.00   0.00   0.00    -0.00  -0.00  -0.00
  28   6     0.00   0.00   0.00     0.00   0.00   0.00    -0.00  -0.00  -0.00
  29   6     0.00  -0.00  -0.00     0.00  -0.00  -0.00    -0.00   0.00   0.00
  30   6    -0.00  -0.00  -0.00    -0.00  -0.00  -0.00    -0.00   0.00   0.00
  31   6    -0.00   0.00   0.00    -0.00   0.00   0.00     0.00   0.00  -0.00
  32   6     0.00  -0.00  -0.00    -0.00   0.00  -0.00     0.00   0.00   0.00
  33   6     0.00  -0.00  -0.00    -0.00   0.00   0.00     0.00  -0.00  -0.00
  34   6     0.00  -0.00   0.00    -0.00   0.00  -0.00     0.00  -0.00   0.00
  35   6    -0.00   0.00   0.00     0.00  -0.00  -0.00    -0.00   0.00   0.00
  36   6    -0.00   0.00   0.00     0.00  -0.00  -0.00    -0.00   0.00   0.00
  37   6    -0.00   0.00  -0.00     0.00  -0.00   0.00     0.00   0.00  -0.00
  38   6    -0.00  -0.00   0.00     0.00   0.00  -0.00     0.00  -0.00   0.00
  39   6    -0.00   0.00   0.00     0.00  -0.00  -0.00    -0.00   0.00   0.00
  40   6    -0.00   0.00  -0.00     0.00  -0.00   0.00    -0.00   0.00  -0.00
  41   6     0.00  -0.00   0.00    -0.00  -0.00   0.00     0.00   0.00  -0.00
  42   6     0.00  -0.00  -0.00    -0.00   0.00   0.00     0.00  -0.00  -0.00
  43   6     0.00  -0.00   0.00    -0.00  -0.00   0.00     0.00   0.00   0.00
  44   6    -0.02  -0.03   0.01     0.04   0.06  -0.02    -0.00  -0.00   0.00
  45   6     0.04  -0.07   0.02    -0.11   0.19  -0.05     0.01  -0.01   0.00
  46   7    -0.00   0.00  -0.00    -0.00  -0.00   0.00    -0.00  -0.00   0.00
  47   6     0.00  -0.00   0.00     0.00  -0.00   0.00     0.00  -0.00   0.00
  48   6     0.00  -0.01   0.00     0.00  -0.00   0.00    -0.00   0.00  -0.00
  49   6     0.16  -0.03   0.01     0.07  -0.01   0.00    -0.01   0.00  -0.00
  50   6     0.06   0.07  -0.02     0.02   0.03  -0.01    -0.00  -0.00   0.00
  51   6    -0.03   0.08  -0.02    -0.01   0.03  -0.01     0.00  -0.00   0.00
  52   6    -0.09   0.01  -0.00    -0.03   0.00  -0.00     0.00  -0.00   0.00
  53   6    -0.08  -0.10   0.03    -0.03  -0.04   0.01     0.00   0.00  -0.00
  54   7     0.00   0.00  -0.00    -0.00   0.00  -0.00     0.00  -0.00   0.00
  55   6    -0.00   0.01  -0.00    -0.00   0.01  -0.00     0.00  -0.00   0.00
  56   6    -0.00   0.00   0.00    -0.00   0.00   0.00     0.00  -0.00  -0.00
  57   1     0.01   0.01  -0.00     0.01   0.01  -0.00    -0.01  -0.01   0.00
  58   1    -0.00   0.01  -0.00    -0.00   0.01  -0.00     0.00  -0.01   0.00
  59   1    -0.01   0.01   0.00     0.00  -0.00  -0.00     0.00  -0.00  -0.00
  60   1    -0.01   0.02  -0.01     0.04  -0.09   0.03    -0.01   0.02  -0.01
  61   1    -0.07  -0.11   0.04     0.14   0.22  -0.08    -0.01  -0.01   0.00
  62   1     0.02  -0.04   0.01    -0.05   0.09  -0.03     0.02  -0.03   0.01
  63   1    -0.01  -0.00  -0.00    -0.05  -0.01  -0.01    -0.73  -0.11  -0.10
  64   1    -0.00  -0.00  -0.00    -0.01  -0.02  -0.02    -0.16  -0.39  -0.30
  65   1     0.00  -0.00  -0.00     0.01  -0.01  -0.01     0.20  -0.18  -0.14
  66   1    -0.00  -0.00  -0.00    -0.00  -0.00  -0.00    -0.05  -0.01  -0.00
  67   1    -0.00   0.00   0.00    -0.00   0.00   0.00     0.01  -0.06  -0.04
  68   1    -0.00   0.00   0.00    -0.02   0.00   0.00     0.05  -0.01  -0.01
  69   1     0.00  -0.00  -0.00     0.01  -0.01  -0.00     0.00  -0.00  -0.00
  70   1    -0.00  -0.00  -0.00    -0.00  -0.01  -0.01     0.00   0.00   0.00
  71   1    -0.00  -0.00  -0.00    -0.01  -0.00  -0.00     0.00   0.00   0.00
  72   1    -0.00   0.00   0.00    -0.01   0.00   0.00     0.00  -0.00  -0.00
  73   1    -0.00   0.00   0.00     0.00  -0.00  -0.00    -0.00   0.00   0.00
  74   1    -0.00   0.00  -0.00     0.00  -0.00   0.00    -0.00   0.00  -0.00
  75   1     0.00  -0.00  -0.00    -0.00   0.00   0.00     0.00  -0.00  -0.01
  76   1     0.00  -0.00  -0.00    -0.00   0.00   0.00     0.01  -0.01  -0.00
  77   1     0.00  -0.00  -0.00    -0.00   0.00   0.00     0.01  -0.00  -0.01
  78   1     0.00  -0.00   0.00    -0.00   0.00  -0.00     0.00  -0.00   0.00
  79   1     0.00   0.00  -0.00     0.00   0.00  -0.00    -0.00  -0.00   0.01
  80   1    -0.00   0.00   0.00     0.00  -0.00  -0.00    -0.00   0.00   0.00
  81   1     0.05   0.08  -0.03    -0.13  -0.19   0.07     0.01   0.01  -0.01
  82   1    -0.14   0.26  -0.07     0.38  -0.68   0.18    -0.02   0.03  -0.01
  83   1    -0.55   0.10  -0.02    -0.24   0.04  -0.01     0.02  -0.00   0.00
  84   1    -0.21  -0.24   0.06    -0.07  -0.09   0.02     0.01   0.01  -0.00
  85   1     0.10  -0.27   0.07     0.04  -0.10   0.02    -0.00   0.01  -0.00
  86   1     0.28  -0.05   0.01     0.10  -0.02   0.00    -0.01   0.00  -0.00
  87   1     0.29   0.35  -0.09     0.11   0.13  -0.03    -0.01  -0.01   0.00
  88   1     0.01  -0.04   0.00     0.01  -0.04   0.00    -0.00   0.01  -0.00
  89   1     0.01  -0.00  -0.00     0.01  -0.00  -0.00    -0.01   0.00   0.00
                    259                    260                    261
                        a                      a                      a 
 Frequencies --  3101.7902              3111.4472              3141.2373
 Red. masses --     1.8846                 1.8124                 1.8334
 Frc consts  --     0.0000                 0.0000                 0.0000
 IR Inten    --    88.0632               279.3832                11.8960
 Raman Activ --     0.0000                 0.0000                 0.0000
 Depolar     --     0.0000                 0.0000                 0.0000
 Atom AN      X      Y      Z        X      Y      Z        X      Y      Z
   1   6     0.00   0.00  -0.00    -0.00  -0.00   0.00     0.00   0.00  -0.00
   2   6    -0.00   0.00  -0.00     0.00  -0.00   0.00    -0.00   0.00  -0.00
   3   6    -0.00  -0.00   0.00     0.02  -0.01  -0.01    -0.00   0.00   0.00
   4   6     0.00   0.00  -0.00     0.00   0.00  -0.00     0.00   0.00  -0.00
   5   6    -0.00  -0.00   0.00    -0.01  -0.01   0.00    -0.00  -0.00  -0.00
   6   6     0.00  -0.01   0.00     0.09  -0.24   0.07    -0.00   0.00  -0.00
   7   6     0.00  -0.00   0.00     0.01  -0.00   0.00    -0.00   0.00   0.00
   8   6     0.00   0.00  -0.00    -0.00  -0.00   0.00     0.00   0.00  -0.00
   9   6     0.00   0.00  -0.00    -0.03  -0.05   0.02     0.00   0.00  -0.00
  10   6    -0.00   0.00  -0.00     0.01  -0.01   0.00    -0.00   0.00  -0.00
  11   6    -0.00   0.00   0.00     0.00   0.00  -0.00     0.00   0.00   0.00
  12   7     0.00  -0.00  -0.00    -0.00   0.00   0.00    -0.00  -0.00  -0.00
  13   6     0.00  -0.00  -0.00     0.00   0.00   0.00     0.00   0.00   0.00
  14   6     0.02   0.00   0.00    -0.00  -0.00  -0.00     0.00   0.00   0.00
  15   6     0.00   0.01   0.01    -0.00  -0.00  -0.00     0.00   0.01   0.00
  16   6    -0.01   0.01   0.00     0.00  -0.00  -0.00    -0.02   0.02   0.02
  17   6     0.00   0.00   0.00    -0.00   0.00   0.00    -0.27  -0.04  -0.03
  18   6     0.00   0.00   0.00     0.00  -0.00  -0.00    -0.00  -0.01  -0.01
  19   6    -0.00   0.00   0.00     0.00   0.00   0.00     0.00   0.00   0.00
  20   6    -0.00   0.00   0.00     0.00  -0.00  -0.00     0.00   0.00   0.00
  21   6    -0.01  -0.00  -0.00     0.00   0.00   0.00    -0.00  -0.00  -0.00
  22   6     0.03  -0.15  -0.12    -0.00   0.00   0.00     0.00  -0.00  -0.00
  23   6     0.19  -0.04  -0.04    -0.00   0.00   0.00     0.00  -0.00  -0.00
  24   6     0.00   0.00   0.00    -0.00  -0.00  -0.00    -0.00   0.00   0.00
  25   6     0.00  -0.00  -0.00    -0.00  -0.00  -0.00     0.00  -0.00  -0.00
  26   6     0.01  -0.01  -0.01    -0.00   0.00   0.00     0.00  -0.00  -0.00
  27   6    -0.00  -0.01  -0.01     0.00   0.00   0.00    -0.00  -0.00  -0.00
  28   6    -0.01  -0.00  -0.00     0.00   0.00   0.00    -0.00  -0.00  -0.00
  29   6    -0.00   0.00   0.00     0.00  -0.00  -0.00    -0.00   0.00   0.00
  30   6     0.00   0.00   0.00     0.00  -0.00  -0.00    -0.00   0.00   0.00
  31   6     0.00  -0.00  -0.00    -0.00   0.00   0.00     0.00   0.00   0.00
  32   6    -0.00   0.00   0.00     0.00   0.00  -0.00     0.00  -0.00  -0.00
  33   6    -0.00   0.00   0.00    -0.00   0.00   0.00     0.00  -0.00  -0.00
  34   6     0.00  -0.00   0.00    -0.00   0.00  -0.00     0.00  -0.00   0.00
  35   6    -0.00   0.00   0.00     0.00  -0.00  -0.00    -0.00  -0.00   0.00
  36   6    -0.00   0.00   0.00     0.00  -0.00  -0.00     0.00  -0.00  -0.00
  37   6     0.00   0.00  -0.00     0.00  -0.00   0.00    -0.00  -0.00   0.00
  38   6     0.00  -0.00   0.00    -0.00   0.00  -0.00    -0.00   0.00  -0.00
  39   6    -0.00   0.00   0.00     0.00  -0.00  -0.00     0.00  -0.00  -0.00
  40   6    -0.00   0.00  -0.00     0.00  -0.00   0.00    -0.00   0.00  -0.00
  41   6     0.00   0.00  -0.00    -0.00  -0.00   0.00     0.00   0.00  -0.00
  42   6    -0.00   0.00   0.00    -0.00   0.00   0.00     0.00  -0.00  -0.00
  43   6    -0.00   0.00  -0.00     0.00  -0.00   0.00     0.00  -0.00  -0.00
  44   6    -0.00  -0.01   0.00     0.00   0.00  -0.00    -0.00  -0.00   0.00
  45   6     0.00  -0.00   0.00    -0.00   0.01  -0.00     0.00  -0.00   0.00
  46   7     0.00  -0.00   0.00    -0.00   0.00  -0.00    -0.00  -0.00   0.00
  47   6     0.00  -0.00   0.00    -0.00  -0.00   0.00     0.00  -0.00   0.00
  48   6    -0.00   0.00  -0.00    -0.00   0.00   0.00    -0.00   0.00  -0.00
  49   6    -0.00   0.00  -0.00     0.00  -0.00   0.00    -0.00  -0.00   0.00
  50   6    -0.00  -0.00   0.00     0.00   0.00  -0.00    -0.00  -0.00   0.00
  51   6     0.00  -0.00   0.00    -0.00   0.00  -0.00     0.00  -0.00   0.00
  52   6     0.00  -0.00   0.00    -0.00   0.00  -0.00     0.00  -0.00   0.00
  53   6     0.00   0.00  -0.00    -0.00  -0.00   0.00     0.00   0.00  -0.00
  54   7    -0.00   0.00  -0.00     0.00   0.00  -0.00    -0.00   0.00  -0.00
  55   6    -0.00  -0.00   0.00    -0.00   0.00  -0.00    -0.00   0.00   0.00
  56   6     0.00  -0.00  -0.00    -0.00   0.00   0.00     0.00  -0.00  -0.00
  57   1    -0.00  -0.00   0.00     0.01   0.01  -0.00    -0.00  -0.00   0.00
  58   1     0.00  -0.00   0.00    -0.00   0.01  -0.00     0.00  -0.00   0.00
  59   1    -0.00   0.00  -0.00    -0.09   0.04   0.02     0.00  -0.00  -0.00
  60   1    -0.01   0.03  -0.01    -0.32   0.84  -0.23     0.00  -0.00   0.00
  61   1    -0.01  -0.01   0.00     0.12   0.18  -0.06    -0.00  -0.00   0.00
  62   1     0.01  -0.01   0.00    -0.02   0.03  -0.01     0.00  -0.00   0.00
  63   1    -0.07  -0.01  -0.01     0.01   0.00   0.00    -0.01  -0.00  -0.00
  64   1    -0.01  -0.03  -0.03     0.00   0.01   0.01    -0.01  -0.02  -0.01
  65   1     0.02  -0.02  -0.01    -0.01   0.01   0.00     0.06  -0.05  -0.04
  66   1    -0.01  -0.00  -0.00     0.00   0.00   0.00     0.94   0.15   0.10
  67   1    -0.12   0.52   0.41     0.00  -0.01  -0.01    -0.00   0.00   0.00
  68   1    -0.64   0.15   0.15     0.02  -0.00  -0.00    -0.00   0.00   0.00
  69   1    -0.05   0.03   0.03     0.01  -0.00  -0.00    -0.00   0.00   0.00
  70   1     0.01   0.02   0.02    -0.00  -0.01  -0.00     0.00   0.00   0.00
  71   1     0.02   0.01   0.00    -0.01  -0.00  -0.00     0.00   0.00   0.00
  72   1     0.01  -0.01  -0.01    -0.00   0.00   0.00     0.00  -0.00  -0.00
  73   1     0.00  -0.00  -0.00     0.00  -0.00  -0.00    -0.00   0.00   0.00
  74   1    -0.00   0.00  -0.00     0.00  -0.00   0.00    -0.00   0.00  -0.00
  75   1     0.00  -0.00  -0.00    -0.00   0.00   0.00     0.00   0.00  -0.00
  76   1     0.00  -0.00  -0.00    -0.00   0.00   0.00    -0.00   0.00   0.00
  77   1     0.00  -0.00  -0.00    -0.00   0.00   0.00    -0.00   0.00   0.00
  78   1     0.00  -0.00   0.00    -0.00   0.00  -0.00     0.00  -0.00   0.00
  79   1    -0.00  -0.00   0.00     0.00   0.00  -0.00    -0.00  -0.00   0.00
  80   1     0.00  -0.00  -0.00     0.00  -0.00  -0.00    -0.00   0.00   0.00
  81   1     0.01   0.02  -0.01    -0.01  -0.01   0.00     0.00   0.00  -0.00
  82   1    -0.00   0.00  -0.00     0.01  -0.02   0.01    -0.00   0.00  -0.00
  83   1     0.00  -0.00   0.00    -0.01   0.00  -0.00     0.00  -0.00   0.00
  84   1     0.00   0.01  -0.00    -0.00  -0.01   0.00     0.00   0.00  -0.00
  85   1    -0.00   0.01  -0.00     0.00  -0.01   0.00    -0.00   0.00  -0.00
  86   1    -0.01   0.00  -0.00     0.01  -0.00   0.00    -0.00   0.00  -0.00
  87   1    -0.00  -0.00   0.00     0.00   0.01  -0.00     0.00  -0.00   0.00
  88   1    -0.00   0.00  -0.00     0.00  -0.01   0.00     0.00  -0.00  -0.00
  89   1    -0.00   0.00   0.00     0.01  -0.00  -0.00    -0.00   0.00   0.00
