      -----------------------------------------------------------      
     |                   =====================                   |     
     |                           x T B                           |     
     |                   =====================                   |     
     |                         S. Grimme                         |     
     |          Mulliken Center for Theoretical Chemistry        |     
     |                    University of Bonn                     |     
      -----------------------------------------------------------      

   * xtb version 6.7.1 (edcfbbe) compiled by 'albert@albert-system' on 2024-07-22

   xtb is free software: you can redistribute it and/or modify it under
   the terms of the GNU Lesser General Public License as published by
   the Free Software Foundation, either version 3 of the License, or
   (at your option) any later version.
   
   xtb is distributed in the hope that it will be useful,
   but WITHOUT ANY WARRANTY; without even the implied warranty of
   MERCHANTABILITY or FITNESS FOR A PARTICULAR PURPOSE.  See the
   GNU Lesser General Public License for more details.
   
   Cite this work as:
   * C. Bannwarth, E. Caldeweyher, S. Ehlert, A. Hansen, P. Pracht,
     J. Seibert, S. Spicher, S. Grimme, WIREs Comput. Mol. Sci., 2020, 11,
     e01493. DOI: 10.1002/wcms.1493
   
   for GFN2-xTB:
   * C. Bannwarth, S. Ehlert and S. Grimme., J. Chem. Theory Comput., 2019,
     15, 1652-1671. DOI: 10.1021/acs.jctc.8b01176
   for GFN1-xTB:
   * S. Grimme, C. Bannwarth, P. Shushkov, J. Chem. Theory Comput., 2017,
     13, 1989-2009. DOI: 10.1021/acs.jctc.7b00118
   for GFN0-xTB:
   * P. Pracht, E. Caldeweyher, S. Ehlert, S. Grimme, ChemRxiv, 2019, preprint.
     DOI: 10.26434/chemrxiv.8326202.v1
   for GFN-FF:
   * S. Spicher and S. Grimme, Angew. Chem. Int. Ed., 2020, 59, 15665-15673.
     DOI: 10.1002/anie.202004239
   
   for ALPB and GBSA implicit solvation:
   * S. Ehlert, M. Stahn, S. Spicher, S. Grimme, J. Chem. Theory Comput.,
     2021, 17, 4250-4261. DOI: 10.1021/acs.jctc.1c00471
   
   for ddCOSMO and CPCM-X implicit solvation:
   * M. Stahn, S. Ehlert, S. Grimme, J. Phys. Chem. A,
     2023, XX, XXXX-XXXX. DOI: 10.1021/acs.jpca.3c04382
   
   for DFT-D4:
   * E. Caldeweyher, C. Bannwarth and S. Grimme, J. Chem. Phys., 2017,
     147, 034112. DOI: 10.1063/1.4993215
   * E. Caldeweyher, S. Ehlert, A. Hansen, H. Neugebauer, S. Spicher,
     C. Bannwarth and S. Grimme, J. Chem. Phys., 2019, 150, 154122.
     DOI: 10.1063/1.5090222
   * E. Caldeweyher, J.-M. Mewes, S. Ehlert and S. Grimme, Phys. Chem. Chem. Phys.
     2020, 22, 8499-8512. DOI: 10.1039/D0CP00502A
   
   for sTDA-xTB:
   * S. Grimme and C. Bannwarth, J. Chem. Phys., 2016, 145, 054103.
     DOI: 10.1063/1.4959605
   
   in the mass-spec context:
   * V. Asgeirsson, C. Bauer and S. Grimme, Chem. Sci., 2017, 8, 4879.
     DOI: 10.1039/c7sc00601b
   * J. Koopman and S. Grimme, ACS Omega 2019, 4, 12, 15120-15133.
     DOI: 10.1021/acsomega.9b02011
   
   for metadynamics refer to:
   * S. Grimme, J. Chem. Theory Comput., 2019, 155, 2847-2862
     DOI: 10.1021/acs.jctc.9b00143
   
   for SPH calculations refer to:
   * S. Spicher and S. Grimme, J. Chem. Theory Comput., 2021, 17, 1701-1714
     DOI: 10.1021/acs.jctc.0c01306
   
   for ONIOM refer to:
   * C. Plett, A. Katbashev, S. Ehlert, S. Grimme, M. Bursch,
     Phys. Chem. Chem. Phys., 2023, 25, 17860-17868. DOI: 10.1039/D3CP02178E
   
   for DIPRO refer to:
   * J. Kohn, N. Gildemeister, S. Grimme, D. Fazzi, A. Hansen,
     J. Chem. Phys., 2023, just accepted.
   
   for PTB refer to:
   * S. Grimme, M. Mueller, A. Hansen, J. Chem. Phys., 2023, 158, 124111.
     DOI: 10.1063/5.0137838
   
   with help from (in alphabetical order)
   P. Atkinson, C. Bannwarth, F. Bohle, G. Brandenburg, E. Caldeweyher
   M. Checinski, S. Dohm, S. Ehlert, S. Ehrlich, I. Gerasimov, C. Hölzer
   A. Katbashev, J. Kohn, J. Koopman, C. Lavigne, S. Lehtola, F. März, M. Müller,
   F. Musil, H. Neugebauer, J. Pisarek, C. Plett, P. Pracht, F. Pultar,
   J. Seibert, P. Shushkov, S. Spicher, M. Stahn, M. Steiner, T. Strunk,
   J. Stückrath, T. Rose, and J. Unsleber
   
 * started run on 2025/08/25 at 16:08:29.533     
   ID    Z sym.   atoms
    1    6 C      1, 3-14, 18-21, 23-28, 31, 32
    2    8 O      2
    3    9 F      15-17
    4    7 N      22, 29
    5   16 S      30
    6    1 H      33-49

           -------------------------------------------------
          |                Calculation Setup                |
           -------------------------------------------------

          program call               : xtb data2507/toluene/3ca/3ca.xyz --gfn 2 --gbsa toluene --ohess vtight --parallel 40 --molden --ceasefiles --namespace data2507/toluene/3ca/3ca_toluene_S0_preOpt
          calculation namespace      : data2507/toluene/3ca/3ca_toluene_S0_preOpt
          coordinate file            : data2507/toluene/3ca/3ca.xyz
          omp threads                :                    40


           -------------------------------------------------
          |                 G F N 2 - x T B                 |
           -------------------------------------------------

        Reference                      10.1021/acs.jctc.8b01176
      * Hamiltonian:
        H0-scaling (s, p, d)           1.850000    2.230000    2.230000
        zeta-weighting                 0.500000
      * Dispersion:
        s8                             2.700000
        a1                             0.520000
        a2                             5.000000
        s9                             5.000000
      * Repulsion:
        kExp                           1.500000    1.000000
        rExp                           1.000000
      * Coulomb:
        alpha                          2.000000
        third order                    shell-resolved
        anisotropic                    true
        a3                             3.000000
        a5                             4.000000
        cn-shift                       1.200000
        cn-exp                         4.000000
        max-rad                        5.000000

      * Solvation model:               GBSA
        Solvent                        toluene
        Parameter file                 internal GFN2-xTB/GBSA
        Dielectric constant                7.0000E+00
        Reference state                gsolv [1 M gas/solution]
        Free energy shift                  4.5239E-03 Eh       2.8388E+00 kcal/mol
        Temperature                        2.9815E+02 K
        Density                            8.6700E-01 kg/L
        Solvent mass                       9.2140E+01 g/mol
        Interaction kernel             Still
        Born radius scaling (c1)           1.5686E+00
        Born radii integrator          GBOBC
        Born offset                        0.0000E+00 a0       0.0000E+00 AA
        H-bond correction              false
        Ion screening                  false
        Surface tension                    1.0000E-05 Eh       1.5569E+01 dyn/cm
        Grid points                               230 per atom

          ...................................................
          :                      SETUP                      :
          :.................................................:
          :  # basis functions                 151          :
          :  # atomic orbitals                 150          :
          :  # shells                           82          :
          :  # electrons                       160          :
          :  max. iterations                   250          :
          :  Hamiltonian                  GFN2-xTB          :
          :  restarted?                      false          :
          :  GBSA solvation                   true          :
          :  PC potential                    false          :
          :  electronic temp.          300.0000000     K    :
          :  accuracy                    1.0000000          :
          :  -> integral cutoff          0.2500000E+02      :
          :  -> integral neglect         0.1000000E-07      :
          :  -> SCF convergence          0.1000000E-05 Eh   :
          :  -> wf. convergence          0.1000000E-03 e    :
          :  Broyden damping             0.4000000          :
          :  net charge                          0          :
          :  unpaired electrons                  0          :
          ...................................................

 iter      E             dE          RMSdq      gap      omega  full diag
   1    -90.6800399 -0.906800E+02  0.459E+00    2.50       0.0  T
   2    -90.8018347 -0.121795E+00  0.268E+00    2.47       1.0  T
   3    -90.7893505  0.124842E-01  0.134E+00    2.46       1.0  T
   4    -90.8122741 -0.229236E-01  0.514E-01    2.47       1.0  T
   5    -90.8220474 -0.977327E-02  0.145E-01    2.46       1.0  T
   6    -90.8223783 -0.330927E-03  0.761E-02    2.46       1.0  T
   7    -90.8225048 -0.126501E-03  0.243E-02    2.47       1.0  T
   8    -90.8225089 -0.406186E-05  0.120E-02    2.47       1.2  T
   9    -90.8225110 -0.208194E-05  0.557E-03    2.47       2.6  T
  10    -90.8225112 -0.259634E-06  0.217E-03    2.47       6.6  T
  11    -90.8225113 -0.743035E-07  0.110E-03    2.47      13.0  T
  12    -90.8225113 -0.717057E-08  0.613E-04    2.47      23.3  T
  13    -90.8225113 -0.355946E-08  0.230E-04    2.47      62.1  T

   *** convergence criteria satisfied after 13 iterations ***

         #    Occupation            Energy/Eh            Energy/eV
      -------------------------------------------------------------
         1        2.0000           -0.8796664             -23.9369
       ...           ...                  ...                  ...
        74        2.0000           -0.4182135             -11.3802
        75        2.0000           -0.4128261             -11.2336
        76        2.0000           -0.4063441             -11.0572
        77        2.0000           -0.3932746             -10.7015
        78        2.0000           -0.3892105             -10.5910
        79        2.0000           -0.3845956             -10.4654
        80        2.0000           -0.3750018             -10.2043 (HOMO)
        81                         -0.2843334              -7.7371 (LUMO)
        82                         -0.2605272              -7.0893
        83                         -0.2499048              -6.8003
        84                         -0.2413248              -6.5668
        85                         -0.2379186              -6.4741
       ...                                ...                  ...
       150                          0.6801612              18.5081
      -------------------------------------------------------------
                  HL-Gap            0.0906685 Eh            2.4672 eV
             Fermi-level           -0.3296676 Eh           -8.9707 eV

 SCC (total)                   0 d,  0 h,  0 min,  0.199 sec
 SCC setup                      ...        0 min,  0.002 sec (  0.807%)
 Dispersion                     ...        0 min,  0.003 sec (  1.345%)
 classical contributions        ...        0 min,  0.000 sec (  0.196%)
 integral evaluation            ...        0 min,  0.011 sec (  5.542%)
 iterations                     ...        0 min,  0.173 sec ( 87.257%)
 molecular gradient             ...        0 min,  0.009 sec (  4.350%)
 printout                       ...        0 min,  0.001 sec (  0.467%)

         :::::::::::::::::::::::::::::::::::::::::::::::::::::
         ::                     SUMMARY                     ::
         :::::::::::::::::::::::::::::::::::::::::::::::::::::
         :: total energy             -89.619937058661 Eh    ::
         :: total w/o Gsasa/hb       -89.589850985765 Eh    ::
         :: gradient norm              0.079247440251 Eh/a0 ::
         :: HOMO-LUMO gap              2.467214544507 eV    ::
         ::.................................................::
         :: SCC energy               -90.822907417568 Eh    ::
         :: -> isotropic ES            0.081364221439 Eh    ::
         :: -> anisotropic ES          0.004351024351 Eh    ::
         :: -> anisotropic XC          0.022131944304 Eh    ::
         :: -> dispersion             -0.060067498985 Eh    ::
         :: -> Gsolv                  -0.037515651934 Eh    ::
         ::    -> Gelec               -0.007429579038 Eh    ::
         ::    -> Gsasa               -0.034609952768 Eh    ::
         ::    -> Ghb                  0.000000000000 Eh    ::
         ::    -> Gshift               0.004523879872 Eh    ::
         :: repulsion energy           1.202970358907 Eh    ::
         :: add. restraining           0.000000000000 Eh    ::
         :: total charge              -0.000000000000 e     ::
         :::::::::::::::::::::::::::::::::::::::::::::::::::::

      ----------------------------------------------------------- 
     |                   =====================                   |
     |                        A N C O P T                        |
     |                   =====================                   |
     |               Approximate Normal Coordinate               |
     |                Rational Function Optimizer                |
      ----------------------------------------------------------- 

Optimization log is written to '/dev/null'
      ----------------------------------------------------------- 
     |                   =====================                   |
     |                        A N C O P T                        |
     |                   =====================                   |
     |               Approximate Normal Coordinate               |
     |                Rational Function Optimizer                |
      ----------------------------------------------------------- 

          ...................................................
          :                      SETUP                      :
          :.................................................:
          :   optimization level         verytight          :
          :   max. optcycles                   980          :
          :   ANC micro-cycles                  20          :
          :   degrees of freedom               141          :
          :.................................................:
          :   RF solver                   davidson          :
          :   write xtbopt.log                true          :
          :   linear?                        false          :
          :   energy convergence         0.1000000E-06 Eh   :
          :   grad. convergence          0.2000000E-03 Eh/α :
          :   maxmium RF displ.          1.0000000          :
          :   Hlow (freq-cutoff)         0.1000000E-01      :
          :   Hmax (freq-cutoff)         5.0000000          :
          :   S6 in model hess.         20.0000000          :
          ...................................................

generating ANC from exact Hessian ...
Using Lindh-Hessian (1995)
 Shifting diagonal of input Hessian by   9.745097207289503E-003
 Lowest  eigenvalues of input Hessian
    0.000000    0.000000    0.000000    0.000000    0.000000    0.000000
    0.010000    0.010063    0.010152    0.010405    0.010733    0.010835
    0.011463    0.012305    0.012991    0.014249    0.014909    0.016915
 Highest eigenvalues
    1.981813    2.029464    2.049098    2.064296    2.159664    2.230496
 

........................................................................
.............................. CYCLE    1 ..............................
........................................................................

 iter      E             dE          RMSdq      gap      omega  full diag
   1    -90.8225113 -0.908225E+02  0.117E-04    2.47       0.0  T
   2    -90.8225113 -0.916316E-10  0.767E-05    2.47     186.4  T
   3    -90.8225113 -0.762839E-10  0.548E-05    2.47     260.7  T
     SCC iter.                  ...        0 min,  0.024 sec
     gradient                   ...        0 min,  0.008 sec
 * total energy  :   -89.6199371 Eh     change       -0.7486562E-09 Eh
   gradient norm :     0.0792466 Eh/α   predicted     0.0000000E+00 (-100.00%)
   displ. norm   :     0.2687877 α      lambda       -0.1044514E-01
   maximum displ.:     0.0851285 α      in ANC's #17, #18, #68, ...

........................................................................
.............................. CYCLE    2 ..............................
........................................................................

 iter      E             dE          RMSdq      gap      omega  full diag
   1    -90.8718147 -0.908718E+02  0.148E-01    2.43       0.0  T
   2    -90.8718492 -0.344795E-04  0.896E-02    2.44       1.0  T
   3    -90.8718220  0.271358E-04  0.321E-02    2.44       1.0  T
   4    -90.8718594 -0.373453E-04  0.836E-03    2.44       1.7  T
   5    -90.8718606 -0.122910E-05  0.333E-03    2.44       4.3  T
   6    -90.8718608 -0.194694E-06  0.156E-03    2.44       9.1  T
   7    -90.8718608 -0.508315E-07  0.739E-04    2.44      19.3  T
   8    -90.8718608 -0.548046E-08  0.353E-04    2.44      40.5  T
     SCC iter.                  ...        0 min,  0.050 sec
     gradient                   ...        0 min,  0.007 sec
 * total energy  :   -89.6269431 Eh     change       -0.7006086E-02 Eh
   gradient norm :     0.0307705 Eh/α   predicted    -0.5602440E-02 ( -20.03%)
   displ. norm   :     0.2310270 α      lambda       -0.2427784E-02
   maximum displ.:     0.0858233 α      in ANC's #18, #17, #14, ...

........................................................................
.............................. CYCLE    3 ..............................
........................................................................

 iter      E             dE          RMSdq      gap      omega  full diag
   1    -90.8951968 -0.908952E+02  0.928E-02    2.41       0.0  T
   2    -90.8952154 -0.185957E-04  0.541E-02    2.41       1.0  T
   3    -90.8952065  0.887586E-05  0.213E-02    2.41       1.0  T
   4    -90.8952192 -0.126239E-04  0.717E-03    2.41       2.0  T
   5    -90.8952204 -0.125663E-05  0.291E-03    2.41       4.9  T
   6    -90.8952206 -0.221393E-06  0.113E-03    2.41      12.6  T
   7    -90.8952207 -0.284196E-07  0.503E-04    2.41      28.4  T
   8    -90.8952207 -0.113448E-08  0.281E-04    2.41      50.8  T
     SCC iter.                  ...        0 min,  0.049 sec
     gradient                   ...        0 min,  0.007 sec
 * total energy  :   -89.6283572 Eh     change       -0.1414055E-02 Eh
   gradient norm :     0.0080898 Eh/α   predicted    -0.1278903E-02 (  -9.56%)
   displ. norm   :     0.1428108 α      lambda       -0.3326406E-03
   maximum displ.:     0.0816820 α      in ANC's #6, #14, #18, ...

........................................................................
.............................. CYCLE    4 ..............................
........................................................................

 iter      E             dE          RMSdq      gap      omega  full diag
   1    -90.8980372 -0.908980E+02  0.457E-02    2.40       0.0  T
   2    -90.8980399 -0.263544E-05  0.264E-02    2.40       1.0  T
   3    -90.8980375  0.234536E-05  0.907E-03    2.40       1.6  T
   4    -90.8980405 -0.303535E-05  0.262E-03    2.40       5.5  T
   5    -90.8980407 -0.142664E-06  0.102E-03    2.40      14.0  T
   6    -90.8980407 -0.314479E-07  0.422E-04    2.40      33.9  T
   7    -90.8980407 -0.324789E-08  0.209E-04    2.40      68.4  T
     SCC iter.                  ...        0 min,  0.033 sec
     gradient                   ...        0 min,  0.007 sec
 * total energy  :   -89.6286029 Eh     change       -0.2456830E-03 Eh
   gradient norm :     0.0042709 Eh/α   predicted    -0.1697129E-03 ( -30.92%)
   displ. norm   :     0.2000420 α      lambda       -0.2570843E-03
   maximum displ.:     0.1409628 α      in ANC's #6, #4, #14, ...

........................................................................
.............................. CYCLE    5 ..............................
........................................................................

 iter      E             dE          RMSdq      gap      omega  full diag
   1    -90.8983509 -0.908984E+02  0.654E-02    2.38       0.0  T
   2    -90.8983529 -0.197779E-05  0.382E-02    2.38       1.0  T
   3    -90.8983498  0.307066E-05  0.908E-03    2.39       1.6  T
   4    -90.8983535 -0.370346E-05  0.235E-03    2.38       6.1  T
   5    -90.8983536 -0.908107E-07  0.933E-04    2.38      15.3  T
   6    -90.8983536 -0.232445E-07  0.406E-04    2.38      35.2  T
     SCC iter.                  ...        0 min,  0.028 sec
     gradient                   ...        0 min,  0.007 sec
 * total energy  :   -89.6287813 Eh     change       -0.1784007E-03 Eh
   gradient norm :     0.0040611 Eh/α   predicted    -0.1337284E-03 ( -25.04%)
   displ. norm   :     0.1612716 α      lambda       -0.1269697E-03
   maximum displ.:     0.1227413 α      in ANC's #6, #4, #5, ...

........................................................................
.............................. CYCLE    6 ..............................
........................................................................

 iter      E             dE          RMSdq      gap      omega  full diag
   1    -90.8979696 -0.908980E+02  0.545E-02    2.38       0.0  T
   2    -90.8979700 -0.380488E-06  0.320E-02    2.38       1.0  T
   3    -90.8979696  0.396052E-06  0.334E-03    2.38       4.3  T
   4    -90.8979701 -0.530711E-06  0.108E-03    2.38      13.3  T
   5    -90.8979701 -0.112998E-07  0.546E-04    2.38      26.2  T
   6    -90.8979701 -0.552095E-08  0.233E-04    2.38      61.3  T
     SCC iter.                  ...        0 min,  0.028 sec
     gradient                   ...        0 min,  0.007 sec
 * total energy  :   -89.6288898 Eh     change       -0.1085377E-03 Eh
   gradient norm :     0.0043155 Eh/α   predicted    -0.6515653E-04 ( -39.97%)
   displ. norm   :     0.1910115 α      lambda       -0.1525148E-03
   maximum displ.:     0.1390007 α      in ANC's #6, #4, #5, ...

........................................................................
.............................. CYCLE    7 ..............................
........................................................................

 iter      E             dE          RMSdq      gap      omega  full diag
   1    -90.8974551 -0.908975E+02  0.647E-02    2.37       0.0  T
   2    -90.8974555 -0.453596E-06  0.380E-02    2.37       1.0  T
   3    -90.8974553  0.261317E-06  0.337E-03    2.37       4.2  T
   4    -90.8974557 -0.419781E-06  0.114E-03    2.37      12.5  T
   5    -90.8974557 -0.609398E-08  0.541E-04    2.37      26.4  T
   6    -90.8974557 -0.386670E-08  0.254E-04    2.37      56.3  T
     SCC iter.                  ...        0 min,  0.028 sec
     gradient                   ...        0 min,  0.007 sec
 * total energy  :   -89.6290279 Eh     change       -0.1380478E-03 Eh
   gradient norm :     0.0035977 Eh/α   predicted    -0.7904111E-04 ( -42.74%)
   displ. norm   :     0.2972550 α      lambda       -0.2237161E-03
   maximum displ.:     0.2079872 α      in ANC's #6, #4, #5, ...

........................................................................
.............................. CYCLE    8 ..............................
........................................................................

 iter      E             dE          RMSdq      gap      omega  full diag
   1    -90.8968253 -0.908968E+02  0.999E-02    2.36       0.0  T
   2    -90.8968263 -0.988313E-06  0.586E-02    2.36       1.0  T
   3    -90.8968253  0.929394E-06  0.605E-03    2.36       2.4  T
   4    -90.8968266 -0.129752E-05  0.206E-03    2.36       6.9  T
   5    -90.8968267 -0.287530E-07  0.102E-03    2.36      14.0  T
   6    -90.8968267 -0.280601E-07  0.404E-04    2.36      35.3  T
   7    -90.8968267 -0.207389E-08  0.198E-04    2.36      72.1  T
     SCC iter.                  ...        0 min,  0.033 sec
     gradient                   ...        0 min,  0.007 sec
 * total energy  :   -89.6292268 Eh     change       -0.1989690E-03 Eh
   gradient norm :     0.0035140 Eh/α   predicted    -0.1217432E-03 ( -38.81%)
   displ. norm   :     0.3976659 α      lambda       -0.2622931E-03
   maximum displ.:     0.2755879 α      in ANC's #6, #4, #5, ...

........................................................................
.............................. CYCLE    9 ..............................
........................................................................

 iter      E             dE          RMSdq      gap      omega  full diag
   1    -90.8958080 -0.908958E+02  0.133E-01    2.34       0.0  T
   2    -90.8958094 -0.132956E-05  0.780E-02    2.34       1.0  T
   3    -90.8958084  0.996577E-06  0.667E-03    2.34       2.1  T
   4    -90.8958099 -0.154759E-05  0.260E-03    2.34       5.5  T
   5    -90.8958100 -0.531017E-07  0.125E-03    2.34      11.4  T
   6    -90.8958100 -0.446067E-07  0.450E-04    2.34      31.7  T
   7    -90.8958100 -0.152555E-08  0.225E-04    2.34      63.4  T
     SCC iter.                  ...        0 min,  0.033 sec
     gradient                   ...        0 min,  0.007 sec
 * total energy  :   -89.6294558 Eh     change       -0.2289264E-03 Eh
   gradient norm :     0.0044486 Eh/α   predicted    -0.1518989E-03 ( -33.65%)
   displ. norm   :     0.4604239 α      lambda       -0.2733504E-03
   maximum displ.:     0.3207427 α      in ANC's #6, #4, #5, ...

........................................................................
.............................. CYCLE   10 ..............................
........................................................................

 iter      E             dE          RMSdq      gap      omega  full diag
   1    -90.8947193 -0.908947E+02  0.153E-01    2.33       0.0  T
   2    -90.8947207 -0.148660E-05  0.898E-02    2.33       1.0  T
   3    -90.8947201  0.632229E-06  0.596E-03    2.33       2.4  T
   4    -90.8947214 -0.129705E-05  0.275E-03    2.33       5.2  T
   5    -90.8947215 -0.702871E-07  0.126E-03    2.33      11.4  T
   6    -90.8947215 -0.433148E-07  0.443E-04    2.33      32.3  T
   7    -90.8947215 -0.110329E-08  0.216E-04    2.33      66.0  T
     SCC iter.                  ...        0 min,  0.033 sec
     gradient                   ...        0 min,  0.007 sec
 * total energy  :   -89.6296866 Eh     change       -0.2308712E-03 Eh
   gradient norm :     0.0053653 Eh/α   predicted    -0.1656530E-03 ( -28.25%)
   displ. norm   :     0.5275115 α      lambda       -0.2995432E-03
   maximum displ.:     0.3753399 α      in ANC's #6, #4, #5, ...

........................................................................
.............................. CYCLE   11 ..............................
........................................................................

 iter      E             dE          RMSdq      gap      omega  full diag
   1    -90.8939732 -0.908940E+02  0.173E-01    2.31       0.0  T
   2    -90.8939751 -0.193614E-05  0.102E-01    2.31       1.0  T
   3    -90.8939745  0.636753E-06  0.602E-03    2.31       2.4  T
   4    -90.8939760 -0.154106E-05  0.284E-03    2.31       5.0  T
   5    -90.8939761 -0.598379E-07  0.139E-03    2.31      10.3  T
   6    -90.8939761 -0.542141E-07  0.481E-04    2.31      29.7  T
   7    -90.8939761 -0.211122E-08  0.227E-04    2.31      62.8  T
     SCC iter.                  ...        0 min,  0.033 sec
     gradient                   ...        0 min,  0.007 sec
 * total energy  :   -89.6299152 Eh     change       -0.2285650E-03 Eh
   gradient norm :     0.0060565 Eh/α   predicted    -0.1914509E-03 ( -16.24%)
   displ. norm   :     0.4113535 α      lambda       -0.2624058E-03
   maximum displ.:     0.3026133 α      in ANC's #6, #5, #4, ...

........................................................................
.............................. CYCLE   12 ..............................
........................................................................

 iter      E             dE          RMSdq      gap      omega  full diag
   1    -90.8965589 -0.908966E+02  0.132E-01    2.30       0.0  T
   2    -90.8965605 -0.158629E-05  0.774E-02    2.30       1.0  T
   3    -90.8965595  0.968206E-06  0.606E-03    2.30       2.4  T
   4    -90.8965612 -0.169335E-05  0.199E-03    2.30       7.2  T
   5    -90.8965612 -0.481117E-08  0.986E-04    2.30      14.5  T
   6    -90.8965612 -0.264474E-07  0.386E-04    2.30      37.1  T
     SCC iter.                  ...        0 min,  0.028 sec
     gradient                   ...        0 min,  0.007 sec
 * total energy  :   -89.6301176 Eh     change       -0.2024418E-03 Eh
   gradient norm :     0.0041700 Eh/α   predicted    -0.1534060E-03 ( -24.22%)
   displ. norm   :     0.4891552 α      lambda       -0.2347342E-03
   maximum displ.:     0.3628865 α      in ANC's #6, #4, #5, ...

........................................................................
.............................. CYCLE   13 ..............................
........................................................................

 iter      E             dE          RMSdq      gap      omega  full diag
   1    -90.8964197 -0.908964E+02  0.160E-01    2.28       0.0  T
   2    -90.8964219 -0.220934E-05  0.944E-02    2.28       1.0  T
   3    -90.8964206  0.132033E-05  0.703E-03    2.28       2.0  T
   4    -90.8964230 -0.236282E-05  0.243E-03    2.28       5.9  T
   5    -90.8964230 -0.155160E-07  0.119E-03    2.28      12.0  T
   6    -90.8964230 -0.327826E-07  0.528E-04    2.28      27.1  T
   7    -90.8964230 -0.468017E-08  0.194E-04    2.28      73.7  T
     SCC iter.                  ...        0 min,  0.033 sec
     gradient                   ...        0 min,  0.007 sec
 * total energy  :   -89.6303007 Eh     change       -0.1830934E-03 Eh
   gradient norm :     0.0047864 Eh/α   predicted    -0.1454555E-03 ( -20.56%)
   displ. norm   :     0.4066512 α      lambda       -0.3132233E-03
   maximum displ.:     0.2900214 α      in ANC's #6, #2, #4, ...

........................................................................
.............................. CYCLE   14 ..............................
........................................................................

 iter      E             dE          RMSdq      gap      omega  full diag
   1    -90.9033567 -0.909034E+02  0.128E-01    2.27       0.0  T
   2    -90.9033598 -0.313141E-05  0.753E-02    2.27       1.0  T
   3    -90.9033566  0.316893E-05  0.105E-02    2.27       1.4  T
   4    -90.9033611 -0.441913E-05  0.287E-03    2.27       5.0  T
   5    -90.9033611 -0.144690E-07  0.175E-03    2.27       8.2  T
   6    -90.9033612 -0.774756E-07  0.571E-04    2.27      25.0  T
   7    -90.9033612 -0.233980E-08  0.318E-04    2.27      44.9  T
     SCC iter.                  ...        0 min,  0.033 sec
     gradient                   ...        0 min,  0.007 sec
 * total energy  :   -89.6304594 Eh     change       -0.1586553E-03 Eh
   gradient norm :     0.0054965 Eh/α   predicted    -0.1825109E-03 (  15.04%)
   displ. norm   :     0.5629610 α      lambda       -0.2344076E-03
   maximum displ.:     0.4190645 α      in ANC's #6, #4, #5, ...

........................................................................
.............................. CYCLE   15 ..............................
........................................................................

 iter      E             dE          RMSdq      gap      omega  full diag
   1    -90.8952579 -0.908953E+02  0.189E-01    2.25       0.0  T
   2    -90.8952618 -0.387890E-05  0.112E-01    2.25       1.0  T
   3    -90.8952591  0.273198E-05  0.101E-02    2.25       1.4  T
   4    -90.8952636 -0.451612E-05  0.301E-03    2.25       4.8  T
   5    -90.8952636 -0.433626E-08  0.149E-03    2.25       9.6  T
   6    -90.8952636 -0.392920E-07  0.539E-04    2.25      26.5  T
   7    -90.8952636 -0.380521E-08  0.256E-04    2.25      55.8  T
     SCC iter.                  ...        0 min,  0.033 sec
     gradient                   ...        0 min,  0.007 sec
 * total energy  :   -89.6305448 Eh     change       -0.8544756E-04 Eh
   gradient norm :     0.0071836 Eh/α   predicted    -0.1543508E-03 (  80.64%)
   displ. norm   :     0.0833063 α      lambda       -0.1217544E-03
   maximum displ.:     0.0349721 α      in ANC's #6, #3, #9, ...

........................................................................
.............................. CYCLE   16 ..............................
........................................................................

 iter      E             dE          RMSdq      gap      omega  full diag
   1    -90.8984500 -0.908984E+02  0.259E-02    2.25       0.0  T
   2    -90.8984503 -0.353402E-06  0.152E-02    2.25       1.0  T
   3    -90.8984499  0.421486E-06  0.342E-03    2.25       4.2  T
   4    -90.8984505 -0.541077E-06  0.898E-04    2.25      15.9  T
   5    -90.8984505 -0.116013E-07  0.426E-04    2.25      33.5  T
     SCC iter.                  ...        0 min,  0.023 sec
     gradient                   ...        0 min,  0.007 sec
 * total energy  :   -89.6306167 Eh     change       -0.7183011E-04 Eh
   gradient norm :     0.0035764 Eh/α   predicted    -0.6129979E-04 ( -14.66%)
   displ. norm   :     0.1789935 α      lambda       -0.1022145E-03
   maximum displ.:     0.0954335 α      in ANC's #6, #10, #8, ...

........................................................................
.............................. CYCLE   17 ..............................
........................................................................

 iter      E             dE          RMSdq      gap      omega  full diag
   1    -90.9001385 -0.909001E+02  0.539E-02    2.25       0.0  T
   2    -90.9001393 -0.760211E-06  0.317E-02    2.25       1.0  T
   3    -90.9001380  0.129800E-05  0.568E-03    2.25       2.5  T
   4    -90.9001396 -0.160680E-05  0.157E-03    2.25       9.1  T
   5    -90.9001396 -0.213647E-07  0.792E-04    2.25      18.0  T
   6    -90.9001396 -0.174685E-07  0.288E-04    2.25      49.7  T
     SCC iter.                  ...        0 min,  0.028 sec
     gradient                   ...        0 min,  0.007 sec
 * total energy  :   -89.6306846 Eh     change       -0.6794729E-04 Eh
   gradient norm :     0.0023914 Eh/α   predicted    -0.5275308E-04 ( -22.36%)
   displ. norm   :     0.4298095 α      lambda       -0.1150433E-03
   maximum displ.:     0.3032573 α      in ANC's #6, #4, #8, ...

........................................................................
.............................. CYCLE   18 ..............................
........................................................................

 iter      E             dE          RMSdq      gap      omega  full diag
   1    -90.8969277 -0.908969E+02  0.143E-01    2.23       0.0  T
   2    -90.8969302 -0.246185E-05  0.838E-02    2.23       1.0  T
   3    -90.8969270  0.321870E-05  0.977E-03    2.23       1.5  T
   4    -90.8969314 -0.444691E-05  0.276E-03    2.23       5.2  T
   5    -90.8969314 -0.125573E-07  0.114E-03    2.23      12.5  T
   6    -90.8969315 -0.391137E-07  0.428E-04    2.23      33.4  T
   7    -90.8969315 -0.643126E-09  0.183E-04    2.23      78.2  T
     SCC iter.                  ...        0 min,  0.036 sec
     gradient                   ...        0 min,  0.007 sec
 * total energy  :   -89.6307569 Eh     change       -0.7225079E-04 Eh
   gradient norm :     0.0033478 Eh/α   predicted    -0.6814800E-04 (  -5.68%)
   displ. norm   :     0.1399455 α      lambda       -0.4755996E-04
   maximum displ.:     0.0930323 α      in ANC's #6, #3, #8, ...

........................................................................
.............................. CYCLE   19 ..............................
........................................................................

 iter      E             dE          RMSdq      gap      omega  full diag
   1    -90.8976026 -0.908976E+02  0.434E-02    2.23       0.0  T
   2    -90.8976028 -0.260487E-06  0.255E-02    2.23       1.0  T
   3    -90.8976024  0.385730E-06  0.328E-03    2.23       4.4  T
   4    -90.8976029 -0.499051E-06  0.901E-04    2.23      15.9  T
   5    -90.8976029 -0.458954E-08  0.444E-04    2.23      32.2  T
     SCC iter.                  ...        0 min,  0.024 sec
     gradient                   ...        0 min,  0.007 sec
 * total energy  :   -89.6307960 Eh     change       -0.3916341E-04 Eh
   gradient norm :     0.0029865 Eh/α   predicted    -0.2424834E-04 ( -38.08%)
   displ. norm   :     0.2389536 α      lambda       -0.1162266E-03
   maximum displ.:     0.1454387 α      in ANC's #6, #3, #1, ...

........................................................................
.............................. CYCLE   20 ..............................
........................................................................

 iter      E             dE          RMSdq      gap      omega  full diag
   1    -90.9005919 -0.909006E+02  0.695E-02    2.23       0.0  T
   2    -90.9005929 -0.101400E-05  0.408E-02    2.23       1.0  T
   3    -90.9005910  0.188754E-05  0.692E-03    2.23       2.1  T
   4    -90.9005933 -0.229097E-05  0.140E-03    2.23      10.2  T
   5    -90.9005933 -0.192957E-07  0.750E-04    2.23      19.1  T
   6    -90.9005933 -0.747431E-08  0.314E-04    2.23      45.5  T
     SCC iter.                  ...        0 min,  0.028 sec
     gradient                   ...        0 min,  0.007 sec
 * total energy  :   -89.6308672 Eh     change       -0.7119846E-04 Eh
   gradient norm :     0.0041022 Eh/α   predicted    -0.6143227E-04 ( -13.72%)
   displ. norm   :     0.2904924 α      lambda       -0.1021337E-03
   maximum displ.:     0.2032940 α      in ANC's #6, #3, #1, ...
 * RMSD in coord.:     0.7116482 α      energy gain  -0.1093017E-01 Eh

generating ANC from exact Hessian ...
Using Lindh-Hessian (1995)
 Shifting diagonal of input Hessian by   9.744811070954247E-003
 Lowest  eigenvalues of input Hessian
    0.000000    0.000000    0.000000    0.000000    0.000000    0.000000
    0.010000    0.010101    0.010255    0.010416    0.010765    0.010872
    0.011366    0.012609    0.013101    0.014342    0.015485    0.017373
 Highest eigenvalues
    2.037573    2.063678    2.091124    2.137318    2.194064    2.239842
 

........................................................................
.............................. CYCLE   21 ..............................
........................................................................

 iter      E             dE          RMSdq      gap      omega  full diag
   1    -90.8998568 -0.908999E+02  0.889E-02    2.22       0.0  T
   2    -90.8998578 -0.942206E-06  0.523E-02    2.22       1.0  T
   3    -90.8998560  0.181849E-05  0.661E-03    2.22       2.2  T
   4    -90.8998582 -0.221634E-05  0.169E-03    2.22       8.4  T
   5    -90.8998582 -0.323201E-07  0.102E-03    2.22      14.0  T
   6    -90.8998582 -0.226474E-07  0.348E-04    2.22      41.0  T
   7    -90.8998582 -0.128585E-08  0.149E-04    2.22      96.0  T
     SCC iter.                  ...        0 min,  0.033 sec
     gradient                   ...        0 min,  0.007 sec
 * total energy  :   -89.6309403 Eh     change       -0.7307679E-04 Eh
   gradient norm :     0.0047983 Eh/α   predicted     0.0000000E+00 (-100.00%)
   displ. norm   :     0.0506269 α      lambda       -0.6674879E-04
   maximum displ.:     0.0309750 α      in ANC's #3, #6, #9, ...

........................................................................
.............................. CYCLE   22 ..............................
........................................................................

 iter      E             dE          RMSdq      gap      omega  full diag
   1    -90.8996889 -0.908997E+02  0.172E-02    2.22       0.0  T
   2    -90.8996892 -0.223270E-06  0.101E-02    2.22       1.4  T
   3    -90.8996889  0.251827E-06  0.259E-03    2.22       5.5  T
   4    -90.8996892 -0.302203E-06  0.667E-04    2.22      21.4  T
   5    -90.8996892 -0.108402E-07  0.309E-04    2.22      46.2  T
     SCC iter.                  ...        0 min,  0.023 sec
     gradient                   ...        0 min,  0.007 sec
 * total energy  :   -89.6309932 Eh     change       -0.5292945E-04 Eh
   gradient norm :     0.0019978 Eh/α   predicted    -0.3498766E-04 ( -33.90%)
   displ. norm   :     0.1558381 α      lambda       -0.6715421E-04
   maximum displ.:     0.0989166 α      in ANC's #3, #6, #2, ...

........................................................................
.............................. CYCLE   23 ..............................
........................................................................

 iter      E             dE          RMSdq      gap      omega  full diag
   1    -90.8989436 -0.908989E+02  0.422E-02    2.21       0.0  T
   2    -90.8989444 -0.840139E-06  0.248E-02    2.21       1.0  T
   3    -90.8989437  0.688079E-06  0.450E-03    2.21       3.2  T
   4    -90.8989446 -0.881538E-06  0.111E-03    2.21      12.8  T
   5    -90.8989446 -0.254905E-07  0.513E-04    2.21      27.8  T
   6    -90.8989446 -0.197943E-08  0.188E-04    2.21      75.9  T
     SCC iter.                  ...        0 min,  0.028 sec
     gradient                   ...        0 min,  0.007 sec
 * total energy  :   -89.6310507 Eh     change       -0.5743191E-04 Eh
   gradient norm :     0.0034184 Eh/α   predicted    -0.3394096E-04 ( -40.90%)
   displ. norm   :     0.0742328 α      lambda       -0.3365020E-04
   maximum displ.:     0.0487901 α      in ANC's #3, #6, #2, ...

........................................................................
.............................. CYCLE   24 ..............................
........................................................................

 iter      E             dE          RMSdq      gap      omega  full diag
   1    -90.8988831 -0.908989E+02  0.185E-02    2.21       0.0  T
   2    -90.8988831 -0.526677E-07  0.109E-02    2.21       1.3  T
   3    -90.8988830  0.121469E-06  0.181E-03    2.21       7.9  T
   4    -90.8988831 -0.145146E-06  0.507E-04    2.21      28.2  T
   5    -90.8988831 -0.410557E-08  0.253E-04    2.21      56.5  T
     SCC iter.                  ...        0 min,  0.023 sec
     gradient                   ...        0 min,  0.007 sec
 * total energy  :   -89.6310823 Eh     change       -0.3166738E-04 Eh
   gradient norm :     0.0031693 Eh/α   predicted    -0.1691884E-04 ( -46.57%)
   displ. norm   :     0.1892268 α      lambda       -0.8954565E-04
   maximum displ.:     0.1190009 α      in ANC's #3, #6, #2, ...

........................................................................
.............................. CYCLE   25 ..............................
........................................................................

 iter      E             dE          RMSdq      gap      omega  full diag
   1    -90.8989805 -0.908990E+02  0.488E-02    2.21       0.0  T
   2    -90.8989809 -0.376441E-06  0.287E-02    2.21       1.0  T
   3    -90.8989801  0.811520E-06  0.454E-03    2.21       3.1  T
   4    -90.8989811 -0.978253E-06  0.126E-03    2.21      11.3  T
   5    -90.8989811 -0.227885E-07  0.668E-04    2.21      21.4  T
   6    -90.8989811 -0.930854E-08  0.224E-04    2.21      63.7  T
     SCC iter.                  ...        0 min,  0.028 sec
     gradient                   ...        0 min,  0.007 sec
 * total energy  :   -89.6311573 Eh     change       -0.7492296E-04 Eh
   gradient norm :     0.0016492 Eh/α   predicted    -0.4637881E-04 ( -38.10%)
   displ. norm   :     0.4078972 α      lambda       -0.9066068E-04
   maximum displ.:     0.2564524 α      in ANC's #3, #6, #2, ...

........................................................................
.............................. CYCLE   26 ..............................
........................................................................

 iter      E             dE          RMSdq      gap      omega  full diag
   1    -90.8982907 -0.908983E+02  0.105E-01    2.20       0.0  T
   2    -90.8982921 -0.137448E-05  0.619E-02    2.20       1.0  T
   3    -90.8982903  0.175555E-05  0.721E-03    2.20       2.0  T
   4    -90.8982927 -0.235337E-05  0.239E-03    2.20       6.0  T
   5    -90.8982927 -0.668986E-07  0.127E-03    2.20      11.3  T
   6    -90.8982928 -0.344418E-07  0.418E-04    2.20      34.2  T
   7    -90.8982928 -0.184220E-08  0.219E-04    2.20      65.2  T
     SCC iter.                  ...        0 min,  0.033 sec
     gradient                   ...        0 min,  0.007 sec
 * total energy  :   -89.6312485 Eh     change       -0.9127081E-04 Eh
   gradient norm :     0.0031154 Eh/α   predicted    -0.4868340E-04 ( -46.66%)
   displ. norm   :     0.1487160 α      lambda       -0.3936865E-04
   maximum displ.:     0.0954348 α      in ANC's #3, #6, #2, ...

........................................................................
.............................. CYCLE   27 ..............................
........................................................................

 iter      E             dE          RMSdq      gap      omega  full diag
   1    -90.8987222 -0.908987E+02  0.381E-02    2.20       0.0  T
   2    -90.8987223 -0.146222E-06  0.224E-02    2.20       1.0  T
   3    -90.8987223  0.258093E-07  0.163E-03    2.20       8.7  T
   4    -90.8987224 -0.934362E-07  0.662E-04    2.20      21.6  T
   5    -90.8987224 -0.102992E-08  0.347E-04    2.20      41.2  T
     SCC iter.                  ...        0 min,  0.023 sec
     gradient                   ...        0 min,  0.007 sec
 * total energy  :   -89.6312844 Eh     change       -0.3587966E-04 Eh
   gradient norm :     0.0027738 Eh/α   predicted    -0.2012012E-04 ( -43.92%)
   displ. norm   :     0.2398163 α      lambda       -0.7469299E-04
   maximum displ.:     0.1529441 α      in ANC's #3, #6, #2, ...

........................................................................
.............................. CYCLE   28 ..............................
........................................................................

 iter      E             dE          RMSdq      gap      omega  full diag
   1    -90.8995017 -0.908995E+02  0.623E-02    2.20       0.0  T
   2    -90.8995021 -0.435257E-06  0.367E-02    2.20       1.0  T
   3    -90.8995020  0.173437E-06  0.304E-03    2.20       4.7  T
   4    -90.8995023 -0.375497E-06  0.108E-03    2.20      13.3  T
   5    -90.8995024 -0.334363E-08  0.490E-04    2.20      29.2  T
   6    -90.8995024 -0.584112E-08  0.198E-04    2.20      72.2  T
     SCC iter.                  ...        0 min,  0.028 sec
     gradient                   ...        0 min,  0.007 sec
 * total energy  :   -89.6313496 Eh     change       -0.6516218E-04 Eh
   gradient norm :     0.0016003 Eh/α   predicted    -0.3949492E-04 ( -39.39%)
   displ. norm   :     0.5836366 α      lambda       -0.1057403E-03
   maximum displ.:     0.3682242 α      in ANC's #3, #6, #2, ...

........................................................................
.............................. CYCLE   29 ..............................
........................................................................

 iter      E             dE          RMSdq      gap      omega  full diag
   1    -90.8982490 -0.908982E+02  0.153E-01    2.19       0.0  T
   2    -90.8982514 -0.239580E-05  0.900E-02    2.19       1.0  T
   3    -90.8982509  0.523554E-06  0.645E-03    2.19       2.2  T
   4    -90.8982525 -0.165432E-05  0.271E-03    2.19       5.3  T
   5    -90.8982526 -0.361599E-07  0.115E-03    2.19      12.4  T
   6    -90.8982526 -0.318744E-07  0.532E-04    2.19      26.8  T
   7    -90.8982526 -0.405548E-08  0.240E-04    2.19      59.5  T
     SCC iter.                  ...        0 min,  0.033 sec
     gradient                   ...        0 min,  0.007 sec
 * total energy  :   -89.6314668 Eh     change       -0.1171980E-03 Eh
   gradient norm :     0.0025964 Eh/α   predicted    -0.6087630E-04 ( -48.06%)
   displ. norm   :     0.3134960 α      lambda       -0.7048609E-04
   maximum displ.:     0.1952404 α      in ANC's #3, #6, #2, ...

........................................................................
.............................. CYCLE   30 ..............................
........................................................................

 iter      E             dE          RMSdq      gap      omega  full diag
   1    -90.8983037 -0.908983E+02  0.812E-02    2.19       0.0  T
   2    -90.8983043 -0.631145E-06  0.478E-02    2.19       1.0  T
   3    -90.8983042  0.116730E-06  0.323E-03    2.19       4.4  T
   4    -90.8983046 -0.404600E-06  0.147E-03    2.19       9.7  T
   5    -90.8983047 -0.201454E-07  0.560E-04    2.19      25.5  T
   6    -90.8983047 -0.728193E-08  0.270E-04    2.19      53.0  T
     SCC iter.                  ...        0 min,  0.028 sec
     gradient                   ...        0 min,  0.007 sec
 * total energy  :   -89.6315258 Eh     change       -0.5898394E-04 Eh
   gradient norm :     0.0025897 Eh/α   predicted    -0.3870941E-04 ( -34.37%)
   displ. norm   :     0.4452766 α      lambda       -0.1005146E-03
   maximum displ.:     0.2711408 α      in ANC's #3, #6, #2, ...

........................................................................
.............................. CYCLE   31 ..............................
........................................................................

 iter      E             dE          RMSdq      gap      omega  full diag
   1    -90.8985039 -0.908985E+02  0.115E-01    2.18       0.0  T
   2    -90.8985053 -0.136744E-05  0.676E-02    2.18       1.0  T
   3    -90.8985049  0.385903E-06  0.510E-03    2.18       2.8  T
   4    -90.8985058 -0.948107E-06  0.234E-03    2.18       6.1  T
   5    -90.8985059 -0.579074E-07  0.997E-04    2.18      14.3  T
   6    -90.8985059 -0.293460E-07  0.422E-04    2.18      33.9  T
     SCC iter.                  ...        0 min,  0.028 sec
     gradient                   ...        0 min,  0.007 sec
 * total energy  :   -89.6316004 Eh     change       -0.7466328E-04 Eh
   gradient norm :     0.0021348 Eh/α   predicted    -0.6022324E-04 ( -19.34%)
   displ. norm   :     0.3166172 α      lambda       -0.5521647E-04
   maximum displ.:     0.1874121 α      in ANC's #3, #6, #2, ...

........................................................................
.............................. CYCLE   32 ..............................
........................................................................

 iter      E             dE          RMSdq      gap      omega  full diag
   1    -90.8987765 -0.908988E+02  0.818E-02    2.17       0.0  T
   2    -90.8987773 -0.783152E-06  0.479E-02    2.17       1.0  T
   3    -90.8987770  0.231637E-06  0.400E-03    2.17       3.6  T
   4    -90.8987775 -0.519603E-06  0.179E-03    2.17       8.0  T
   5    -90.8987776 -0.338035E-07  0.748E-04    2.17      19.1  T
   6    -90.8987776 -0.172652E-07  0.308E-04    2.17      46.4  T
     SCC iter.                  ...        0 min,  0.028 sec
     gradient                   ...        0 min,  0.007 sec
 * total energy  :   -89.6316401 Eh     change       -0.3963845E-04 Eh
   gradient norm :     0.0014805 Eh/α   predicted    -0.3037830E-04 ( -23.36%)
   displ. norm   :     0.3195486 α      lambda       -0.2340712E-04
   maximum displ.:     0.1859912 α      in ANC's #3, #6, #2, ...

........................................................................
.............................. CYCLE   33 ..............................
........................................................................

 iter      E             dE          RMSdq      gap      omega  full diag
   1    -90.8986557 -0.908987E+02  0.830E-02    2.16       0.0  T
   2    -90.8986566 -0.838914E-06  0.486E-02    2.16       1.0  T
   3    -90.8986563  0.261974E-06  0.410E-03    2.16       3.5  T
   4    -90.8986569 -0.573170E-06  0.170E-03    2.16       8.4  T
   5    -90.8986569 -0.307839E-07  0.626E-04    2.16      22.8  T
   6    -90.8986569 -0.928976E-08  0.260E-04    2.16      55.0  T
     SCC iter.                  ...        0 min,  0.028 sec
     gradient                   ...        0 min,  0.007 sec
 * total energy  :   -89.6316576 Eh     change       -0.1753718E-04 Eh
   gradient norm :     0.0010530 Eh/α   predicted    -0.1223510E-04 ( -30.23%)
   displ. norm   :     0.0551159 α      lambda       -0.5710795E-05
   maximum displ.:     0.0328645 α      in ANC's #3, #2, #6, ...

........................................................................
.............................. CYCLE   34 ..............................
........................................................................

 iter      E             dE          RMSdq      gap      omega  full diag
   1    -90.9006464 -0.909006E+02  0.159E-02    2.17       0.0  T
   2    -90.9006464 -0.694123E-07  0.933E-03    2.17       1.5  T
   3    -90.9006463  0.157331E-06  0.201E-03    2.17       7.1  T
   4    -90.9006465 -0.192231E-06  0.499E-04    2.17      28.6  T
   5    -90.9006465 -0.249996E-08  0.296E-04    2.17      48.3  T
     SCC iter.                  ...        0 min,  0.023 sec
     gradient                   ...        0 min,  0.007 sec
 * total energy  :   -89.6316605 Eh     change       -0.2915172E-05 Eh
   gradient norm :     0.0013061 Eh/α   predicted    -0.2860508E-05 (  -1.88%)
   displ. norm   :     0.0846796 α      lambda       -0.8942492E-05
   maximum displ.:     0.0542659 α      in ANC's #6, #3, #2, ...

........................................................................
.............................. CYCLE   35 ..............................
........................................................................

 iter      E             dE          RMSdq      gap      omega  full diag
   1    -90.8995474 -0.908995E+02  0.248E-02    2.17       0.0  T
   2    -90.8995475 -0.105783E-06  0.146E-02    2.17       1.0  T
   3    -90.8995471  0.439108E-06  0.322E-03    2.17       4.4  T
   4    -90.8995476 -0.509142E-06  0.663E-04    2.17      21.5  T
   5    -90.8995476 -0.343668E-08  0.384E-04    2.17      37.2  T
     SCC iter.                  ...        0 min,  0.023 sec
     gradient                   ...        0 min,  0.007 sec
 * total energy  :   -89.6316671 Eh     change       -0.6545504E-05 Eh
   gradient norm :     0.0011498 Eh/α   predicted    -0.4486368E-05 ( -31.46%)
   displ. norm   :     0.0435673 α      lambda       -0.3401388E-05
   maximum displ.:     0.0297419 α      in ANC's #6, #3, #2, ...

........................................................................
.............................. CYCLE   36 ..............................
........................................................................

 iter      E             dE          RMSdq      gap      omega  full diag
   1    -90.8990796 -0.908991E+02  0.135E-02    2.16       0.0  T
   2    -90.8990797 -0.296326E-07  0.788E-03    2.16       1.8  T
   3    -90.8990796  0.361172E-07  0.107E-03    2.16      13.4  T
   4    -90.8990797 -0.460611E-07  0.330E-04    2.16      43.3  T
   5    -90.8990797 -0.139012E-08  0.172E-04    2.16      83.0  T
     SCC iter.                  ...        0 min,  0.023 sec
     gradient                   ...        0 min,  0.007 sec
 * total energy  :   -89.6316707 Eh     change       -0.3600527E-05 Eh
   gradient norm :     0.0007523 Eh/α   predicted    -0.1702399E-05 ( -52.72%)
   displ. norm   :     0.0711637 α      lambda       -0.4343248E-05
   maximum displ.:     0.0486875 α      in ANC's #6, #4, #5, ...

........................................................................
.............................. CYCLE   37 ..............................
........................................................................

 iter      E             dE          RMSdq      gap      omega  full diag
   1    -90.8989061 -0.908989E+02  0.224E-02    2.16       0.0  T
   2    -90.8989062 -0.671220E-07  0.131E-02    2.16       1.1  T
   3    -90.8989061  0.684670E-07  0.153E-03    2.16       9.4  T
   4    -90.8989062 -0.947959E-07  0.424E-04    2.16      33.7  T
   5    -90.8989062 -0.105460E-08  0.225E-04    2.16      63.5  T
     SCC iter.                  ...        0 min,  0.023 sec
     gradient                   ...        0 min,  0.007 sec
 * total energy  :   -89.6316752 Eh     change       -0.4501149E-05 Eh
   gradient norm :     0.0008800 Eh/α   predicted    -0.2179890E-05 ( -51.57%)
   displ. norm   :     0.1038871 α      lambda       -0.5086484E-05
   maximum displ.:     0.0722861 α      in ANC's #6, #4, #5, ...

........................................................................
.............................. CYCLE   38 ..............................
........................................................................

 iter      E             dE          RMSdq      gap      omega  full diag
   1    -90.8989433 -0.908989E+02  0.331E-02    2.16       0.0  T
   2    -90.8989434 -0.126811E-06  0.194E-02    2.16       1.0  T
   3    -90.8989434  0.686365E-07  0.169E-03    2.16       8.5  T
   4    -90.8989435 -0.121883E-06  0.509E-04    2.16      28.1  T
   5    -90.8989435 -0.111078E-08  0.192E-04    2.16      74.4  T
     SCC iter.                  ...        0 min,  0.023 sec
     gradient                   ...        0 min,  0.007 sec
 * total energy  :   -89.6316807 Eh     change       -0.5566047E-05 Eh
   gradient norm :     0.0011337 Eh/α   predicted    -0.2556948E-05 ( -54.06%)
   displ. norm   :     0.1305997 α      lambda       -0.5759729E-05
   maximum displ.:     0.0923105 α      in ANC's #6, #4, #5, ...

........................................................................
.............................. CYCLE   39 ..............................
........................................................................

 iter      E             dE          RMSdq      gap      omega  full diag
   1    -90.8989854 -0.908990E+02  0.418E-02    2.15       0.0  T
   2    -90.8989856 -0.206423E-06  0.245E-02    2.15       1.0  T
   3    -90.8989855  0.111737E-06  0.211E-03    2.15       6.8  T
   4    -90.8989857 -0.198011E-06  0.607E-04    2.15      23.5  T
   5    -90.8989857 -0.803112E-09  0.314E-04    2.15      45.5  T
     SCC iter.                  ...        0 min,  0.023 sec
     gradient                   ...        0 min,  0.007 sec
 * total energy  :   -89.6316867 Eh     change       -0.5959821E-05 Eh
   gradient norm :     0.0010818 Eh/α   predicted    -0.2903459E-05 ( -51.28%)
   displ. norm   :     0.0807494 α      lambda       -0.4047101E-05
   maximum displ.:     0.0511378 α      in ANC's #6, #4, #5, ...

........................................................................
.............................. CYCLE   40 ..............................
........................................................................

 iter      E             dE          RMSdq      gap      omega  full diag
   1    -90.8994083 -0.908994E+02  0.256E-02    2.15       0.0  T
   2    -90.8994084 -0.100509E-06  0.150E-02    2.15       1.0  T
   3    -90.8994083  0.733567E-07  0.165E-03    2.15       8.7  T
   4    -90.8994085 -0.116494E-06  0.467E-04    2.15      30.6  T
   5    -90.8994085 -0.883503E-09  0.274E-04    2.15      52.1  T
     SCC iter.                  ...        0 min,  0.023 sec
     gradient                   ...        0 min,  0.007 sec
 * total energy  :   -89.6316903 Eh     change       -0.3662310E-05 Eh
   gradient norm :     0.0008322 Eh/α   predicted    -0.2029926E-05 ( -44.57%)
   displ. norm   :     0.0467632 α      lambda       -0.2347006E-05
   maximum displ.:     0.0303503 α      in ANC's #6, #4, #5, ...

........................................................................
.............................. CYCLE   41 ..............................
........................................................................

 iter      E             dE          RMSdq      gap      omega  full diag
   1    -90.8993477 -0.908993E+02  0.149E-02    2.15       0.0  T
   2    -90.8993478 -0.407652E-07  0.869E-03    2.15       1.6  T
   3    -90.8993478  0.208441E-07  0.961E-04    2.15      14.9  T
   4    -90.8993478 -0.363377E-07  0.292E-04    2.15      49.0  T
     SCC iter.                  ...        0 min,  0.019 sec
     gradient                   ...        0 min,  0.007 sec
 * total energy  :   -89.6316924 Eh     change       -0.2104947E-05 Eh
   gradient norm :     0.0005428 Eh/α   predicted    -0.1178709E-05 ( -44.00%)
   displ. norm   :     0.0213602 α      lambda       -0.1362215E-05
   maximum displ.:     0.0082452 α      in ANC's #12, #10, #4, ...

........................................................................
.............................. CYCLE   42 ..............................
........................................................................

 iter      E             dE          RMSdq      gap      omega  full diag
   1    -90.8992843 -0.908993E+02  0.624E-03    2.15       0.0  T
   2    -90.8992843 -0.140084E-07  0.367E-03    2.15       3.9  T
   3    -90.8992843  0.187547E-07  0.764E-04    2.15      18.7  T
   4    -90.8992843 -0.241215E-07  0.239E-04    2.15      59.8  T
     SCC iter.                  ...        0 min,  0.019 sec
     gradient                   ...        0 min,  0.007 sec
 * total energy  :   -89.6316937 Eh     change       -0.1248101E-05 Eh
   gradient norm :     0.0005046 Eh/α   predicted    -0.6836244E-06 ( -45.23%)
   displ. norm   :     0.0144730 α      lambda       -0.6802452E-06
   maximum displ.:     0.0064045 α      in ANC's #9, #7, #4, ...
 * RMSD in coord.:     0.4832599 α      energy gain  -0.8264655E-03 Eh

generating ANC from exact Hessian ...
Using Lindh-Hessian (1995)
 Shifting diagonal of input Hessian by   9.748950700616371E-003
 Lowest  eigenvalues of input Hessian
    0.000000    0.000000    0.000000    0.000000    0.000000    0.000000
    0.010000    0.010129    0.010268    0.010415    0.010742    0.010874
    0.011295    0.012624    0.013149    0.014330    0.015438    0.017454
 Highest eigenvalues
    2.034872    2.061980    2.092099    2.139963    2.193193    2.239197
 

........................................................................
.............................. CYCLE   43 ..............................
........................................................................

 iter      E             dE          RMSdq      gap      omega  full diag
   1    -90.8991381 -0.908991E+02  0.383E-03    2.15       0.0  T
   2    -90.8991381 -0.591920E-08  0.223E-03    2.15       6.4  T
   3    -90.8991381  0.343047E-08  0.407E-04    2.15      35.1  T
   4    -90.8991381 -0.530244E-08  0.148E-04    2.15      96.5  T
     SCC iter.                  ...        0 min,  0.019 sec
     gradient                   ...        0 min,  0.007 sec
 * total energy  :   -89.6316943 Eh     change       -0.6334291E-06 Eh
   gradient norm :     0.0003391 Eh/α   predicted     0.0000000E+00 (-100.00%)
   displ. norm   :     0.0047299 α      lambda       -0.2153060E-06
   maximum displ.:     0.0025001 α      in ANC's #10, #2, #9, ...

........................................................................
.............................. CYCLE   44 ..............................
........................................................................

 iter      E             dE          RMSdq      gap      omega  full diag
   1    -90.8992334 -0.908992E+02  0.141E-03    2.15       0.0  T
   2    -90.8992334 -0.153395E-08  0.833E-04    2.15      17.1  T
   3    -90.8992334  0.949484E-09  0.213E-04    2.15      67.0  T
     SCC iter.                  ...        0 min,  0.014 sec
     gradient                   ...        0 min,  0.007 sec
 * total energy  :   -89.6316946 Eh     change       -0.2806825E-06 Eh
   gradient norm :     0.0001405 Eh/α   predicted    -0.1335699E-06 ( -52.41%)
   displ. norm   :     0.0086139 α      lambda       -0.1563132E-06
   maximum displ.:     0.0045974 α      in ANC's #10, #2, #9, ...

........................................................................
.............................. CYCLE   45 ..............................
........................................................................

 iter      E             dE          RMSdq      gap      omega  full diag
   1    -90.8992486 -0.908992E+02  0.190E-03    2.15       0.0  T
   2    -90.8992486 -0.235188E-08  0.113E-03    2.15      12.6  T
   3    -90.8992486  0.199333E-08  0.273E-04    2.15      52.4  T
   4    -90.8992486 -0.268442E-08  0.106E-04    2.15     135.4  T
     SCC iter.                  ...        0 min,  0.024 sec
     gradient                   ...        0 min,  0.008 sec
 * total energy  :   -89.6316948 Eh     change       -0.2291216E-06 Eh
   gradient norm :     0.0001292 Eh/α   predicted    -0.1120360E-06 ( -51.10%)
   displ. norm   :     0.0086139 α      lambda        0.0000000E+00
   maximum displ.:     0.0045974 α      in ANC's #10, #2, #9, ...

........................................................................
.............................. CYCLE   46 ..............................
........................................................................

 iter      E             dE          RMSdq      gap      omega  full diag
   1    -90.8992622 -0.908993E+02  0.189E-03    2.15       0.0  T
   2    -90.8992622 -0.241404E-08  0.113E-03    2.15      12.7  T
   3    -90.8992622  0.836678E-09  0.220E-04    2.15      64.8  T
   4    -90.8992622 -0.140065E-08  0.106E-04    2.15     134.2  T
     SCC iter.                  ...        0 min,  0.019 sec
     gradient                   ...        0 min,  0.007 sec
 * total energy  :   -89.6316948 Eh     change       -0.5331785E-08 Eh
   gradient norm :     0.0003176 Eh/α   predicted    -0.2438064E-08 ( -54.27%)
   displ. norm   :     0.0019553 α      lambda       -0.1132394E-06
   maximum displ.:     0.0008862 α      in ANC's #14, #10, #8, ...

........................................................................
.............................. CYCLE   47 ..............................
........................................................................

 iter      E             dE          RMSdq      gap      omega  full diag
   1    -90.8992274 -0.908992E+02  0.867E-04    2.15       0.0  T
   2    -90.8992274 -0.906098E-09  0.507E-04    2.15      28.2  T
   3    -90.8992274  0.794159E-09  0.183E-04    2.15      77.9  T
     SCC iter.                  ...        0 min,  0.014 sec
     gradient                   ...        0 min,  0.007 sec
 * total energy  :   -89.6316950 Eh     change       -0.1129858E-06 Eh
   gradient norm :     0.0001375 Eh/α   predicted    -0.5713359E-07 ( -49.43%)
   displ. norm   :     0.0019553 α      lambda        0.0000000E+00
   maximum displ.:     0.0008862 α      in ANC's #14, #10, #8, ...

........................................................................
.............................. CYCLE   48 ..............................
........................................................................

 iter      E             dE          RMSdq      gap      omega  full diag
   1    -90.8991925 -0.908992E+02  0.872E-04    2.15       0.0  T
   2    -90.8991925 -0.724071E-09  0.513E-04    2.15      27.9  T
   3    -90.8991925  0.561329E-09  0.153E-04    2.15      93.6  T
     SCC iter.                  ...        0 min,  0.014 sec
     gradient                   ...        0 min,  0.007 sec
 * total energy  :   -89.6316950 Eh     change       -0.3551861E-09 Eh
   gradient norm :     0.0001143 Eh/α   predicted     0.3771510E-09 (-206.18%)
   displ. norm   :     0.0043873 α      lambda       -0.7933801E-07
   maximum displ.:     0.0028362 α      in ANC's #2, #3, #10, ...

   *** GEOMETRY OPTIMIZATION CONVERGED AFTER 48 ITERATIONS ***

------------------------------------------------------------------------
 total energy gain   :        -0.0117579 Eh       -7.3782 kcal/mol
 total RMSD          :         0.9957988 a0        0.5270 Å
 total power (kW/mol):        -0.6431324 (step)  -16.2657 (real)
------------------------------------------------------------------------

 ANCopt (total)                0 d,  0 h,  0 min,  1.898 sec
 optimizer setup                ...        0 min,  0.000 sec (  0.010%)
 model hessian                  ...        0 min,  0.036 sec (  1.882%)
 ANC generation                 ...        0 min,  0.009 sec (  0.488%)
 coordinate transformation      ...        0 min,  0.005 sec (  0.263%)
 single point calculation       ...        0 min,  1.826 sec ( 96.186%)
 optimization log               ...        0 min,  0.008 sec (  0.424%)
 hessian update                 ...        0 min,  0.005 sec (  0.268%)
 rational function              ...        0 min,  0.005 sec (  0.266%)

================
 final structure:
================
49
 xtb: 6.7.1 (edcfbbe)
C            8.42717443479154        0.74844293191781        0.17411459887255
O            7.60696091624303       -0.38239117553177       -0.03588225428745
C            6.25846412491063       -0.22305683813511       -0.03712520898692
C            5.50584492067483       -1.38192956919325       -0.25397043978057
C            4.13224393392511       -1.33685780167503       -0.27263120764019
C            3.45272557994973       -0.12811155785593       -0.07522850897557
C            2.00786578063343       -0.07139785243252       -0.08447408421127
C            1.10219218127849       -1.09886346479763       -0.04275337099734
C           -0.24794983387382       -0.69263622215559       -0.07571677317742
C           -1.35904208811663       -1.64904076153674       -0.04301455726630
C           -2.36482042163358       -1.61709231880832       -1.00553096495190
C           -3.39858585058865       -2.53013432120013       -0.96484750422186
C           -3.43105512622431       -3.48991966715509        0.04175477519809
C           -4.58123858777698       -4.44785080494895        0.08392093257903
F           -4.39217845151635       -5.48961496721302        0.91185311420440
F           -4.86429703217648       -4.98281108794122       -1.12257296327284
F           -5.73179215438349       -3.86302269820642        0.49157483137459
C           -2.42770194690085       -3.54197123806819        0.99977222914259
C           -1.39346025104133       -2.62668158103276        0.94803354958061
C           -0.38172342270088        0.68103727184454       -0.13279379844319
C           -1.57077620798094        1.47396183016865       -0.09284594824369
N           -2.79201103766103        1.00876947887453        0.01913487690647
C           -3.61077323964756        2.10251430659839        0.03549847406608
C           -4.99708209276506        2.18647127987689        0.13326300046775
C           -5.56312962146079        3.44362379566092        0.12120951687157
C           -4.78597013919500        4.60060860540336        0.01548783028608
C           -3.40955627752124        4.54231876763917       -0.08307783870510
C           -2.83320270923698        3.28303936924153       -0.07217374184298
N           -1.53705063001195        2.84841183056185       -0.15238760678602
S            1.17626818480167        1.45630417532895       -0.14733254837672
C            4.21305733466422        1.02255130414167        0.13300376504062
C            5.59298825551925        0.98503850178880        0.15529712150920
H            9.44994128358784        0.37788921345348        0.13048484030674
H            8.27874719577497        1.49903308287895       -0.60775298508508
H            8.24425160417750        1.19655960134286        1.15519416099842
H            6.03253448802952       -2.31082767573262       -0.40862321150117
H            3.57813854215027       -2.24398279527281       -0.45307179639504
H            1.38380901033305       -2.13473145583341        0.00321561985367
H           -2.33572598587778       -0.87581227082954       -1.78688802687172
H           -4.18091844033794       -2.50672836951212       -1.70822847868664
H           -2.45784993926935       -4.29129813885173        1.77599208313714
H           -0.61555773688093       -2.65840060144019        1.69565572702158
H           -5.59357800472724        1.29157965250557        0.21549639333876
H           -6.63615867765675        3.54264688254014        0.19493943516845
H           -5.27627366085258        5.56269263659392        0.01051995798142
H           -2.81014899062937        5.43663813366877       -0.16474546458528
H           -0.71165015402004        3.41890948883892       -0.23356285093561
H            3.70980879131134        1.96643393249193        0.28764131211156
H            6.13824214991245        1.89968716199410        0.32417098821332
 
 Bond Distances (Angstroems)
 ---------------------------
C1-O2=1.4127         C1-H33=1.0887        C1-H34=1.0940        C1-H35=1.0940        O2-C1=1.4127         O2-C3=1.3579         
C3-O2=1.3579         C3-C4=1.3987         C3-C32=1.3926        C4-C3=1.3987         C4-C5=1.3745         C4-H36=1.0790        
C5-C4=1.3745         C5-C6=1.4006         C5-H37=1.0782        C6-C5=1.4006         C6-C7=1.4460         C6-C31=1.3948        
C7-C6=1.4460         C7-C8=1.3703         C7-S30=1.7405        C8-C7=1.3703         C8-C9=1.4103         C8-H38=1.0745        
C9-C8=1.4103         C9-C10=1.4664        C9-C20=1.3814        C10-C9=1.4664        C10-C11=1.3925       C10-C19=1.3925       
C11-C10=1.3925       C11-C12=1.3798       C11-H39=1.0774       C12-C11=1.3798       C12-C13=1.3912       C12-H40=1.0794       
C13-C12=1.3912       C13-C14=1.4974       C13-C18=1.3882       C14-C13=1.4974       C14-F15=1.3441       C14-F16=1.3498       
C14-F17=1.3535       F15-C14=1.3441       F16-C14=1.3498       F17-C14=1.3535       C18-C13=1.3882       C18-C19=1.3821       
C18-H41=1.0793       C19-C10=1.3925       C19-C18=1.3821       C19-H42=1.0794       C20-C9=1.3814        C20-C21=1.4297       
C20-S30=1.7403       C21-C20=1.4297       C21-N22=1.3116       C21-N29=1.3762       N22-C21=1.3116       N22-C23=1.3664       
C23-N22=1.3664       C23-C24=1.3923       C23-C28=1.4177       C24-C23=1.3923       C24-C25=1.3788       C24-H43=1.0786       
C25-C24=1.3788       C25-C26=1.3978       C25-H44=1.0801       C26-C25=1.3978       C26-C27=1.3812       C26-H45=1.0798       
C27-C26=1.3812       C27-C28=1.3850       C27-H46=1.0797       C28-C23=1.4177       C28-C27=1.3850       C28-N29=1.3694       
N29-C21=1.3762       N29-C28=1.3694       N29-H47=1.0066       S30-C7=1.7405        S30-C20=1.7403       C31-C6=1.3948        
C31-C32=1.3806       C31-H48=1.0808       C32-C3=1.3926        C32-C31=1.3806       C32-H49=1.0781       H33-C1=1.0887        
H34-C1=1.0940        H35-C1=1.0940        H36-C4=1.0790        H37-C5=1.0782        H38-C8=1.0745        H39-C11=1.0774       
H40-C12=1.0794       H41-C18=1.0793       H42-C19=1.0794       H43-C24=1.0786       H44-C25=1.0801       H45-C26=1.0798       
H46-C27=1.0797       H47-N29=1.0066       H48-C31=1.0808       H49-C32=1.0781       
 C  H  Rav=1.0813 sigma=0.0055  Rmin=1.0745  Rmax=1.0940    16
 C  C  Rav=1.4009 sigma=0.0295  Rmin=1.3703  Rmax=1.4974    25
 N  H  Rav=1.0066 sigma=0.0000  Rmin=1.0066  Rmax=1.0066     1
 N  C  Rav=1.3559 sigma=0.0258  Rmin=1.3116  Rmax=1.3762     4
 O  C  Rav=1.3853 sigma=0.0274  Rmin=1.3579  Rmax=1.4127     2
 F  C  Rav=1.3491 sigma=0.0039  Rmin=1.3441  Rmax=1.3535     3
 S  C  Rav=1.7404 sigma=0.0001  Rmin=1.7403  Rmax=1.7405     2
 
 selected bond angles (degree)
 --------------------
H33-C1-O2=105.49               H34-C1-O2=111.36               H34-C1-H33=109.41              H35-C1-O2=111.35               
H35-C1-H33=109.42              H35-C1-H34=109.71              C3-O2-C1=118.87                C4-C3-O2=115.93                
C32-C3-O2=125.19               C32-C3-C4=118.88               C5-C4-C3=120.84                H36-C4-C3=118.22               
H36-C4-C5=120.94               C6-C5-C4=120.75                H37-C5-C4=119.23               H37-C5-C6=120.02               
C7-C6-C5=121.18                C31-C6-C5=117.94               C31-C6-C7=120.88               C8-C7-C6=129.11                
S30-C7-C6=120.80               S30-C7-C8=110.09               C9-C8-C7=114.59                H38-C8-C7=123.43               
H38-C8-C9=121.98               C10-C9-C8=122.48               C20-C9-C8=112.34               C20-C9-C10=125.18              
C11-C10-C9=121.12              C19-C10-C9=119.50              C19-C10-C11=119.35             
 
 selected dihedral angles (degree)
 ---------------------------------
C3-O2-C1-H33=180.11           C3-O2-C1-H34=298.71           C3-O2-C1-H35= 61.51           C4-C3-O2-C1=179.84            
C32-C3-O2-C1=359.97           C5-C4-C3-O2=179.86            C5-C4-C3-C32=359.74           H36-C4-C3-O2=359.70           
H36-C4-C3-C32=179.58          C6-C5-C4-C3=  0.02            C6-C5-C4-H36=180.19           H37-C5-C4-C3=179.32           
H37-C5-C4-H36=359.48          C7-C6-C5-C4=180.40            C7-C6-C5-H37=  1.11           C31-C6-C5-C4=  0.31           
C31-C6-C5-H37=181.02          C8-C7-C6-C5= 12.25            C8-C7-C6-C31=192.34           S30-C7-C6-C5=191.90           
S30-C7-C6-C31= 11.99          C9-C8-C7-C6=180.38            C9-C8-C7-S30=  0.71           H38-C8-C7-C6=359.90           
H38-C8-C7-S30=180.22          C10-C9-C8-C7=179.84           C10-C9-C8-H38=  0.31          C20-C9-C8-C7=359.48           
C20-C9-C8-H38=179.96          C11-C10-C9-C8=232.80          C11-C10-C9-C20= 53.20         C19-C10-C9-C8= 51.24          
C19-C10-C9-C20=231.64         
           -------------------------------------------------
          |                Final Singlepoint                |
           -------------------------------------------------

          ...................................................
          :                      SETUP                      :
          :.................................................:
          :  # basis functions                 151          :
          :  # atomic orbitals                 150          :
          :  # shells                           82          :
          :  # electrons                       160          :
          :  max. iterations                   250          :
          :  Hamiltonian                  GFN2-xTB          :
          :  restarted?                      false          :
          :  GBSA solvation                   true          :
          :  PC potential                    false          :
          :  electronic temp.          300.0000000     K    :
          :  accuracy                    1.0000000          :
          :  -> integral cutoff          0.2500000E+02      :
          :  -> integral neglect         0.1000000E-07      :
          :  -> SCF convergence          0.1000000E-05 Eh   :
          :  -> wf. convergence          0.1000000E-03 e    :
          :  Broyden damping             0.4000000          :
          :  net charge                          0          :
          :  unpaired electrons                  0          :
          ...................................................

 iter      E             dE          RMSdq      gap      omega  full diag
   1    -90.8991925 -0.908992E+02  0.466E-05    2.15       0.0  T
   2    -90.8991925 -0.602540E-11  0.342E-05    2.15     418.2  T
   3    -90.8991925 -0.427605E-10  0.151E-05    2.15     947.8  T

   *** convergence criteria satisfied after 3 iterations ***

         #    Occupation            Energy/Eh            Energy/eV
      -------------------------------------------------------------
         1        2.0000           -0.8828341             -24.0231
       ...           ...                  ...                  ...
[...]
    21   6 C        3.203     0.148    24.273     8.026
    22   7 N        1.885    -0.316    29.036     7.988
    23   6 C        3.197     0.070    25.916     8.298
    24   6 C        2.910    -0.046    29.152     8.853
    25   6 C        2.922    -0.040    28.995     8.830
    26   6 C        2.926    -0.037    28.913     8.818
    27   6 C        2.907    -0.056    29.398     8.890
    28   6 C        3.076     0.044    26.937     8.509
    29   7 N        2.779    -0.135    23.928     7.265
    30  16 S        2.359    -0.055   143.339    20.150
    31   6 C        2.927    -0.033    28.820     8.804
    32   6 C        2.915    -0.065    29.614     8.924
    33   1 H        0.925     0.070     2.088     2.260
    34   1 H        0.924     0.051     2.308     2.376
    35   1 H        0.924     0.051     2.309     2.376
    36   1 H        0.926     0.052     2.294     2.369
    37   1 H        0.926     0.048     2.342     2.393
    38   1 H        0.926     0.053     2.278     2.360
    39   1 H        0.926     0.060     2.201     2.320
    40   1 H        0.926     0.057     2.231     2.336
    41   1 H        0.926     0.062     2.174     2.306
    42   1 H        0.926     0.064     2.158     2.297
    43   1 H        0.926     0.040     2.446     2.446
    44   1 H        0.926     0.038     2.481     2.463
    45   1 H        0.926     0.040     2.450     2.448
    46   1 H        0.926     0.035     2.511     2.478
    47   1 H        0.860     0.173     1.254     1.754
    48   1 H        0.926     0.049     2.332     2.388
    49   1 H        0.926     0.049     2.332     2.388

 Mol. C6AA /au·bohr⁶  :      36899.915911
 Mol. C8AA /au·bohr⁸  :     962762.059023
 Mol. α(0) /au        :        305.671234


MOs/occ written to file <molden.input>


molecular dipole:
                 x           y           z       tot (Debye)
 q only:        3.364       2.024      -0.013
   full:        3.441       2.267      -0.012      10.473
molecular quadrupole (traceless):
                xx          xy          yy          xz          yz          zz
 q only:       -0.127     -17.178      -5.681       4.332      -1.161       5.808
  q+dip:       -0.260     -14.725       0.388       6.090      -2.824      -0.128
   full:       -2.605     -16.018      -2.751       5.166      -1.619       5.356

           -------------------------------------------------
          |                Geometry Summary                 |
           -------------------------------------------------

      molecular mass/u    :      450.4761985
   center of mass at/Å    :       -0.5275817      -0.3678121      -0.0136214
  moments of inertia/u·Å² :        0.3350663E+04   0.7925621E+04   0.1105845E+05
rotational constants/cm⁻¹ :        0.5031133E-02   0.2126979E-02   0.1524411E-02

 * 50 selected distances

     #   Z          #   Z                                           value/Å
     1   6 C        2   8 O                                       1.4126695
     2   8 O        3   6 C                                       1.3578781
     3   6 C        4   6 C                                       1.3987294
     4   6 C        5   6 C                                       1.3744671
     5   6 C        6   6 C                                       1.4006359
     7   6 C        8   6 C                                       1.3702814
     8   6 C        9   6 C                                       1.4103159
    10   6 C       11   6 C                                       1.3924974
    11   6 C       12   6 C                                       1.3798450
    12   6 C       13   6 C                                       1.3912191
    14   6 C       15   9 F                                       1.3440567
    14   6 C       16   9 F                                       1.3497898
    14   6 C       17   9 F                                       1.3535064
    13   6 C       18   6 C                                       1.3882452
    10   6 C       19   6 C                                       1.3925311
    18   6 C       19   6 C                                       1.3820594
     9   6 C       20   6 C                                       1.3813517
    20   6 C       21   6 C                                       1.4297455
    21   6 C       22   7 N                                       1.3116244
    22   7 N       23   6 C                                       1.3663519
    23   6 C       24   6 C                                       1.3922856
    24   6 C       25   6 C                                       1.3787632
    25   6 C       26   6 C                                       1.3977726
    26   6 C       27   6 C                                       1.3811692
    23   6 C       28   6 C                                       1.4176914
    27   6 C       28   6 C                                       1.3849503
    21   6 C       29   7 N                                       1.3761525
    28   6 C       29   7 N                                       1.3694327
     7   6 C       30  16 S                                       1.7405114 (max)
    20   6 C       30  16 S                                       1.7402840
     6   6 C       31   6 C                                       1.3948084
     3   6 C       32   6 C                                       1.3926160
    31   6 C       32   6 C                                       1.3806208
     1   6 C       33   1 H                                       1.0886992
     1   6 C       34   1 H                                       1.0939531
     1   6 C       35   1 H                                       1.0939774
     4   6 C       36   1 H                                       1.0789677
     5   6 C       37   1 H                                       1.0781779
     8   6 C       38   1 H                                       1.0744505
    11   6 C       39   1 H                                       1.0774329
    12   6 C       40   1 H                                       1.0794478
    18   6 C       41   1 H                                       1.0793133
    19   6 C       42   1 H                                       1.0793876
    24   6 C       43   1 H                                       1.0786107
    25   6 C       44   1 H                                       1.0801080
    26   6 C       45   1 H                                       1.0798278
    27   6 C       46   1 H                                       1.0797065
    29   7 N       47   1 H                                       1.0066495 (min)
    31   6 C       48   1 H                                       1.0807805
    32   6 C       49   1 H                                       1.0781478

 * 7 distinct bonds (by element types)

   Z      Z             #   av. dist./Å        max./Å        min./Å
   1 H    6 C          16     1.0813118     1.0939774     1.0744505
   6 C    6 C          22     1.3914819     1.4297455     1.3702814
   1 H    7 N           1     1.0066495     1.0066495     1.0066495
   6 C    7 N           4     1.3558904     1.3761525     1.3116244
   6 C    8 O           2     1.3852738     1.4126695     1.3578781
   6 C    9 F           3     1.3491176     1.3535064     1.3440567
   6 C   16 S           2     1.7403977     1.7405114     1.7402840

           -------------------------------------------------
          |               Frequency Printout                |
           -------------------------------------------------
 projected vibrational frequencies (cm⁻¹)
eigval :       -0.00    -0.00    -0.00    -0.00     0.00     0.00
eigval :        4.69    14.09    17.58    23.37    34.65    40.37
eigval :       47.76    63.18    73.76    88.08   104.71   126.08
eigval :      139.81   155.01   167.06   188.45   206.43   219.53
eigval :      236.55   240.98   242.99   278.25   309.01   322.79
eigval :      346.92   365.90   370.01   372.75   374.64   393.53
eigval :      413.64   436.72   444.51   464.38   472.15   476.90
eigval :      508.88   518.33   523.41   540.74   542.93   549.22
eigval :      558.70   591.37   597.70   604.90   610.28   620.04
eigval :      635.95   666.40   674.81   693.13   702.63   714.68
eigval :      736.69   771.65   795.02   805.54   808.58   818.07
eigval :      831.25   851.20   858.83   863.89   865.59   875.11
eigval :      898.07   898.20   910.45   912.66   920.10   921.82
eigval :      923.17   945.82   984.36   994.66  1013.63  1028.07
eigval :     1052.02  1053.32  1065.74  1069.89  1107.80  1114.65
eigval :     1129.29  1134.72  1141.27  1152.38  1165.99  1174.66
eigval :     1186.91  1190.80  1202.43  1219.58  1227.64  1251.16
eigval :     1264.94  1267.46  1271.35  1288.12  1297.68  1325.09
eigval :     1329.15  1344.00  1366.38  1377.51  1394.28  1403.49
eigval :     1405.49  1412.16  1444.90  1463.61  1469.77  1473.72
eigval :     1487.46  1498.96  1504.58  1554.82  1559.47  1573.09
eigval :     1590.01  1592.04  1593.65  1619.06  2940.68  2951.57
eigval :     3028.20  3076.05  3076.13  3079.75  3090.90  3091.69
eigval :     3093.77  3096.88  3101.28  3102.08  3107.60  3109.17
eigval :     3116.53  3141.46  3465.01
 reduced masses (amu)
   1: 14.13   2: 13.38   3: 14.25   4: 13.07   5: 14.33   6: 14.19   7:  9.94   8: 18.77
   9: 14.22  10: 14.57  11: 12.76  12: 11.03  13: 12.40  14: 11.07  15: 16.65  16: 13.39
  17: 13.65  18: 15.06  19: 14.72  20: 14.07  21: 13.96  22: 12.57  23:  9.15  24: 12.18
  25:  6.98  26: 11.38  27: 12.66  28: 13.14  29: 14.29  30: 15.39  31: 14.69  32: 14.17
  33:  9.30  34: 11.45  35: 12.98  36: 11.30  37: 15.22  38: 13.85  39: 12.11  40: 12.34
  41: 12.14  42: 12.74  43: 14.27  44: 15.52  45:  6.36  46: 11.71  47: 11.05  48:  8.34
  49: 12.24  50: 11.39  51: 11.30  52: 11.99  53: 11.73  54: 14.75  55: 11.55  56: 11.45
  57: 11.50  58: 13.68  59: 14.26  60: 11.72  61: 14.39  62:  3.87  63: 11.87  64:  5.24
  65:  4.65  66:  5.55  67: 10.55  68:  3.39  69: 12.34  70:  3.39  71:  3.32  72: 11.86
  73:  3.90  74:  2.88  75:  2.99  76:  3.76  77:  5.15  78:  3.14  79: 11.22  80: 11.73
  81: 13.38  82: 11.52  83:  9.01  84: 13.27  85: 11.41  86:  6.52  87:  9.65  88:  9.70
  89:  5.41  90:  3.73  91:  4.84  92:  4.41  93:  3.13  94:  4.53  95:  3.61  96:  3.70
  97:  3.88  98:  2.68  99:  7.07 100:  6.98 101:  7.56 102: 10.23 103:  8.24 104:  5.53
 105:  4.09 106:  8.25 107: 10.72 108: 11.81 109: 11.48 110: 11.88 111: 10.63 112: 10.99
 113:  2.70 114: 10.09 115:  9.71 116: 10.26 117: 10.84 118:  1.54 119:  8.22 120:  3.18
 121: 10.71 122: 10.72 123: 11.54 124: 11.70 125: 11.68 126: 11.71 127: 11.65 128: 11.54
 129: 11.53 130: 11.79 131:  1.95 132:  1.45 133:  1.70 134:  1.76 135:  1.81 136:  1.82
 137:  1.79 138:  1.88 139:  1.82 140:  1.78 141:  1.89 142:  1.88 143:  1.86 144:  1.87
 145:  1.86 146:  1.85 147:  1.87
 IR intensities (km·mol⁻¹)
   1:  0.10   2:  0.31   3:  0.29   4:  0.25   5:  0.07   6:  0.12   7:  0.64   8:  0.08
   9:  0.05  10:  0.06  11:  0.28  12:  1.98  13:  0.09  14:  0.93  15:  3.14  16:  3.25
  17:  2.61  18:  0.59  19:  0.73  20:  3.52  21:  1.26  22:  0.76  23:  0.47  24:  0.38
  25:  0.35  26:  4.30  27:  2.07  28:  0.39  29:  7.22  30: 10.30  31:  2.10  32:  3.75
  33:  0.50  34:  0.63  35:  1.74  36:  4.25  37: 14.57  38:  6.70  39:  6.39  40:  0.52
  41:  5.96  42:  6.76  43:  0.86  44:  3.89  45: 63.60  46:  2.46  47:  3.00  48: 19.48
  49: 18.64  50:  2.05  51:  9.96  52:  0.76  53: 23.57  54: 18.64  55:  1.33  56:  2.59
  57:  2.61  58:  1.65  59:  7.23  60:  0.48  61:  1.61  62: 40.98  63: 58.49  64: 42.54
  65: 28.17  66: 25.19  67:  9.35  68:  1.25  69: 22.21  70:  0.03  71:  0.83  72:  7.38
  73:  0.53  74:  0.21  75:  0.39  76:  0.31  77:  2.16  78:  0.01  79:  1.07  80: 22.10
  81:324.69  82: 85.33  83:  2.96  84:286.12  85: 74.18  86:  1.33  87: 59.81  88:148.09
  89:  2.77  90:  2.35  91:  2.55  92:  2.28  93:  0.19  94:  6.27  95: 14.59  96:  7.69
  97:335.87  98:  0.23  99: 87.22 100:  2.68 101:144.28 102:503.88 103:130.27 104: 42.91
 105: 87.88 106:  9.67 107: 67.54 108:  1.35 109: 69.05 110:169.65 111: 10.17 112: 38.38
 113:  4.66 114: 10.69 115:  3.97 116: 35.26 117:234.19 118:  7.46 119:236.52 120:  6.48
 121:  6.98 122: 10.71 123: 90.34 124:  3.16 125: 69.78 126:  1.90 127: 39.71 128: 69.02
 129:285.32 130: 18.47 131: 34.64 132: 45.17 133: 17.80 134:  5.01 135: 43.72 136: 53.51
 137:  5.22 138:126.44 139: 20.06 140: 22.91 141: 25.38 142: 77.05 143: 74.22 144: 15.82
 145: 19.10 146: 22.63 147: 27.03
 Raman intensities (Ä⁴*amu⁻¹)
   1:  0.00   2:  0.00   3:  0.00   4:  0.00   5:  0.00   6:  0.00   7:  0.00   8:  0.00
   9:  0.00  10:  0.00  11:  0.00  12:  0.00  13:  0.00  14:  0.00  15:  0.00  16:  0.00
  17:  0.00  18:  0.00  19:  0.00  20:  0.00  21:  0.00  22:  0.00  23:  0.00  24:  0.00
  25:  0.00  26:  0.00  27:  0.00  28:  0.00  29:  0.00  30:  0.00  31:  0.00  32:  0.00
  33:  0.00  34:  0.00  35:  0.00  36:  0.00  37:  0.00  38:  0.00  39:  0.00  40:  0.00
  41:  0.00  42:  0.00  43:  0.00  44:  0.00  45:  0.00  46:  0.00  47:  0.00  48:  0.00
  49:  0.00  50:  0.00  51:  0.00  52:  0.00  53:  0.00  54:  0.00  55:  0.00  56:  0.00
  57:  0.00  58:  0.00  59:  0.00  60:  0.00  61:  0.00  62:  0.00  63:  0.00  64:  0.00
  65:  0.00  66:  0.00  67:  0.00  68:  0.00  69:  0.00  70:  0.00  71:  0.00  72:  0.00
  73:  0.00  74:  0.00  75:  0.00  76:  0.00  77:  0.00  78:  0.00  79:  0.00  80:  0.00
  81:  0.00  82:  0.00  83:  0.00  84:  0.00  85:  0.00  86:  0.00  87:  0.00  88:  0.00
  89:  0.00  90:  0.00  91:  0.00  92:  0.00  93:  0.00  94:  0.00  95:  0.00  96:  0.00
  97:  0.00  98:  0.00  99:  0.00 100:  0.00 101:  0.00 102:  0.00 103:  0.00 104:  0.00
 105:  0.00 106:  0.00 107:  0.00 108:  0.00 109:  0.00 110:  0.00 111:  0.00 112:  0.00
 113:  0.00 114:  0.00 115:  0.00 116:  0.00 117:  0.00 118:  0.00 119:  0.00 120:  0.00
 121:  0.00 122:  0.00 123:  0.00 124:  0.00 125:  0.00 126:  0.00 127:  0.00 128:  0.00
 129:  0.00 130:  0.00 131:  0.00 132:  0.00 133:  0.00 134:  0.00 135:  0.00 136:  0.00
 137:  0.00 138:  0.00 139:  0.00 140:  0.00 141:  0.00 142:  0.00 143:  0.00 144:  0.00
 145:  0.00 146:  0.00 147:  0.00
 output can be read by thermo (or use thermo option).
 writing <g98.out> molden fake output.
 recommended (thermochemical) frequency scaling factor: 1.0
           -------------------------------------------------
          |             Thermodynamic Functions             |
           -------------------------------------------------

Molecule has no symmetry elements
It seems to be the C1 point group
c1  symmetry found (for desy threshold:  0.10E+00) used in thermo

          ...................................................
          :                      SETUP                      :
          :.................................................:
          :  # frequencies                         141      :
          :  # imaginary freq.                       0      :
          :  linear?                             false      :
          :  only rotor calc.                    false      :
          :  symmetry                               c1      :
          :  rotational number                       1      :
          :  scaling factor                  1.0000000      :
          :  rotor cutoff                   50.0000000 cm⁻¹ :
          :  imag. cutoff                  -20.0000000 cm⁻¹ :
          :.................................................:

    mode    ω/cm⁻¹     T·S(HO)/kcal·mol⁻¹    T·S(FR)/kcal·mol⁻¹   T·S(vib)
   ------------------------------------------------------------------------
       1      4.69    -2.83682 (  0.01%)    -1.75738 ( 99.99%)    -1.75746
       2     14.09    -2.18532 (  0.63%)    -1.43167 ( 99.37%)    -1.43640
       3     17.58    -2.05446 (  1.50%)    -1.36622 ( 98.50%)    -1.37657
       4     23.37    -1.88583 (  4.55%)    -1.28185 ( 95.45%)    -1.30936
       5     34.65    -1.65288 ( 18.74%)    -1.16520 ( 81.26%)    -1.25657
       6     40.37    -1.56256 ( 29.82%)    -1.11991 ( 70.18%)    -1.25192
       7     47.76    -1.46333 ( 45.43%)    -1.07011 ( 54.57%)    -1.24875
       8     63.18    -1.29858 ( 71.82%)    -0.98725 ( 28.18%)    -1.21085
       9     73.76    -1.20764 ( 82.57%)    -0.94137 ( 17.43%)    -1.16121
      10     88.08    -1.10382 ( 90.59%)    -0.88880 (  9.41%)    -1.08360
      11    104.71    -1.00321 ( 95.06%)    -0.83758 (  4.94%)    -0.99502
      12    126.08    -0.89592 ( 97.59%)    -0.78254 (  2.41%)    -0.89318
      13    139.81    -0.83674 ( 98.39%)    -0.75193 (  1.61%)    -0.83537
      14    155.01    -0.77813 ( 98.93%)    -0.72137 (  1.07%)    -0.77752
      15    167.06    -0.73593 ( 99.20%)    -0.69918 (  0.80%)    -0.73563
      16    188.45    -0.66876 ( 99.51%)    -0.66349 (  0.49%)    -0.66873
      17    206.43    -0.61866 ( 99.66%)    -0.63649 (  0.34%)    -0.61872
      18    219.53    -0.58527 ( 99.73%)    -0.61827 (  0.27%)    -0.58536
      19    236.55    -0.54522 ( 99.80%)    -0.59615 (  0.20%)    -0.54533
      20    240.98    -0.53538 ( 99.81%)    -0.59066 (  0.19%)    -0.53548
      21    242.99    -0.53098 ( 99.82%)    -0.58819 (  0.18%)    -0.53108
      22    278.25    -0.46047 ( 99.90%)    -0.54805 (  0.10%)    -0.46056
   ------------------------------------------------------------------------

   temp. (K)  partition function   enthalpy   heat capacity  entropy
                                   cal/mol     cal/K/mol   cal/K/mol   J/K/mol
 298.15  VIB  0.158E+14            15576.705     94.389     98.653
         ROT  0.414E+08              888.752      2.981     37.835
         INT  0.655E+21            16465.458     97.370    136.488
         TR   0.925E+28             1481.254      4.968     44.184
         TOT                       17946.7114   102.3382   180.6725   755.9337

       T/K    H(0)-H(T)+PV         H(T)/Eh          T*S/Eh         G(T)/Eh
   ------------------------------------------------------------------------
    298.15    0.285999E-01    0.379085E+00    0.858433E-01    0.293241E+00
   ------------------------------------------------------------------------

         :::::::::::::::::::::::::::::::::::::::::::::::::::::
         ::                  THERMODYNAMIC                  ::
         :::::::::::::::::::::::::::::::::::::::::::::::::::::
         :: total free energy         -89.338453735786 Eh   ::
         ::.................................................::
         :: total energy              -89.631694959593 Eh   ::
         :: zero point energy           0.350484652259 Eh   ::
         :: G(RRHO) w/o ZPVE           -0.057243428451 Eh   ::
         :: G(RRHO) contrib.            0.293241223808 Eh   ::
         :::::::::::::::::::::::::::::::::::::::::::::::::::::

optimized geometry written to: xtbopt.xyz


           -------------------------------------------------
          | TOTAL ENERGY              -89.631694959593 Eh   |
          | TOTAL ENTHALPY            -89.252610402193 Eh   |
          | TOTAL FREE ENERGY         -89.338453735786 Eh   |
          | GRADIENT NORM               0.000117388203 Eh/α |
          | HOMO-LUMO GAP               2.153664331648 eV   |
           -------------------------------------------------

------------------------------------------------------------------------
 * finished run on 2025/08/25 at 16:08:32.876     
------------------------------------------------------------------------
 total:
 * wall-time:     0 d,  0 h,  0 min,  3.341 sec
 *  cpu-time:     0 d,  0 h,  2 min,  7.930 sec
 * ratio c/w:    38.290 speedup
 SCF:
 * wall-time:     0 d,  0 h,  0 min,  0.199 sec
 *  cpu-time:     0 d,  0 h,  0 min,  7.008 sec
 * ratio c/w:    35.194 speedup
 ANC optimizer:
 * wall-time:     0 d,  0 h,  0 min,  1.924 sec
 *  cpu-time:     0 d,  0 h,  1 min, 16.769 sec
 * ratio c/w:    39.891 speedup
 analytical hessian:
 * wall-time:     0 d,  0 h,  0 min,  1.109 sec
 *  cpu-time:     0 d,  0 h,  0 min, 40.378 sec
 * ratio c/w:    36.400 speedup

