$hessian                                                                        
        0.6497430580   0.0373793921  -0.2242880597  -0.2921665039  -0.1515663882
        0.1020495716  -0.0031840686  -0.0288880188   0.0003525387   0.0049488954
        0.0043021934  -0.0006950512   0.0008038015  -0.0023954697  -0.0001720561
        0.0000141200   0.0013752930   0.0000770778  -0.0010386848  -0.0025086160
       -0.0001556404  -0.0003481639   0.0002386674   0.0000930401   0.0003147863
        0.0000954729  -0.0002151543  -0.0002263737  -0.0000040315  -0.0000753591
        0.0000159923  -0.0000264640   0.0000050659  -0.0000006775   0.0000038210
        0.0000149512   0.0000300251  -0.0000215781  -0.0000087409  -0.0000606094
        0.0000683658   0.0000068318  -0.0000115794  -0.0000228289   0.0000394983
       -0.0000022774   0.0000174414  -0.0000107203  -0.0000250484  -0.0000067796
        0.0000247487   0.0000352075  -0.0000347545   0.0000345600  -0.0000093717
        0.0000290159  -0.0000300585  -0.0000015007  -0.0001553771   0.0000805585
       -0.0044727481   0.0057238595   0.0017458203  -0.0520160786   0.0051901212
        0.0183326598   0.0047130480  -0.0027252163   0.0041897093  -0.0010562106
        0.0013431102   0.0009458245   0.0000545579  -0.0006507608   0.0003465317
       -0.0003159157  -0.0002511560  -0.0001140985   0.0000780948  -0.0000528722
        0.0000474021   0.0001378314   0.0003889733  -0.0003834377  -0.0002490121
       -0.0002201541   0.0000160506   0.0002142321  -0.0000637818  -0.0000449165
       -0.0000328381   0.0000502520   0.0000186661   0.0000359946  -0.0000068369
       -0.0000156239  -0.0000027559  -0.0000257551  -0.0000017222  -0.0000072458
        0.0000156097   0.0000025869  -0.0000116363  -0.0000454289  -0.0000014229
       -0.0000642103  -0.0000118861   0.0000211263   0.0000151230   0.0000008791
       -0.0000033429  -0.0000231829  -0.0000050562   0.0000109044   0.0000059900
        0.0000629814   0.0000181954   0.0000404298  -0.0000469221  -0.0000199348
        0.0000004874   0.0002743247   0.0000226537   0.0005412508   0.0003910628
       -0.0003490562  -0.0200175511   0.0374456904  -0.0067325599  -0.0666600863
        0.0279301467   0.0083042957  -0.0004048252  -0.0222542495   0.0039314822
       -0.0035792072  -0.0012200958   0.0002022250  -0.0001664531  -0.0008437681
        0.0009024580   0.0001901767   0.0001367094   0.0000145561   0.0007053277
       -0.0003224318   0.0004120502  -0.0005324660   0.0003084305  -0.0001023547
        0.0002358234   0.0002119402   0.0001070379  -0.0000222605  -0.0000781541
       -0.0000428235   0.0000674903   0.0000294126   0.0000395963  -0.0000202770
        0.0000528416   0.0000092942  -0.0000083265  -0.0000267163  -0.0000084250
       -0.0000166275   0.0000712778   0.0000169532  -0.0001351691   0.0000186790
       -0.0000485551   0.0000550349  -0.0000232279   0.0000034790   0.0000044260
        0.0000120245   0.0000146776   0.0000615031  -0.0000327981  -0.0000119848
        0.0000030123   0.0001151608  -0.0001177749   0.0001845083  -0.0005463455
       -0.0000307075  -0.0000766767  -0.0018154416   0.0003325324  -0.2144991166
        0.0932175854   0.0928849458  -0.0000342009   0.0002315558   0.0002333991
        0.0000432560   0.0000614642   0.0000034554   0.0000208914   0.0000435152
        0.0000146661   0.0001174037   0.0000949389   0.0000661797  -0.0000343985
       -0.0000123848   0.0000394298   0.0000165113  -0.0000116558   0.0000050238
        0.0000007563  -0.0000112094   0.0000029209  -0.0000045410   0.0000084893
       -0.0000002077  -0.0000026390   0.0000013130  -0.0000053993   0.0000011069
       -0.0000019923  -0.0000062008   0.0000023625  -0.0000113294   0.0000050361
        0.0001699729   0.0014103527  -0.0005272680  -0.0007100041   0.0000075143
       -0.0015262135   0.0000246185  -0.0001263802   0.0001269911  -0.0000343120
        0.0000264201  -0.0000076863  -0.0000290597   0.0000307724   0.0000108866
        0.0000089660  -0.0000280227  -0.0000037823  -0.0000086593   0.0000100326
        0.0000064792  -0.0000162097  -0.0000016761   0.0000047222  -0.0000114893
       -0.0000090345   0.0000036866  -0.0000095651  -0.0000096216   0.0000019756
       -0.0000072235  -0.0000167613  -0.0000000563   0.0000056501  -0.0000219487
       -0.0000176209  -0.0000361557   0.0000317979   0.0000148592   0.0001500340
        0.0002095145   0.0000450742  -0.0001507702   0.0000413214  -0.0000402389
       -0.0002949149  -0.0002860617   0.0000914187  -0.0000225947  -0.0000810964
       -0.0000579263   0.0000042231   0.0000329194   0.0000095983  -0.0000031338
       -0.0000104290  -0.0000053299  -0.0000168384   0.0000007370  -0.0000069867
       -0.0000176420   0.0000075694  -0.0000074557  -0.0000022963   0.0000111484
        0.0000008025   0.0000101838   0.0000113264   0.0000042332  -0.0000286664
        0.0000547291   0.0000163506  -0.0001646421  -0.0001164537   0.0001042262
       -0.0007204719  -0.0011727484  -0.0005916183
        0.0373793921   0.5693287495  -0.0275333376  -0.1408457560  -0.1600569016
        0.0642416342  -0.0259411087  -0.0478233670   0.0117944123   0.0066517446
        0.0005637844  -0.0019467333  -0.0001839730  -0.0041720933  -0.0008984326
       -0.0006710799   0.0019313766   0.0000814978  -0.0015309795  -0.0017897420
       -0.0006724372   0.0001067486   0.0001106866  -0.0000579340  -0.0002202893
       -0.0000744235   0.0001707756   0.0000676772   0.0000560463   0.0000573352
        0.0000039199   0.0000387207   0.0000149826   0.0000367242   0.0000097395
       -0.0000272616  -0.0000093916  -0.0000067096   0.0000264786   0.0000728256
       -0.0000505365  -0.0000061038  -0.0000099271   0.0000217772  -0.0000152432
        0.0000355316  -0.0000307945   0.0000148860   0.0000374138  -0.0000135077
       -0.0000128755  -0.0000203558   0.0000411130  -0.0000172793  -0.0000186942
       -0.0000294131   0.0000519209  -0.0000185812   0.0000594593  -0.0000831621
       -0.0059185511   0.0037105808   0.0022815673   0.0126457658   0.0125153056
       -0.0195984249  -0.0094510711  -0.0069966865   0.0103365447  -0.0041709161
        0.0027879191   0.0028414372   0.0004288488  -0.0014811638   0.0008637786
       -0.0006528050  -0.0005216495  -0.0003440838   0.0002951499  -0.0000524579
        0.0001055312   0.0000890992   0.0008234083  -0.0004574532  -0.0003913783
       -0.0003514222   0.0001705792   0.0003014212  -0.0001066908  -0.0000913856
       -0.0000590528   0.0000634684   0.0000540753   0.0000798134   0.0000149613
       -0.0000356322  -0.0000204573  -0.0000467323   0.0000011384   0.0000086762
        0.0000236545  -0.0000031653  -0.0000248732  -0.0001321324  -0.0000119837
       -0.0001042707   0.0000043820   0.0000503338   0.0000207193  -0.0000043524
       -0.0000018488  -0.0000274564  -0.0000014525   0.0000121638   0.0000403659
        0.0000336771   0.0000032614   0.0000150946  -0.0001093208  -0.0000073011
       -0.0000382785   0.0003963423  -0.0000096457   0.0007893332   0.0007465876
       -0.0007410354   0.0610834860  -0.0421734166  -0.0039468243  -0.0099969536
       -0.2068513794   0.0108264997  -0.0125654502  -0.0283346746   0.0066819201
       -0.0015064073   0.0027233301  -0.0010603945  -0.0014789683  -0.0011007036
        0.0007676085   0.0008116469  -0.0000228445   0.0001576957  -0.0000405690
       -0.0004377825   0.0005296851   0.0001387101  -0.0000446578  -0.0000211011
        0.0000944516   0.0000231237   0.0000340200  -0.0000214204  -0.0000134682
       -0.0000107030   0.0000004081  -0.0000138880   0.0000034021  -0.0000149421
       -0.0000166704  -0.0000088725   0.0000146065   0.0000045205   0.0000143844
       -0.0000626424   0.0000349695  -0.0000175316   0.0000599009  -0.0000633301
       -0.0000071640  -0.0000456541   0.0000431732   0.0000027756  -0.0000481481
        0.0000056987  -0.0000269503  -0.0000156410  -0.0000817948  -0.0000168465
        0.0000838898  -0.0000571969   0.0001961120  -0.0000417858   0.0001402570
        0.0000077965   0.0031457780  -0.0014959112  -0.0007258834   0.0903752575
       -0.0877554796  -0.0507294493   0.0001211849   0.0000405633   0.0003095528
       -0.0000567091  -0.0005105854   0.0000749079  -0.0000209923  -0.0000542577
        0.0001741327  -0.0000454847  -0.0000418651  -0.0000212219   0.0000211284
        0.0000011117  -0.0000335605  -0.0000188461   0.0000022622  -0.0000110503
       -0.0000047142   0.0000153369  -0.0000057796  -0.0000010101  -0.0000085487
        0.0000005622  -0.0000006196   0.0000044926  -0.0000033358   0.0000081980
        0.0000063825  -0.0000036547   0.0000246506   0.0000122669  -0.0000327768
       -0.0003062123  -0.0014625784   0.0005110855   0.0014625100  -0.0018893642
       -0.0037859810   0.0000176413   0.0002915431  -0.0000987133   0.0000069255
        0.0000340305   0.0000044864   0.0000133839   0.0000026332  -0.0000074614
        0.0000074574  -0.0000195577  -0.0000165322  -0.0000124948   0.0000117125
        0.0000064178  -0.0000198902  -0.0000003967   0.0000102833  -0.0000186710
       -0.0000138430  -0.0000007425  -0.0000185728  -0.0000108810   0.0000027558
        0.0000047027  -0.0000318329  -0.0000100895   0.0000242588  -0.0000434769
       -0.0000030736  -0.0000392403   0.0000018498   0.0000028290  -0.0002052196
        0.0000896775   0.0000261572   0.0002410091  -0.0000180687  -0.0001772103
       -0.0001576876  -0.0001517383   0.0000432338   0.0000420541  -0.0000598300
       -0.0000485940  -0.0000007184   0.0000060024   0.0000053826  -0.0000040852
       -0.0000066201  -0.0000044597  -0.0000050245  -0.0000095528  -0.0000078350
       -0.0000043156  -0.0000011931   0.0000011249  -0.0000153642   0.0000028116
       -0.0000071768  -0.0000342805   0.0000101035  -0.0000036592   0.0000137084
       -0.0000291105  -0.0000121209   0.0001636789   0.0000222456  -0.0002030592
        0.0000710902  -0.0001337891   0.0000734235
       -0.2242880597  -0.0275333376   0.1940647117   0.1001731660   0.0620248499
       -0.0770566006   0.0020594478   0.0066837078   0.0017318609  -0.0013298126
       -0.0017289888   0.0021633939  -0.0002028774   0.0007851553   0.0002034875
        0.0001883235  -0.0003378948  -0.0000118336   0.0004819791   0.0003516303
       -0.0004017251  -0.0000321510   0.0000156227   0.0000761104   0.0000517795
       -0.0000285913  -0.0000681476  -0.0000422072   0.0000693816   0.0000280893
        0.0000235850   0.0000125929  -0.0000030008   0.0000062313   0.0000134499
       -0.0000092280   0.0000126639  -0.0000059018   0.0000072666   0.0000020040
       -0.0000081944   0.0000132610  -0.0000042865  -0.0000017039   0.0000040309
        0.0000096896  -0.0000010956   0.0000031158   0.0000018789  -0.0000022038
        0.0000039423  -0.0000004018   0.0000008842   0.0000042021   0.0000101542
        0.0000073925   0.0000050969  -0.0000012076  -0.0000619467   0.0000033679
        0.0007015840  -0.0010826201  -0.0002584735   0.0261322743  -0.0011602364
       -0.0097626073  -0.0093216780  -0.0023369002  -0.0060686517   0.0032704268
       -0.0017922033   0.0003160364  -0.0003392622   0.0007404905  -0.0008669377
        0.0006230702   0.0001972100   0.0003760885  -0.0003582961  -0.0000418227
       -0.0000417586   0.0005821897  -0.0001401453   0.0002036445  -0.0002349054
       -0.0002466452   0.0000632561   0.0001702070  -0.0000583263  -0.0000510007
       -0.0000277176   0.0000349062   0.0000309415   0.0000426536  -0.0000002946
       -0.0000192144  -0.0000024753  -0.0000260902  -0.0000009713  -0.0000009334
        0.0000184089   0.0000031907  -0.0000081392  -0.0000575537  -0.0000065704
       -0.0000754676  -0.0000128220   0.0000316613   0.0000153052   0.0000103105
        0.0000019455  -0.0000145782   0.0000003695   0.0000107283   0.0000069121
        0.0000289121   0.0000125874   0.0000024295  -0.0000534397   0.0000024753
       -0.0000348717   0.0002368917  -0.0000098468  -0.0011282352  -0.0003651213
        0.0003691875  -0.0001352338   0.0156324120   0.0205849048   0.0073330342
       -0.0105951139  -0.0546030444   0.0037741735   0.0094320213   0.0001342742
        0.0007916559   0.0001868595   0.0017978592   0.0006065085   0.0002415128
       -0.0002915753  -0.0003732027  -0.0001880275   0.0001405579   0.0004251166
        0.0001698370  -0.0002982372  -0.0000352429  -0.0000777805   0.0000123942
        0.0000683056   0.0000302672   0.0000134299  -0.0000191439   0.0000070365
        0.0000018024  -0.0000133866   0.0000001631  -0.0000018387   0.0000120450
       -0.0000098153   0.0000032243   0.0000199582  -0.0000021853   0.0000125668
       -0.0000371522   0.0000079340  -0.0000132084   0.0000377688  -0.0000180867
        0.0000173588   0.0000006096   0.0000236705   0.0000141313  -0.0000108470
       -0.0000287730  -0.0000129270   0.0000023828  -0.0000464565   0.0000117732
       -0.0000213301  -0.0000164220   0.0001066760   0.0000192872   0.0000991561
       -0.0000090632  -0.0019756093   0.0003442557  -0.0007609511   0.0904454414
       -0.0479498748  -0.0733287206  -0.0000340033  -0.0000852409  -0.0002009821
       -0.0000198260   0.0000314810  -0.0001667164   0.0000297491   0.0000215466
        0.0000533658  -0.0000196207   0.0000154453  -0.0000330097  -0.0000165711
       -0.0000015081   0.0000075636  -0.0000009623  -0.0000048258  -0.0000023779
       -0.0000048262  -0.0000019837   0.0000008962  -0.0000038563  -0.0000005313
       -0.0000025255  -0.0000033326   0.0000036297  -0.0000026088   0.0000002025
        0.0000030900  -0.0000034376  -0.0000107311  -0.0000036652  -0.0000041011
        0.0002570154  -0.0003286391   0.0002589445   0.0016711413  -0.0003395986
        0.0012843559   0.0000527532  -0.0000508143  -0.0000606810   0.0000000584
        0.0000048631   0.0000000136   0.0000171995  -0.0000391026  -0.0000357472
        0.0000053293  -0.0000115368  -0.0000100400  -0.0000066438   0.0000067089
        0.0000041676  -0.0000122079  -0.0000014062   0.0000059955  -0.0000101586
       -0.0000098851   0.0000009831  -0.0000078481  -0.0000056438   0.0000022168
       -0.0000017561  -0.0000136336  -0.0000043044   0.0000121893  -0.0000057868
       -0.0000110087   0.0000180874   0.0000107855  -0.0000216083  -0.0002125616
       -0.0001210336   0.0000355724   0.0000189442  -0.0001219864   0.0000926755
        0.0000771422  -0.0000110477  -0.0001559283   0.0000019096  -0.0000122416
        0.0000944950   0.0000021377  -0.0000051359  -0.0000036218  -0.0000046376
       -0.0000111119  -0.0000068930  -0.0000064455  -0.0000066008  -0.0000058474
       -0.0000032222   0.0000016237  -0.0000023620  -0.0000131351   0.0000019095
       -0.0000064525  -0.0000117369   0.0000087118  -0.0000067348  -0.0000067801
       -0.0000215524  -0.0000214089   0.0000409091   0.0000275091  -0.0001859816
        0.0001705647  -0.0003134682   0.0004846339
       -0.2921665039  -0.1408457560   0.1001731660   0.5641077423   0.1056920217
       -0.1798198875  -0.0625589027   0.0009963360   0.0039982058  -0.0073402157
       -0.0321595175   0.0008443235  -0.0058565926  -0.0000274939   0.0011891815
       -0.0006174212  -0.0011517427  -0.0000676315  -0.0019512707   0.0044068762
        0.0006100161  -0.0004478005   0.0012904052   0.0001022835   0.0001933172
        0.0000586644  -0.0001147846  -0.0000844457   0.0000106800  -0.0000607886
       -0.0000365710  -0.0000088054  -0.0000049738   0.0000261011  -0.0000388818
        0.0000211938   0.0000172632   0.0000086215  -0.0000331696  -0.0000834171
        0.0000161695   0.0000017872  -0.0000494811   0.0000371148  -0.0000631405
       -0.0000143665   0.0000058934  -0.0000121295  -0.0000187906   0.0000042132
        0.0000109920  -0.0000092704  -0.0000035114  -0.0000411855   0.0000653441
       -0.0000020196  -0.0000048373  -0.0001816205   0.0001996910   0.0001146951
        0.0048063891   0.0185901624  -0.0003406825  -0.1560938832   0.0680432092
        0.0684503217  -0.0121800586   0.0188973381  -0.0125263301   0.0027892121
       -0.0019269331  -0.0023194527  -0.0005312572   0.0008723929  -0.0006656912
        0.0003869280   0.0002651206   0.0003463211  -0.0002148030  -0.0000747598
        0.0000205564  -0.0002994198  -0.0000957104   0.0003362420   0.0002582977
        0.0000480229   0.0000586498  -0.0003150454   0.0000596081   0.0000808397
        0.0000690855  -0.0000225218  -0.0000047330  -0.0000149876   0.0000212447
        0.0000142339  -0.0000102626   0.0000045119   0.0000090968  -0.0000037220
       -0.0000263899   0.0000084987   0.0000722674   0.0000564789  -0.0000197773
        0.0000600652  -0.0000354188  -0.0000165910  -0.0000187507   0.0000248481
        0.0000197047   0.0000659852   0.0000193999  -0.0000269027   0.0001006675
       -0.0001694820  -0.0000714346  -0.0002731723  -0.0001160941   0.0002556033
       -0.0000184198  -0.0000505839  -0.0000401038  -0.0002313548   0.0002228928
       -0.0001473858  -0.0041552425   0.0088472411   0.0041556715   0.0045630963
       -0.0407493484  -0.0000497654   0.0036414242   0.0037443619   0.0001895751
       -0.0000367483  -0.0016283790   0.0003900268   0.0006141143   0.0000621265
       -0.0001782765  -0.0003957025  -0.0001920663   0.0000591979   0.0000341232
        0.0004673680  -0.0004342218   0.0003426176   0.0000728563   0.0000237279
       -0.0002138635  -0.0001275116  -0.0001056018   0.0000370135   0.0000219644
        0.0000223244  -0.0000107026  -0.0000316871  -0.0000067629  -0.0000195859
       -0.0000086350  -0.0000079633  -0.0000365135   0.0000172397  -0.0000087857
        0.0000584097  -0.0000442500   0.0000103954   0.0000306399   0.0000133042
        0.0000098320  -0.0000510320  -0.0000254754  -0.0000222149   0.0000169939
        0.0000595887   0.0000204019  -0.0000124702   0.0000382544   0.0000021058
       -0.0001214425  -0.0000121652  -0.0001131717  -0.0000014606   0.0000235010
        0.0000360490  -0.0013001357   0.0001302751   0.0001800386  -0.0227545234
       -0.0098137904   0.0064616829  -0.0008498061  -0.0007526263  -0.0002150378
       -0.0003711709  -0.0014314570  -0.0001799036  -0.0001528353   0.0000216195
       -0.0000864279   0.0000817976   0.0000615076   0.0000859846   0.0000001079
       -0.0000013070   0.0000251968   0.0000056540  -0.0000001384  -0.0000069816
        0.0000138393  -0.0000031385   0.0000082321  -0.0000051850  -0.0000031766
       -0.0000039324   0.0000028277   0.0000002097   0.0000205376   0.0000004926
       -0.0000041070   0.0000206869  -0.0000260482   0.0000173364   0.0000135095
       -0.0000782434   0.0004434207   0.0003950171  -0.0089865810  -0.0016304805
        0.0088677771  -0.0000632689  -0.0003388149   0.0000684176  -0.0000046268
       -0.0000917723  -0.0000028487   0.0000824634  -0.0001353310   0.0000218932
       -0.0000083394   0.0000235549  -0.0000080796   0.0000173195  -0.0000230612
       -0.0000117715   0.0000322543  -0.0000060314  -0.0000112161   0.0000130363
        0.0000163833  -0.0000110120   0.0000257760   0.0000242909  -0.0000110259
        0.0000556243   0.0000437268  -0.0000175970   0.0000118288  -0.0000133088
        0.0000439432  -0.0000266278  -0.0000549928  -0.0002335402  -0.0011551040
       -0.0004810354   0.0001941750  -0.0001320344  -0.0000090319  -0.0000147290
        0.0000579774   0.0001186679   0.0000088983   0.0000791514   0.0000976564
        0.0000406241  -0.0000109837  -0.0000009927  -0.0000005947   0.0000107186
        0.0000287403   0.0000154191   0.0000274735   0.0000083108   0.0000128016
        0.0000181163  -0.0000109057   0.0000081910   0.0000393616  -0.0000038478
        0.0000120500   0.0000170312  -0.0000326016   0.0000097882   0.0000128480
        0.0000296864   0.0000147015   0.0000969955  -0.0000174635   0.0000646199
       -0.0004577078   0.0001494425  -0.0000363312
       -0.1515663882  -0.1600569016   0.0620248499   0.1056920217   0.5970558391
       -0.0327770711  -0.0156382836  -0.2067050463  -0.0069658304  -0.0243533621
       -0.0328130669   0.0043359148  -0.0043649455   0.0064318524   0.0004061603
       -0.0004814030  -0.0043546344  -0.0001610816   0.0058779720   0.0061863150
       -0.0005543126  -0.0006263259  -0.0003412878   0.0001113185   0.0003158240
        0.0002273714  -0.0002249285  -0.0000268732  -0.0001387526   0.0001113404
        0.0000105966  -0.0000127551  -0.0000741924  -0.0000547603   0.0000127930
        0.0000086339   0.0000097352  -0.0000096062  -0.0000194683  -0.0001248643
        0.0001237213  -0.0000583814  -0.0000737520  -0.0000190285   0.0000935338
        0.0000027072   0.0000174281  -0.0000174889  -0.0000662912   0.0000250107
        0.0000236256   0.0000462402  -0.0000845111   0.0000314015   0.0000115172
        0.0001001601  -0.0000805630   0.0000636709  -0.0003569550   0.0001097651
        0.0202451897  -0.0386055257  -0.0059418581   0.0415755230  -0.0819010036
       -0.0229089499   0.0307058823  -0.0290921013   0.0064335675   0.0004037073
       -0.0040331911  -0.0002197159   0.0006311718   0.0001894705   0.0006031426
       -0.0001131854   0.0002247180   0.0001048902  -0.0000232157   0.0002714799
       -0.0001898408   0.0000155209  -0.0004862964   0.0003421880   0.0000756053
        0.0001250439  -0.0001502133  -0.0001454221   0.0000195602   0.0000678773
        0.0000191219  -0.0000259065  -0.0000435495  -0.0000286780   0.0000117377
        0.0000076569  -0.0000072860   0.0000155739   0.0000000632  -0.0000155061
       -0.0000215968  -0.0000015004   0.0000116665   0.0000540503   0.0000045384
        0.0000586227  -0.0000006361  -0.0000287567  -0.0000151703  -0.0000046101
       -0.0000056982   0.0000034186  -0.0000219122  -0.0000111515  -0.0000161406
       -0.0000106057   0.0000047924  -0.0000214485   0.0000015588   0.0000004256
        0.0000595341  -0.0000835453   0.0000269430  -0.0016496294  -0.0001037519
       -0.0004973828  -0.0186146774   0.0032873735  -0.0014861187  -0.0126096803
       -0.0569831953   0.0120851285   0.0038910296  -0.0037612983  -0.0001815618
       -0.0013132079  -0.0021279886   0.0004817421   0.0005394143  -0.0001324451
        0.0002816778  -0.0001792204   0.0000264947  -0.0000774975   0.0000346357
        0.0002687346  -0.0001282791   0.0001533120  -0.0000098953  -0.0000317295
       -0.0000842537  -0.0000654632  -0.0000251215   0.0000159460   0.0000196133
        0.0000023896  -0.0000109665  -0.0000053068  -0.0000093082  -0.0000036794
       -0.0000004636  -0.0000044853  -0.0000071234   0.0000109358  -0.0000042625
        0.0000315695  -0.0000142854   0.0000069482   0.0000179010   0.0000185794
        0.0000144137  -0.0000104706  -0.0000051745  -0.0000091207   0.0000195410
        0.0000131477   0.0000155332   0.0000328248   0.0000424946   0.0000252720
       -0.0000496140   0.0000085292  -0.0001246254  -0.0000284763   0.0000452167
        0.0000307034  -0.0001868986   0.0005023171   0.0003421606   0.0100401840
        0.0066769355  -0.0036893133   0.0014801885   0.0006488772  -0.0003524255
        0.0000454531  -0.0003186949  -0.0001872209   0.0000426254   0.0001530059
        0.0001698002   0.0001070064   0.0000357161   0.0000014367  -0.0000039046
       -0.0000019629   0.0000367177  -0.0000135937   0.0000092043   0.0000272856
       -0.0000161947   0.0000121827   0.0000032382  -0.0000121198   0.0000174466
        0.0000107410  -0.0000129764   0.0000124040  -0.0000121569  -0.0000012321
        0.0000089929  -0.0000153730  -0.0000046946  -0.0000302477   0.0000260131
       -0.0011769003   0.0004589758   0.0008068628   0.0113934447  -0.0015226704
       -0.0116817630   0.0000025342   0.0000863682  -0.0000824706   0.0000111436
       -0.0000212637  -0.0000551916  -0.0000373430   0.0000513536  -0.0000258245
       -0.0000042529   0.0000076626   0.0000207736   0.0000089293  -0.0000098432
       -0.0000025746   0.0000127273  -0.0000006605  -0.0000029229   0.0000073728
        0.0000088461   0.0000017966   0.0000172584   0.0000012946  -0.0000034563
        0.0000038306   0.0000135856   0.0000014329  -0.0000148309  -0.0000282098
        0.0000045571  -0.0000116960   0.0000822258   0.0000420678   0.0006624228
        0.0003951675  -0.0000326385  -0.0001318947   0.0002004630  -0.0001357036
       -0.0000804991  -0.0000057479   0.0000470264  -0.0000023988   0.0000386876
       -0.0000180852   0.0000084638  -0.0000079067   0.0000104970   0.0000040844
        0.0000070133   0.0000063429   0.0000088349   0.0000026318   0.0000055918
        0.0000061729  -0.0000042178   0.0000039279   0.0000101197  -0.0000044262
        0.0000038265   0.0000172426  -0.0000146197   0.0000041547  -0.0000019629
        0.0000205853   0.0000043296  -0.0000826448  -0.0000106757   0.0000960380
       -0.0003411231   0.0000831443  -0.0001618902
        0.1020495716   0.0642416342  -0.0770566006  -0.1798198875  -0.0327770711
        0.2168290530  -0.0012418698  -0.0074449934  -0.0534673670   0.0014051659
        0.0029811549   0.0004819170   0.0012101683  -0.0010511995   0.0069732287
        0.0001186585   0.0003667865  -0.0000809463   0.0005627945  -0.0012800190
        0.0073580572   0.0000381020  -0.0001526387  -0.0000068327   0.0000025633
        0.0000317872  -0.0000273599   0.0000541507  -0.0000454865   0.0000254060
        0.0000076540  -0.0000247380  -0.0000288538  -0.0000027814   0.0000068609
       -0.0000057522   0.0000055578  -0.0000000152  -0.0000076548  -0.0000342845
        0.0000147140  -0.0000082371  -0.0000297459   0.0000159424   0.0000142753
       -0.0000007423  -0.0000095905   0.0000090663   0.0000046385   0.0000054373
       -0.0000032813  -0.0000069270  -0.0000349966   0.0000146839   0.0000029227
        0.0000458699  -0.0000661692   0.0000876014  -0.0001676306   0.0000593974
        0.0001783512  -0.0025411699  -0.0000638958   0.0407941780  -0.0175150154
       -0.0865461688  -0.0023510816  -0.0060529254   0.0082193996  -0.0029618244
        0.0050763921   0.0002810441  -0.0003856517  -0.0005521665   0.0001484176
       -0.0003189200   0.0000409786  -0.0005026193   0.0002604547   0.0000589268
        0.0000034185  -0.0000948155  -0.0000005504  -0.0001357938  -0.0000047960
        0.0000317606  -0.0000592561  -0.0000331608   0.0000065475   0.0000227811
       -0.0000008504  -0.0000030539  -0.0000191034  -0.0000141771  -0.0000083549
        0.0000025757   0.0000084664   0.0000050185  -0.0000060969  -0.0000067962
        0.0000017098  -0.0000012598   0.0000007599   0.0000168487   0.0000018240
       -0.0000068240  -0.0000141903  -0.0000050415   0.0000065599   0.0000142194
       -0.0000059272  -0.0000048477   0.0000019420  -0.0000030129  -0.0000276557
        0.0000213937   0.0000126375   0.0000523339   0.0000509342  -0.0000451867
        0.0000174311  -0.0000436728   0.0000140004   0.0004311304   0.0004935704
       -0.0003668581  -0.0031244281  -0.0037464452  -0.0008448615   0.0014441936
        0.0094664863   0.0025504378   0.0000814696  -0.0006527970   0.0017513514
       -0.0001825811  -0.0001008665   0.0000667105   0.0000282708  -0.0000867834
       -0.0000392760   0.0000814534   0.0000454068  -0.0000257718  -0.0001140248
       -0.0001097758   0.0000344993   0.0000689097  -0.0000923523   0.0000119753
        0.0000025005  -0.0000225670   0.0000078644  -0.0000003455   0.0000182233
        0.0000026077  -0.0000190921   0.0000044625  -0.0000135374   0.0000147191
       -0.0000085112   0.0000005248   0.0000146261   0.0000024987   0.0000036171
       -0.0000050907  -0.0000066525  -0.0000057763   0.0000189381   0.0000078134
        0.0000121876   0.0000175906   0.0000101066   0.0000080057   0.0000036428
       -0.0000267004  -0.0000057538  -0.0000052070   0.0000201446   0.0000058450
        0.0000543577  -0.0000179841   0.0000274396  -0.0000435268   0.0001187410
       -0.0000027566   0.0001134260   0.0001084999  -0.0000745261   0.0096553507
        0.0049390381  -0.0054916256   0.0003027764   0.0001737537  -0.0022156907
        0.0000463407   0.0000864608  -0.0000512302  -0.0001357034   0.0001211807
       -0.0017079623  -0.0000497675   0.0000152330  -0.0000055453  -0.0000028663
       -0.0000024145   0.0000003607  -0.0000059026   0.0000063169   0.0000151828
       -0.0000120706   0.0000073994  -0.0000013869  -0.0000054393   0.0000070289
        0.0000014760  -0.0000039939   0.0000115839  -0.0000046231   0.0000009787
        0.0000076315  -0.0000130351  -0.0000188932   0.0000111881   0.0000083078
       -0.0000005851   0.0000865046  -0.0026753082   0.0313116973  -0.0145791171
       -0.0135062315   0.0000514298   0.0000535322   0.0000865518  -0.0000889255
        0.0000620016  -0.0000138271  -0.0000484817   0.0000468465   0.0000115225
        0.0000001499  -0.0000001437   0.0000093523   0.0000038454   0.0000007692
       -0.0000000855  -0.0000012091   0.0000013248   0.0000002306   0.0000026511
       -0.0000010064   0.0000029282   0.0000009343  -0.0000029272   0.0000020729
       -0.0000079622  -0.0000025072   0.0000048640  -0.0000004295  -0.0000019591
       -0.0000108319  -0.0000005078   0.0000136245   0.0000527603   0.0005180627
        0.0001569128   0.0000841910   0.0000477620   0.0000366800   0.0000571104
       -0.0000143737  -0.0000247206   0.0000039545  -0.0000208994  -0.0000089788
        0.0000030821   0.0000064957  -0.0000114314   0.0000009745  -0.0000021543
       -0.0000072511  -0.0000018455  -0.0000036018  -0.0000016530   0.0000000157
        0.0000004560   0.0000015185   0.0000000743  -0.0000110665  -0.0000030312
       -0.0000022900   0.0000019003   0.0000036257  -0.0000022537  -0.0000035023
       -0.0000169281  -0.0000083712  -0.0000616534   0.0000165981  -0.0000186273
        0.0001477815   0.0000554172  -0.0000369563
       -0.0031840686  -0.0259411087   0.0020594478  -0.0625589027  -0.0156382836
       -0.0012418698   0.6426065386  -0.0035870666  -0.0560480650  -0.2657096344
       -0.0511689003   0.0209126474   0.0171296607  -0.0815397399  -0.0059633149
       -0.0585744115   0.0056357082   0.0053727026   0.0309617008   0.0718115567
        0.0032404668   0.0018186112  -0.0038280925  -0.0006337089  -0.0003360679