 Entering Gaussian System
 *********************************************
 Gaussian 98:
 frequency output generated by the xtb code
 *********************************************
                         Standard orientation:
 --------------------------------------------------------------------
  Center     Atomic     Atomic              Coordinates (Angstroms)
  Number     Number      Type              X           Y           Z
 --------------------------------------------------------------------
    1          6             0       -7.481980    4.963765   -1.875768
    2          6             0       -7.601416    4.328419   -0.483281
    3          6             0       -9.062764    3.924029   -0.269865
    4          6             0       -7.232317    5.359739    0.592463
    5          6             0       -6.647992    3.145758   -0.390410
    6          6             0       -5.274554    3.370433   -0.555449
    7          6             0       -4.334980    2.362517   -0.481922
    8          6             0       -4.779902    1.075055   -0.224908
    9          6             0       -6.159249    0.816917   -0.082711
   10          6             0       -7.082923    1.851036   -0.161162
   11          6             0       -6.290252   -0.600166    0.115862
   12          6             0       -7.383858   -1.428360    0.332467
   13          6             0       -7.191243   -2.787055    0.519014
   14          6             0       -8.341634   -3.755067    0.755263
   15          6             0       -9.706079   -3.060213    0.746864
   16          6             0       -8.341999   -4.816560   -0.353891
   17          6             0       -8.160624   -4.430711    2.121931
   18          6             0       -5.881674   -3.285806    0.499461
   19          6             0       -4.777242   -2.486437    0.286709
   20          6             0       -4.984717   -1.132298    0.074944
   21          7             0       -4.076570   -0.110664   -0.129373
   22          6             0       -2.689384   -0.252563   -0.222960
   23          6             0       -1.845062    0.573578    0.515375
   24          6             0       -0.476197    0.434175    0.416056
   25          6             0        0.088356   -0.539346   -0.406848
   26          6             0        1.545162   -0.690793   -0.502058
   27          6             0        2.129130   -1.955427   -0.579439
   28          6             0        3.497521   -2.097779   -0.661068
   29          6             0        4.325566   -0.975373   -0.663606
   30          6             0        5.758970   -1.175258   -0.764776
   31          7             0        6.324271   -2.140422   -1.444308
   32          7             0        7.646108   -2.006631   -1.352918
   33          6             0        7.910510   -0.960698   -0.612255
   34          6             0        9.250590   -0.522948   -0.263297
   35          6             0        9.551640    0.040435    0.974727
   36          6             0       10.847779    0.427983    1.260378
   37          6             0       11.853145    0.253728    0.324149
   38          6             0       11.562716   -0.327498   -0.900057
   39          6             0       10.270822   -0.717290   -1.193822
   40          7             0        6.731765   -0.380036   -0.202693
   41          6             0        6.557631    0.756308    0.605331
   42          6             0        5.787604    0.670247    1.760250
   43          6             0        5.616055    1.792009    2.549880
   44          6             0        6.211818    2.991846    2.196860
   45          6             0        6.980517    3.072693    1.047196
   46          6             0        7.154593    1.959700    0.245664
   47          6             0        3.748219    0.291849   -0.610822
   48          6             0        2.377590    0.427059   -0.526769
   49          6             0       -0.764662   -1.365766   -1.137019
   50          6             0       -2.134156   -1.222291   -1.054847
   51          1             0       -6.476712    5.332919   -2.058957
   52          1             0       -7.720712    4.231251   -2.644230
   53          1             0       -8.173300    5.799030   -1.967920
   54          1             0       -9.206555    3.482062    0.713464
   55          1             0       -9.696608    4.806126   -0.337831
   56          1             0       -9.388561    3.218085   -1.030333
   57          1             0       -7.916751    6.204765    0.552778
   58          1             0       -6.222131    5.734664    0.453698
   59          1             0       -7.295903    4.909767    1.581165
   60          1             0       -4.922398    4.371358   -0.753999
   61          1             0       -3.287593    2.575975   -0.634965
   62          1             0       -8.128208    1.617630   -0.045749
   63          1             0       -8.366648   -0.987895    0.355605
   64          1             0      -10.489368   -3.797265    0.913111
   65          1             0       -9.771533   -2.317250    1.538395
   66          1             0       -9.894589   -2.580214   -0.210667
   67          1             0       -9.172440   -5.505623   -0.213887
   68          1             0       -7.420160   -5.391435   -0.353743
   69          1             0       -8.447260   -4.341972   -1.327381
   70          1             0       -8.988307   -5.109462    2.317564
   71          1             0       -7.236841   -5.000830    2.164200
   72          1             0       -8.134391   -3.681311    2.910400
   73          1             0       -5.714734   -4.339974    0.660774
   74          1             0       -3.783443   -2.908480    0.299171
   75          1             0       -2.271083    1.310514    1.179725
   76          1             0        0.166397    1.068357    1.009151
   77          1             0        1.502052   -2.834215   -0.553719
   78          1             0        3.951553   -3.074400   -0.722642
   79          1             0        8.781991    0.159293    1.723314
   80          1             0       11.073543    0.864120    2.222481
   81          1             0       12.862810    0.561660    0.552263
   82          1             0       12.347267   -0.477070   -1.626899
   83          1             0       10.027260   -1.177460   -2.138584
   84          1             0        5.329973   -0.270715    2.028115
   85          1             0        5.017810    1.726202    3.446045
   86          1             0        6.077215    3.864195    2.818095
   87          1             0        7.444883    4.006825    0.769728
   88          1             0        7.749884    2.012824   -0.653963
   89          1             0        4.366522    1.176401   -0.658508
   90          1             0        1.943432    1.415916   -0.507007
   91          1             0       -0.347280   -2.107644   -1.801556
   92          1             0       -2.783882   -1.847567   -1.648659
 --------------------------------------------------------------------
     1 basis functions        1 primitive gaussians
     1 alpha electrons        1 beta electrons
 
 Harmonic frequencies (cm**-1), IR intensities (km*mol⁻¹),
 Raman scattering activities (A**4/amu), Raman depolarization ratios,
 reduced masses (AMU), force constants (mDyne/A) and normal coordinates:
                      1                      2                      3
                        a                      a                      a 
 Frequencies --     8.3935                10.2656                12.3379
 Red. masses --    10.8688                10.9663                10.8224
 Frc consts  --     0.0000                 0.0000                 0.0000
 IR Inten    --     0.2053                 0.6368                 0.3846
 Raman Activ --     0.0000                 0.0000                 0.0000
 Depolar     --     0.0000                 0.0000                 0.0000
 Atom AN      X      Y      Z        X      Y      Z        X      Y      Z
   1   6     0.12   0.03  -0.00     0.10  -0.03  -0.15    -0.15  -0.06  -0.09
   2   6     0.05   0.01  -0.02     0.07   0.01  -0.13    -0.16  -0.05  -0.09
   3   6     0.04   0.03  -0.08     0.06   0.03  -0.15    -0.16  -0.10  -0.12
   4   6     0.02  -0.01   0.01     0.06   0.03  -0.15    -0.23  -0.02  -0.09
   5   6     0.04   0.00   0.01     0.05  -0.00  -0.08    -0.12  -0.01  -0.05
   6   6     0.04  -0.01   0.07     0.06  -0.02  -0.06    -0.13   0.03  -0.02
   7   6     0.03  -0.03   0.09     0.04  -0.03  -0.02    -0.09   0.07   0.01
   8   6     0.01  -0.02   0.06     0.02  -0.02   0.00    -0.06   0.05   0.01
   9   6    -0.00  -0.01   0.00     0.02  -0.00  -0.01    -0.05   0.01  -0.01
  10   6     0.01   0.00  -0.02     0.03   0.01  -0.06    -0.08  -0.02  -0.04
  11   6    -0.03  -0.01  -0.02    -0.00   0.00   0.01    -0.01   0.01  -0.00
  12   6    -0.05  -0.00  -0.08    -0.02   0.02   0.01     0.02  -0.03  -0.02
  13   6    -0.07  -0.01  -0.09    -0.04   0.02   0.05     0.06  -0.02  -0.00
  14   6    -0.09   0.00  -0.16    -0.05   0.04   0.05     0.09  -0.06  -0.02
  15   6    -0.08   0.02  -0.22    -0.04   0.06   0.02     0.07  -0.11  -0.05
  16   6    -0.05   0.02  -0.18    -0.05   0.02   0.08     0.15  -0.07  -0.01
  17   6    -0.16  -0.02  -0.17    -0.08   0.07   0.07     0.09  -0.04  -0.01
  18   6    -0.08  -0.02  -0.04    -0.04   0.01   0.07     0.08   0.02   0.02
  19   6    -0.06  -0.03   0.02    -0.03  -0.01   0.07     0.06   0.06   0.04
  20   6    -0.03  -0.02   0.03    -0.01  -0.01   0.05     0.01   0.05   0.02
  21   7    -0.01  -0.03   0.08     0.01  -0.03   0.04    -0.02   0.08   0.03
  22   6    -0.01  -0.05   0.11     0.00  -0.04   0.05    -0.02   0.11   0.03
  23   6    -0.02  -0.06   0.13     0.01  -0.05   0.06    -0.03   0.12   0.03
  24   6    -0.02  -0.06   0.15     0.00  -0.05   0.06    -0.02   0.12   0.04
  25   6    -0.01  -0.05   0.16     0.00  -0.05   0.06    -0.01   0.13   0.05
  26   6    -0.01  -0.05   0.16     0.00  -0.03   0.04    -0.01   0.11   0.07
  27   6     0.00  -0.04   0.17     0.02  -0.03  -0.00    -0.03   0.10   0.04
  28   6     0.00  -0.04   0.16     0.02  -0.01  -0.04    -0.04   0.08   0.04
  29   6    -0.01  -0.03   0.13     0.01  -0.00  -0.02    -0.02   0.07   0.06
  30   6    -0.01  -0.02   0.10     0.01   0.03  -0.06    -0.02   0.04   0.02
  31   7    -0.03  -0.05   0.13     0.02   0.10  -0.15    -0.07   0.04  -0.02
  32   7    -0.03  -0.04   0.07     0.01   0.13  -0.18    -0.07  -0.00  -0.05
  33   6    -0.00  -0.00   0.01     0.00   0.07  -0.09    -0.01  -0.03  -0.03
  34   6     0.01   0.02  -0.07     0.00   0.09  -0.10     0.01  -0.08  -0.06
  35   6     0.06   0.08  -0.11     0.02  -0.01  -0.06     0.07  -0.12  -0.05
  36   6     0.07   0.11  -0.19     0.01   0.01  -0.06     0.09  -0.17  -0.08
  37   6     0.03   0.08  -0.22    -0.01   0.13  -0.11     0.06  -0.19  -0.11
  38   6    -0.02   0.02  -0.18    -0.02   0.22  -0.15     0.00  -0.15  -0.12
  39   6    -0.03  -0.01  -0.11    -0.02   0.20  -0.14    -0.02  -0.09  -0.09
  40   7     0.01   0.01   0.03    -0.00   0.01  -0.03     0.02  -0.00   0.02
  41   6     0.04   0.04  -0.01    -0.02  -0.06   0.07     0.07  -0.02   0.05
  42   6     0.10   0.08   0.03    -0.01  -0.17   0.07     0.10  -0.02   0.06
  43   6     0.13   0.12  -0.01    -0.03  -0.24   0.17     0.16  -0.04   0.10
  44   6     0.10   0.10  -0.09    -0.05  -0.20   0.27     0.19  -0.05   0.12
  45   6     0.04   0.06  -0.13    -0.06  -0.09   0.27     0.16  -0.04   0.10
  46   6     0.01   0.03  -0.09    -0.05  -0.02   0.17     0.10  -0.03   0.06
  47   6    -0.02  -0.03   0.13    -0.01  -0.01   0.04     0.01   0.08   0.10
  48   6    -0.02  -0.04   0.15    -0.01  -0.02   0.06     0.01   0.10   0.10
  49   6     0.00  -0.05   0.14     0.00  -0.05   0.06    -0.00   0.13   0.03
  50   6     0.00  -0.05   0.12     0.00  -0.05   0.06    -0.00   0.12   0.03
  51   1     0.04   0.01   0.01     0.03  -0.01  -0.04    -0.05  -0.01  -0.02
  52   1     0.04   0.01  -0.01     0.03  -0.01  -0.04    -0.03  -0.02  -0.03
  53   1     0.04   0.01  -0.01     0.03  -0.01  -0.05    -0.05  -0.03  -0.04
  54   1    -0.00   0.00  -0.03     0.01   0.02  -0.04    -0.05  -0.03  -0.03
  55   1     0.02   0.01  -0.03     0.02   0.01  -0.05    -0.05  -0.04  -0.04
  56   1     0.02   0.01  -0.03     0.02   0.00  -0.04    -0.03  -0.03  -0.03
  57   1     0.01   0.00  -0.00     0.02   0.01  -0.06    -0.07  -0.01  -0.03
  58   1     0.01  -0.00   0.02     0.02   0.00  -0.04    -0.07   0.00  -0.02
  59   1    -0.01  -0.00   0.00     0.01   0.02  -0.04    -0.07  -0.00  -0.03
  60   1     0.02  -0.00   0.03     0.02  -0.01  -0.02    -0.05   0.01  -0.01
  61   1     0.01  -0.01   0.04     0.01  -0.01   0.00    -0.03   0.03   0.01
  62   1     0.00   0.00  -0.02     0.01   0.01  -0.02    -0.02  -0.02  -0.02
  63   1    -0.01   0.00  -0.03    -0.00   0.01  -0.00     0.00  -0.02  -0.01
  64   1    -0.03   0.01  -0.08    -0.02   0.02   0.01     0.03  -0.04  -0.02
  65   1    -0.03   0.00  -0.06    -0.01   0.02  -0.00     0.01  -0.03  -0.02
  66   1    -0.01   0.01  -0.06    -0.01   0.01   0.00     0.02  -0.04  -0.02
  67   1    -0.02   0.01  -0.07    -0.02   0.01   0.02     0.05  -0.03  -0.00
  68   1    -0.02   0.00  -0.04    -0.02   0.00   0.03     0.05  -0.01   0.01
  69   1    -0.00   0.01  -0.05    -0.01  -0.00   0.02     0.04  -0.02  -0.00
  70   1    -0.05  -0.00  -0.06    -0.03   0.02   0.02     0.03  -0.02  -0.00
  71   1    -0.05  -0.01  -0.04    -0.02   0.02   0.03     0.03  -0.00   0.01
  72   1    -0.06  -0.01  -0.04    -0.02   0.03   0.02     0.01  -0.01  -0.00
  73   1    -0.03  -0.01  -0.02    -0.02   0.00   0.03     0.03   0.01   0.01
  74   1    -0.02  -0.01   0.02    -0.01  -0.01   0.03     0.02   0.03   0.02
  75   1    -0.01  -0.02   0.04     0.00  -0.01   0.02    -0.01   0.03   0.01
  76   1    -0.01  -0.02   0.05     0.00  -0.01   0.02    -0.01   0.04   0.02
  77   1     0.00  -0.01   0.05     0.01  -0.01  -0.01    -0.01   0.03   0.01
  78   1     0.00  -0.01   0.05     0.01  -0.00  -0.02    -0.02   0.02   0.00
  79   1     0.03   0.03  -0.02     0.01  -0.03  -0.01     0.03  -0.03  -0.01
  80   1     0.03   0.04  -0.06     0.01  -0.02  -0.01     0.04  -0.06  -0.02
  81   1     0.01   0.03  -0.08    -0.00   0.04  -0.03     0.02  -0.07  -0.04
  82   1    -0.02  -0.00  -0.06    -0.01   0.09  -0.05    -0.01  -0.05  -0.04
  83   1    -0.02  -0.02  -0.02    -0.01   0.08  -0.05    -0.02  -0.02  -0.03
  84   1     0.03   0.03   0.03     0.00  -0.06  -0.00     0.02  -0.00   0.01
  85   1     0.05   0.04   0.01    -0.01  -0.10   0.05     0.05  -0.01   0.03
  86   1     0.04   0.04  -0.03    -0.02  -0.07   0.10     0.07  -0.02   0.04
  87   1     0.01   0.02  -0.06    -0.02  -0.02   0.10     0.05  -0.02   0.03
  88   1    -0.01  -0.00  -0.04    -0.02   0.02   0.05     0.02  -0.01   0.01
  89   1    -0.01  -0.01   0.03    -0.00  -0.00   0.02     0.01   0.02   0.04
  90   1    -0.01  -0.01   0.04    -0.00  -0.01   0.03     0.01   0.03   0.04
  91   1     0.00  -0.01   0.04     0.00  -0.01   0.02     0.00   0.04   0.01
  92   1     0.00  -0.01   0.03     0.00  -0.01   0.02     0.00   0.03   0.01
                      4                      5                      6
                        a                      a                      a 
 Frequencies --    22.2257                27.0480                31.2295
 Red. masses --    11.0108                10.9395                 8.8867
 Frc consts  --     0.0000                 0.0000                 0.0000
 IR Inten    --     0.1122                 0.3790                 0.0833
 Raman Activ --     0.0000                 0.0000                 0.0000
 Depolar     --     0.0000                 0.0000                 0.0000
 Atom AN      X      Y      Z        X      Y      Z        X      Y      Z
   1   6    -0.13   0.04   0.08    -0.04   0.05   0.02     0.15   0.25   0.17
   2   6    -0.02   0.02   0.08    -0.07   0.02   0.01     0.01   0.01   0.05
   3   6    -0.01   0.03   0.20    -0.06  -0.03  -0.05    -0.02  -0.03  -0.18
   4   6     0.08   0.00   0.06    -0.13   0.00   0.04    -0.10  -0.18   0.27
   5   6    -0.02   0.01  -0.02    -0.03   0.04   0.02    -0.00  -0.01  -0.03
   6   6    -0.03   0.00  -0.10    -0.04   0.08   0.04    -0.00  -0.00   0.01
   7   6    -0.03  -0.00  -0.18    -0.01   0.10   0.05    -0.00  -0.01  -0.02
   8   6    -0.02  -0.00  -0.16     0.02   0.09   0.04    -0.01  -0.01  -0.06
   9   6    -0.02   0.00  -0.09     0.02   0.05   0.02    -0.01  -0.02  -0.09
  10   6    -0.02   0.01  -0.01    -0.00   0.03   0.00    -0.01  -0.01  -0.08
  11   6    -0.01   0.00  -0.09     0.05   0.05   0.01    -0.02  -0.02  -0.09
  12   6    -0.00   0.01  -0.01     0.07   0.02  -0.02    -0.02  -0.01  -0.08
  13   6     0.00   0.01  -0.02     0.10   0.02  -0.01    -0.01  -0.00  -0.03
  14   6     0.02   0.02   0.08     0.12  -0.01  -0.06    -0.01   0.01   0.05
  15   6     0.02   0.03   0.20     0.10  -0.06  -0.16    -0.03  -0.03  -0.22
  16   6    -0.09   0.02   0.08     0.23  -0.04  -0.03     0.11  -0.23   0.28
  17   6     0.13   0.01   0.06     0.07   0.03  -0.03    -0.10   0.31   0.21
  18   6     0.00   0.00  -0.11     0.12   0.06   0.04    -0.01  -0.00   0.01
  19   6    -0.01  -0.01  -0.18     0.10   0.09   0.06    -0.01  -0.01  -0.01
  20   6    -0.02  -0.00  -0.16     0.07   0.08   0.04    -0.01  -0.01  -0.06
  21   7    -0.03  -0.01  -0.23     0.05   0.11   0.06    -0.01  -0.02  -0.06
  22   6    -0.02   0.00  -0.18     0.04   0.10   0.02    -0.01  -0.02  -0.04
  23   6    -0.05   0.00  -0.15     0.07   0.11  -0.01    -0.02  -0.02  -0.03
  24   6    -0.04  -0.01  -0.09     0.07   0.07  -0.03    -0.02  -0.02  -0.02
  25   6    -0.01  -0.01  -0.05     0.03   0.02   0.00    -0.01  -0.02  -0.02
  26   6    -0.01  -0.03   0.02     0.02  -0.03   0.00    -0.01  -0.01  -0.01
  27   6    -0.02  -0.03   0.05    -0.01  -0.05   0.09    -0.00  -0.01  -0.03
  28   6    -0.01  -0.05   0.11    -0.02  -0.10   0.10    -0.00  -0.00  -0.02
  29   6    -0.00  -0.05   0.14     0.01  -0.12   0.01    -0.01  -0.00  -0.00
  30   6    -0.00  -0.06   0.15     0.01  -0.14   0.04    -0.00   0.00   0.00
  31   7    -0.02  -0.08   0.18     0.04  -0.17   0.08    -0.01   0.00  -0.00
  32   7    -0.01  -0.07   0.13     0.03  -0.13   0.08    -0.01  -0.00  -0.00
  33   6    -0.00  -0.03   0.08     0.00  -0.09   0.04    -0.00  -0.00  -0.00
  34   6     0.00   0.01  -0.01    -0.01  -0.01  -0.00    -0.01   0.00   0.00
  35   6     0.06   0.05  -0.04    -0.02   0.08  -0.04    -0.01  -0.05   0.03
  36   6     0.06   0.11  -0.13    -0.04   0.18  -0.09    -0.02  -0.04   0.04
  37   6     0.01   0.14  -0.20    -0.05   0.19  -0.10    -0.02   0.02   0.03
  38   6    -0.05   0.10  -0.16    -0.04   0.10  -0.06    -0.02   0.08   0.00
  39   6    -0.05   0.04  -0.07    -0.02  -0.00  -0.01    -0.01   0.07  -0.01
  40   7     0.00  -0.04   0.10    -0.01  -0.11   0.02    -0.00   0.00  -0.00
  41   6     0.02  -0.03   0.09    -0.07  -0.10   0.01     0.02   0.01  -0.01
  42   6     0.07  -0.03   0.12    -0.08  -0.14  -0.01     0.02   0.03  -0.01
  43   6     0.10  -0.02   0.13    -0.17  -0.14  -0.03     0.05   0.04  -0.01
  44   6     0.08  -0.02   0.10    -0.25  -0.10  -0.04     0.10   0.02  -0.00
  45   6     0.03  -0.02   0.06    -0.23  -0.07  -0.02     0.10  -0.01  -0.01
  46   6     0.00  -0.03   0.06    -0.14  -0.07  -0.00     0.06  -0.01  -0.01
  47   6     0.00  -0.05   0.13     0.05  -0.10  -0.09    -0.01  -0.00   0.01
  48   6     0.00  -0.04   0.07     0.05  -0.05  -0.09    -0.01  -0.01   0.01
  49   6     0.01  -0.01  -0.09     0.00   0.03   0.03    -0.00  -0.02  -0.03
  50   6     0.01   0.00  -0.16     0.01   0.07   0.04    -0.00  -0.02  -0.04
  51   1    -0.04   0.01   0.00    -0.01   0.03   0.02     0.04   0.09   0.10
  52   1    -0.06   0.02   0.03     0.00   0.02   0.00     0.08   0.11   0.01
  53   1    -0.04   0.01   0.04    -0.02   0.01   0.01     0.04   0.07   0.07
  54   1     0.02   0.00   0.06    -0.02  -0.01  -0.02    -0.04  -0.04  -0.07
  55   1    -0.00   0.01   0.08    -0.02  -0.01  -0.02    -0.00  -0.01  -0.05
  56   1    -0.02   0.01   0.06    -0.00  -0.01  -0.02     0.03   0.02  -0.09
  57   1     0.02   0.00   0.04    -0.04  -0.00   0.01    -0.02  -0.04   0.09
  58   1     0.02  -0.00  -0.00    -0.04   0.01   0.02    -0.02  -0.06   0.13
  59   1     0.05  -0.00   0.02    -0.04  -0.00   0.01    -0.07  -0.10   0.05
  60   1    -0.01   0.00  -0.03    -0.02   0.03   0.02     0.00   0.00   0.02
  61   1    -0.01  -0.00  -0.07    -0.00   0.04   0.02    -0.00  -0.00   0.00
  62   1    -0.00   0.00   0.01     0.00   0.00  -0.00    -0.00  -0.00  -0.03
  63   1     0.00   0.00   0.01     0.02  -0.00  -0.01    -0.01  -0.00  -0.03
  64   1     0.01   0.01   0.08     0.03  -0.03  -0.06    -0.01  -0.01  -0.06
  65   1     0.03   0.01   0.06     0.01  -0.02  -0.05    -0.05   0.02  -0.10
  66   1    -0.02   0.01   0.06     0.04  -0.02  -0.05     0.02  -0.05  -0.09
  67   1    -0.02   0.01   0.04     0.07  -0.02  -0.02     0.02  -0.06   0.10
  68   1    -0.03   0.01  -0.00     0.07  -0.00   0.01     0.03  -0.07   0.15
  69   1    -0.05   0.01   0.03     0.08  -0.02  -0.01     0.06  -0.13   0.05
  70   1     0.04   0.01   0.04     0.03  -0.00  -0.02    -0.02   0.08   0.08
  71   1     0.04  -0.00  -0.01     0.03   0.02   0.01    -0.02   0.11   0.12
  72   1     0.06   0.00   0.02    -0.00   0.01  -0.01    -0.07   0.14   0.02
  73   1     0.00   0.00  -0.03     0.04   0.02   0.02    -0.00   0.00   0.02
  74   1    -0.00  -0.00  -0.07     0.03   0.04   0.03    -0.00  -0.00   0.00
  75   1    -0.02   0.00  -0.05     0.03   0.04  -0.01    -0.01  -0.01  -0.01
  76   1    -0.02  -0.00  -0.02     0.03   0.02  -0.02    -0.01  -0.01  -0.00
  77   1    -0.01  -0.01   0.01    -0.01  -0.01   0.05     0.00  -0.00  -0.01
  78   1    -0.01  -0.01   0.04    -0.01  -0.03   0.05     0.00  -0.00  -0.01
  79   1     0.03   0.01   0.00    -0.00   0.02  -0.01    -0.00  -0.03   0.01
  80   1     0.03   0.04  -0.05    -0.01   0.07  -0.04    -0.01  -0.03   0.02
  81   1     0.00   0.06  -0.08    -0.02   0.08  -0.04    -0.01   0.01   0.01
  82   1    -0.03   0.03  -0.06    -0.01   0.03  -0.02    -0.00   0.04  -0.00
  83   1    -0.03   0.00  -0.01    -0.00  -0.02   0.01    -0.00   0.03  -0.01
  84   1     0.03  -0.01   0.04    -0.01  -0.05  -0.00    -0.00   0.01  -0.00
  85   1     0.04  -0.01   0.04    -0.05  -0.05  -0.01     0.02   0.02  -0.00
  86   1     0.03  -0.01   0.03    -0.09  -0.03  -0.02     0.04   0.01  -0.00
  87   1     0.00  -0.01   0.01    -0.08  -0.01  -0.01     0.04  -0.01  -0.00
  88   1    -0.01  -0.01   0.01    -0.04  -0.01   0.00     0.02  -0.01  -0.00
  89   1     0.00  -0.02   0.04     0.02  -0.04  -0.05    -0.00  -0.00   0.01
  90   1     0.00  -0.01   0.01     0.02  -0.01  -0.05    -0.00  -0.00   0.00
  91   1     0.01  -0.00  -0.02    -0.01  -0.00   0.01     0.00  -0.00  -0.01
  92   1     0.01   0.00  -0.05    -0.00   0.02   0.02    -0.00  -0.01  -0.01
                      7                      8                      9
                        a                      a                      a 
 Frequencies --    32.1673                33.7672                43.7380
 Red. masses --    10.3020                 8.6019                10.2059
 Frc consts  --     0.0000                 0.0000                 0.0000
 IR Inten    --     0.1608                 0.0440                 0.3047
 Raman Activ --     0.0000                 0.0000                 0.0000
 Depolar     --     0.0000                 0.0000                 0.0000
 Atom AN      X      Y      Z        X      Y      Z        X      Y      Z
   1   6    -0.07  -0.06  -0.04     0.24   0.20   0.05    -0.04   0.11   0.09
   2   6    -0.03   0.00  -0.01    -0.01  -0.01  -0.07     0.00  -0.00   0.04
   3   6    -0.02   0.00   0.04    -0.05  -0.06  -0.41     0.01  -0.01   0.06
   4   6    -0.02   0.05  -0.07    -0.22  -0.16   0.16     0.05  -0.09   0.11
   5   6    -0.02   0.01   0.02    -0.01  -0.00  -0.04    -0.00  -0.01  -0.06
   6   6    -0.02   0.02   0.01     0.00   0.01   0.04    -0.01  -0.02  -0.12
   7   6    -0.02   0.02   0.02     0.00   0.02   0.05    -0.01  -0.02  -0.14
   8   6    -0.01   0.02   0.03     0.00   0.01   0.02     0.00  -0.02  -0.10
   9   6    -0.01   0.02   0.04     0.00   0.00  -0.00     0.00  -0.01  -0.08
  10   6    -0.01   0.01   0.03    -0.00  -0.00  -0.04     0.00  -0.01  -0.06
  11   6     0.00   0.02   0.04     0.00   0.00   0.00     0.01  -0.01  -0.05
  12   6     0.00   0.01   0.02     0.01   0.01   0.03     0.01  -0.00  -0.03
  13   6     0.01   0.01   0.01     0.01   0.01   0.04     0.00   0.00  -0.00
  14   6     0.01  -0.00  -0.03     0.01   0.01   0.06    -0.00   0.00  -0.01
  15   6     0.01  -0.00  -0.00     0.03   0.05   0.36     0.01   0.02   0.04
  16   6     0.02   0.05  -0.07    -0.16   0.18  -0.10    -0.03   0.05  -0.05
  17   6     0.00  -0.06  -0.06     0.17  -0.21  -0.07     0.01  -0.06  -0.04
  18   6     0.01   0.02   0.02     0.01   0.00  -0.02     0.00   0.00   0.02
  19   6     0.01   0.02   0.03     0.00   0.00  -0.03     0.01  -0.00   0.01
  20   6     0.00   0.02   0.04     0.00   0.01  -0.00     0.01  -0.01  -0.03
  21   7    -0.00   0.03   0.04     0.00   0.01   0.01     0.01  -0.01  -0.07
  22   6    -0.00   0.02   0.02     0.00   0.01   0.00     0.01  -0.00  -0.01
  23   6     0.01   0.02  -0.00     0.01  -0.02   0.02    -0.02   0.09  -0.07
  24   6     0.01   0.01  -0.02     0.01  -0.02   0.02    -0.02   0.10  -0.02
  25   6    -0.01  -0.01  -0.01    -0.00  -0.00  -0.01     0.02   0.01   0.11
  26   6    -0.01  -0.03  -0.01    -0.00  -0.01  -0.01     0.02   0.01   0.14
  27   6    -0.03  -0.04   0.01    -0.01  -0.01  -0.02     0.03   0.01   0.35
  28   6    -0.03  -0.06   0.01    -0.01  -0.01  -0.02     0.03   0.01   0.31
  29   6    -0.01  -0.07  -0.01    -0.00  -0.01  -0.00     0.01   0.02   0.06
  30   6    -0.01  -0.08   0.00    -0.00  -0.02   0.00     0.01   0.03  -0.01
  31   7    -0.01  -0.10   0.02     0.00  -0.02   0.01    -0.01   0.07  -0.06
  32   7    -0.01  -0.10   0.02     0.00  -0.02   0.01    -0.00   0.08  -0.10
  33   6    -0.02  -0.08  -0.00    -0.00  -0.01   0.01     0.01   0.05  -0.07
  34   6    -0.04  -0.02   0.02    -0.01  -0.00   0.01     0.02   0.01  -0.06
  35   6    -0.08  -0.23   0.13    -0.01  -0.00   0.01     0.05  -0.12  -0.01
  36   6    -0.12  -0.12   0.16    -0.02   0.02   0.00     0.06  -0.20   0.03
  37   6    -0.13   0.21   0.09    -0.02   0.03   0.00     0.05  -0.14   0.00
  38   6    -0.09   0.42  -0.02    -0.01   0.03   0.00     0.02  -0.00  -0.06
  39   6    -0.05   0.30  -0.05    -0.00   0.01   0.00     0.01   0.07  -0.09
  40   7    -0.02  -0.08  -0.01    -0.00  -0.01   0.00     0.02   0.03  -0.02
  41   6     0.04  -0.04  -0.04    -0.00  -0.01  -0.00    -0.01   0.02  -0.01
  42   6    -0.01   0.05  -0.07     0.01  -0.00   0.00    -0.18   0.04  -0.12
  43   6     0.09   0.08  -0.08     0.01   0.00  -0.00    -0.25   0.04  -0.14
  44   6     0.24   0.01  -0.07     0.00  -0.00  -0.01    -0.15   0.02  -0.04
  45   6     0.28  -0.09  -0.05    -0.00  -0.01  -0.02     0.04  -0.01   0.09
  46   6     0.18  -0.11  -0.04    -0.01  -0.01  -0.02     0.10  -0.00   0.10
  47   6     0.00  -0.06  -0.04     0.00  -0.01   0.01     0.00   0.02  -0.12
  48   6     0.01  -0.04  -0.04     0.00  -0.01   0.01     0.00   0.02  -0.08
  49   6    -0.02  -0.01   0.01    -0.00   0.02  -0.03     0.05  -0.09   0.18
  50   6    -0.02   0.01   0.02    -0.00   0.03  -0.02     0.05  -0.09   0.12
  51   1    -0.02  -0.02  -0.02     0.07   0.09   0.09    -0.01   0.03   0.02
  52   1    -0.03  -0.03  -0.00     0.13   0.09  -0.03    -0.02   0.05   0.01
  53   1    -0.02  -0.02  -0.02     0.06   0.05   0.01    -0.01   0.03   0.05
  54   1     0.00   0.01   0.02    -0.07  -0.04  -0.14     0.01  -0.02   0.01
  55   1    -0.01  -0.00   0.01    -0.02  -0.02  -0.14     0.00   0.00   0.04
  56   1    -0.01  -0.01   0.02     0.04  -0.01  -0.15    -0.01   0.01   0.01
  57   1    -0.01   0.01  -0.03    -0.05  -0.04   0.03     0.02  -0.02   0.06
  58   1    -0.01   0.02  -0.03    -0.05  -0.05   0.12     0.01  -0.03   0.03
  59   1     0.01   0.03  -0.01    -0.13  -0.09   0.02     0.02  -0.05   0.02
  60   1    -0.01   0.00  -0.00     0.00   0.01   0.02    -0.00  -0.01  -0.04
  61   1    -0.00   0.01   0.01     0.00   0.01   0.03    -0.00  -0.01  -0.05
  62   1    -0.00   0.00   0.01    -0.00  -0.00  -0.02     0.00  -0.00  -0.01
  63   1     0.00   0.00   0.01     0.00   0.00   0.02     0.00  -0.00  -0.01
  64   1     0.00  -0.00  -0.01     0.01   0.02   0.13     0.00   0.01   0.02
  65   1     0.00  -0.01   0.01     0.06  -0.00   0.13     0.01   0.00   0.02
  66   1     0.00   0.01   0.00    -0.04   0.04   0.13    -0.01   0.01   0.02
  67   1     0.01   0.01  -0.03    -0.04   0.04  -0.02    -0.00   0.01  -0.02
  68   1     0.01   0.02  -0.03    -0.04   0.06  -0.10    -0.01   0.02  -0.03
  69   1     0.00   0.03  -0.02    -0.09   0.10  -0.00    -0.02   0.03  -0.01
  70   1     0.00  -0.02  -0.03     0.04  -0.05  -0.01     0.00  -0.01  -0.01
  71   1     0.00  -0.02  -0.02     0.04  -0.08  -0.08    -0.00  -0.02  -0.02
  72   1     0.00  -0.03  -0.01     0.10  -0.09   0.01     0.02  -0.03  -0.00
  73   1     0.00   0.00   0.00     0.00  -0.00  -0.01     0.00   0.00   0.01
  74   1     0.00   0.01   0.01     0.00  -0.00  -0.02     0.00  -0.00   0.01
  75   1     0.01   0.01  -0.00     0.00  -0.01   0.01    -0.01   0.04  -0.05
  76   1     0.01   0.00  -0.01     0.00  -0.01   0.01    -0.01   0.05  -0.02
  77   1    -0.01  -0.01   0.01    -0.00  -0.00  -0.01     0.01   0.00   0.16
  78   1    -0.01  -0.02   0.01    -0.00  -0.00  -0.01     0.01   0.00   0.13
  79   1    -0.02  -0.14   0.05    -0.00  -0.00   0.00     0.01  -0.05   0.00
  80   1    -0.04  -0.08   0.07    -0.01   0.01   0.00     0.02  -0.09   0.02
  81   1    -0.05   0.09   0.03    -0.01   0.01  -0.00     0.02  -0.06   0.01
  82   1    -0.03   0.20  -0.02    -0.00   0.01  -0.00     0.00   0.01  -0.02
  83   1    -0.00   0.13  -0.04    -0.00   0.00   0.00    -0.00   0.05  -0.04
  84   1    -0.03   0.03  -0.02     0.00  -0.00   0.00    -0.08   0.02  -0.06
  85   1     0.02   0.04  -0.03     0.00   0.00   0.00    -0.11   0.02  -0.07
  86   1     0.09   0.01  -0.02     0.00   0.00  -0.01    -0.06   0.01  -0.01
  87   1     0.11  -0.04  -0.01    -0.00  -0.00  -0.01     0.04  -0.01   0.05
  88   1     0.06  -0.05  -0.01    -0.00  -0.00  -0.01     0.07  -0.00   0.05
  89   1     0.00  -0.02  -0.02     0.00  -0.00   0.01    -0.00   0.01  -0.09
  90   1     0.01  -0.01  -0.02     0.00  -0.00   0.01    -0.00   0.01  -0.07
  91   1    -0.01  -0.00   0.00    -0.00   0.01  -0.01     0.02  -0.05   0.08
  92   1    -0.01   0.00   0.01    -0.00   0.01  -0.01     0.02  -0.05   0.05
                     10                     11                     12
                        a                      a                      a 
 Frequencies --    51.3229                56.1991                65.1945
 Red. masses --    10.8427                10.0136                10.2513
 Frc consts  --     0.0000                 0.0000                 0.0000
 IR Inten    --     0.5594                 0.1600                 0.5878
 Raman Activ --     0.0000                 0.0000                 0.0000
 Depolar     --     0.0000                 0.0000                 0.0000
 Atom AN      X      Y      Z        X      Y      Z        X      Y      Z
   1   6    -0.07   0.00  -0.01    -0.10   0.14   0.09     0.16   0.16   0.01
   2   6    -0.02   0.02   0.00    -0.03  -0.01   0.03     0.15   0.09  -0.03
   3   6    -0.01   0.02   0.06    -0.03  -0.02   0.06     0.13   0.19  -0.01
   4   6     0.00   0.04  -0.02     0.04  -0.12   0.12     0.27   0.00   0.02
   5   6    -0.01   0.03  -0.02    -0.03  -0.02  -0.11     0.07   0.02  -0.09
   6   6    -0.01   0.05   0.01    -0.05  -0.03  -0.22     0.07  -0.03  -0.15
   7   6    -0.01   0.05  -0.01    -0.04  -0.02  -0.22     0.03  -0.06  -0.14
   8   6    -0.00   0.04  -0.05    -0.02  -0.01  -0.10    -0.02  -0.02  -0.05
   9   6    -0.00   0.02  -0.08    -0.01  -0.00  -0.05    -0.02  -0.00  -0.02
  10   6    -0.01   0.02  -0.06    -0.02  -0.01  -0.05     0.02   0.04  -0.04
  11   6     0.01   0.02  -0.11    -0.00   0.01   0.05    -0.02  -0.00   0.05
  12   6     0.02   0.00  -0.09    -0.01   0.02   0.05     0.01  -0.05   0.06
  13   6     0.05   0.01  -0.07    -0.01   0.03   0.11     0.07  -0.04   0.09
  14   6     0.07  -0.00   0.02    -0.03   0.01  -0.02     0.12  -0.12   0.01
  15   6     0.06  -0.02   0.08    -0.03   0.02  -0.06     0.08  -0.21  -0.02
  16   6     0.02  -0.04   0.06     0.05   0.12  -0.13     0.24  -0.06  -0.06
  17   6     0.17   0.05   0.04    -0.14  -0.12  -0.07     0.10  -0.19  -0.03
  18   6     0.05   0.02  -0.12    -0.00   0.04   0.22     0.08  -0.00   0.15
  19   6     0.04   0.03  -0.13    -0.00   0.03   0.22     0.05   0.03   0.13
  20   6     0.01   0.03  -0.11    -0.00   0.02   0.10    -0.01   0.01   0.07
  21   7     0.01   0.05  -0.08    -0.01   0.00  -0.00    -0.03  -0.01   0.01
  22   6     0.01   0.03   0.01    -0.01   0.00  -0.00    -0.03   0.00   0.00
  23   6    -0.02  -0.04   0.11     0.00   0.10  -0.13    -0.04  -0.04   0.06
  24   6    -0.02  -0.08   0.21     0.00   0.10  -0.12    -0.05  -0.03   0.06
  25   6     0.01  -0.06   0.20     0.00  -0.01  -0.00    -0.05   0.03  -0.01
  26   6     0.01  -0.06   0.22     0.00  -0.01  -0.01    -0.06   0.03  -0.01
  27   6     0.01  -0.06   0.13     0.01  -0.01  -0.00    -0.07   0.03  -0.11
  28   6     0.01  -0.05   0.04     0.01  -0.01  -0.03    -0.07   0.03  -0.08
  29   6    -0.00  -0.04   0.03     0.01  -0.01  -0.04    -0.07   0.03   0.04
  30   6    -0.01  -0.01  -0.08     0.01  -0.00  -0.06    -0.08   0.02   0.05
  31   7    -0.01   0.05  -0.17     0.02   0.00  -0.06    -0.10   0.01   0.04
  32   7    -0.01   0.07  -0.20     0.02   0.01  -0.05    -0.10  -0.01   0.03
  33   6    -0.01   0.02  -0.13     0.01   0.01  -0.04    -0.08  -0.02   0.03
  34   6    -0.02   0.01  -0.05    -0.01   0.02  -0.00    -0.07  -0.03   0.00
  35   6    -0.10  -0.06   0.00    -0.07   0.08  -0.01    -0.03  -0.09   0.02
  36   6    -0.12  -0.09   0.11    -0.08   0.11   0.03    -0.01  -0.11  -0.00
  37   6    -0.06  -0.04   0.17    -0.03   0.05   0.10    -0.05  -0.06  -0.05
  38   6     0.02   0.05   0.11     0.03  -0.02   0.12    -0.10   0.02  -0.08
  39   6     0.03   0.07   0.00     0.05  -0.04   0.07    -0.11   0.03  -0.05
  40   7    -0.01  -0.03  -0.07     0.00   0.00  -0.06    -0.07  -0.00   0.06
  41   6    -0.01  -0.03  -0.06     0.02  -0.01  -0.04    -0.04   0.01   0.04
  42   6     0.14  -0.06   0.03     0.19  -0.07   0.07    -0.05   0.04   0.04
  43   6     0.12  -0.05   0.01     0.28  -0.10   0.13    -0.07   0.07  -0.01
  44   6    -0.06  -0.00  -0.11     0.17  -0.06   0.07    -0.09   0.07  -0.05
  45   6    -0.20   0.03  -0.20    -0.03   0.00  -0.06    -0.07   0.03  -0.03
  46   6    -0.17   0.02  -0.18    -0.10   0.03  -0.11    -0.04  -0.00   0.01
  47   6    -0.01  -0.05   0.15     0.01  -0.01  -0.02    -0.06   0.03   0.13
  48   6     0.00  -0.06   0.24     0.01  -0.01  -0.02    -0.06   0.03   0.11
  49   6     0.04   0.01   0.09    -0.01  -0.10   0.12    -0.04   0.08  -0.08
  50   6     0.04   0.05  -0.00    -0.01  -0.11   0.12    -0.03   0.06  -0.07
  51   1    -0.02  -0.00  -0.01    -0.03   0.05   0.02     0.05   0.03  -0.00
  52   1    -0.03  -0.00   0.00    -0.04   0.06   0.01     0.03   0.06  -0.01
  53   1    -0.02   0.00   0.00    -0.03   0.04   0.06     0.06   0.06   0.02
  54   1     0.01   0.00   0.02     0.00  -0.02   0.01     0.04   0.05  -0.00
  55   1    -0.01   0.01   0.03    -0.01  -0.00   0.04     0.06   0.07   0.01
  56   1    -0.01   0.01   0.02    -0.02   0.01   0.01     0.02   0.07  -0.00
  57   1    -0.01   0.01  -0.00     0.02  -0.03   0.07     0.10   0.02   0.03
  58   1    -0.00   0.02  -0.02     0.01  -0.04   0.03     0.08  -0.02   0.00
  59   1     0.02   0.02  -0.00     0.02  -0.07   0.02     0.08  -0.01  -0.00
  60   1    -0.01   0.02   0.01    -0.02  -0.01  -0.08     0.03  -0.01  -0.06
  61   1    -0.00   0.02   0.01    -0.01  -0.01  -0.08     0.01  -0.03  -0.05
  62   1    -0.00   0.00  -0.02    -0.00  -0.00   0.00     0.00   0.03  -0.00
  63   1     0.00  -0.00  -0.02    -0.00   0.00  -0.00    -0.00  -0.03   0.01
  64   1     0.02  -0.01   0.05    -0.01   0.00  -0.04     0.03  -0.08  -0.02
  65   1     0.03   0.00   0.02    -0.02  -0.01  -0.01     0.00  -0.07   0.00
  66   1    -0.00  -0.02   0.02     0.01   0.02  -0.01     0.02  -0.05  -0.00
  67   1     0.01  -0.02   0.04     0.01   0.03  -0.07     0.08  -0.03  -0.04
  68   1     0.01  -0.01   0.01     0.02   0.04  -0.03     0.08  -0.00  -0.01
  69   1    -0.02  -0.02   0.02     0.03   0.06  -0.03     0.08  -0.00  -0.01
  70   1     0.06   0.02   0.04    -0.05  -0.03  -0.06     0.04  -0.07  -0.03
  71   1     0.05   0.02  -0.00    -0.04  -0.04  -0.02     0.04  -0.04  -0.00
  72   1     0.06   0.03   0.00    -0.05  -0.06  -0.00     0.00  -0.07   0.01
  73   1     0.02   0.01  -0.04    -0.00   0.01   0.08     0.03   0.00   0.05
  74   1     0.01   0.01  -0.04     0.00   0.01   0.08     0.02   0.02   0.04
  75   1    -0.01  -0.01   0.03     0.00   0.06  -0.06    -0.02  -0.03   0.03
  76   1    -0.01  -0.04   0.08    -0.00   0.05  -0.06    -0.01  -0.02   0.03
  77   1     0.00  -0.02   0.04     0.00  -0.00   0.01    -0.02   0.01  -0.06
  78   1     0.00  -0.01  -0.01     0.00  -0.00  -0.01    -0.02   0.01  -0.05
  79   1    -0.04  -0.03  -0.01    -0.03   0.03  -0.02    -0.00  -0.04   0.01
  80   1    -0.05  -0.04   0.05    -0.04   0.05   0.01     0.01  -0.05   0.00
  81   1    -0.02  -0.02   0.07    -0.01   0.02   0.04    -0.01  -0.02  -0.02
  82   1     0.02   0.03   0.04     0.02  -0.02   0.05    -0.04   0.02  -0.04
  83   1     0.03   0.04  -0.01     0.03  -0.03   0.02    -0.04   0.03  -0.02
  84   1     0.08  -0.03   0.03     0.08  -0.03   0.03    -0.01   0.01   0.02
  85   1     0.07  -0.02   0.02     0.12  -0.04   0.07    -0.02   0.03  -0.00
  86   1    -0.02   0.00  -0.04     0.07  -0.03   0.03    -0.03   0.03  -0.02
  87   1    -0.10   0.02  -0.09    -0.04   0.01  -0.03    -0.02   0.01  -0.02
  88   1    -0.08   0.01  -0.07    -0.07   0.02  -0.06    -0.01  -0.01   0.00
  89   1    -0.00  -0.01   0.04     0.00  -0.00  -0.00    -0.01   0.01   0.06
  90   1    -0.00  -0.02   0.09     0.00  -0.00  -0.01    -0.02   0.01   0.05
  91   1     0.02   0.01   0.02    -0.01  -0.05   0.06    -0.01   0.04  -0.04
  92   1     0.02   0.03  -0.02    -0.00  -0.05   0.06    -0.01   0.03  -0.03
                     13                     14                     15
                        a                      a                      a 
 Frequencies --    71.0657                73.8380                77.7068
 Red. masses --    10.4000                10.6173                10.4328
 Frc consts  --     0.0000                 0.0000                 0.0000
 IR Inten    --     0.1163                 0.1653                 0.1519
 Raman Activ --     0.0000                 0.0000                 0.0000
 Depolar     --     0.0000                 0.0000                 0.0000
 Atom AN      X      Y      Z        X      Y      Z        X      Y      Z
   1   6     0.14   0.01  -0.02    -0.10   0.07   0.01    -0.14   0.04   0.04
   2   6     0.10   0.04  -0.01    -0.05   0.05  -0.00    -0.03  -0.05   0.01
   3   6     0.09   0.10  -0.01    -0.05   0.03   0.03    -0.01  -0.06   0.11
   4   6     0.14   0.04  -0.03    -0.04   0.04   0.00     0.06  -0.12   0.05
   5   6     0.05  -0.00   0.01    -0.04   0.06  -0.03    -0.02  -0.05  -0.12
   6   6     0.06  -0.02   0.04    -0.04   0.07  -0.01    -0.02  -0.04  -0.09
   7   6     0.03  -0.04   0.05    -0.03   0.08  -0.02    -0.00  -0.02  -0.05
   8   6    -0.01  -0.03   0.02    -0.02   0.07  -0.04     0.00  -0.03  -0.05
   9   6    -0.01  -0.02  -0.02    -0.02   0.05  -0.06    -0.00  -0.04  -0.15
  10   6     0.01   0.00  -0.03    -0.03   0.05  -0.06    -0.01  -0.06  -0.19
  11   6    -0.02  -0.04  -0.06    -0.01   0.05  -0.05     0.00  -0.03  -0.12
  12   6    -0.01  -0.06  -0.07     0.01   0.03  -0.04    -0.01  -0.02  -0.14
  13   6     0.01  -0.06  -0.07     0.04   0.04   0.01    -0.03  -0.00  -0.03
  14   6     0.04  -0.07   0.01     0.08   0.00   0.00    -0.05   0.04   0.01
  15   6     0.02  -0.10   0.06     0.06  -0.04   0.02    -0.03   0.08   0.06
  16   6    -0.00  -0.12   0.05     0.12   0.03  -0.03    -0.12   0.04   0.01
  17   6     0.13  -0.02   0.02     0.10  -0.03  -0.02    -0.04   0.03   0.00
  18   6     0.01  -0.05  -0.10     0.06   0.07   0.06    -0.03  -0.00   0.05
  19   6    -0.00  -0.04  -0.08     0.04   0.09   0.05    -0.01  -0.02   0.08
  20   6    -0.02  -0.03  -0.04    -0.00   0.07  -0.01     0.01  -0.02   0.01
  21   7    -0.01  -0.03   0.02    -0.01   0.08  -0.03     0.01  -0.01   0.06
  22   6    -0.01   0.00   0.05    -0.02   0.00   0.00     0.02   0.01   0.11
  23   6    -0.05   0.03   0.06     0.03  -0.10   0.06    -0.00  -0.00   0.16
  24   6    -0.04   0.09   0.05     0.02  -0.22   0.11     0.00   0.04   0.17
  25   6    -0.02   0.10   0.05    -0.03  -0.23   0.08     0.04   0.10   0.12
  26   6    -0.02   0.11   0.04    -0.04  -0.23   0.04     0.04   0.12   0.06
  27   6    -0.05   0.09   0.21     0.02  -0.19  -0.07     0.01   0.12  -0.16
  28   6    -0.06   0.05   0.16     0.03  -0.12  -0.11     0.00   0.09  -0.23
  29   6    -0.06   0.05  -0.07    -0.02  -0.08  -0.05     0.04   0.07  -0.09
  30   6    -0.06   0.01  -0.09    -0.01   0.01  -0.05     0.03  -0.00  -0.06
  31   7    -0.08  -0.04  -0.04     0.04   0.04  -0.05     0.01  -0.03  -0.04
  32   7    -0.08  -0.07   0.00     0.03   0.09  -0.03     0.02  -0.13   0.04
  33   6    -0.07  -0.05  -0.03    -0.02   0.09  -0.01     0.04  -0.14   0.06
  34   6    -0.08  -0.04   0.00    -0.02   0.08   0.00     0.04  -0.12   0.06
  35   6    -0.15   0.12  -0.05    -0.02   0.18  -0.04     0.02  -0.03   0.02
  36   6    -0.18   0.22  -0.05    -0.01   0.16  -0.05    -0.02   0.13  -0.04
  37   6    -0.13   0.13   0.02     0.01   0.00  -0.00    -0.03   0.19  -0.06
  38   6    -0.05  -0.07   0.10     0.02  -0.12   0.05     0.01   0.05  -0.00
  39   6    -0.02  -0.15   0.09     0.01  -0.08   0.06     0.04  -0.11   0.06
  40   7    -0.07   0.01  -0.11    -0.05   0.06  -0.04     0.06  -0.08   0.00
  41   6    -0.05  -0.01  -0.08    -0.04   0.05  -0.02     0.05  -0.07  -0.00
  42   6    -0.03  -0.03  -0.07    -0.17   0.09  -0.10    -0.07  -0.04  -0.08
  43   6     0.10  -0.08   0.03    -0.08   0.08  -0.06    -0.15  -0.02  -0.13
  44   6     0.21  -0.11   0.12     0.14   0.01   0.08    -0.10  -0.03  -0.09
  45   6     0.15  -0.08   0.09     0.25  -0.04   0.15     0.05  -0.07   0.00
  46   6     0.02  -0.02  -0.02     0.14  -0.01   0.09     0.12  -0.09   0.04
  47   6    -0.02   0.07  -0.21    -0.09  -0.11   0.02     0.07   0.07   0.10
  48   6    -0.02   0.10  -0.15    -0.09  -0.19   0.07     0.07   0.10   0.19
  49   6     0.02   0.07   0.05    -0.08  -0.15   0.05     0.06   0.12   0.07
  50   6     0.02   0.03   0.04    -0.07  -0.04   0.01     0.06   0.06   0.08
  51   1     0.05  -0.01  -0.01    -0.03   0.02  -0.01    -0.04   0.00  -0.01
  52   1     0.03   0.00  -0.00    -0.04   0.02   0.00    -0.07   0.03   0.00
  53   1     0.05   0.01  -0.01    -0.03   0.02   0.01    -0.03   0.02   0.05
  54   1     0.02   0.03  -0.00    -0.00   0.00   0.01     0.02  -0.04   0.03
  55   1     0.04   0.04  -0.00    -0.02   0.01   0.02    -0.00  -0.02   0.07
  56   1     0.02   0.03  -0.00    -0.02   0.01   0.01    -0.02   0.00   0.02
  57   1     0.05   0.02  -0.01    -0.02   0.01   0.01     0.01  -0.04   0.06
  58   1     0.04   0.00  -0.01    -0.02   0.02  -0.01     0.01  -0.02  -0.01
  59   1     0.04   0.02  -0.01     0.00   0.01  -0.00     0.05  -0.06   0.01
  60   1     0.02  -0.01   0.02    -0.01   0.02   0.00    -0.01  -0.01  -0.02
  61   1     0.01  -0.02   0.02    -0.01   0.03   0.00     0.00  -0.00   0.00
  62   1     0.00   0.01  -0.02    -0.01   0.01  -0.02    -0.00  -0.02  -0.07
  63   1    -0.00  -0.02  -0.02    -0.00  -0.00  -0.02    -0.00  -0.00  -0.07
  64   1     0.01  -0.03   0.04     0.02  -0.02   0.01    -0.01   0.03   0.04
  65   1     0.02  -0.02   0.01     0.01  -0.01   0.01     0.01   0.03   0.01
  66   1    -0.01  -0.04   0.02     0.01  -0.01   0.01    -0.02   0.02   0.01
  67   1     0.01  -0.04   0.04     0.04  -0.00  -0.01    -0.03   0.01   0.02
  68   1     0.00  -0.03   0.00     0.04   0.02  -0.01    -0.04   0.01  -0.01
  69   1    -0.02  -0.05   0.01     0.03   0.01  -0.00    -0.05   0.01   0.00
  70   1     0.04  -0.01   0.03     0.03  -0.01  -0.01    -0.02   0.03   0.01
  71   1     0.04  -0.00  -0.00     0.03  -0.00  -0.01    -0.02  -0.01  -0.01
  72   1     0.05   0.00  -0.00     0.03  -0.01   0.00     0.02   0.01  -0.00
  73   1     0.01  -0.02  -0.03     0.02   0.02   0.03    -0.01   0.00   0.03
  74   1     0.00  -0.01  -0.03     0.01   0.04   0.02    -0.00  -0.01   0.04
  75   1    -0.02   0.00   0.02     0.02  -0.02   0.02    -0.01  -0.01   0.05
  76   1    -0.02   0.03   0.01     0.01  -0.08   0.04    -0.01   0.01   0.06
  77   1    -0.02   0.03   0.11     0.02  -0.07  -0.04    -0.00   0.04  -0.07
  78   1    -0.02   0.01   0.08     0.02  -0.03  -0.05    -0.01   0.03  -0.11
  79   1    -0.05   0.05  -0.03    -0.01   0.08  -0.02     0.01  -0.02   0.01
  80   1    -0.07   0.11  -0.03    -0.00   0.07  -0.03    -0.01   0.07  -0.02
  81   1    -0.05   0.06   0.01     0.01  -0.01  -0.00    -0.02   0.09  -0.03
  82   1    -0.00  -0.05   0.05     0.01  -0.07   0.03     0.00   0.02  -0.00
  83   1     0.01  -0.08   0.04     0.00  -0.05   0.03     0.02  -0.06   0.03
  84   1    -0.03  -0.00  -0.04    -0.09   0.04  -0.06    -0.03  -0.01  -0.03
  85   1     0.04  -0.03   0.01    -0.05   0.03  -0.03    -0.08   0.00  -0.06
  86   1     0.09  -0.05   0.06     0.06  -0.00   0.04    -0.05  -0.00  -0.04
  87   1     0.07  -0.03   0.04     0.12  -0.03   0.07     0.03  -0.03   0.01
  88   1    -0.00   0.00  -0.01     0.07  -0.01   0.04     0.06  -0.03   0.03
  89   1    -0.00   0.01  -0.10    -0.04  -0.02   0.01     0.02   0.02   0.05
  90   1    -0.00   0.03  -0.07    -0.04  -0.06   0.04     0.03   0.03   0.10
  91   1     0.02   0.02   0.02    -0.03  -0.05   0.01     0.02   0.05   0.01
  92   1     0.01   0.00   0.01    -0.03   0.01  -0.01     0.02   0.02   0.02
                     16                     17                     18
                        a                      a                      a 
 Frequencies --    90.7900                99.5046               110.3833
 Red. masses --    10.1921                10.0556                11.7814
 Frc consts  --     0.0000                 0.0000                 0.0000
 IR Inten    --     0.3220                 2.6679                 3.7273
 Raman Activ --     0.0000                 0.0000                 0.0000
 Depolar     --     0.0000                 0.0000                 0.0000
 Atom AN      X      Y      Z        X      Y      Z        X      Y      Z
   1   6     0.05  -0.02  -0.01     0.12  -0.00  -0.02     0.02  -0.05   0.00
   2   6    -0.01  -0.02  -0.01     0.03   0.07   0.01     0.01  -0.02   0.02
   3   6    -0.02  -0.04  -0.10     0.01   0.12  -0.05     0.02  -0.02   0.03
   4   6    -0.07  -0.01   0.01     0.00   0.12  -0.03     0.00   0.01  -0.00
   5   6     0.00  -0.01   0.05    -0.01   0.04   0.09     0.02  -0.01   0.02
   6   6    -0.02  -0.03  -0.16    -0.01   0.03   0.07     0.03   0.01   0.14
   7   6    -0.02  -0.04  -0.20    -0.03   0.01   0.04     0.02   0.01   0.12
   8   6     0.00  -0.01  -0.04    -0.04   0.01   0.03     0.01  -0.01  -0.00
   9   6     0.02   0.02   0.21    -0.04   0.02   0.06     0.00  -0.03  -0.10
  10   6     0.02   0.03   0.28    -0.02   0.04   0.09     0.00  -0.03  -0.11
  11   6     0.03   0.03   0.23    -0.05   0.01   0.00     0.00  -0.03  -0.10
  12   6     0.03   0.05   0.31    -0.04  -0.02  -0.01     0.00  -0.02  -0.10
  13   6     0.00   0.02   0.11    -0.02  -0.03  -0.07     0.01   0.00   0.04
  14   6    -0.02   0.02   0.00     0.02  -0.07  -0.02    -0.01   0.01   0.02
  15   6    -0.02   0.02  -0.12    -0.01  -0.13   0.03     0.00   0.03   0.02
  16   6     0.07   0.04  -0.02     0.01  -0.11   0.02     0.00   0.05  -0.01
  17   6    -0.14  -0.01  -0.00     0.12  -0.02  -0.00    -0.05  -0.03   0.01
  18   6    -0.01  -0.02  -0.08    -0.02  -0.02  -0.12     0.01   0.01   0.16
  19   6    -0.01  -0.03  -0.14    -0.03  -0.00  -0.09     0.02   0.01   0.13
  20   6     0.00  -0.01  -0.01    -0.04   0.01  -0.04     0.01  -0.01   0.00
  21   7    -0.01  -0.03  -0.16    -0.04   0.01  -0.02     0.01  -0.01   0.01
  22   6    -0.00  -0.00  -0.12    -0.04   0.00  -0.01     0.01  -0.00  -0.04
  23   6    -0.06  -0.03  -0.02    -0.03   0.20  -0.24     0.02  -0.02  -0.04
  24   6    -0.05  -0.02   0.08    -0.03   0.20  -0.23     0.01   0.00  -0.09
  25   6     0.01   0.03   0.06    -0.01  -0.02   0.03    -0.01   0.03  -0.13
  26   6     0.02   0.02   0.14    -0.01  -0.01   0.03    -0.01   0.00  -0.06
  27   6     0.01   0.02   0.10     0.01   0.01  -0.13    -0.02  -0.01   0.08
  28   6     0.01   0.01   0.05     0.01   0.03  -0.17    -0.02  -0.04   0.17
  29   6     0.01   0.01   0.04     0.01   0.02  -0.01    -0.01  -0.04   0.11
  30   6     0.01   0.00  -0.04     0.01   0.02  -0.02    -0.01  -0.02   0.05
  31   7    -0.01   0.04  -0.12     0.00   0.07  -0.11    -0.03   0.22  -0.30
  32   7    -0.01   0.01  -0.13     0.00   0.02  -0.07    -0.03   0.22  -0.33
  33   6     0.02  -0.04  -0.05     0.02  -0.05   0.03    -0.01  -0.01  -0.00
  34   6     0.01  -0.06  -0.01     0.02  -0.07   0.04    -0.01  -0.05   0.03
  35   6    -0.05   0.03  -0.04     0.02  -0.03   0.02    -0.02   0.02   0.01
  36   6    -0.09   0.14  -0.03     0.01   0.05  -0.02    -0.04   0.10  -0.03
  37   6    -0.05   0.12   0.02    -0.00   0.08  -0.03    -0.03   0.09  -0.03
  38   6     0.03  -0.02   0.07     0.01   0.01  -0.00    -0.01  -0.03   0.02
  39   6     0.06  -0.10   0.05     0.02  -0.06   0.04     0.00  -0.09   0.05
  40   7     0.03  -0.06  -0.00     0.03  -0.07   0.08    -0.01  -0.18   0.26
  41   6     0.03  -0.05  -0.00     0.04  -0.05   0.06     0.01  -0.14   0.20
  42   6    -0.05  -0.02  -0.06     0.00  -0.00   0.04    -0.01   0.02   0.19
  43   6    -0.08  -0.00  -0.09    -0.05   0.04  -0.03    -0.00   0.14   0.04
  44   6    -0.02  -0.02  -0.06    -0.05   0.03  -0.07     0.02   0.09  -0.11
  45   6     0.08  -0.06   0.01     0.01  -0.03  -0.03     0.05  -0.08  -0.10
  46   6     0.10  -0.08   0.03     0.06  -0.07   0.03     0.04  -0.19   0.06
  47   6     0.02   0.01   0.12     0.00   0.01   0.15     0.01  -0.03   0.03
  48   6     0.03   0.02   0.18    -0.00  -0.01   0.15     0.00  -0.01  -0.07
  49   6     0.07   0.08  -0.07    -0.03  -0.23   0.28    -0.01   0.06  -0.15
  50   6     0.06   0.07  -0.16    -0.03  -0.22   0.25    -0.01   0.04  -0.11
  51   1     0.01   0.02   0.02     0.04   0.00   0.01     0.01  -0.03  -0.00
  52   1     0.05  -0.02  -0.00     0.05  -0.01   0.00    -0.00  -0.02   0.01
  53   1    -0.01  -0.03  -0.02     0.03  -0.00  -0.03     0.01  -0.01  -0.00
  54   1    -0.03   0.01  -0.02    -0.02   0.05  -0.01     0.01  -0.01   0.00
  55   1    -0.01  -0.02  -0.06     0.01   0.04  -0.03     0.00  -0.00   0.02
  56   1     0.02  -0.03  -0.02     0.01   0.03  -0.01    -0.00   0.00   0.00
  57   1    -0.00   0.01  -0.03     0.02   0.04  -0.04    -0.01  -0.00  -0.00
  58   1    -0.01  -0.03   0.03     0.01   0.01   0.01    -0.01   0.02  -0.01
  59   1    -0.06   0.00   0.00    -0.03   0.05  -0.00     0.01   0.01   0.00
  60   1    -0.01  -0.02  -0.09     0.00   0.01   0.02     0.01   0.01   0.07
  61   1    -0.01  -0.02  -0.11    -0.01   0.00  -0.00     0.01   0.01   0.06
  62   1     0.01   0.01   0.14    -0.01   0.02   0.03    -0.00  -0.01  -0.06
  63   1     0.01   0.02   0.14    -0.01  -0.01   0.01    -0.00  -0.01  -0.06
  64   1    -0.01   0.00  -0.08     0.01  -0.05   0.02    -0.00   0.01   0.01
  65   1    -0.04  -0.01  -0.02    -0.00  -0.04   0.01     0.01   0.02   0.00
  66   1     0.03   0.03  -0.03    -0.02  -0.04   0.01    -0.00   0.00   0.00
  67   1    -0.01   0.03  -0.05     0.02  -0.04   0.03     0.00   0.01  -0.01
  68   1     0.00  -0.01   0.03     0.01  -0.02  -0.00     0.00   0.02  -0.01
  69   1     0.08   0.02  -0.01    -0.02  -0.05   0.00     0.00   0.02   0.00
  70   1    -0.03  -0.03  -0.04     0.04  -0.01   0.02    -0.03   0.00  -0.01
  71   1    -0.02   0.02   0.03     0.04   0.00  -0.01    -0.02  -0.02   0.00
  72   1    -0.09  -0.01   0.01     0.04   0.00  -0.01    -0.01  -0.01   0.01
  73   1    -0.01  -0.01  -0.06    -0.00  -0.01  -0.05     0.00   0.01   0.08
  74   1    -0.01  -0.02  -0.09    -0.01   0.00  -0.03     0.01   0.01   0.06
  75   1    -0.03  -0.02  -0.01    -0.00   0.10  -0.12     0.01  -0.01   0.00
  76   1    -0.03  -0.02   0.05    -0.01   0.11  -0.11     0.01  -0.01  -0.02
  77   1     0.00   0.01   0.02     0.01  -0.00  -0.06    -0.01   0.00   0.03
  78   1    -0.00   0.00   0.00     0.00   0.01  -0.09    -0.01  -0.01   0.07
  79   1    -0.02   0.01  -0.02     0.01  -0.01   0.01    -0.00   0.01   0.00
  80   1    -0.04   0.07  -0.02     0.00   0.03  -0.01    -0.01   0.05  -0.02
  81   1    -0.02   0.06   0.01    -0.00   0.05  -0.02    -0.01   0.05  -0.02
  82   1     0.02  -0.01   0.03    -0.00   0.01  -0.00    -0.00  -0.02   0.01
  83   1     0.03  -0.05   0.02     0.01  -0.03   0.02     0.00  -0.05   0.02
  84   1    -0.03  -0.00  -0.02    -0.00   0.00   0.02    -0.01   0.02   0.09
  85   1    -0.05   0.01  -0.04    -0.03   0.02  -0.02    -0.01   0.08   0.01
  86   1    -0.01  -0.00  -0.02    -0.03   0.02  -0.04     0.00   0.05  -0.07
  87   1     0.04  -0.02   0.01     0.01  -0.01  -0.02     0.02  -0.03  -0.06
  88   1     0.05  -0.03   0.02     0.03  -0.03   0.02     0.01  -0.09   0.02
  89   1     0.01   0.00   0.04    -0.00   0.01   0.08     0.01  -0.01   0.00
  90   1     0.01   0.01   0.07     0.00  -0.00   0.07     0.00  -0.00  -0.05
  91   1     0.04   0.04  -0.03    -0.01  -0.12   0.13    -0.00   0.02  -0.05
  92   1     0.03   0.03  -0.07    -0.00  -0.11   0.11    -0.01   0.02  -0.03
                     19                     20                     21
                        a                      a                      a 
 Frequencies --   117.0856               121.1101               126.8117
 Red. masses --    10.9893                10.6709                10.9023
 Frc consts  --     0.0000                 0.0000                 0.0000
 IR Inten    --     0.7909                 0.6534                 0.4368
 Raman Activ --     0.0000                 0.0000                 0.0000
 Depolar     --     0.0000                 0.0000                 0.0000
 Atom AN      X      Y      Z        X      Y      Z        X      Y      Z
   1   6    -0.04  -0.08   0.01     0.11  -0.17   0.01     0.02   0.00  -0.00
   2   6     0.02  -0.11   0.00     0.03  -0.03   0.07     0.03  -0.03  -0.02
   3   6     0.06  -0.22   0.02     0.03  -0.07   0.01     0.03  -0.01   0.01
   4   6    -0.02  -0.12   0.03    -0.10   0.09  -0.01     0.09  -0.08   0.01
   5   6     0.10  -0.05  -0.02     0.05   0.00   0.15     0.01  -0.05  -0.04
   6   6     0.08  -0.02  -0.09     0.06   0.04   0.27     0.01  -0.04  -0.04
   7   6     0.11   0.00  -0.07     0.05   0.02   0.11     0.02  -0.03   0.03
   8   6     0.14   0.01   0.01     0.04  -0.03  -0.12     0.01  -0.02   0.08
   9   6     0.15  -0.00   0.05     0.04  -0.03  -0.15     0.01  -0.03   0.03
  10   6     0.13  -0.04   0.05     0.04  -0.03  -0.06     0.01  -0.04  -0.02
  11   6     0.15   0.01   0.04     0.03  -0.03  -0.16     0.02  -0.03   0.02
  12   6     0.14   0.04   0.02     0.04  -0.00  -0.08     0.02  -0.03  -0.04
  13   6     0.11   0.03  -0.06     0.05   0.03   0.12     0.00  -0.04  -0.06
  14   6     0.06   0.10  -0.04     0.02   0.04   0.05    -0.02  -0.00  -0.03
  15   6     0.11   0.19  -0.04     0.03   0.07  -0.00    -0.00   0.04   0.00
  16   6    -0.03   0.08  -0.01     0.10   0.13  -0.03    -0.10  -0.05   0.01
  17   6     0.05   0.14  -0.02    -0.11  -0.06   0.02     0.01   0.04  -0.01
  18   6     0.09  -0.01  -0.11     0.05   0.04   0.26     0.00  -0.04  -0.04
  19   6     0.11  -0.03  -0.07     0.05   0.01   0.11     0.01  -0.03   0.03
  20   6     0.14  -0.01   0.00     0.03  -0.03  -0.12     0.03  -0.02   0.08
  21   7     0.13   0.00   0.02     0.02  -0.05  -0.22     0.03  -0.00   0.15
  22   6     0.10  -0.01   0.04     0.02  -0.04  -0.16     0.02   0.07   0.03
  23   6     0.07   0.05  -0.01    -0.04   0.01  -0.15     0.03   0.16  -0.08
  24   6     0.06   0.04  -0.00    -0.04   0.03  -0.08     0.03   0.19  -0.14
  25   6     0.02  -0.03   0.05     0.00  -0.00  -0.01     0.01   0.14  -0.09
  26   6    -0.01  -0.01   0.00    -0.00   0.02   0.07    -0.00   0.03  -0.01
  27   6    -0.04  -0.01  -0.06     0.00   0.03   0.01    -0.09  -0.01  -0.08
  28   6    -0.05   0.00  -0.10     0.00   0.05  -0.00    -0.10  -0.12   0.02
  29   6    -0.09   0.03  -0.05    -0.02   0.07   0.05    -0.01  -0.18   0.17
  30   6    -0.12   0.04  -0.02    -0.04   0.04   0.01    -0.02  -0.16   0.13
  31   7    -0.13   0.06  -0.05    -0.10  -0.07   0.13     0.03  -0.13   0.11
  32   7    -0.13   0.04   0.01    -0.09  -0.11   0.07     0.02   0.07  -0.08
  33   6    -0.15  -0.00   0.07    -0.03  -0.02  -0.07    -0.02   0.14  -0.17
  34   6    -0.15  -0.02   0.06    -0.03  -0.03  -0.07    -0.04   0.20  -0.17
  35   6    -0.10  -0.02   0.04    -0.10  -0.03  -0.06    -0.11   0.18  -0.15
  36   6    -0.08  -0.04  -0.03    -0.12  -0.01  -0.00    -0.09   0.02   0.00
  37   6    -0.13  -0.06  -0.09    -0.08   0.01   0.03    -0.00  -0.13   0.13
  38   6    -0.19  -0.05  -0.07    -0.02  -0.00   0.02     0.05  -0.06   0.08
  39   6    -0.21  -0.04  -0.00    -0.00  -0.03  -0.03     0.03   0.12  -0.08
  40   7    -0.16  -0.00   0.07     0.00   0.09  -0.13    -0.05   0.00  -0.04
  41   6    -0.13   0.01   0.05     0.02   0.06  -0.10    -0.06   0.00  -0.04
  42   6    -0.09   0.08   0.08    -0.01  -0.01  -0.12    -0.11   0.02  -0.07
  43   6     0.01   0.10   0.08    -0.04  -0.06  -0.05    -0.07   0.01  -0.06
  44   6     0.06   0.06   0.04    -0.03  -0.04   0.04     0.04  -0.02   0.01
  45   6     0.00   0.01  -0.01     0.00   0.03   0.07     0.09  -0.04   0.04
  46   6    -0.10  -0.01   0.01     0.03   0.09  -0.01     0.02  -0.02   0.01
  47   6    -0.07   0.04  -0.01    -0.02   0.06   0.16     0.08  -0.15   0.25
  48   6    -0.06   0.02   0.01    -0.02   0.04   0.17     0.09  -0.04   0.18
  49   6     0.04  -0.10   0.10     0.06  -0.06  -0.01    -0.00   0.13  -0.07
  50   6     0.06  -0.08   0.10     0.06  -0.08  -0.08    -0.00   0.09   0.00
  51   1    -0.02   0.01   0.00     0.03  -0.03   0.02     0.01  -0.01  -0.01
  52   1     0.01  -0.03   0.00     0.07  -0.08   0.02    -0.01   0.01  -0.00
  53   1    -0.04  -0.04   0.01     0.02  -0.07  -0.04     0.02   0.01   0.01
  54   1     0.03  -0.07   0.01     0.00  -0.02   0.00     0.01  -0.01   0.00
  55   1    -0.00  -0.08   0.01     0.00  -0.02  -0.00     0.01  -0.00   0.01
  56   1     0.03  -0.07   0.01     0.02  -0.02   0.00     0.00   0.00   0.00
  57   1    -0.02  -0.04   0.02    -0.03   0.02  -0.05     0.02  -0.02   0.02
  58   1    -0.01  -0.02   0.01    -0.03   0.03   0.02     0.02  -0.02  -0.01
  59   1     0.00  -0.04   0.00    -0.05   0.06   0.01     0.04  -0.04  -0.00
  60   1     0.01  -0.01  -0.04     0.02   0.02   0.14     0.00  -0.01  -0.02
  61   1     0.03   0.00  -0.03     0.02   0.01   0.05     0.00  -0.01   0.01
  62   1     0.04  -0.02   0.03     0.01  -0.01  -0.04     0.00  -0.01  -0.01
  63   1     0.04   0.02   0.02     0.01  -0.00  -0.04     0.01  -0.01  -0.02
  64   1     0.02   0.07  -0.01     0.00   0.03  -0.01    -0.01   0.02   0.01
  65   1     0.04   0.06  -0.01     0.01   0.02  -0.00     0.01   0.02  -0.00
  66   1     0.04   0.06  -0.01     0.02   0.02  -0.00    -0.00   0.01  -0.00
  67   1    -0.02   0.04   0.00     0.02   0.04  -0.05    -0.03  -0.01   0.03
  68   1    -0.02   0.00  -0.00     0.03   0.03   0.01    -0.03  -0.01  -0.01
  69   1    -0.00   0.02  -0.01     0.07   0.06  -0.00    -0.05  -0.02   0.00
  70   1     0.00   0.06   0.01    -0.04  -0.02  -0.03    -0.01   0.03   0.02
  71   1     0.00   0.02  -0.01    -0.04  -0.02   0.02    -0.01  -0.01  -0.01
  72   1     0.04   0.05  -0.02    -0.05  -0.04   0.02     0.04   0.02  -0.01
  73   1     0.02  -0.01  -0.05     0.02   0.02   0.13    -0.00  -0.01  -0.02
  74   1     0.03  -0.02  -0.03     0.02   0.01   0.05     0.00  -0.01   0.01
  75   1     0.02   0.03  -0.02    -0.03   0.00  -0.05     0.02   0.05  -0.02
  76   1     0.02   0.02  -0.02    -0.02   0.02  -0.02     0.01   0.07  -0.06
  77   1    -0.01  -0.00  -0.02     0.00   0.01  -0.01    -0.05   0.01  -0.06
  78   1    -0.00   0.01  -0.04     0.01   0.02  -0.02    -0.05  -0.04  -0.01
  79   1    -0.02  -0.00   0.02    -0.04  -0.02  -0.03    -0.05   0.07  -0.06
  80   1    -0.00  -0.01  -0.01    -0.05  -0.00   0.00    -0.04  -0.00   0.01
  81   1    -0.03  -0.02  -0.04    -0.03   0.01   0.02     0.01  -0.09   0.07
  82   1    -0.07  -0.02  -0.03     0.00   0.00   0.02     0.03  -0.05   0.05
  83   1    -0.08  -0.01   0.00     0.01  -0.01  -0.01     0.02   0.04  -0.03
  84   1    -0.04   0.03   0.03    -0.00  -0.01  -0.05    -0.05   0.01  -0.03
  85   1     0.01   0.04   0.03    -0.02  -0.04  -0.02    -0.03   0.01  -0.02
  86   1     0.04   0.02   0.01    -0.02  -0.02   0.03     0.02  -0.01   0.01
  87   1     0.01  -0.01  -0.01     0.00   0.01   0.04     0.05  -0.02   0.03
  88   1    -0.04  -0.02  -0.01     0.01   0.04   0.00     0.01  -0.01   0.01
  89   1    -0.02   0.01   0.00    -0.01   0.02   0.06     0.04  -0.05   0.10
  90   1    -0.03   0.00   0.01    -0.01   0.01   0.07     0.05   0.00   0.07
  91   1     0.02  -0.04   0.04     0.03  -0.02   0.01    -0.01   0.04  -0.02
  92   1     0.01  -0.03   0.04     0.02  -0.04  -0.02    -0.01   0.02   0.02
                     22                     23                     24
                        a                      a                      a 
 Frequencies --   144.0707               160.6607               174.1266
 Red. masses --    10.8084                 4.6542                 3.9250
 Frc consts  --     0.0000                 0.0000                 0.0000
 IR Inten    --     1.3118                 0.4945                 0.0719
 Raman Activ --     0.0000                 0.0000                 0.0000
 Depolar     --     0.0000                 0.0000                 0.0000
 Atom AN      X      Y      Z        X      Y      Z        X      Y      Z
   1   6     0.09  -0.07   0.01    -0.08   0.11  -0.04     0.02   0.03  -0.02
   2   6     0.01   0.01   0.04    -0.01  -0.01  -0.09    -0.01  -0.00  -0.04
   3   6    -0.00   0.04   0.00    -0.00  -0.00  -0.04    -0.03   0.05  -0.09
   4   6    -0.03   0.06   0.00     0.09  -0.11  -0.02     0.05  -0.06  -0.01
   5   6    -0.01  -0.00   0.08    -0.01  -0.02  -0.12    -0.04  -0.02   0.00
   6   6    -0.01  -0.00   0.08     0.01   0.02   0.13    -0.03  -0.00   0.09
   7   6    -0.02  -0.02  -0.03     0.02   0.04   0.21    -0.02   0.01   0.08
   8   6    -0.03  -0.03  -0.10     0.01   0.01   0.07    -0.02  -0.00   0.02
   9   6    -0.03  -0.03  -0.07     0.00  -0.00  -0.02    -0.01  -0.01   0.08
  10   6    -0.02  -0.01   0.00    -0.01  -0.03  -0.17    -0.03  -0.02   0.06
  11   6    -0.02  -0.03  -0.07     0.01   0.00   0.01     0.02  -0.01   0.07
  12   6    -0.01  -0.02   0.01     0.02   0.03   0.16     0.03  -0.02   0.06
  13   6    -0.01  -0.01   0.08     0.01   0.02   0.11     0.03  -0.03   0.00
  14   6    -0.02  -0.01   0.05     0.01   0.01   0.09    -0.00  -0.01  -0.04
  15   6    -0.02  -0.01   0.01     0.00  -0.00   0.05     0.02   0.04  -0.09
  16   6     0.04   0.03   0.00     0.11   0.09   0.01    -0.06  -0.04   0.00
  17   6    -0.11  -0.08   0.03    -0.09  -0.09   0.05    -0.02   0.03  -0.02
  18   6    -0.01  -0.01   0.07    -0.01  -0.02  -0.13     0.04  -0.01   0.08
  19   6    -0.02  -0.02  -0.03    -0.02  -0.04  -0.21     0.03   0.00   0.07
  20   6    -0.02  -0.03  -0.10    -0.00  -0.01  -0.07     0.02  -0.01   0.02
  21   7    -0.02  -0.03  -0.16     0.01  -0.00   0.00    -0.01  -0.01  -0.07
  22   6    -0.01   0.03  -0.04     0.00   0.00   0.00    -0.00   0.03  -0.12
  23   6    -0.07   0.06   0.01     0.01   0.03  -0.03    -0.02   0.04  -0.11
  24   6    -0.05   0.11   0.10     0.01   0.03  -0.04    -0.02   0.02  -0.04
  25   6     0.03   0.12   0.15     0.00  -0.00  -0.00     0.00  -0.02   0.02
  26   6     0.03   0.07   0.12     0.00  -0.00  -0.00     0.01  -0.04   0.10
  27   6    -0.05   0.04   0.01     0.00  -0.00  -0.01     0.02  -0.03   0.09
  28   6    -0.07  -0.07  -0.15     0.00   0.00  -0.01     0.02  -0.01   0.00
  29   6     0.01  -0.13  -0.19    -0.00   0.00   0.00     0.00   0.01  -0.06
  30   6     0.01  -0.12  -0.12    -0.00   0.00   0.00     0.00   0.03  -0.10
  31   7     0.19  -0.05  -0.10    -0.01  -0.00   0.00     0.04   0.02  -0.07
  32   7     0.17   0.08   0.07    -0.01  -0.00  -0.00     0.03  -0.01   0.05
  33   6    -0.02   0.08   0.13    -0.01   0.00  -0.00    -0.00  -0.01   0.06
  34   6    -0.04   0.16   0.12    -0.01  -0.00  -0.00    -0.01  -0.02   0.09
  35   6     0.09   0.15   0.10    -0.01  -0.00  -0.00     0.04  -0.02   0.08
  36   6     0.17  -0.02   0.02    -0.01  -0.00  -0.00     0.06  -0.01   0.01
  37   6     0.09  -0.13  -0.04    -0.01  -0.00   0.00     0.01   0.02  -0.05
  38   6    -0.06  -0.02  -0.06    -0.01  -0.00  -0.00    -0.04   0.01  -0.03
  39   6    -0.13   0.13   0.03    -0.01  -0.00  -0.00    -0.05  -0.02   0.05
  40   7    -0.12  -0.07   0.03    -0.00   0.00   0.00    -0.02   0.02  -0.05
  41   6    -0.18  -0.05  -0.00    -0.00   0.00   0.00    -0.04   0.02  -0.05
  42   6    -0.14   0.02   0.03    -0.00   0.00   0.00    -0.03   0.00  -0.05
  43   6     0.02   0.04   0.03    -0.00   0.00   0.00     0.00  -0.02  -0.01
  44   6     0.12  -0.02  -0.00    -0.00   0.00   0.00     0.03  -0.02   0.02
  45   6     0.03  -0.08  -0.07     0.00   0.00   0.00    -0.01   0.01  -0.00
  46   6    -0.13  -0.10  -0.07    -0.00   0.00   0.00    -0.04   0.03  -0.04
  47   6     0.09  -0.10  -0.13     0.00   0.00   0.01    -0.01  -0.00   0.02
  48   6     0.11   0.01   0.04     0.00   0.00   0.01    -0.01  -0.03   0.11
  49   6     0.09   0.10   0.09     0.00  -0.04   0.04     0.02   0.02  -0.04
  50   6     0.08   0.05  -0.00     0.00  -0.03   0.03     0.02   0.04  -0.11
  51   1     0.02  -0.00   0.02     0.03  -0.15  -0.10     0.07  -0.21  -0.10
  52   1     0.06  -0.04   0.01    -0.23   0.11  -0.02    -0.23   0.08  -0.00
  53   1     0.01  -0.04  -0.03     0.12   0.16   0.09     0.18   0.17   0.09
  54   1    -0.01   0.01  -0.00     0.01   0.02  -0.00    -0.03   0.08  -0.00
  55   1     0.00   0.02  -0.00    -0.00  -0.00  -0.03    -0.01   0.01  -0.10
  56   1     0.00   0.01  -0.00    -0.00  -0.01   0.00     0.01  -0.04   0.01
  57   1     0.01   0.03  -0.05    -0.09  -0.12   0.16    -0.11  -0.11   0.16
  58   1     0.01  -0.01   0.03    -0.05   0.11  -0.13    -0.06   0.14  -0.14
  59   1    -0.05   0.04   0.01     0.24  -0.11  -0.03     0.24  -0.09  -0.02
  60   1    -0.00   0.00   0.04     0.01   0.01   0.07    -0.01   0.00   0.05
  61   1    -0.01  -0.01  -0.01     0.01   0.02   0.10    -0.01   0.01   0.03
  62   1    -0.01  -0.00   0.00    -0.01  -0.01  -0.09    -0.01  -0.01   0.02
  63   1    -0.00  -0.00   0.00     0.01   0.01   0.09     0.01  -0.01   0.02
  64   1    -0.01  -0.00  -0.00     0.00   0.00   0.03    -0.01   0.01  -0.10
  65   1    -0.01  -0.00   0.00    -0.00   0.02  -0.00    -0.02  -0.03   0.01
  66   1     0.00  -0.01   0.00     0.00  -0.02   0.00     0.05   0.07  -0.01
  67   1    -0.01   0.03  -0.04    -0.09   0.14  -0.15     0.10  -0.13   0.14
  68   1    -0.00  -0.01   0.03    -0.05  -0.11   0.14     0.07   0.12  -0.14
  69   1     0.06   0.03   0.00     0.26   0.06  -0.01    -0.24  -0.04   0.01
  70   1    -0.02  -0.05  -0.03     0.08  -0.19  -0.11    -0.13   0.19   0.11
  71   1    -0.01   0.00   0.03     0.08   0.15   0.09    -0.12  -0.19  -0.08
  72   1    -0.08  -0.04   0.02    -0.26  -0.06   0.05     0.24   0.03  -0.03
  73   1    -0.00   0.00   0.04    -0.01  -0.01  -0.07     0.01  -0.00   0.04
  74   1    -0.01  -0.01  -0.01    -0.01  -0.02  -0.10     0.01   0.01   0.03
  75   1    -0.04   0.01  -0.01     0.00   0.01  -0.01    -0.01   0.01  -0.04
  76   1    -0.03   0.04   0.04     0.00   0.02  -0.02    -0.01   0.01  -0.00
  77   1    -0.03   0.02   0.02     0.00  -0.00  -0.00     0.01  -0.01   0.03
  78   1    -0.05  -0.03  -0.06     0.00   0.00  -0.00     0.01   0.00  -0.01
  79   1     0.04   0.07   0.04    -0.00  -0.00  -0.00     0.02  -0.00   0.03
  80   1     0.08  -0.02   0.00    -0.00  -0.00  -0.00     0.03  -0.00  -0.00
  81   1     0.04  -0.08  -0.02    -0.00  -0.00   0.00     0.00   0.01  -0.03
  82   1    -0.04  -0.02  -0.04    -0.00  -0.00   0.00    -0.02   0.01  -0.02
  83   1    -0.07   0.05   0.01    -0.00  -0.00  -0.00    -0.03  -0.01   0.02
  84   1    -0.06   0.02   0.02    -0.00   0.00   0.00    -0.01   0.00  -0.02
  85   1     0.02   0.03   0.02    -0.00   0.00   0.00     0.01  -0.01   0.00
  86   1     0.08  -0.00   0.01    -0.00   0.00   0.00     0.02  -0.01   0.01
  87   1     0.02  -0.03  -0.03     0.00   0.00   0.00    -0.00   0.00   0.00
  88   1    -0.05  -0.05  -0.03     0.00   0.00   0.00    -0.02   0.01  -0.01
  89   1     0.04  -0.04  -0.06     0.00   0.00   0.01    -0.01   0.00  -0.00
  90   1     0.05   0.01   0.03     0.00   0.00   0.00    -0.01  -0.01   0.04
  91   1     0.04   0.04   0.03    -0.00  -0.02   0.02     0.01   0.00  -0.01
  92   1     0.04   0.01  -0.01     0.00  -0.01   0.01     0.01   0.01  -0.04
                     25                     26                     27
                        a                      a                      a 
 Frequencies --   182.8929               194.2932               202.9916
 Red. masses --     8.8193                 9.6622                 6.0408
 Frc consts  --     0.0000                 0.0000                 0.0000
 IR Inten    --     0.1333                 0.0307                 0.5945
 Raman Activ --     0.0000                 0.0000                 0.0000
 Depolar     --     0.0000                 0.0000                 0.0000
 Atom AN      X      Y      Z        X      Y      Z        X      Y      Z
   1   6    -0.10   0.03   0.01    -0.07   0.02  -0.01    -0.11   0.09  -0.04
   2   6     0.02  -0.01  -0.00     0.05  -0.03  -0.02    -0.01  -0.00  -0.07
   3   6     0.08  -0.25  -0.01     0.10  -0.20   0.04     0.01   0.02   0.07
   4   6    -0.13   0.04   0.00    -0.00  -0.04  -0.00     0.10  -0.07  -0.04
   5   6     0.14   0.09  -0.00     0.12   0.03  -0.06    -0.02  -0.02  -0.15
   6   6     0.15   0.06   0.01     0.12   0.02  -0.02     0.00   0.02   0.11
   7   6     0.11   0.01  -0.03     0.09  -0.00   0.06     0.01   0.03   0.20
   8   6     0.08   0.01  -0.06     0.05   0.02   0.09     0.01   0.01   0.07
   9   6     0.07   0.07  -0.01     0.04   0.03   0.02    -0.00  -0.01  -0.05
  10   6     0.13   0.10   0.02     0.08   0.05  -0.07    -0.03  -0.04  -0.30
  11   6    -0.05   0.08   0.00    -0.03   0.04   0.03     0.01   0.00   0.05
  12   6    -0.10   0.13   0.04    -0.08   0.06  -0.05     0.03   0.04   0.30
  13   6    -0.12   0.12   0.02    -0.12   0.06  -0.04     0.01   0.02   0.15
  14   6    -0.02  -0.01   0.00    -0.06  -0.02  -0.01     0.00   0.00   0.07
  15   6    -0.14  -0.23   0.01    -0.14  -0.18   0.06    -0.00  -0.01  -0.07
  16   6     0.14   0.01  -0.02    -0.01  -0.04  -0.00     0.11   0.05   0.02
  17   6     0.10   0.01  -0.00     0.07  -0.00  -0.02    -0.12  -0.06   0.05
  18   6    -0.14   0.09   0.02    -0.12   0.05  -0.01    -0.01  -0.02  -0.11
  19   6    -0.11   0.03  -0.02    -0.08   0.02   0.07    -0.02  -0.04  -0.21
  20   6    -0.08   0.02  -0.05    -0.03   0.03   0.10    -0.00  -0.01  -0.07
  21   7    -0.01  -0.05  -0.10     0.01  -0.00   0.14     0.00  -0.00   0.00
  22   6    -0.01  -0.14   0.03     0.00   0.04  -0.05     0.00   0.00   0.00
  23   6    -0.06  -0.14   0.08     0.02   0.10  -0.14     0.01   0.01  -0.01
  24   6    -0.05  -0.03   0.06     0.02   0.07  -0.15     0.01   0.02  -0.02
  25   6     0.01   0.06  -0.00    -0.00  -0.01  -0.07     0.01  -0.00   0.00
  26   6     0.01   0.12  -0.07     0.00  -0.08   0.11     0.01  -0.00  -0.00
  27   6    -0.04   0.10  -0.07     0.03  -0.07   0.15     0.00  -0.00  -0.00
  28   6    -0.04   0.03  -0.02     0.03  -0.03   0.08     0.00  -0.00  -0.00
  29   6     0.00  -0.01   0.03     0.00  -0.01  -0.03     0.00   0.00   0.00
  30   6    -0.00  -0.07   0.09     0.01   0.06  -0.16    -0.00   0.00   0.00
  31   7    -0.00  -0.06   0.06     0.05   0.06  -0.13    -0.00  -0.00   0.00
  32   7     0.00   0.01  -0.02     0.04   0.01   0.04    -0.00  -0.00  -0.00
  33   6     0.00   0.02  -0.04    -0.00  -0.01   0.08    -0.00  -0.00  -0.00
  34   6    -0.01   0.08  -0.08    -0.00  -0.07   0.16    -0.00  -0.00  -0.00
  35   6    -0.04   0.08  -0.08     0.07  -0.07   0.14    -0.01  -0.00  -0.00
  36   6    -0.04   0.02  -0.01     0.09  -0.02   0.02    -0.01  -0.00  -0.00
  37   6     0.01  -0.06   0.06     0.01   0.06  -0.08    -0.01  -0.00  -0.00
  38   6     0.03  -0.01   0.02    -0.06   0.01  -0.04    -0.01  -0.00  -0.00
  39   6     0.02   0.08  -0.05    -0.06  -0.08   0.09    -0.00  -0.00  -0.00
  40   7    -0.00  -0.06   0.06    -0.03   0.06  -0.10    -0.00   0.00   0.00
  41   6    -0.01  -0.06   0.05    -0.05   0.07  -0.11    -0.00   0.00   0.00
  42   6    -0.01  -0.02   0.05    -0.05   0.02  -0.12    -0.00   0.00   0.00
  43   6    -0.01   0.01   0.00     0.00  -0.04  -0.03    -0.00   0.00   0.00
  44   6     0.00  -0.00  -0.03     0.04  -0.04   0.04    -0.00   0.00   0.00
  45   6     0.02  -0.05  -0.03    -0.02   0.03   0.01    -0.00   0.00   0.00
  46   6     0.01  -0.08   0.02    -0.06   0.08  -0.08    -0.00   0.00   0.00
  47   6     0.05   0.02  -0.03    -0.02  -0.03   0.11     0.00   0.00   0.00
  48   6     0.05   0.09  -0.07    -0.01  -0.07   0.20     0.00  -0.00   0.00
  49   6     0.05  -0.04   0.05    -0.02   0.07  -0.14     0.00  -0.02   0.03
  50   6     0.04  -0.15   0.07    -0.02   0.10  -0.13     0.01  -0.01   0.01
  51   1    -0.03   0.00  -0.02    -0.06   0.13   0.04    -0.08   0.18   0.05
  52   1    -0.06   0.02   0.00     0.10  -0.03  -0.01     0.12  -0.00  -0.03
  53   1    -0.02   0.02   0.03    -0.12  -0.08  -0.03    -0.15  -0.08  -0.04
  54   1     0.04  -0.05   0.01     0.07  -0.10  -0.00     0.05  -0.11  -0.02
  55   1    -0.02  -0.11  -0.03     0.00  -0.07   0.06     0.02   0.03   0.17
  56   1     0.06  -0.11   0.01     0.03  -0.04  -0.01    -0.06   0.10  -0.04
  57   1    -0.15  -0.08   0.08    -0.01  -0.02   0.01     0.14   0.07  -0.10
  58   1    -0.10   0.14  -0.08    -0.01   0.00  -0.00     0.09  -0.15   0.09
  59   1     0.10  -0.03  -0.01     0.01  -0.02  -0.00    -0.13   0.01  -0.01
  60   1     0.05   0.02   0.01     0.04   0.00  -0.02     0.00   0.01   0.05
  61   1     0.04  -0.01  -0.01     0.03  -0.01   0.02     0.01   0.02   0.10
  62   1     0.04   0.03   0.02     0.02   0.01  -0.04    -0.01  -0.02  -0.16
  63   1    -0.03   0.04   0.03    -0.02   0.02  -0.03     0.01   0.02   0.16
  64   1    -0.01  -0.11  -0.04    -0.01  -0.08   0.06    -0.01  -0.02  -0.17
  65   1    -0.09  -0.10   0.03    -0.04  -0.03  -0.00    -0.07  -0.08   0.05
  66   1    -0.04  -0.04   0.02    -0.08  -0.08   0.01     0.08   0.10   0.01
  67   1     0.15  -0.11   0.06     0.02  -0.03   0.01     0.13  -0.09   0.07
  68   1     0.12   0.13  -0.09     0.01   0.01  -0.01     0.10   0.13  -0.09
  69   1    -0.11  -0.00   0.01    -0.02  -0.02  -0.00    -0.12   0.02   0.02
  70   1     0.03   0.01   0.03     0.10  -0.11  -0.04    -0.13   0.11   0.06
  71   1     0.02  -0.01  -0.03     0.09   0.11   0.03    -0.12  -0.16  -0.04
  72   1     0.07   0.01  -0.01    -0.10  -0.01   0.00     0.12  -0.02   0.01
  73   1    -0.05   0.03   0.02    -0.04   0.01  -0.01    -0.00  -0.01  -0.05
  74   1    -0.04  -0.00  -0.01    -0.03  -0.00   0.03    -0.01  -0.02  -0.10
  75   1    -0.03  -0.05   0.03     0.01   0.03  -0.04     0.00   0.00  -0.00
  76   1    -0.02   0.00   0.02     0.01   0.02  -0.05     0.00   0.01  -0.01
  77   1    -0.02   0.04  -0.02     0.01  -0.02   0.05     0.00  -0.00  -0.00
  78   1    -0.03   0.00  -0.00     0.02  -0.01   0.02     0.00   0.00  -0.00
  79   1    -0.02   0.03  -0.03     0.03  -0.02   0.05    -0.00  -0.00  -0.00
  80   1    -0.02   0.00   0.00     0.05  -0.00  -0.00    -0.00  -0.00  -0.00
  81   1     0.01  -0.05   0.04     0.00   0.05  -0.06    -0.00  -0.00  -0.00
  82   1     0.02  -0.01   0.02    -0.04   0.01  -0.03    -0.00  -0.00  -0.00
  83   1     0.01   0.03  -0.02    -0.04  -0.03   0.04    -0.00  -0.00  -0.00
  84   1    -0.01  -0.00   0.02    -0.02   0.00  -0.05    -0.00   0.00   0.00
  85   1    -0.01   0.02   0.00     0.01  -0.02  -0.01    -0.00   0.00   0.00
  86   1     0.00   0.01  -0.02     0.03  -0.02   0.04    -0.00   0.00   0.00
  87   1     0.01  -0.02  -0.02    -0.00   0.01   0.02     0.00   0.00   0.00
  88   1     0.00  -0.03   0.00    -0.03   0.04  -0.03    -0.00   0.00   0.00
  89   1     0.03  -0.00  -0.00    -0.01  -0.00   0.03     0.00   0.00   0.00
  90   1     0.03   0.03  -0.02    -0.01  -0.02   0.07     0.00  -0.00  -0.00
  91   1     0.03  -0.00   0.01    -0.01   0.02  -0.04     0.00  -0.01   0.01
  92   1     0.02  -0.06   0.02    -0.01   0.03  -0.04     0.00  -0.00   0.00
                     28                     29                     30
                        a                      a                      a 
 Frequencies --   216.8393               220.5209               225.3708
 Red. masses --     2.7188                 3.9004                 9.6364
 Frc consts  --     0.0000                 0.0000                 0.0000
 IR Inten    --     0.2827                 0.0971                 0.3396
 Raman Activ --     0.0000                 0.0000                 0.0000
 Depolar     --     0.0000                 0.0000                 0.0000
 Atom AN      X      Y      Z        X      Y      Z        X      Y      Z
   1   6    -0.02  -0.02   0.00    -0.12   0.08   0.01    -0.14   0.29   0.04
   2   6    -0.04  -0.01   0.01    -0.02   0.01  -0.02    -0.03   0.14  -0.01
   3   6    -0.07   0.09  -0.01    -0.01  -0.02   0.01     0.00   0.01  -0.00
   4   6    -0.02  -0.02   0.01    -0.08   0.03  -0.02    -0.17   0.28  -0.09
   5   6    -0.05  -0.03   0.01     0.03   0.03  -0.03     0.03   0.13  -0.02
   6   6    -0.05  -0.02  -0.00     0.04  -0.00  -0.00     0.04   0.08  -0.02
   7   6    -0.01   0.01  -0.00     0.04  -0.01   0.05     0.01   0.02  -0.02
   8   6     0.03  -0.01  -0.01     0.04  -0.02   0.04     0.03   0.00  -0.02
   9   6     0.03  -0.01  -0.00     0.03   0.02   0.03     0.02   0.02  -0.01
  10   6    -0.01  -0.04   0.01     0.04   0.03  -0.01     0.07   0.09  -0.01
  11   6     0.04  -0.00  -0.01    -0.02   0.03   0.03     0.02  -0.02   0.01
  12   6     0.00   0.03  -0.01    -0.04   0.04  -0.01     0.05  -0.10   0.01
  13   6    -0.04   0.03   0.00    -0.03   0.04  -0.03     0.00  -0.13   0.01
  14   6    -0.03   0.02   0.00     0.01   0.01  -0.02    -0.06  -0.13   0.02
  15   6    -0.08  -0.07   0.02    -0.00  -0.04   0.01    -0.00  -0.02   0.00
  16   6    -0.03   0.02   0.00     0.08   0.02  -0.04    -0.21  -0.24   0.11
  17   6    -0.03   0.02  -0.00     0.14   0.06  -0.01    -0.20  -0.25  -0.01
  18   6    -0.03   0.03   0.01    -0.05   0.01   0.00     0.02  -0.08   0.01
[...]
  38   6    -0.01   0.00   0.01    -0.08   0.02   0.07    -0.00   0.00   0.00
  39   6    -0.00  -0.00  -0.01    -0.01  -0.02  -0.04    -0.00  -0.00  -0.00
  40   7     0.00  -0.00  -0.00    -0.00   0.00   0.00     0.00   0.00   0.00
  41   6    -0.00   0.00   0.00    -0.00  -0.00  -0.00    -0.00  -0.00   0.00
  42   6     0.00   0.01  -0.00     0.00   0.01  -0.00     0.00   0.01  -0.00
  43   6     0.00   0.00  -0.01     0.01   0.00  -0.01     0.00   0.00  -0.01
  44   6    -0.00   0.00   0.00    -0.00   0.00   0.00    -0.00  -0.00   0.00
  45   6     0.00   0.01  -0.00     0.01   0.01  -0.00     0.00   0.01  -0.00
  46   6     0.00   0.00  -0.00     0.01   0.00  -0.01     0.00   0.00  -0.01
  47   6     0.01   0.02  -0.00    -0.00  -0.01   0.00    -0.00  -0.00   0.00
  48   6    -0.01   0.03   0.00     0.00  -0.01  -0.00     0.00  -0.00  -0.00
  49   6    -0.01   0.02   0.02     0.00  -0.01  -0.01    -0.06   0.10   0.09
  50   6     0.03   0.02   0.02    -0.01  -0.01  -0.01     0.13   0.13   0.12
  51   1    -0.01  -0.00   0.00     0.00   0.00  -0.00     0.00   0.00  -0.00
  52   1     0.00   0.00   0.00    -0.00   0.00   0.00    -0.00  -0.00  -0.00
  53   1     0.00  -0.00   0.00    -0.00   0.00  -0.00    -0.00   0.00  -0.00
  54   1    -0.00  -0.00   0.00     0.00  -0.00  -0.00     0.00  -0.00  -0.00
  55   1     0.00  -0.00   0.00    -0.00   0.00  -0.00    -0.00   0.00  -0.00
  56   1    -0.00  -0.00  -0.00     0.00   0.00   0.00    -0.00  -0.00  -0.00
  57   1     0.00  -0.00  -0.00    -0.00   0.00  -0.00    -0.00   0.00  -0.00
  58   1    -0.01  -0.00   0.00     0.00   0.00  -0.00     0.00   0.00  -0.00
  59   1     0.00   0.00  -0.00    -0.00  -0.00   0.00     0.00  -0.00   0.00
  60   1    -0.04  -0.13   0.03     0.01   0.02  -0.00     0.00   0.01  -0.00
  61   1    -0.14  -0.03   0.02     0.02   0.00  -0.00     0.01   0.00  -0.00
  62   1    -0.00  -0.00   0.00     0.00   0.00  -0.00     0.00   0.00  -0.00
  63   1     0.00  -0.00   0.00     0.00  -0.00  -0.00     0.00  -0.00  -0.00
  64   1     0.00   0.00  -0.00    -0.00  -0.00   0.00    -0.00  -0.00   0.00
  65   1     0.00  -0.00  -0.00     0.00   0.00   0.00     0.00  -0.00  -0.00
  66   1    -0.00  -0.00   0.00     0.00   0.00  -0.00     0.00   0.00  -0.00
  67   1     0.00   0.00  -0.00    -0.00  -0.00   0.00    -0.00  -0.00   0.00
  68   1     0.00  -0.00   0.00    -0.00   0.00  -0.00     0.01  -0.00   0.00
  69   1    -0.00   0.00  -0.00     0.00  -0.00   0.00    -0.00   0.00  -0.00
  70   1     0.00   0.00  -0.00    -0.00  -0.00   0.00    -0.00  -0.00   0.00
  71   1     0.00  -0.00   0.00    -0.00   0.00  -0.00     0.01  -0.00   0.00
  72   1    -0.00  -0.00  -0.00     0.00   0.00   0.00    -0.00   0.00   0.00
  73   1     0.01  -0.04   0.01    -0.00   0.01  -0.00     0.01  -0.07   0.01
  74   1     0.04  -0.02   0.00    -0.01   0.00  -0.00     0.09  -0.04   0.00
  75   1     0.31  -0.54  -0.49    -0.05   0.09   0.08    -0.07   0.12   0.11
  76   1    -0.24  -0.24  -0.22     0.04   0.04   0.04     0.06   0.06   0.05
  77   1    -0.02  -0.03   0.00    -0.00  -0.00   0.00    -0.04  -0.06   0.00
  78   1    -0.00   0.01   0.00    -0.00   0.00   0.00    -0.02   0.04   0.00
  79   1    -0.04   0.01   0.04    -0.24   0.04   0.23    -0.00   0.00   0.00
  80   1     0.02   0.03   0.07     0.10   0.20   0.45     0.00   0.00   0.01
  81   1     0.09   0.03   0.02     0.56   0.17   0.13     0.01   0.00   0.00
  82   1     0.04  -0.01  -0.04     0.26  -0.05  -0.24     0.01  -0.00  -0.01
  83   1     0.01   0.01   0.03     0.04   0.07   0.15     0.00   0.00   0.00
  84   1    -0.01  -0.02   0.01    -0.01  -0.02   0.01    -0.01  -0.02   0.01
  85   1    -0.01  -0.00   0.02    -0.02  -0.00   0.03    -0.02  -0.00   0.02
  86   1     0.00  -0.00  -0.00     0.00  -0.00  -0.00    -0.00   0.00   0.00
  87   1    -0.01  -0.02   0.01    -0.02  -0.05   0.01    -0.01  -0.03   0.01
  88   1    -0.01  -0.00   0.01    -0.02  -0.00   0.03    -0.01  -0.00   0.02
  89   1    -0.04  -0.06   0.00     0.01   0.02  -0.00     0.01   0.01  -0.00
  90   1     0.05  -0.11  -0.00    -0.01   0.03   0.00    -0.00   0.01   0.00
  91   1     0.04  -0.07  -0.06    -0.01   0.02   0.02     0.20  -0.35  -0.31
  92   1    -0.09  -0.09  -0.08     0.02   0.02   0.02    -0.46  -0.45  -0.43
                    265                    266                    267
                        a                      a                      a 
 Frequencies --  3096.5711              3103.0030              3107.2825
 Red. masses --     1.8823                 1.9262                 1.8603
 Frc consts  --     0.0000                 0.0000                 0.0000
 IR Inten    --    53.7140                26.8666                13.0280
 Raman Activ --     0.0000                 0.0000                 0.0000
 Depolar     --     0.0000                 0.0000                 0.0000
 Atom AN      X      Y      Z        X      Y      Z        X      Y      Z
   1   6    -0.00   0.00  -0.00     0.00  -0.00  -0.00     0.00  -0.00   0.00
   2   6    -0.00   0.00  -0.00     0.00  -0.00  -0.00     0.00  -0.00   0.00
   3   6    -0.00   0.00  -0.00     0.00  -0.00  -0.00     0.00  -0.00   0.00
   4   6    -0.00   0.00  -0.00     0.00  -0.00  -0.00     0.00  -0.00   0.00
   5   6     0.00   0.00  -0.00    -0.00  -0.00   0.00    -0.00  -0.00   0.00
   6   6     0.00   0.00  -0.00    -0.00  -0.00   0.00    -0.00  -0.00   0.00
   7   6    -0.00  -0.00   0.00     0.00   0.00   0.00     0.00   0.00  -0.00
   8   6    -0.00   0.00  -0.00     0.00  -0.00  -0.00     0.00  -0.00  -0.00
   9   6     0.00   0.00  -0.00    -0.00  -0.00   0.00    -0.00  -0.00   0.00
  10   6     0.00   0.00  -0.00    -0.00  -0.00   0.00    -0.00  -0.00   0.00
  11   6     0.00  -0.00  -0.00    -0.00   0.00  -0.00    -0.00   0.00  -0.00
  12   6     0.00  -0.00   0.00    -0.00   0.00   0.00    -0.00   0.00   0.00
  13   6    -0.00  -0.00   0.00    -0.00   0.00  -0.00     0.00   0.00  -0.00
  14   6    -0.00  -0.00  -0.00     0.00   0.00  -0.00     0.00   0.00  -0.00
  15   6    -0.00  -0.00  -0.00     0.00   0.00  -0.00     0.00   0.00  -0.00
  16   6     0.00  -0.00  -0.00     0.00   0.00  -0.00    -0.00   0.00  -0.00
  17   6    -0.00  -0.00  -0.00     0.00   0.00  -0.00    -0.00   0.00  -0.00
  18   6     0.00  -0.00   0.00     0.00  -0.00   0.00    -0.00   0.00  -0.00
  19   6     0.00  -0.00   0.00     0.00  -0.00   0.00    -0.00   0.00  -0.00
  20   6     0.00   0.00  -0.00     0.00   0.00  -0.00     0.00   0.00   0.00
  21   7     0.00  -0.00   0.00    -0.00   0.00   0.00    -0.00   0.00   0.00
  22   6    -0.00   0.00   0.00     0.00  -0.00  -0.00     0.00  -0.00  -0.00
  23   6     0.00  -0.00  -0.00     0.00  -0.00  -0.00     0.00  -0.00  -0.00
  24   6    -0.00  -0.00  -0.00    -0.00  -0.00  -0.00     0.00   0.00   0.00
  25   6     0.00   0.00   0.00    -0.00   0.00   0.00    -0.00   0.00   0.00
  26   6     0.00   0.00  -0.00     0.00  -0.00  -0.00     0.00  -0.00  -0.00
  27   6    -0.00  -0.00   0.00     0.00   0.00  -0.00     0.05   0.06  -0.00
  28   6    -0.00   0.00   0.00    -0.00   0.00   0.00    -0.11   0.24   0.02
  29   6    -0.00  -0.00   0.00     0.00   0.00   0.00    -0.01   0.00   0.00
  30   6     0.00   0.00  -0.00     0.00   0.00   0.00     0.00   0.00   0.00
  31   7    -0.00  -0.00  -0.00     0.00  -0.00  -0.00    -0.00  -0.00   0.00
  32   7    -0.00  -0.00   0.00    -0.00  -0.00  -0.00     0.00  -0.00  -0.00
  33   6    -0.00   0.00  -0.00    -0.00   0.00   0.00    -0.00  -0.00  -0.00
  34   6    -0.00  -0.00   0.00    -0.00  -0.00  -0.00    -0.00  -0.00  -0.00
  35   6    -0.02   0.00   0.01     0.00  -0.00  -0.00     0.00  -0.00  -0.00
  36   6     0.00   0.01   0.01    -0.00  -0.00  -0.00    -0.00   0.00   0.00
  37   6     0.01   0.00   0.00    -0.00  -0.00  -0.00     0.00   0.00   0.00
  38   6     0.00  -0.00  -0.00    -0.00   0.00   0.00     0.00  -0.00  -0.00
  39   6     0.00   0.00   0.00    -0.00  -0.00  -0.00    -0.00  -0.01  -0.01
  40   7     0.00   0.00   0.00     0.00  -0.00  -0.00     0.00   0.00   0.00
  41   6    -0.00  -0.00   0.00    -0.00   0.00   0.00    -0.00  -0.00  -0.00
  42   6     0.05   0.11  -0.03     0.03   0.06  -0.02    -0.00  -0.00   0.00
  43   6     0.09   0.01  -0.13     0.08   0.01  -0.11    -0.00  -0.00   0.00
  44   6     0.00  -0.01  -0.01     0.02  -0.15  -0.10    -0.00   0.00   0.00
  45   6     0.06   0.13  -0.04    -0.06  -0.13   0.04    -0.00  -0.00   0.00
  46   6     0.07   0.01  -0.10    -0.04  -0.00   0.06    -0.00   0.00   0.00
  47   6    -0.01  -0.01   0.00     0.00   0.00  -0.00    -0.00  -0.00   0.00
  48   6     0.00  -0.01  -0.00     0.00  -0.00  -0.00     0.00  -0.00  -0.00
  49   6     0.00  -0.01  -0.01    -0.00   0.00   0.00    -0.00   0.00   0.00
  50   6    -0.01  -0.01  -0.01     0.00   0.00   0.00     0.00   0.00   0.00
  51   1    -0.00  -0.00   0.00     0.00  -0.00  -0.00    -0.00  -0.00   0.00
  52   1     0.00   0.00   0.00     0.00   0.00   0.00     0.00  -0.00  -0.00
  53   1     0.00  -0.00   0.00    -0.00   0.00  -0.00    -0.00   0.00  -0.00
  54   1    -0.00  -0.00   0.00     0.00  -0.00   0.00     0.00  -0.00  -0.00
  55   1     0.00  -0.00   0.00    -0.00   0.00  -0.00    -0.00   0.00  -0.00
  56   1     0.00   0.00   0.00     0.00   0.00   0.00     0.00  -0.00   0.00
  57   1     0.00  -0.00   0.00    -0.00   0.00  -0.00    -0.00   0.00  -0.00
  58   1    -0.00   0.00  -0.00     0.00   0.00  -0.00    -0.00  -0.00   0.00
  59   1    -0.00  -0.00   0.00     0.00  -0.00   0.00     0.00  -0.00  -0.00
  60   1    -0.00  -0.00   0.00     0.00   0.00  -0.00     0.00   0.00  -0.00
  61   1     0.00   0.00  -0.00    -0.00  -0.00   0.00    -0.00  -0.00   0.00
  62   1    -0.00  -0.00   0.00     0.00   0.00  -0.00     0.00   0.00  -0.00
  63   1    -0.00   0.00   0.00     0.00  -0.00  -0.00     0.00  -0.00  -0.00
  64   1     0.00   0.00  -0.00    -0.00  -0.00   0.00    -0.00  -0.00   0.00
  65   1    -0.00   0.00   0.00     0.00  -0.00  -0.00     0.00  -0.00  -0.00
  66   1     0.00  -0.00   0.00     0.00  -0.00   0.00     0.00  -0.00   0.00
  67   1     0.00   0.00  -0.00    -0.00  -0.00   0.00    -0.00  -0.00   0.00
  68   1    -0.00   0.00  -0.00    -0.00   0.00  -0.00     0.00  -0.00   0.00
  69   1     0.00  -0.00   0.00     0.00  -0.00   0.00     0.00   0.00  -0.00
  70   1     0.00   0.00  -0.00    -0.00  -0.00   0.00    -0.00  -0.00   0.00
  71   1    -0.00   0.00  -0.00    -0.00   0.00  -0.00     0.00  -0.00   0.00
  72   1     0.00   0.00   0.00     0.00  -0.00  -0.00     0.00  -0.00  -0.00
  73   1    -0.00   0.00  -0.00    -0.00   0.00  -0.00     0.00  -0.00   0.00
  74   1    -0.00   0.00  -0.00    -0.00   0.00  -0.00     0.00  -0.00   0.00
  75   1    -0.00   0.00   0.00    -0.00   0.00   0.00    -0.00   0.00   0.00
  76   1     0.01   0.01   0.00     0.00   0.00   0.00    -0.00  -0.00  -0.00
  77   1     0.00   0.00  -0.00    -0.00  -0.00   0.00    -0.14  -0.19   0.01
  78   1     0.00  -0.01  -0.00     0.00  -0.00  -0.00     0.39  -0.84  -0.05
  79   1     0.05  -0.01  -0.05    -0.00   0.00  -0.00    -0.00   0.00   0.00
  80   1    -0.01  -0.02  -0.05     0.00   0.00   0.01    -0.00  -0.00  -0.00
  81   1    -0.04  -0.01  -0.01     0.01   0.00   0.00    -0.00  -0.00  -0.00
  82   1    -0.01   0.00   0.01     0.01  -0.00  -0.01    -0.01   0.00   0.01
  83   1    -0.00  -0.00  -0.00     0.00   0.00   0.00     0.01   0.02   0.05
  84   1    -0.18  -0.37   0.11    -0.09  -0.19   0.05     0.01   0.01  -0.00
  85   1    -0.29  -0.03   0.44    -0.25  -0.03   0.37     0.00   0.00  -0.00
  86   1    -0.00   0.04   0.02    -0.08   0.49   0.35     0.00  -0.00  -0.00
  87   1    -0.22  -0.44   0.13     0.21   0.43  -0.13     0.00   0.00  -0.00
  88   1    -0.24  -0.02   0.35     0.13   0.01  -0.20     0.00   0.00  -0.00
  89   1     0.03   0.05  -0.00    -0.00  -0.00   0.00     0.01   0.01  -0.00
  90   1    -0.01   0.03   0.00    -0.00   0.01   0.00    -0.00   0.00  -0.00
  91   1    -0.01   0.02   0.02     0.00  -0.00  -0.00     0.01  -0.01  -0.01
  92   1     0.03   0.03   0.03    -0.00  -0.00  -0.00    -0.01  -0.01  -0.01
                    268                    269                    270
                        a                      a                      a 
 Frequencies --  3108.2629              3114.7894              3118.1853
 Red. masses --     1.8641                 1.8212                 1.8163
 Frc consts  --     0.0000                 0.0000                 0.0000
 IR Inten    --    14.4093                 1.0791                35.3836
 Raman Activ --     0.0000                 0.0000                 0.0000
 Depolar     --     0.0000                 0.0000                 0.0000
 Atom AN      X      Y      Z        X      Y      Z        X      Y      Z
   1   6    -0.00   0.00   0.00    -0.00  -0.00  -0.00    -0.00  -0.00  -0.00
   2   6    -0.00   0.00  -0.00    -0.00  -0.00   0.00    -0.00  -0.00   0.00
   3   6    -0.00   0.00  -0.00    -0.00  -0.00   0.00    -0.00  -0.00   0.00
   4   6    -0.00   0.00  -0.00    -0.00  -0.00   0.00    -0.00  -0.00   0.00
   5   6     0.00  -0.00  -0.00    -0.01   0.00  -0.00    -0.01   0.00  -0.00
   6   6    -0.00  -0.00   0.00     0.00   0.00  -0.00     0.00   0.00  -0.00
   7   6    -0.00  -0.00   0.00     0.00   0.00  -0.00     0.00   0.00  -0.00
   8   6    -0.00   0.00   0.00     0.00   0.00  -0.00     0.00   0.00  -0.00
   9   6     0.00   0.00  -0.00    -0.00  -0.01   0.00    -0.00  -0.00   0.00
  10   6     0.00   0.00  -0.00    -0.18  -0.04   0.02    -0.19  -0.04   0.02
  11   6     0.00  -0.00   0.00     0.00  -0.01   0.00    -0.00   0.01  -0.00
  12   6     0.00  -0.00   0.00     0.18  -0.08  -0.00    -0.17   0.08   0.00
  13   6     0.00  -0.00   0.00     0.01   0.00  -0.00    -0.01  -0.00   0.00
  14   6    -0.00  -0.00  -0.00     0.00  -0.00   0.00    -0.00   0.00   0.00
  15   6    -0.00  -0.00  -0.00     0.00  -0.00   0.00    -0.00   0.00  -0.00
  16   6    -0.00  -0.00   0.00     0.00  -0.00   0.00    -0.00   0.00  -0.00
  17   6    -0.00  -0.00  -0.00     0.00  -0.00  -0.00    -0.00   0.00   0.00
  18   6    -0.00  -0.00   0.00    -0.00   0.01  -0.00     0.00  -0.00   0.00
  19   6    -0.00   0.00  -0.00    -0.00   0.00  -0.00     0.00  -0.00   0.00
  20   6    -0.00  -0.00  -0.00    -0.00   0.00   0.00     0.00  -0.00   0.00
  21   7     0.00  -0.00  -0.00     0.00   0.00  -0.00    -0.00   0.00   0.00
  22   6    -0.00   0.00   0.00     0.00   0.00  -0.00     0.00  -0.00  -0.00
  23   6    -0.00   0.00   0.00     0.00  -0.00  -0.00    -0.00   0.00   0.00
  24   6    -0.00  -0.00  -0.00    -0.00  -0.00  -0.00     0.00   0.00   0.00
  25   6     0.00  -0.00  -0.00     0.00   0.00   0.00     0.00  -0.00  -0.00
  26   6    -0.00   0.00   0.00    -0.00   0.00  -0.00     0.00   0.00  -0.00
  27   6    -0.00  -0.00   0.00    -0.00  -0.00   0.00    -0.00  -0.00  -0.00
  28   6     0.01  -0.01  -0.00     0.00  -0.00  -0.00     0.00  -0.00  -0.00
  29   6     0.00  -0.00  -0.00     0.00   0.00  -0.00     0.00  -0.00  -0.00
  30   6    -0.00   0.00  -0.00    -0.00  -0.00  -0.00     0.00   0.00   0.00
  31   7     0.00   0.00   0.00     0.00   0.00   0.00     0.00  -0.00   0.00
  32   7    -0.00   0.00   0.00    -0.00   0.00   0.00    -0.00  -0.00  -0.00
  33   6     0.00  -0.00  -0.00     0.00  -0.00  -0.00    -0.00   0.00   0.00
  34   6    -0.01  -0.00  -0.00    -0.00  -0.00  -0.00     0.00   0.00   0.00
  35   6    -0.00   0.00   0.01     0.00  -0.00  -0.00    -0.00   0.00   0.00
  36   6     0.00   0.00   0.01    -0.00  -0.00  -0.00     0.00   0.00   0.00
  37   6     0.02   0.01   0.01     0.00   0.00   0.00     0.00   0.00   0.00
  38   6     0.06  -0.01  -0.05     0.00  -0.00  -0.00     0.00  -0.00  -0.00
  39   6    -0.06  -0.11  -0.23    -0.00  -0.00  -0.00    -0.00  -0.00  -0.00
  40   7     0.00  -0.00  -0.00    -0.00   0.00   0.00     0.00  -0.00  -0.00
  41   6    -0.00   0.00   0.00     0.00  -0.00  -0.00     0.00   0.00   0.00
  42   6    -0.00  -0.00   0.00    -0.00  -0.00   0.00     0.00   0.00  -0.00
  43   6    -0.00  -0.00   0.00     0.00   0.00  -0.00    -0.00  -0.00   0.00
  44   6    -0.00   0.00   0.00     0.00  -0.00  -0.00    -0.00   0.00   0.00
  45   6    -0.00  -0.00   0.00    -0.00  -0.00   0.00     0.00   0.00  -0.00
  46   6    -0.00  -0.00   0.00     0.00   0.00  -0.00     0.00   0.00  -0.00
  47   6     0.00   0.00  -0.00    -0.00  -0.00   0.00     0.00   0.00  -0.00
  48   6    -0.00   0.00   0.00     0.00  -0.00  -0.00    -0.00   0.00   0.00
  49   6     0.00  -0.00  -0.00     0.00  -0.00  -0.00     0.00  -0.00  -0.00
  50   6    -0.00  -0.00  -0.00    -0.00  -0.00  -0.00    -0.00  -0.00  -0.00
  51   1     0.00   0.00  -0.00     0.00   0.00  -0.00     0.00   0.00  -0.00
  52   1    -0.00   0.00   0.00     0.00   0.00   0.00     0.00   0.00   0.00
  53   1     0.00  -0.00   0.00     0.00  -0.00  -0.00     0.00  -0.00  -0.00
  54   1    -0.00  -0.00   0.00     0.00   0.01  -0.01     0.00   0.01  -0.01
  55   1     0.00  -0.00   0.00    -0.00   0.00  -0.00    -0.00   0.00  -0.00
  56   1    -0.00   0.00   0.00     0.00   0.01   0.01     0.00   0.01   0.01
  57   1     0.00  -0.00   0.00     0.00  -0.00   0.00     0.00  -0.00   0.00
  58   1     0.00   0.00  -0.00     0.00   0.00  -0.00     0.00   0.00  -0.00
  59   1    -0.00  -0.00   0.00    -0.00   0.00  -0.00    -0.00   0.00  -0.00
  60   1     0.00   0.00  -0.00    -0.01  -0.02   0.00    -0.01  -0.02   0.00
  61   1     0.00   0.00  -0.00    -0.01  -0.00   0.00    -0.00  -0.00   0.00
  62   1    -0.00  -0.00   0.00     0.65   0.14  -0.07     0.67   0.14  -0.07
  63   1    -0.00   0.00   0.00    -0.63   0.27   0.02     0.62  -0.27  -0.02
  64   1     0.00   0.00  -0.00     0.00   0.00  -0.00    -0.00  -0.00   0.00
  65   1    -0.00   0.00   0.00    -0.00   0.01   0.01     0.00  -0.01  -0.01
  66   1    -0.00   0.00  -0.00    -0.00   0.01  -0.01     0.00  -0.01   0.01
  67   1     0.00   0.00  -0.00    -0.00  -0.00   0.00     0.00   0.00  -0.00
  68   1     0.00  -0.00   0.00    -0.00   0.00   0.00     0.00  -0.00  -0.00
  69   1    -0.00   0.00  -0.00     0.00   0.00  -0.00    -0.00  -0.00   0.00
  70   1     0.00   0.00  -0.00    -0.00  -0.00  -0.00     0.00   0.00  -0.00
  71   1     0.00  -0.00   0.00    -0.00   0.00  -0.00     0.00  -0.00   0.00
  72   1    -0.00   0.00   0.00     0.00   0.00   0.00    -0.00  -0.00  -0.00
  73   1    -0.00   0.00  -0.00     0.00  -0.02   0.00    -0.00   0.02  -0.00
  74   1     0.00  -0.00   0.00     0.01  -0.00   0.00    -0.00   0.00  -0.00
  75   1     0.00  -0.00  -0.00    -0.00   0.00   0.00     0.00  -0.00  -0.00
  76   1     0.00   0.00   0.00     0.00   0.00   0.00    -0.00  -0.00  -0.00
  77   1     0.01   0.01  -0.00     0.00   0.00  -0.00     0.00   0.00   0.00
  78   1    -0.02   0.05   0.00    -0.00   0.00   0.00    -0.00   0.00   0.00
  79   1     0.01  -0.00  -0.01    -0.00   0.00   0.00    -0.00   0.00   0.00
  80   1    -0.00  -0.01  -0.02     0.00   0.00   0.00    -0.00  -0.00  -0.00
  81   1    -0.08  -0.02  -0.02    -0.00  -0.00  -0.00    -0.00  -0.00  -0.00
  82   1    -0.17   0.03   0.16    -0.00   0.00   0.00    -0.00   0.00   0.00
  83   1     0.20   0.39   0.81     0.00   0.00   0.00     0.00   0.00   0.00
  84   1     0.00   0.00  -0.00     0.00   0.00  -0.00    -0.00  -0.00   0.00
  85   1     0.00   0.00  -0.00    -0.00  -0.00   0.00     0.00   0.00  -0.00
  86   1     0.00  -0.00  -0.00    -0.00   0.00   0.00     0.00  -0.00  -0.00
  87   1     0.00   0.00  -0.00     0.00   0.00  -0.00    -0.00  -0.00   0.00
  88   1     0.01   0.00  -0.01    -0.00  -0.00   0.00    -0.00  -0.00   0.00
  89   1    -0.00  -0.00   0.00     0.00   0.00  -0.00    -0.00  -0.00   0.00
  90   1     0.00  -0.00  -0.00    -0.00   0.00   0.00     0.00  -0.00  -0.00
  91   1    -0.00   0.00   0.00    -0.00   0.00   0.00    -0.00   0.00   0.00
  92   1     0.00   0.00   0.00     0.00   0.00   0.00     0.00   0.00   0.00
