 Entering Gaussian System
 *********************************************
 Gaussian 98:
 frequency output generated by the xtb code
 *********************************************
                         Standard orientation:
 --------------------------------------------------------------------
  Center     Atomic     Atomic              Coordinates (Angstroms)
  Number     Number      Type              X           Y           Z
 --------------------------------------------------------------------
    1          6             0       -5.657714    1.687349   -0.046826
    2          6             0       -4.982053    0.937440   -0.995568
    3          6             0       -3.601170    0.870470   -0.976625
    4          6             0       -2.874430    1.555770   -0.007159
    5          6             0       -1.399951    1.512544    0.011825
    6          6             0       -0.689732    2.708878    0.010276
    7          6             0        0.689767    2.708873   -0.010045
    8          6             0        1.399976    1.512533   -0.011702
    9          6             0        2.874455    1.555751    0.007273
   10          6             0        3.601208    0.870341    0.976652
   11          6             0        4.982090    0.937302    0.995580
   12          6             0        5.657740    1.687314    0.046911
   13          6             0        4.943129    2.379021   -0.916828
   14          6             0        3.561414    2.318749   -0.933105
   15          6             0        0.699556    0.300905   -0.003487
   16          6             0        1.438680   -0.979279   -0.010132
   17          6             0        1.256670   -1.909610    1.008312
   18          6             0        1.955794   -3.102554    1.001201
   19          6             0        2.841395   -3.384327   -0.025667
   20          6             0        3.026859   -2.464965   -1.044683
   21          6             0        2.333159   -1.268919   -1.035840
   22          6             0       -0.699542    0.300911    0.003516
   23          6             0       -1.438687   -0.979262    0.010069
   24          6             0       -1.256697   -1.909525   -1.008441
   25          6             0       -1.955848   -3.102454   -1.001415
   26          6             0       -2.841456   -3.384280    0.025434
   27          6             0       -3.026896   -2.464988    1.044516
   28          6             0       -2.333169   -1.268957    1.035759
   29          6             0       -3.561399    2.318666    0.933294
   30          6             0       -4.943114    2.378944    0.917003
   31          1             0       -6.737000    1.734790   -0.060436
   32          1             0       -5.533529    0.402118   -1.755222
   33          1             0       -3.079271    0.291849   -1.724558
   34          1             0       -1.231202    3.644003    0.006136
   35          1             0        1.231244    3.643994   -0.005831
   36          1             0        3.079321    0.291635    1.724527
   37          1             0        5.533575    0.401906    1.755175
   38          1             0        6.737028    1.734771    0.060526
   39          1             0        5.464128    2.968005   -1.658333
   40          1             0        3.005939    2.853075   -1.691325
   41          1             0        0.571998   -1.688517    1.814802
   42          1             0        1.808918   -3.814764    1.800634
   43          1             0        3.385945   -4.317447   -0.031432
   44          1             0        3.715652   -2.679805   -1.849254
   45          1             0        2.475855   -0.554333   -1.834234
   46          1             0       -0.572022   -1.688389   -1.814917
   47          1             0       -1.808992   -3.814607   -1.800901
   48          1             0       -3.386030   -4.317386    0.031129
   49          1             0       -3.715690   -2.679871    1.849075
   50          1             0       -2.475847   -0.554427    1.834205
   51          1             0       -3.005933    2.852918    1.691571
   52          1             0       -5.464123    2.967845    1.658567
 --------------------------------------------------------------------
     1 basis functions        1 primitive gaussians
     1 alpha electrons        1 beta electrons
 
 Harmonic frequencies (cm**-1), IR intensities (km*mol⁻¹),
 Raman scattering activities (A**4/amu), Raman depolarization ratios,
 reduced masses (AMU), force constants (mDyne/A) and normal coordinates:
                      1                      2                      3
                        a                      a                      a 
 Frequencies --    25.8661                26.5237                39.1378
 Red. masses --    10.4285                10.7417                10.2071
 Frc consts  --     0.0000                 0.0000                 0.0000
 IR Inten    --     0.0099                 0.0000                 0.0024
 Raman Activ --     0.0000                 0.0000                 0.0000
 Depolar     --     0.0000                 0.0000                 0.0000
 Atom AN      X      Y      Z        X      Y      Z        X      Y      Z
   1   6    -0.02   0.05   0.27     0.00   0.02  -0.17     0.00  -0.19  -0.02
   2   6    -0.14  -0.08   0.29     0.03  -0.06  -0.08     0.07   0.04  -0.16
   3   6    -0.14  -0.09   0.13     0.03  -0.07  -0.03     0.07   0.13  -0.14
   4   6    -0.02   0.01  -0.03     0.00  -0.01  -0.05     0.00  -0.01  -0.00
   5   6    -0.02  -0.00  -0.15    -0.00  -0.01  -0.01     0.01   0.03   0.01
   6   6    -0.02  -0.00  -0.24    -0.00  -0.01  -0.02    -0.00   0.03   0.01
   7   6    -0.02   0.00  -0.24     0.00  -0.01   0.02     0.00   0.03  -0.01
   8   6    -0.02   0.00  -0.15     0.00  -0.01   0.01    -0.01   0.03  -0.01
   9   6    -0.02  -0.01  -0.03    -0.00  -0.01   0.05    -0.00  -0.01   0.00
  10   6    -0.14   0.09   0.13    -0.03  -0.07   0.03    -0.07   0.13   0.14
  11   6    -0.14   0.08   0.29    -0.03  -0.06   0.08    -0.07   0.04   0.16
  12   6    -0.02  -0.05   0.27    -0.00   0.02   0.16    -0.00  -0.19   0.02
  13   6     0.09  -0.15   0.11     0.02   0.09   0.19     0.06  -0.32  -0.12
  14   6     0.10  -0.13  -0.04     0.03   0.07   0.13     0.06  -0.22  -0.12
  15   6    -0.02   0.00  -0.12    -0.00  -0.01  -0.01    -0.00   0.03  -0.01
  16   6     0.00   0.01  -0.08     0.01  -0.01  -0.09     0.03   0.05  -0.03
  17   6    -0.00   0.02  -0.07     0.06  -0.07  -0.14     0.06   0.02  -0.05
  18   6     0.03   0.04  -0.04     0.07  -0.07  -0.25     0.12   0.06  -0.06
  19   6     0.06   0.04  -0.02     0.01   0.00  -0.32     0.15   0.12  -0.06
  20   6     0.06   0.04  -0.02    -0.04   0.07  -0.27     0.10   0.14  -0.05
  21   6     0.03   0.02  -0.05    -0.05   0.06  -0.16     0.04   0.10  -0.03
  22   6    -0.02  -0.00  -0.12     0.00  -0.01   0.01     0.00   0.03   0.01
  23   6     0.00  -0.01  -0.07    -0.01  -0.01   0.09    -0.03   0.05   0.03
  24   6    -0.00  -0.02  -0.07    -0.06  -0.07   0.14    -0.06   0.02   0.05
  25   6     0.03  -0.04  -0.04    -0.07  -0.07   0.26    -0.12   0.06   0.06
  26   6     0.06  -0.04  -0.01    -0.01   0.00   0.32    -0.15   0.12   0.06
  27   6     0.06  -0.04  -0.02     0.04   0.07   0.27    -0.10   0.14   0.05
  28   6     0.03  -0.02  -0.05     0.04   0.06   0.16    -0.04   0.10   0.03
  29   6     0.09   0.13  -0.04    -0.03   0.07  -0.13    -0.06  -0.22   0.12
  30   6     0.09   0.15   0.11    -0.03   0.08  -0.19    -0.06  -0.32   0.12
  31   1    -0.01   0.02   0.11     0.00   0.01  -0.06    -0.00  -0.08  -0.01
  32   1    -0.07  -0.05   0.12     0.02  -0.03  -0.02     0.03   0.04  -0.08
  33   1    -0.07  -0.06   0.04     0.01  -0.04   0.01     0.04   0.09  -0.07
  34   1    -0.00  -0.00  -0.09     0.00  -0.00  -0.01    -0.00   0.01   0.01
  35   1    -0.00   0.00  -0.09    -0.00  -0.00   0.01     0.00   0.01  -0.01
  36   1    -0.07   0.06   0.04    -0.01  -0.04  -0.01    -0.04   0.09   0.07
  37   1    -0.07   0.05   0.12    -0.01  -0.03   0.02    -0.03   0.04   0.08
  38   1    -0.01  -0.02   0.11    -0.00   0.01   0.06     0.00  -0.08   0.01
  39   1     0.05  -0.07   0.03     0.01   0.04   0.07     0.03  -0.14  -0.06
  40   1     0.05  -0.06  -0.05     0.01   0.03   0.04     0.03  -0.09  -0.06
  41   1    -0.01   0.00  -0.03     0.03  -0.04  -0.03     0.01  -0.01  -0.01
  42   1     0.01   0.01  -0.01     0.03  -0.03  -0.08     0.04   0.01  -0.02
  43   1     0.02   0.02   0.00     0.00   0.00  -0.12     0.06   0.04  -0.02
  44   1     0.02   0.01  -0.00    -0.02   0.03  -0.09     0.03   0.05  -0.01
  45   1     0.01   0.00  -0.02    -0.03   0.03  -0.03     0.00   0.03  -0.01
  46   1    -0.01  -0.00  -0.02    -0.03  -0.04   0.03    -0.01  -0.01   0.01
  47   1     0.01  -0.01  -0.01    -0.03  -0.03   0.08    -0.04   0.01   0.02
  48   1     0.02  -0.02   0.00    -0.00   0.00   0.12    -0.06   0.04   0.02
  49   1     0.02  -0.01  -0.00     0.02   0.03   0.09    -0.03   0.05   0.01
  50   1     0.01  -0.00  -0.02     0.03   0.03   0.03    -0.00   0.03   0.01
  51   1     0.05   0.06  -0.05    -0.01   0.03  -0.04    -0.03  -0.09   0.06
  52   1     0.05   0.07   0.03    -0.01   0.04  -0.07    -0.03  -0.14   0.06
                      4                      5                      6
                        a                      a                      a 
 Frequencies --    42.7834                50.8758                62.0331
 Red. masses --    10.5500                10.6109                10.3006
 Frc consts  --     0.0000                 0.0000                 0.0000
 IR Inten    --     0.0152                 0.0293                 0.0022
 Raman Activ --     0.0000                 0.0000                 0.0000
 Depolar     --     0.0000                 0.0000                 0.0000
 Atom AN      X      Y      Z        X      Y      Z        X      Y      Z
   1   6     0.05  -0.23   0.15    -0.02  -0.22   0.01     0.03   0.23  -0.09
   2   6     0.04  -0.07   0.01     0.04  -0.15  -0.01     0.02   0.32  -0.17
   3   6     0.04   0.03  -0.09     0.05  -0.01  -0.03     0.01   0.19  -0.09
   4   6     0.06  -0.03  -0.06    -0.00   0.05  -0.04     0.01  -0.00   0.05
   5   6     0.06   0.01  -0.11    -0.00   0.12  -0.03     0.01  -0.04   0.05
   6   6     0.06   0.01  -0.16    -0.00   0.12  -0.01     0.00  -0.04   0.03
   7   6     0.06  -0.01  -0.16     0.00   0.12   0.01    -0.00  -0.04  -0.03
   8   6     0.06  -0.01  -0.11     0.00   0.12   0.03    -0.01  -0.04  -0.05
   9   6     0.06   0.03  -0.06     0.00   0.05   0.04    -0.01  -0.00  -0.05
  10   6     0.04  -0.03  -0.09    -0.05  -0.01   0.03    -0.01   0.19   0.09
  11   6     0.04   0.07   0.01    -0.04  -0.15   0.01    -0.02   0.32   0.17
  12   6     0.05   0.23   0.15     0.02  -0.22  -0.01    -0.03   0.23   0.09
  13   6     0.06   0.27   0.17     0.07  -0.15   0.01    -0.02   0.01  -0.07
  14   6     0.07   0.17   0.06     0.06  -0.01   0.03    -0.02  -0.10  -0.14
  15   6     0.05  -0.01  -0.08    -0.00   0.12   0.02     0.00  -0.04  -0.01
  16   6     0.01  -0.03  -0.03    -0.05   0.09   0.02    -0.01  -0.05  -0.01
  17   6    -0.10  -0.01  -0.03    -0.04   0.14   0.07    -0.03  -0.04  -0.01
  18   6    -0.19  -0.06   0.01    -0.16   0.08   0.04    -0.12  -0.09  -0.04
  19   6    -0.17  -0.14   0.05    -0.29  -0.04  -0.04    -0.17  -0.14  -0.08
  20   6    -0.05  -0.15   0.05    -0.28  -0.08  -0.08    -0.13  -0.14  -0.06
  21   6     0.03  -0.10   0.02    -0.16  -0.01  -0.04    -0.05  -0.09  -0.03
  22   6     0.05   0.01  -0.08     0.00   0.12  -0.02    -0.00  -0.04   0.01
  23   6     0.01   0.03  -0.03     0.05   0.09  -0.02     0.01  -0.05   0.01
  24   6    -0.10   0.01  -0.03     0.04   0.14  -0.07     0.03  -0.04   0.01
  25   6    -0.19   0.06   0.01     0.16   0.08  -0.04     0.12  -0.09   0.04
  26   6    -0.17   0.14   0.05     0.29  -0.04   0.04     0.17  -0.14   0.08
  27   6    -0.05   0.15   0.05     0.28  -0.08   0.08     0.13  -0.14   0.06
  28   6     0.03   0.10   0.02     0.16  -0.01   0.04     0.05  -0.09   0.03
  29   6     0.07  -0.17   0.06    -0.06  -0.01  -0.03     0.02  -0.10   0.14
  30   6     0.06  -0.27   0.17    -0.07  -0.15  -0.01     0.02   0.01   0.07
  31   1     0.01  -0.09   0.07    -0.01  -0.10   0.01     0.01   0.10  -0.05
  32   1     0.01  -0.01  -0.00     0.02  -0.06   0.00     0.01   0.14  -0.08
  33   1     0.01   0.04  -0.05     0.03   0.01  -0.01     0.00   0.07  -0.04
  34   1     0.02   0.00  -0.05    -0.00   0.03  -0.00    -0.00  -0.01   0.02
  35   1     0.02  -0.00  -0.05     0.00   0.03   0.00     0.00  -0.01  -0.02
  36   1     0.01  -0.04  -0.05    -0.03   0.01   0.01    -0.00   0.07   0.04
  37   1     0.01   0.01  -0.00    -0.02  -0.06  -0.00    -0.01   0.14   0.08
  38   1     0.01   0.09   0.07     0.01  -0.10  -0.01    -0.01   0.10   0.05
  39   1     0.02   0.11   0.08     0.03  -0.06  -0.00    -0.01  -0.02  -0.04
  40   1     0.02   0.06   0.02     0.03   0.01   0.01    -0.01  -0.08  -0.07
  41   1    -0.03   0.01  -0.02     0.01   0.07   0.03     0.00  -0.00   0.00
  42   1    -0.08  -0.01   0.00    -0.05   0.03   0.02    -0.04  -0.03  -0.01
  43   1    -0.07  -0.05   0.02    -0.11  -0.03  -0.02    -0.07  -0.05  -0.03
  44   1    -0.01  -0.06   0.02    -0.11  -0.05  -0.04    -0.05  -0.05  -0.02
  45   1     0.03  -0.03   0.01    -0.05  -0.01  -0.02    -0.01  -0.03  -0.01
  46   1    -0.03  -0.01  -0.02    -0.01   0.07  -0.03    -0.00  -0.00  -0.00
  47   1    -0.08   0.01   0.00     0.05   0.03  -0.02     0.04  -0.03   0.01
  48   1    -0.07   0.05   0.02     0.11  -0.03   0.02     0.07  -0.05   0.03
  49   1    -0.01   0.06   0.02     0.11  -0.05   0.04     0.05  -0.05   0.02
  50   1     0.03   0.03   0.01     0.05  -0.01   0.02     0.01  -0.03   0.01
  51   1     0.02  -0.06   0.02    -0.03   0.01  -0.01     0.01  -0.08   0.07
  52   1     0.02  -0.11   0.08    -0.03  -0.06   0.00     0.01  -0.02   0.04
                      7                      8                      9
                        a                      a                      a 
 Frequencies --    63.7281                71.5664                75.0342
 Red. masses --    10.0944                 9.9027                 9.8680
 Frc consts  --     0.0000                 0.0000                 0.0000
 IR Inten    --     0.0165                 0.0203                 0.0182
 Raman Activ --     0.0000                 0.0000                 0.0000
 Depolar     --     0.0000                 0.0000                 0.0000
 Atom AN      X      Y      Z        X      Y      Z        X      Y      Z
   1   6     0.03  -0.11  -0.06    -0.02   0.09  -0.04     0.01   0.06  -0.08
   2   6     0.07  -0.26   0.08    -0.03   0.12  -0.07     0.01   0.03  -0.05
   3   6     0.07  -0.20   0.12    -0.03   0.08  -0.06     0.01  -0.02   0.00
   4   6     0.03  -0.03   0.03    -0.03   0.01  -0.01     0.00  -0.03   0.02
   5   6     0.03  -0.01   0.07    -0.03   0.01  -0.03    -0.00  -0.04   0.03
   6   6     0.03  -0.00   0.06    -0.02   0.00  -0.01     0.00  -0.04   0.01
   7   6     0.03   0.00   0.06    -0.02  -0.00  -0.01    -0.00  -0.04  -0.01
   8   6     0.03   0.01   0.07    -0.03  -0.01  -0.03     0.00  -0.04  -0.03
   9   6     0.03   0.03   0.03    -0.03  -0.01  -0.01    -0.00  -0.03  -0.02
  10   6     0.07   0.20   0.12    -0.03  -0.08  -0.06    -0.01  -0.02  -0.00
  11   6     0.07   0.26   0.08    -0.03  -0.12  -0.07    -0.01   0.03   0.04
  12   6     0.03   0.11  -0.06    -0.02  -0.09  -0.04    -0.01   0.06   0.08
  13   6    -0.01  -0.08  -0.17    -0.01  -0.00   0.02     0.00   0.04   0.05
  14   6    -0.01  -0.11  -0.12    -0.02   0.03   0.03     0.01  -0.01  -0.00
  15   6     0.05   0.00   0.11    -0.03  -0.01  -0.06    -0.00  -0.03  -0.02
  16   6     0.03  -0.00   0.08    -0.03  -0.01  -0.04     0.00  -0.03  -0.02
  17   6    -0.09  -0.11  -0.04    -0.21  -0.09  -0.14     0.22   0.10   0.15
  18   6    -0.18  -0.16  -0.14    -0.15  -0.05  -0.07     0.30   0.15   0.21
  19   6    -0.13  -0.10  -0.11     0.11   0.07   0.12     0.13   0.05   0.09
  20   6     0.01   0.01   0.02     0.28   0.14   0.22    -0.13  -0.11  -0.10
  21   6     0.09   0.05   0.11     0.20   0.10   0.13    -0.18  -0.14  -0.14
  22   6     0.05  -0.00   0.11    -0.03   0.01  -0.06     0.00  -0.03   0.02
  23   6     0.03   0.00   0.08    -0.03   0.01  -0.04    -0.00  -0.03   0.02
  24   6    -0.09   0.11  -0.04    -0.21   0.09  -0.14    -0.22   0.10  -0.15
  25   6    -0.18   0.16  -0.14    -0.15   0.05  -0.07    -0.30   0.15  -0.21
  26   6    -0.13   0.10  -0.11     0.11  -0.07   0.12    -0.13   0.05  -0.09
  27   6     0.01  -0.01   0.02     0.28  -0.14   0.22     0.13  -0.11   0.10
  28   6     0.09  -0.05   0.11     0.20  -0.10   0.13     0.18  -0.14   0.14
  29   6    -0.01   0.11  -0.12    -0.02  -0.03   0.03    -0.01  -0.01   0.00
  30   6    -0.01   0.08  -0.17    -0.01   0.00   0.02    -0.00   0.04  -0.05
  31   1     0.01  -0.04  -0.03    -0.01   0.04  -0.02     0.00   0.03  -0.04
  32   1     0.03  -0.12   0.05    -0.01   0.05  -0.03     0.01   0.01  -0.02
  33   1     0.03  -0.09   0.06    -0.01   0.03  -0.02     0.00  -0.01   0.01
  34   1     0.01  -0.00   0.01    -0.01   0.00   0.01     0.00  -0.01   0.01
  35   1     0.01   0.00   0.01    -0.01  -0.00   0.01    -0.00  -0.01  -0.01
  36   1     0.03   0.09   0.06    -0.01  -0.03  -0.02    -0.00  -0.01  -0.01
  37   1     0.03   0.12   0.05    -0.01  -0.05  -0.03    -0.01   0.01   0.02
  38   1     0.01   0.04  -0.03    -0.01  -0.04  -0.02    -0.00   0.03   0.04
  39   1    -0.01  -0.06  -0.08    -0.00   0.01   0.01     0.00   0.02   0.02
  40   1    -0.01  -0.07  -0.05    -0.00   0.03   0.02     0.00  -0.01  -0.01
  41   1    -0.04  -0.04  -0.02    -0.11  -0.05  -0.08     0.10   0.05   0.07
  42   1    -0.08  -0.07  -0.07    -0.09  -0.03  -0.04     0.15   0.08   0.10
  43   1    -0.06  -0.04  -0.06     0.05   0.03   0.05     0.06   0.03   0.04
  44   1     0.02   0.02   0.01     0.14   0.07   0.11    -0.08  -0.06  -0.06
  45   1     0.05   0.04   0.06     0.10   0.04   0.06    -0.10  -0.07  -0.08
  46   1    -0.04   0.04  -0.02    -0.11   0.05  -0.08    -0.10   0.05  -0.07
  47   1    -0.08   0.07  -0.07    -0.09   0.03  -0.04    -0.15   0.08  -0.10
  48   1    -0.06   0.04  -0.06     0.05  -0.03   0.05    -0.06   0.03  -0.04
  49   1     0.02  -0.02   0.01     0.14  -0.07   0.11     0.08  -0.06   0.06
  50   1     0.05  -0.04   0.06     0.10  -0.04   0.06     0.10  -0.07   0.08
  51   1    -0.01   0.07  -0.06    -0.00  -0.03   0.02    -0.00  -0.01   0.01
  52   1    -0.01   0.06  -0.08    -0.00  -0.01   0.01    -0.00   0.02  -0.02
                     10                     11                     12
                        a                      a                      a 
 Frequencies --   106.6989               116.1262               124.2344
 Red. masses --    10.3295                10.5528                10.3442
 Frc consts  --     0.0000                 0.0000                 0.0000
 IR Inten    --     0.2704                 0.0877                 0.0045
 Raman Activ --     0.0000                 0.0000                 0.0000
 Depolar     --     0.0000                 0.0000                 0.0000
 Atom AN      X      Y      Z        X      Y      Z        X      Y      Z
   1   6    -0.00  -0.13   0.04    -0.00   0.01   0.16    -0.00   0.17  -0.06
   2   6     0.04  -0.12   0.06    -0.14   0.07   0.02    -0.06   0.04   0.00
   3   6     0.05   0.01   0.03    -0.14   0.06  -0.20    -0.07  -0.15   0.06
   4   6     0.02   0.11  -0.01     0.00   0.01  -0.27    -0.02  -0.20   0.05
   5   6     0.01   0.08   0.02     0.00  -0.01  -0.27    -0.01  -0.15   0.01
   6   6     0.08   0.04   0.34    -0.00  -0.01  -0.15    -0.13  -0.08   0.15
   7   6     0.08  -0.04   0.34     0.00  -0.01   0.15    -0.13   0.08   0.15
   8   6     0.01  -0.08   0.02    -0.00  -0.01   0.27    -0.01   0.15   0.01
   9   6     0.02  -0.11  -0.01    -0.00   0.01   0.27    -0.02   0.20   0.05
  10   6     0.05  -0.01   0.03     0.14   0.06   0.20    -0.07   0.15   0.06
  11   6     0.04   0.12   0.06     0.14   0.07  -0.02    -0.06  -0.04   0.00
  12   6    -0.00   0.13   0.04     0.00   0.01  -0.16    -0.00  -0.17  -0.06
  13   6    -0.03  -0.01  -0.04    -0.14  -0.03  -0.08     0.05  -0.05  -0.01
  14   6    -0.03  -0.12  -0.06    -0.14  -0.02   0.15     0.04   0.14   0.05
  15   6    -0.05  -0.04  -0.21    -0.00  -0.01   0.13     0.11   0.08  -0.13
  16   6    -0.08  -0.06  -0.21     0.01  -0.01   0.12     0.16   0.10  -0.10
  17   6    -0.09   0.04  -0.13     0.07  -0.05   0.10     0.06   0.18  -0.05
  18   6    -0.01   0.08   0.06     0.07  -0.05  -0.00    -0.10   0.09   0.02
  19   6     0.07   0.03   0.14    -0.00  -0.01  -0.08    -0.15  -0.07   0.03
  20   6     0.04  -0.09   0.03    -0.06   0.03  -0.05     0.01  -0.12   0.01
  21   6    -0.03  -0.13  -0.15    -0.05   0.03   0.06     0.16  -0.03  -0.05
  22   6    -0.05   0.04  -0.21    -0.00  -0.01  -0.13     0.11  -0.08  -0.13
  23   6    -0.08   0.06  -0.21    -0.01  -0.01  -0.12     0.16  -0.10  -0.10
  24   6    -0.09  -0.04  -0.13    -0.07  -0.05  -0.10     0.06  -0.18  -0.05
  25   6    -0.01  -0.08   0.06    -0.07  -0.05   0.00    -0.10  -0.09   0.02
  26   6     0.07  -0.03   0.14     0.00  -0.01   0.08    -0.15   0.07   0.03
  27   6     0.04   0.09   0.03     0.06   0.03   0.05     0.01   0.12   0.01
  28   6    -0.03   0.13  -0.15     0.05   0.03  -0.06     0.16   0.03  -0.06
  29   6    -0.03   0.12  -0.06     0.14  -0.02  -0.15     0.04  -0.14   0.05
  30   6    -0.04   0.01  -0.04     0.14  -0.03   0.08     0.05   0.05  -0.01
  31   1    -0.00  -0.07   0.02    -0.00  -0.00   0.10     0.00   0.10  -0.04
  32   1     0.02  -0.06   0.03    -0.08   0.03   0.02    -0.03   0.03  -0.00
  33   1     0.02   0.01   0.01    -0.07   0.02  -0.08    -0.04  -0.07   0.02
  34   1     0.04   0.02   0.17    -0.00  -0.00  -0.08    -0.06  -0.04   0.08
  35   1     0.04  -0.02   0.17     0.00  -0.00   0.08    -0.06   0.04   0.08
  36   1     0.02  -0.01   0.01     0.07   0.02   0.08    -0.04   0.07   0.03
  37   1     0.02   0.06   0.03     0.08   0.03  -0.02    -0.03  -0.03  -0.00
  38   1    -0.00   0.07   0.02     0.00  -0.00  -0.10     0.00  -0.10  -0.04
  39   1    -0.02  -0.01  -0.02    -0.07  -0.02  -0.06     0.03  -0.04  -0.01
  40   1    -0.02  -0.06  -0.02    -0.07  -0.02   0.06     0.02   0.06   0.02
  41   1    -0.04   0.03  -0.05     0.03  -0.02   0.04     0.02   0.09  -0.02
  42   1    -0.00   0.05   0.04     0.04  -0.02  -0.01    -0.06   0.04   0.02
  43   1     0.04   0.02   0.08    -0.00  -0.01  -0.05    -0.08  -0.05   0.02
  44   1     0.03  -0.04   0.03    -0.04   0.02  -0.03    -0.00  -0.07   0.01
  45   1    -0.01  -0.06  -0.06    -0.03   0.02   0.02     0.08  -0.02  -0.02
  46   1    -0.04  -0.03  -0.05    -0.03  -0.02  -0.04     0.02  -0.09  -0.02
  47   1    -0.00  -0.05   0.04    -0.04  -0.02   0.01    -0.06  -0.04   0.02
  48   1     0.04  -0.02   0.08     0.00  -0.01   0.05    -0.08   0.05   0.02
  49   1     0.03   0.04   0.03     0.04   0.02   0.03    -0.00   0.07   0.01
  50   1    -0.01   0.06  -0.06     0.03   0.02  -0.02     0.08   0.02  -0.02
  51   1    -0.02   0.06  -0.02     0.07  -0.02  -0.06     0.02  -0.06   0.02
  52   1    -0.02   0.01  -0.02     0.07  -0.02   0.06     0.03   0.04  -0.01
                     13                     14                     15
                        a                      a                      a 
 Frequencies --   203.4793               210.6119               216.6712
 Red. masses --    11.1374                11.0181                10.5377
 Frc consts  --     0.0000                 0.0000                 0.0000
 IR Inten    --     0.0388                 0.1469                 0.0954
 Raman Activ --     0.0000                 0.0000                 0.0000
 Depolar     --     0.0000                 0.0000                 0.0000
 Atom AN      X      Y      Z        X      Y      Z        X      Y      Z
   1   6    -0.29   0.07  -0.05    -0.10   0.06  -0.08    -0.10  -0.05   0.13
   2   6    -0.28   0.03   0.00    -0.05  -0.01   0.01    -0.17   0.05  -0.01
   3   6    -0.27  -0.05   0.04    -0.05  -0.06   0.11    -0.16   0.08  -0.20
   4   6    -0.18  -0.06   0.01    -0.06  -0.04   0.11    -0.05   0.02  -0.23
   5   6    -0.12  -0.02  -0.01    -0.03   0.04   0.03    -0.03  -0.01  -0.06
   6   6    -0.01  -0.07  -0.00    -0.04   0.04  -0.12    -0.04  -0.00   0.25
   7   6     0.01  -0.07   0.00    -0.04  -0.04  -0.12    -0.04   0.00   0.25
   8   6     0.12  -0.02   0.01    -0.03  -0.04   0.03    -0.03   0.01  -0.06
   9   6     0.18  -0.06  -0.01    -0.06   0.04   0.11    -0.05  -0.02  -0.23
  10   6     0.27  -0.05  -0.04    -0.05   0.06   0.11    -0.16  -0.08  -0.20
  11   6     0.28   0.03  -0.00    -0.05   0.01   0.01    -0.18  -0.05  -0.01
  12   6     0.29   0.07   0.05    -0.10  -0.06  -0.08    -0.10   0.05   0.13
  13   6     0.25  -0.03   0.01    -0.13   0.01  -0.01     0.02  -0.00   0.01
  14   6     0.24  -0.10  -0.02    -0.12   0.06   0.09     0.02  -0.05  -0.20
  15   6     0.01   0.03   0.01     0.05  -0.08  -0.02     0.04  -0.02   0.05
  16   6    -0.05   0.01   0.02     0.03  -0.16  -0.04     0.09  -0.03   0.10
  17   6    -0.04   0.00   0.01     0.07  -0.21  -0.06     0.14  -0.07   0.08
  18   6    -0.02   0.02  -0.00     0.13  -0.19  -0.01     0.08  -0.11  -0.01
  19   6    -0.01   0.05  -0.00     0.17  -0.21   0.03     0.01  -0.14  -0.06
  20   6    -0.03   0.06  -0.00     0.09  -0.22   0.00     0.06  -0.06   0.02
  21   6    -0.05   0.04   0.01     0.04  -0.24  -0.03     0.11  -0.03   0.11
  22   6    -0.01   0.03  -0.01     0.05   0.08  -0.02     0.04   0.02   0.05
  23   6     0.05   0.01  -0.02     0.03   0.16  -0.04     0.09   0.03   0.09
  24   6     0.04   0.00  -0.01     0.07   0.21  -0.06     0.14   0.07   0.08
  25   6     0.02   0.02   0.00     0.13   0.19  -0.01     0.08   0.11  -0.01
  26   6     0.01   0.05   0.00     0.17   0.21   0.03     0.01   0.14  -0.06
  27   6     0.03   0.06   0.00     0.09   0.22   0.00     0.06   0.06   0.02
  28   6     0.05   0.04  -0.01     0.04   0.24  -0.03     0.11   0.03   0.10
  29   6    -0.24  -0.10   0.02    -0.12  -0.06   0.09     0.02   0.05  -0.20
  30   6    -0.25  -0.03  -0.01    -0.13  -0.01  -0.01     0.02   0.00   0.01
  31   1    -0.08   0.05  -0.03    -0.03   0.04  -0.05    -0.03  -0.05   0.09
  32   1    -0.08   0.01  -0.01    -0.00  -0.00  -0.01    -0.07   0.02   0.01
  33   1    -0.09  -0.03   0.01    -0.01  -0.03   0.04    -0.07   0.02  -0.08
  34   1     0.01  -0.01   0.00    -0.00   0.02  -0.05    -0.01   0.00   0.12
  35   1    -0.01  -0.01  -0.00    -0.00  -0.02  -0.05    -0.01  -0.00   0.12
  36   1     0.09  -0.03  -0.01    -0.01   0.03   0.04    -0.07  -0.02  -0.08
  37   1     0.08   0.01   0.01    -0.00   0.00  -0.01    -0.07  -0.02   0.01
  38   1     0.08   0.05   0.03    -0.03  -0.04  -0.05    -0.03   0.05   0.09
  39   1     0.06  -0.00  -0.00    -0.04  -0.01  -0.01     0.03   0.01   0.03
  40   1     0.08  -0.03  -0.02    -0.05   0.02   0.04     0.03  -0.02  -0.08
  41   1    -0.01  -0.00   0.00     0.02  -0.07  -0.02     0.05  -0.03   0.04
  42   1    -0.00   0.00  -0.00     0.04  -0.04   0.01     0.02  -0.04  -0.01
  43   1     0.00   0.02  -0.00     0.07  -0.05   0.02    -0.02  -0.06  -0.05
  44   1    -0.01   0.02  -0.00     0.02  -0.06  -0.00     0.01  -0.01  -0.00
  45   1    -0.02   0.02   0.00     0.02  -0.08  -0.02     0.04  -0.00   0.04
  46   1     0.01  -0.00  -0.00     0.02   0.07  -0.02     0.05   0.03   0.04
  47   1     0.00   0.00   0.00     0.04   0.04   0.01     0.02   0.04  -0.01
  48   1    -0.00   0.02   0.00     0.07   0.05   0.02    -0.02   0.05  -0.04
  49   1     0.01   0.02   0.00     0.02   0.06  -0.00     0.01   0.01  -0.00
  50   1     0.02   0.02  -0.00     0.02   0.08  -0.02     0.04   0.00   0.04
  51   1    -0.08  -0.03   0.02    -0.05  -0.02   0.04     0.03   0.02  -0.07
  52   1    -0.06  -0.00   0.00    -0.04   0.01  -0.01     0.03  -0.01   0.03
                     16                     17                     18
                        a                      a                      a 
 Frequencies --   217.9504               232.2328               248.9404
 Red. masses --    10.4397                10.4730                10.2951
 Frc consts  --     0.0000                 0.0000                 0.0000
 IR Inten    --     0.0205                 0.0275                 0.0412
 Raman Activ --     0.0000                 0.0000                 0.0000
 Depolar     --     0.0000                 0.0000                 0.0000
 Atom AN      X      Y      Z        X      Y      Z        X      Y      Z
   1   6     0.02   0.03  -0.06     0.12   0.17  -0.10     0.10   0.11  -0.02
   2   6     0.07  -0.04   0.02     0.03  -0.05   0.01    -0.03  -0.05   0.01
   3   6     0.06  -0.04   0.11     0.02  -0.25   0.06    -0.03  -0.20  -0.06
   4   6     0.01  -0.01   0.12     0.05  -0.18  -0.01     0.04  -0.18  -0.13
   5   6     0.01   0.00   0.06     0.02  -0.01  -0.08     0.02  -0.03  -0.05
   6   6     0.00   0.00   0.12    -0.00   0.01  -0.05    -0.03  -0.01   0.13
   7   6    -0.00   0.00  -0.12     0.00   0.01   0.05    -0.03   0.01   0.13
   8   6    -0.01   0.00  -0.06    -0.02  -0.01   0.08     0.02   0.03  -0.05
   9   6    -0.01  -0.01  -0.12    -0.05  -0.18   0.01     0.04   0.18  -0.13
  10   6    -0.06  -0.04  -0.11    -0.02  -0.25  -0.06    -0.03   0.20  -0.06
  11   6    -0.06  -0.04  -0.02    -0.03  -0.05  -0.01    -0.03   0.05   0.01
  12   6    -0.02   0.03   0.06    -0.12   0.17   0.10     0.10  -0.11  -0.02
  13   6     0.03   0.01   0.01    -0.15  -0.04  -0.02     0.19   0.02   0.00
  14   6     0.03  -0.02  -0.09    -0.13  -0.24  -0.08     0.16   0.19  -0.04
  15   6    -0.00  -0.01   0.14    -0.02   0.03   0.03     0.01   0.00   0.08
  16   6     0.02   0.01   0.31    -0.11   0.03   0.01    -0.13  -0.08   0.05
  17   6     0.13  -0.07   0.26    -0.17   0.03  -0.01    -0.16  -0.16  -0.02
  18   6     0.10  -0.10   0.02    -0.10   0.07  -0.00     0.01  -0.07  -0.00
  19   6    -0.06  -0.03  -0.14    -0.01   0.18   0.04     0.14   0.07   0.07
  20   6    -0.06   0.13   0.01    -0.07   0.15  -0.00    -0.08   0.02  -0.02
  21   6    -0.00   0.14   0.25    -0.16   0.09  -0.03    -0.22  -0.07  -0.03
  22   6     0.00  -0.01  -0.14     0.02   0.03  -0.03     0.01  -0.00   0.08
  23   6    -0.03   0.01  -0.31     0.11   0.03  -0.01    -0.12   0.08   0.05
  24   6    -0.14  -0.07  -0.26     0.17   0.03   0.01    -0.16   0.16  -0.02
  25   6    -0.10  -0.10  -0.02     0.10   0.07   0.00     0.01   0.07  -0.00
  26   6     0.06  -0.04   0.14     0.01   0.18  -0.04     0.14  -0.07   0.07
  27   6     0.05   0.12  -0.01     0.07   0.15   0.00    -0.08  -0.02  -0.02
  28   6     0.00   0.14  -0.26     0.16   0.09   0.03    -0.22   0.07  -0.03
  29   6    -0.03  -0.02   0.10     0.13  -0.24   0.08     0.16  -0.19  -0.04
  30   6    -0.03   0.01  -0.01     0.15  -0.04   0.02     0.19  -0.02   0.00
  31   1     0.01   0.02  -0.04     0.04   0.12  -0.07     0.03   0.08  -0.01
  32   1     0.03  -0.02   0.00    -0.01  -0.00   0.01    -0.04  -0.01   0.02
  33   1     0.03  -0.01   0.04    -0.01  -0.10   0.03    -0.03  -0.08  -0.02
  34   1    -0.00   0.00   0.08    -0.00   0.00  -0.02    -0.02  -0.01   0.06
  35   1     0.00   0.00  -0.08     0.00   0.00   0.02    -0.02   0.01   0.06
  36   1    -0.03  -0.01  -0.04     0.01  -0.10  -0.03    -0.03   0.08  -0.02
  37   1    -0.03  -0.02  -0.00     0.01  -0.00  -0.01    -0.04   0.01   0.02
  38   1    -0.01   0.02   0.04    -0.04   0.12   0.07     0.03  -0.08  -0.01
  39   1     0.02   0.01   0.02    -0.05  -0.00  -0.00     0.08  -0.01   0.01
  40   1     0.02  -0.01  -0.04    -0.06  -0.10  -0.03     0.08   0.09  -0.01
  41   1     0.06  -0.05   0.10    -0.06   0.00  -0.01    -0.06  -0.08  -0.01
  42   1     0.05  -0.06  -0.02    -0.02   0.01  -0.01     0.02  -0.03  -0.00
  43   1    -0.05  -0.03  -0.10     0.03   0.07   0.03     0.10   0.06   0.04
  44   1    -0.04   0.06  -0.02    -0.01   0.05   0.01    -0.03   0.02  -0.01
  45   1    -0.02   0.07   0.10    -0.07   0.03  -0.01    -0.09  -0.02  -0.01
  46   1    -0.06  -0.05  -0.10     0.06   0.00   0.01    -0.06   0.08  -0.01
  47   1    -0.05  -0.06   0.02     0.02   0.01   0.01     0.02   0.03  -0.00
  48   1     0.05  -0.03   0.10    -0.03   0.07  -0.03     0.10  -0.06   0.04
  49   1     0.04   0.06   0.02     0.01   0.05  -0.01    -0.03  -0.02  -0.01
  50   1     0.01   0.07  -0.10     0.07   0.03   0.01    -0.09   0.02  -0.01
  51   1    -0.02  -0.01   0.04     0.06  -0.10   0.03     0.08  -0.09  -0.01
  52   1    -0.02   0.01  -0.02     0.05  -0.00   0.00     0.08   0.01   0.01
                     19                     20                     21
                        a                      a                      a 
 Frequencies --   255.1328               333.0487               349.0493
 Red. masses --    10.1725                10.2031                10.7806
 Frc consts  --     0.0000                 0.0000                 0.0000
 IR Inten    --     0.0069                 0.2078                 0.0000
 Raman Activ --     0.0000                 0.0000                 0.0000
 Depolar     --     0.0000                 0.0000                 0.0000
 Atom AN      X      Y      Z        X      Y      Z        X      Y      Z
   1   6    -0.00  -0.09   0.05     0.01  -0.14   0.12     0.02  -0.11   0.12
   2   6     0.04   0.04  -0.02     0.01   0.08  -0.05    -0.02   0.06  -0.05
   3   6     0.05   0.14  -0.02     0.02   0.11  -0.09    -0.02   0.04  -0.13
   4   6     0.00   0.10   0.03    -0.01  -0.09   0.07    -0.01  -0.15   0.01
   5   6    -0.01  -0.00   0.04    -0.01  -0.17   0.22    -0.03  -0.21   0.20
   6   6     0.00  -0.01   0.07    -0.17  -0.09  -0.07     0.01  -0.25   0.21
   7   6    -0.00  -0.01  -0.07    -0.17   0.09  -0.07    -0.01  -0.25  -0.21
   8   6     0.01  -0.00  -0.04    -0.01   0.17   0.22     0.03  -0.21  -0.20
   9   6    -0.00   0.10  -0.03    -0.01   0.09   0.07     0.01  -0.15  -0.01
  10   6    -0.05   0.14   0.02     0.02  -0.11  -0.09     0.02   0.04   0.13
  11   6    -0.04   0.04   0.02     0.01  -0.08  -0.05     0.02   0.06   0.05
  12   6     0.00  -0.09  -0.05     0.01   0.14   0.12    -0.02  -0.11  -0.12
  13   6     0.04   0.02  -0.00     0.01  -0.08  -0.04    -0.06   0.06   0.05
  14   6     0.03   0.14   0.02     0.01  -0.12  -0.09    -0.06   0.05   0.12
  15   6    -0.01  -0.00   0.07     0.13   0.09   0.24    -0.02  -0.13  -0.07
  16   6    -0.19  -0.11   0.09     0.11   0.07  -0.03    -0.03  -0.03  -0.04
  17   6    -0.23  -0.23  -0.01    -0.07  -0.01  -0.13    -0.05   0.11   0.06
  18   6    -0.02  -0.11  -0.02    -0.07  -0.01  -0.04    -0.06   0.12   0.05
  19   6     0.16   0.11   0.08     0.11   0.04   0.11    -0.15   0.14  -0.04
  20   6    -0.10   0.06  -0.01    -0.02  -0.08  -0.03    -0.02   0.13  -0.02
  21   6    -0.31  -0.07  -0.01    -0.04  -0.08  -0.13     0.01   0.13  -0.02
  22   6     0.01  -0.00  -0.07     0.13  -0.09   0.24     0.02  -0.13   0.07
  23   6     0.19  -0.11  -0.09     0.11  -0.07  -0.03     0.03  -0.03   0.04
  24   6     0.23  -0.23   0.01    -0.07   0.01  -0.13     0.05   0.11  -0.06
  25   6     0.02  -0.11   0.02    -0.07   0.01  -0.04     0.06   0.12  -0.05
  26   6    -0.16   0.11  -0.08     0.11  -0.04   0.11     0.15   0.14   0.04
  27   6     0.10   0.06   0.01    -0.02   0.08  -0.03     0.02   0.13   0.02
  28   6     0.31  -0.07   0.01    -0.04   0.08  -0.13    -0.01   0.13   0.02
  29   6    -0.03   0.14  -0.02     0.01   0.12  -0.09     0.06   0.05  -0.12
  30   6    -0.04   0.02   0.00     0.01   0.08  -0.04     0.06   0.06  -0.05
  31   1    -0.00  -0.07   0.03    -0.00  -0.10   0.08     0.00  -0.07   0.08
  32   1     0.02   0.01  -0.01     0.00   0.04  -0.03    -0.02   0.04  -0.02
  33   1     0.03   0.06  -0.01     0.01   0.06  -0.04    -0.01   0.03  -0.06
  34   1     0.00  -0.00   0.04    -0.09  -0.05  -0.10     0.01  -0.07   0.10
  35   1    -0.00  -0.00  -0.04    -0.09   0.05  -0.10    -0.01  -0.07  -0.10
  36   1    -0.03   0.06   0.01     0.01  -0.06  -0.04     0.01   0.03   0.06
  37   1    -0.02   0.01   0.01     0.00  -0.04  -0.03     0.02   0.04   0.02
  38   1     0.00  -0.07  -0.03    -0.00   0.10   0.08    -0.00  -0.07  -0.08
  39   1     0.02  -0.00  -0.00     0.01  -0.04  -0.03    -0.03   0.04   0.02
  40   1     0.02   0.06   0.01     0.01  -0.06  -0.05    -0.03   0.03   0.06
  41   1    -0.08  -0.11  -0.01    -0.04  -0.00  -0.06    -0.01   0.06   0.01
  42   1     0.02  -0.05  -0.02    -0.05   0.00  -0.01     0.00   0.03   0.01
  43   1     0.13   0.08   0.05     0.07   0.04   0.08    -0.06   0.03  -0.02
  44   1    -0.03   0.05  -0.01    -0.02  -0.04  -0.01     0.01   0.03   0.01
  45   1    -0.13  -0.02  -0.01    -0.02  -0.05  -0.06    -0.00   0.06   0.01
  46   1     0.08  -0.11   0.01    -0.04   0.00  -0.06     0.01   0.06  -0.01
  47   1    -0.02  -0.05   0.02    -0.05  -0.00  -0.01    -0.00   0.03  -0.01
  48   1    -0.13   0.08  -0.05     0.07  -0.04   0.08     0.06   0.03   0.02
  49   1     0.03   0.05   0.01    -0.02   0.04  -0.01    -0.01   0.03  -0.01
  50   1     0.14  -0.02   0.01    -0.02   0.05  -0.06     0.00   0.06  -0.01
  51   1    -0.02   0.06  -0.01     0.01   0.06  -0.05     0.03   0.03  -0.06
  52   1    -0.02  -0.00   0.00     0.01   0.04  -0.03     0.03   0.04  -0.02
                     22                     23                     24
                        a                      a                      a 
 Frequencies --   372.7692               372.8337               375.2763
 Red. masses --     8.9221                 8.9197                 8.9490
 Frc consts  --     0.0000                 0.0000                 0.0000
 IR Inten    --     0.0891                 0.0114                 0.0121
 Raman Activ --     0.0000                 0.0000                 0.0000
 Depolar     --     0.0000                 0.0000                 0.0000
 Atom AN      X      Y      Z        X      Y      Z        X      Y      Z
   1   6     0.01  -0.01   0.01    -0.01   0.00   0.01     0.00  -0.01   0.01
   2   6    -0.01  -0.22   0.16    -0.02  -0.23   0.18     0.00  -0.01   0.01
   3   6     0.02   0.25  -0.19     0.01   0.25  -0.20     0.00   0.02  -0.02
   4   6    -0.01  -0.00   0.00    -0.01  -0.00  -0.01    -0.00  -0.00   0.00
   5   6    -0.01  -0.01  -0.00     0.00   0.00  -0.00    -0.00  -0.00   0.00
   6   6    -0.03  -0.00  -0.01    -0.00   0.00   0.01    -0.01   0.00  -0.00
   7   6    -0.03   0.00  -0.01     0.00   0.00  -0.01    -0.01  -0.00  -0.00
   8   6    -0.01   0.01  -0.00    -0.00   0.00   0.00    -0.00   0.00   0.00
   9   6    -0.01   0.00   0.00     0.01  -0.00   0.01    -0.00   0.00   0.00
  10   6     0.02  -0.26  -0.20    -0.01   0.24   0.19     0.00  -0.02  -0.02
  11   6    -0.01   0.23   0.17     0.02  -0.22  -0.17    -0.00   0.01   0.01
  12   6     0.01   0.01   0.01     0.01   0.00  -0.00     0.00   0.01   0.01
  13   6     0.02  -0.24  -0.18    -0.01   0.22   0.17     0.00  -0.02  -0.02
  14   6    -0.01   0.24   0.19     0.01  -0.24  -0.17    -0.00   0.01   0.01
  15   6    -0.01   0.00  -0.01     0.00   0.00   0.00     0.00  -0.00  -0.00
  16   6    -0.01  -0.00   0.00     0.01   0.01   0.00    -0.01   0.00  -0.00
  17   6     0.02   0.01   0.02    -0.02  -0.01  -0.02    -0.24  -0.13  -0.17
  18   6    -0.00  -0.01  -0.01     0.01   0.00   0.00     0.23   0.13   0.16
  19   6    -0.00  -0.01  -0.01     0.01   0.00   0.01    -0.01  -0.00  -0.00
  20   6     0.02   0.01   0.02    -0.02  -0.01  -0.01    -0.22  -0.12  -0.15
  21   6    -0.01  -0.01  -0.00     0.01   0.00   0.00     0.25   0.15   0.18
  22   6    -0.01  -0.00  -0.01    -0.00   0.00  -0.00    -0.00   0.00  -0.00
  23   6    -0.01   0.00   0.00    -0.01   0.01  -0.00    -0.01  -0.00  -0.00
  24   6     0.02  -0.01   0.02     0.02  -0.01   0.02    -0.21   0.12  -0.15
  25   6    -0.00   0.01  -0.01    -0.01   0.01  -0.00     0.20  -0.12   0.14
  26   6    -0.00   0.01  -0.01    -0.01   0.00  -0.01    -0.01   0.00  -0.00
  27   6     0.02  -0.01   0.01     0.02  -0.02   0.01    -0.20   0.11  -0.14
  28   6    -0.01   0.01  -0.00    -0.01   0.00  -0.00     0.22  -0.13   0.16
  29   6    -0.01  -0.22   0.18    -0.01  -0.25   0.18    -0.00  -0.01   0.01
  30   6     0.02   0.23  -0.17     0.01   0.24  -0.18     0.00   0.02  -0.01
  31   1     0.00  -0.01   0.01    -0.00   0.00   0.00    -0.00  -0.01   0.00
  32   1    -0.01  -0.14   0.11    -0.01  -0.15   0.11    -0.00  -0.01   0.00
  33   1     0.02   0.16  -0.11     0.01   0.16  -0.12     0.00   0.01  -0.01
  34   1    -0.01  -0.00   0.00    -0.00  -0.00   0.01    -0.00  -0.00  -0.00
  35   1    -0.01   0.00   0.00     0.00   0.00  -0.01    -0.00   0.00  -0.00
  36   1     0.02  -0.16  -0.12    -0.01   0.15   0.11     0.00  -0.01  -0.01
  37   1    -0.01   0.15   0.11     0.01  -0.14  -0.11    -0.00   0.01   0.00
  38   1     0.00   0.01   0.01     0.00   0.00  -0.00    -0.00   0.01   0.00
  39   1     0.01  -0.15  -0.11    -0.01   0.14   0.11     0.00  -0.01  -0.01
  40   1    -0.00   0.15   0.11     0.01  -0.15  -0.11    -0.00   0.01   0.00
  41   1     0.01   0.01   0.01    -0.01  -0.01  -0.01    -0.14  -0.08  -0.10
  42   1    -0.00  -0.00  -0.00     0.00   0.00   0.00     0.14   0.09   0.10
  43   1    -0.00  -0.00  -0.00     0.01   0.00   0.01    -0.00  -0.00  -0.00
  44   1     0.01   0.01   0.01    -0.01  -0.01  -0.01    -0.14  -0.08  -0.10
  45   1    -0.00  -0.00  -0.00     0.00  -0.00   0.00     0.15   0.09   0.11
  46   1     0.01  -0.01   0.01     0.02  -0.01   0.01    -0.13   0.07  -0.09
  47   1    -0.00   0.00  -0.00    -0.00   0.00  -0.00     0.13  -0.08   0.09
  48   1    -0.00   0.00  -0.00    -0.01   0.00  -0.01    -0.01   0.00  -0.00
  49   1     0.01  -0.01   0.01     0.01  -0.01   0.01    -0.13   0.07  -0.09
  50   1    -0.00   0.00  -0.00    -0.00  -0.00  -0.00     0.14  -0.08   0.10
  51   1    -0.00  -0.14   0.11    -0.01  -0.15   0.11    -0.00  -0.00   0.00
  52   1     0.01   0.15  -0.11     0.01   0.15  -0.11     0.00   0.01  -0.01
                     25                     26                     27
                        a                      a                      a 
 Frequencies --   375.4202               400.9507               415.1188
 Red. masses --     8.9534                10.9314                10.2385
 Frc consts  --     0.0000                 0.0000                 0.0000
 IR Inten    --     0.0193                 0.3003                 0.0020
 Raman Activ --     0.0000                 0.0000                 0.0000
 Depolar     --     0.0000                 0.0000                 0.0000
 Atom AN      X      Y      Z        X      Y      Z        X      Y      Z
   1   6    -0.00  -0.01   0.00     0.22  -0.08   0.05    -0.02   0.05   0.01
   2   6    -0.00  -0.01   0.01     0.15   0.02  -0.09    -0.08  -0.00   0.01
   3   6     0.00   0.02  -0.02     0.11  -0.03  -0.04    -0.06  -0.09  -0.09
   4   6    -0.00  -0.00   0.00    -0.08  -0.07   0.10     0.02  -0.05  -0.15
   5   6    -0.00   0.00   0.00    -0.18  -0.05  -0.03     0.03   0.13   0.15
   6   6    -0.00   0.00   0.00    -0.34   0.00  -0.00     0.00   0.18   0.44
   7   6    -0.00   0.00  -0.00    -0.34  -0.00  -0.00    -0.00   0.18  -0.44
   8   6     0.00   0.00   0.00    -0.18   0.05  -0.03    -0.03   0.13  -0.15
   9   6     0.00  -0.00  -0.00    -0.08   0.07   0.10    -0.02  -0.05   0.15
  10   6    -0.00   0.02   0.02     0.11   0.03  -0.04     0.06  -0.09   0.09
  11   6     0.00  -0.01  -0.01     0.15  -0.02  -0.09     0.08  -0.00  -0.01
  12   6     0.00  -0.01  -0.00     0.22   0.08   0.05     0.02   0.05  -0.01
  13   6    -0.00   0.02   0.01     0.11  -0.07   0.03    -0.06  -0.04  -0.01
  14   6     0.00  -0.01  -0.01     0.09  -0.12   0.05    -0.04  -0.09   0.12
  15   6    -0.00   0.00   0.00    -0.15  -0.01  -0.19     0.01   0.11   0.04
  16   6    -0.00  -0.01  -0.00    -0.14  -0.05  -0.02     0.08   0.09   0.04
  17   6     0.22   0.13   0.16     0.05  -0.04   0.05     0.03  -0.02  -0.06
  18   6    -0.19  -0.12  -0.14     0.09  -0.04   0.01    -0.00  -0.05  -0.06
  19   6    -0.00  -0.01  -0.00    -0.03  -0.11  -0.07     0.11  -0.05   0.04
  20   6     0.21   0.11   0.15     0.05   0.01   0.05    -0.01  -0.08  -0.00
  21   6    -0.21  -0.12  -0.15    -0.01  -0.02   0.09     0.00  -0.06  -0.00
  22   6     0.00   0.00  -0.00    -0.15   0.01  -0.19    -0.01   0.11  -0.04
  23   6     0.00  -0.01   0.00    -0.14   0.05  -0.02    -0.08   0.09  -0.04
  24   6    -0.25   0.14  -0.17     0.05   0.04   0.05    -0.03  -0.02   0.06
  25   6     0.22  -0.13   0.15     0.09   0.04   0.01     0.00  -0.05   0.06
  26   6     0.00  -0.01   0.00    -0.03   0.11  -0.07    -0.11  -0.05  -0.04
  27   6    -0.23   0.13  -0.16     0.05  -0.01   0.05     0.01  -0.08   0.00
  28   6     0.24  -0.14   0.17    -0.01   0.02   0.09    -0.00  -0.06   0.00
  29   6    -0.00  -0.01   0.01     0.09   0.12   0.05     0.04  -0.09  -0.12
  30   6     0.00   0.02  -0.01     0.11   0.07   0.03     0.06  -0.04   0.01
  31   1    -0.00  -0.00   0.00     0.06  -0.05   0.03    -0.01   0.03   0.01
  32   1    -0.00  -0.01   0.01     0.03   0.04  -0.04    -0.04  -0.00   0.02
  33   1    -0.00   0.01  -0.01     0.07   0.02  -0.01    -0.05  -0.05  -0.03
  34   1    -0.00   0.00   0.00    -0.11  -0.01   0.02    -0.00   0.05   0.23
  35   1    -0.00   0.00  -0.00    -0.11   0.01   0.02     0.00   0.05  -0.23
  36   1     0.00   0.01   0.01     0.07  -0.02  -0.01     0.05  -0.05   0.03
  37   1     0.00  -0.01  -0.01     0.03  -0.04  -0.04     0.04  -0.00  -0.02
  38   1     0.00  -0.00  -0.00     0.06   0.05   0.03     0.01   0.03  -0.01
  39   1    -0.00   0.01   0.01     0.01  -0.03  -0.02    -0.04  -0.02  -0.03
  40   1     0.00  -0.01  -0.00     0.05  -0.05  -0.02    -0.03  -0.04   0.04
  41   1     0.14   0.08   0.09     0.03  -0.02   0.03    -0.01  -0.02  -0.02
  42   1    -0.12  -0.07  -0.09     0.05  -0.00   0.02    -0.03  -0.01  -0.02
  43   1    -0.00  -0.00  -0.00    -0.03  -0.04  -0.04     0.04  -0.01   0.03
  44   1     0.13   0.07   0.09     0.03   0.03   0.02    -0.02  -0.03  -0.02
  45   1    -0.13  -0.07  -0.09     0.01   0.00   0.04    -0.00  -0.04  -0.02
  46   1    -0.15   0.09  -0.10     0.03   0.02   0.03     0.01  -0.02   0.02
  47   1     0.14  -0.08   0.10     0.05   0.00   0.02     0.03  -0.01   0.02
  48   1     0.00  -0.00   0.00    -0.03   0.04  -0.04    -0.04  -0.01  -0.03
  49   1    -0.15   0.08  -0.10     0.03  -0.03   0.02     0.02  -0.03   0.02
  50   1     0.14  -0.08   0.10     0.01  -0.00   0.04     0.00  -0.04   0.02
  51   1    -0.00  -0.01   0.00     0.05   0.05  -0.02     0.03  -0.04  -0.04
  52   1     0.00   0.01  -0.01     0.01   0.03  -0.02     0.04  -0.02   0.03
                     28                     29                     30
                        a                      a                      a 
 Frequencies --   461.6755               489.5620               491.5466
 Red. masses --    10.4295                 9.8855                10.1377
 Frc consts  --     0.0000                 0.0000                 0.0000
 IR Inten    --     0.1399                 0.0178                 3.3647
 Raman Activ --     0.0000                 0.0000                 0.0000
 Depolar     --     0.0000                 0.0000                 0.0000
 Atom AN      X      Y      Z        X      Y      Z        X      Y      Z
   1   6    -0.06  -0.08   0.02     0.02   0.11  -0.06    -0.12  -0.15   0.13
   2   6     0.01   0.05  -0.02    -0.01  -0.07   0.06    -0.05   0.15  -0.06
   3   6     0.00   0.08   0.08     0.00   0.01  -0.05    -0.04  -0.03   0.02
   4   6     0.03  -0.04   0.14     0.00   0.15  -0.15     0.07  -0.30   0.16
   5   6     0.06  -0.10  -0.25    -0.01   0.04   0.06     0.12   0.03   0.10
   6   6     0.01  -0.08   0.03     0.00   0.04   0.08     0.16   0.03  -0.02
   7   6     0.01   0.08   0.03    -0.00   0.04  -0.08     0.16  -0.03  -0.02
   8   6     0.06   0.10  -0.25     0.01   0.04  -0.06     0.12  -0.03   0.10
   9   6     0.03   0.04   0.14    -0.00   0.15   0.15     0.07   0.30   0.16
  10   6     0.00  -0.08   0.08    -0.00   0.01   0.05    -0.04   0.03   0.02
  11   6     0.01  -0.05  -0.02     0.01  -0.07  -0.06    -0.05  -0.15  -0.06
  12   6    -0.06   0.08   0.02    -0.02   0.11   0.06    -0.12   0.15   0.13
  13   6    -0.05  -0.03  -0.06    -0.00  -0.06  -0.06    -0.00  -0.09  -0.14
  14   6    -0.03  -0.05   0.04    -0.00   0.00   0.02    -0.00   0.10  -0.07
  15   6     0.13   0.06  -0.32    -0.02   0.03  -0.12     0.08  -0.04  -0.09
  16   6     0.14   0.07   0.23    -0.33  -0.16  -0.17    -0.15  -0.15  -0.08
  17   6    -0.06  -0.06   0.10    -0.04  -0.05   0.00    -0.04  -0.03   0.06
  18   6    -0.06  -0.08  -0.06     0.15   0.05   0.09     0.06   0.04   0.07
  19   6     0.13   0.09   0.05    -0.15  -0.13  -0.14    -0.12   0.00  -0.08
  20   6    -0.10  -0.00  -0.07     0.11   0.08   0.11     0.07   0.08   0.03
  21   6    -0.07  -0.01   0.09    -0.07  -0.02   0.04    -0.04   0.00  -0.00
  22   6     0.13  -0.06  -0.32     0.02   0.03   0.12     0.08   0.04  -0.09
  23   6     0.14  -0.07   0.23     0.33  -0.16   0.17    -0.15   0.15  -0.08
  24   6    -0.06   0.06   0.10     0.04  -0.05  -0.00    -0.04   0.03   0.06
  25   6    -0.06   0.08  -0.06    -0.15   0.05  -0.09     0.06  -0.04   0.07
  26   6     0.13  -0.09   0.05     0.15  -0.13   0.14    -0.12  -0.00  -0.08
  27   6    -0.10   0.00  -0.07    -0.11   0.08  -0.11     0.07  -0.08   0.03
  28   6    -0.07   0.01   0.09     0.06  -0.02  -0.04    -0.04  -0.00  -0.00
  29   6    -0.03   0.05   0.04     0.00   0.00  -0.02    -0.00  -0.10  -0.07
  30   6    -0.05   0.03  -0.06     0.00  -0.06   0.06    -0.00   0.09  -0.14
  31   1    -0.02  -0.04   0.01     0.00   0.04  -0.02    -0.04  -0.05   0.06
  32   1     0.03   0.03  -0.03    -0.01  -0.07   0.06    -0.00   0.12  -0.08
  33   1     0.01   0.04   0.01    -0.00  -0.04   0.02    -0.04   0.04  -0.05
  34   1    -0.02  -0.03   0.14    -0.00   0.01   0.03     0.06   0.02  -0.02
  35   1    -0.02   0.03   0.14     0.00   0.01  -0.03     0.06  -0.02  -0.02
  36   1     0.01  -0.04   0.01     0.00  -0.04  -0.02    -0.04  -0.04  -0.05
  37   1     0.03  -0.03  -0.03     0.01  -0.07  -0.06    -0.00  -0.12  -0.08
  38   1    -0.02   0.04   0.01    -0.00   0.04   0.02    -0.04   0.05   0.06
  39   1    -0.02  -0.03  -0.04    -0.00  -0.06  -0.06     0.03  -0.11  -0.08
  40   1    -0.04  -0.04   0.01    -0.00  -0.04  -0.02    -0.01  -0.03  -0.06
  41   1    -0.05  -0.06   0.01     0.05   0.01   0.05     0.02   0.02   0.04
  42   1    -0.05  -0.07  -0.06     0.13   0.06   0.08     0.07   0.02   0.04
  43   1     0.06   0.04   0.02    -0.06  -0.05  -0.06    -0.04  -0.00  -0.03
  44   1    -0.08  -0.01  -0.06     0.11   0.08   0.08     0.07   0.05   0.04
  45   1    -0.08  -0.01   0.01     0.04   0.03   0.06     0.00   0.03   0.03
  46   1    -0.05   0.06   0.01    -0.05   0.01  -0.05     0.02  -0.02   0.04
  47   1    -0.05   0.07  -0.06    -0.13   0.06  -0.08     0.07  -0.02   0.04
  48   1     0.06  -0.04   0.02     0.06  -0.05   0.06    -0.04   0.00  -0.03
  49   1    -0.08   0.01  -0.06    -0.11   0.08  -0.08     0.07  -0.05   0.04
  50   1    -0.08   0.01   0.01    -0.04   0.03  -0.06     0.00  -0.03   0.03
  51   1    -0.04   0.04   0.01     0.00  -0.04   0.02    -0.01   0.03  -0.06
  52   1    -0.02   0.03  -0.04     0.00  -0.06   0.06     0.03   0.11  -0.08
                     31                     32                     33
                        a                      a                      a 
 Frequencies --   504.3350               565.8713               577.2126
 Red. masses --    10.1809                10.8188                10.6473
 Frc consts  --     0.0000                 0.0000                 0.0000
 IR Inten    --     3.7754                 0.0930                 1.3277
 Raman Activ --     0.0000                 0.0000                 0.0000
 Depolar     --     0.0000                 0.0000                 0.0000
 Atom AN      X      Y      Z        X      Y      Z        X      Y      Z
   1   6     0.03   0.16  -0.15     0.01  -0.10   0.00     0.08  -0.03   0.10
   2   6     0.02  -0.14   0.09    -0.05   0.01  -0.11     0.09   0.07  -0.01
   3   6     0.02   0.08   0.02    -0.06   0.03   0.11     0.07  -0.15  -0.10
   4   6     0.00   0.30  -0.15    -0.01  -0.02   0.11    -0.09  -0.09  -0.02
   5   6    -0.02  -0.13  -0.08    -0.02  -0.00  -0.31    -0.08   0.23   0.00
   6   6     0.02  -0.20   0.12     0.00  -0.01   0.18    -0.04   0.23   0.00
   7   6    -0.02  -0.20  -0.12    -0.00  -0.01  -0.18    -0.04  -0.23  -0.00
   8   6     0.02  -0.13   0.08     0.02  -0.00   0.31    -0.08  -0.23   0.00
   9   6    -0.00   0.30   0.15     0.01  -0.02  -0.11    -0.09   0.09  -0.02
  10   6    -0.02   0.08  -0.02     0.06   0.03  -0.11     0.07   0.15  -0.10
  11   6    -0.02  -0.14  -0.09     0.05   0.01   0.11     0.09  -0.07  -0.01
  12   6    -0.03   0.16   0.15    -0.01  -0.10  -0.00     0.08   0.03   0.10
  13   6     0.02  -0.13  -0.10    -0.06   0.01   0.09    -0.07  -0.14   0.07
  14   6     0.01   0.10  -0.03    -0.06   0.04  -0.13    -0.09   0.08  -0.01
  15   6     0.02  -0.13   0.10     0.00   0.01   0.33    -0.05  -0.19  -0.00
  16   6     0.16  -0.01   0.02    -0.03  -0.01  -0.14     0.17  -0.06   0.02
  17   6     0.01   0.04   0.02     0.06  -0.04  -0.16     0.08   0.01   0.06
  18   6    -0.10  -0.00   0.01     0.05  -0.04   0.11    -0.13  -0.09   0.04
  19   6    -0.01   0.13   0.06    -0.10  -0.06   0.01     0.03   0.17   0.10
  20   6    -0.03   0.00  -0.07    -0.01   0.06   0.11    -0.08  -0.01  -0.10
  21   6     0.06   0.04  -0.09    -0.01   0.08  -0.15     0.13   0.10  -0.08
  22   6    -0.02  -0.13  -0.10    -0.00   0.01  -0.33    -0.05   0.19  -0.00
  23   6    -0.16  -0.01  -0.02     0.03  -0.01   0.14     0.17   0.06   0.02
  24   6    -0.01   0.04  -0.02    -0.06  -0.04   0.16     0.08  -0.01   0.06
  25   6     0.10  -0.00  -0.01    -0.05  -0.04  -0.11    -0.13   0.09   0.04
  26   6     0.01   0.13  -0.06     0.10  -0.06  -0.01     0.03  -0.17   0.10
  27   6     0.03   0.00   0.07     0.01   0.06  -0.11    -0.08   0.01  -0.10
  28   6    -0.06   0.04   0.09     0.01   0.07   0.15     0.13  -0.10  -0.08
  29   6    -0.01   0.10   0.03     0.06   0.04   0.13    -0.09  -0.08  -0.01
  30   6    -0.02  -0.13   0.10     0.06   0.01  -0.09    -0.07   0.14   0.07
  31   1     0.01   0.06  -0.06     0.00  -0.01   0.02     0.02  -0.02  -0.01
  32   1     0.01  -0.13   0.08     0.01   0.03  -0.07    -0.01   0.07  -0.01
  33   1     0.02  -0.04   0.06     0.01   0.04   0.02     0.02  -0.02  -0.05
  34   1     0.01  -0.05   0.07     0.01  -0.00   0.13     0.06   0.10  -0.00
  35   1    -0.01  -0.05  -0.07    -0.01   0.00  -0.13     0.06  -0.10  -0.00
  36   1    -0.02  -0.04  -0.06    -0.01   0.04  -0.02     0.02   0.02  -0.05
  37   1    -0.01  -0.13  -0.08    -0.01   0.03   0.07    -0.01  -0.07  -0.01
  38   1    -0.01   0.06   0.06    -0.00  -0.01  -0.02     0.02   0.02  -0.01
  39   1     0.03  -0.13  -0.09     0.01   0.03   0.06    -0.01  -0.08  -0.01
  40   1     0.01  -0.03  -0.06     0.00   0.04  -0.03     0.02   0.01  -0.04
  41   1    -0.02   0.03  -0.02     0.04   0.03  -0.04    -0.02   0.02  -0.02
  42   1    -0.05  -0.02  -0.02     0.03   0.03   0.07    -0.08  -0.07  -0.04
  43   1     0.00   0.04   0.02    -0.01  -0.01  -0.02     0.01   0.05   0.02
  44   1    -0.03  -0.04  -0.02     0.04   0.01   0.07    -0.06  -0.08  -0.05
  45   1    -0.01   0.01  -0.03     0.05   0.02  -0.03    -0.01   0.02  -0.04
  46   1     0.02   0.03   0.02    -0.04   0.03   0.04    -0.02  -0.02  -0.02
  47   1     0.05  -0.02   0.02    -0.03   0.03  -0.07    -0.08   0.07  -0.04
  48   1    -0.00   0.04  -0.02     0.01  -0.01   0.02     0.01  -0.05   0.02
  49   1     0.03  -0.04   0.02    -0.04   0.01  -0.07    -0.06   0.08  -0.05
  50   1     0.01   0.01   0.03    -0.05   0.02   0.03    -0.01  -0.02  -0.04
  51   1    -0.01  -0.03   0.06    -0.00   0.04   0.03     0.02  -0.01  -0.04
  52   1    -0.03  -0.13   0.09    -0.01   0.03  -0.06    -0.01   0.08  -0.01
                     34                     35                     36
                        a                      a                      a 
 Frequencies --   582.6613               582.9111               587.3648
 Red. masses --    11.4011                11.0681                11.2097
 Frc consts  --     0.0000                 0.0000                 0.0000
 IR Inten    --     2.2023                 0.7856                 0.1972
 Raman Activ --     0.0000                 0.0000                 0.0000
 Depolar     --     0.0000                 0.0000                 0.0000
 Atom AN      X      Y      Z        X      Y      Z        X      Y      Z
   1   6    -0.25   0.03   0.02     0.02  -0.11  -0.02     0.09   0.06   0.07
   2   6     0.04   0.12   0.16    -0.13  -0.04  -0.16     0.17   0.05   0.09
   3   6     0.06   0.08   0.10    -0.13   0.04   0.12     0.15  -0.13  -0.17
   4   6     0.26  -0.02  -0.02    -0.02   0.01   0.09    -0.10  -0.04  -0.07
   5   6     0.26  -0.00   0.02    -0.02   0.04  -0.15    -0.09   0.00   0.04
   6   6     0.01   0.17  -0.02     0.05   0.02   0.02    -0.01  -0.07  -0.04
   7   6    -0.01   0.17   0.02     0.05  -0.02   0.02     0.01  -0.07   0.04
   8   6    -0.26  -0.00  -0.02    -0.02  -0.04  -0.15     0.09   0.00  -0.04
   9   6    -0.26  -0.02   0.02    -0.02  -0.01   0.09     0.10  -0.04   0.07
  10   6    -0.06   0.08  -0.10    -0.13  -0.04   0.12    -0.15  -0.13   0.17
  11   6    -0.04   0.12  -0.16    -0.13   0.04  -0.16    -0.17   0.05  -0.09
  12   6     0.25   0.03  -0.02     0.02   0.11  -0.02    -0.09   0.06  -0.07
  13   6     0.05  -0.07   0.10     0.13   0.03  -0.13     0.16   0.14  -0.18
  14   6     0.02  -0.12   0.16     0.13  -0.04   0.15     0.17  -0.05   0.07
  15   6    -0.02  -0.15  -0.01    -0.07  -0.01   0.10     0.00   0.04   0.04
  16   6     0.07  -0.10  -0.03     0.04   0.06  -0.09     0.02   0.06  -0.07
  17   6     0.02  -0.08   0.01     0.18  -0.07  -0.16     0.15  -0.07  -0.13
  18   6    -0.02  -0.09   0.14     0.00  -0.18   0.11     0.01  -0.17   0.10
  19   6    -0.10   0.09   0.02    -0.01  -0.05   0.10    -0.01  -0.05   0.08
  20   6    -0.03   0.08   0.01    -0.17   0.08   0.15    -0.16   0.08   0.14
  21   6     0.02   0.09  -0.13     0.00   0.18  -0.12    -0.01   0.16  -0.09
  22   6     0.02  -0.15   0.01    -0.07   0.01   0.10    -0.00   0.04  -0.04
  23   6    -0.07  -0.10   0.03     0.04  -0.06  -0.09    -0.02   0.06   0.07
  24   6    -0.02  -0.08  -0.01     0.18   0.07  -0.16    -0.15  -0.07   0.13
  25   6     0.02  -0.09  -0.14     0.00   0.18   0.11    -0.01  -0.17  -0.10
  26   6     0.10   0.09  -0.03    -0.01   0.05   0.10     0.01  -0.05  -0.08
  27   6     0.03   0.08  -0.01    -0.17  -0.08   0.15     0.16   0.08  -0.14
  28   6    -0.02   0.09   0.13     0.00  -0.18  -0.12     0.01   0.16   0.09
  29   6    -0.02  -0.12  -0.16     0.13   0.04   0.15    -0.17  -0.05  -0.07
  30   6    -0.05  -0.07  -0.10     0.13  -0.03  -0.13    -0.16   0.14   0.18
  31   1    -0.07  -0.00  -0.01     0.01   0.01   0.04     0.02  -0.03  -0.04
  32   1     0.06   0.01   0.02    -0.02   0.01  -0.08    -0.00   0.03   0.05
  33   1    -0.04   0.00   0.00    -0.01   0.04   0.03     0.03  -0.04  -0.05
  34   1    -0.05   0.01  -0.01     0.03   0.01   0.05     0.02  -0.01  -0.02
  35   1     0.05   0.01   0.01     0.03  -0.01   0.05    -0.02  -0.01   0.02
  36   1     0.04   0.00  -0.00    -0.01  -0.04   0.03    -0.03  -0.04   0.05
  37   1    -0.06   0.01  -0.02    -0.02  -0.01  -0.08     0.00   0.03  -0.05
  38   1     0.07  -0.00   0.01     0.01  -0.01   0.04    -0.02  -0.03   0.04
  39   1    -0.05  -0.00  -0.00     0.01  -0.01  -0.07     0.04   0.04  -0.05
  40   1     0.05  -0.02   0.02     0.02  -0.04   0.03     0.00  -0.03   0.04
  41   1    -0.00   0.01  -0.01     0.04   0.00  -0.06     0.04  -0.00  -0.05
  42   1     0.01  -0.03   0.03    -0.04  -0.03   0.05    -0.03  -0.02   0.04
  43   1    -0.01   0.03  -0.02     0.03   0.01  -0.04     0.03   0.01  -0.04
  44   1     0.01  -0.01   0.02    -0.05  -0.01   0.05    -0.04   0.00   0.05
  45   1    -0.00   0.03  -0.03     0.03   0.02  -0.06     0.02   0.02  -0.04
  46   1     0.00   0.01   0.01     0.04  -0.00  -0.06    -0.04  -0.00   0.05
  47   1    -0.01  -0.03  -0.03    -0.04   0.03   0.05     0.03  -0.02  -0.04
  48   1     0.01   0.03   0.02     0.03  -0.01  -0.04    -0.03   0.01   0.04
  49   1    -0.01  -0.01  -0.02    -0.05   0.01   0.05     0.04   0.00  -0.05
  50   1     0.00   0.03   0.03     0.03  -0.02  -0.06    -0.02   0.02   0.04
  51   1    -0.05  -0.02  -0.02     0.02   0.04   0.03    -0.00  -0.03  -0.04
  52   1     0.05  -0.00   0.00     0.01   0.01  -0.07    -0.04   0.04   0.05
                     37                     38                     39
                        a                      a                      a 
 Frequencies --   590.6781               597.2755               597.6840
 Red. masses --    11.2906                10.9199                11.1489
 Frc consts  --     0.0000                 0.0000                 0.0000
 IR Inten    --     0.6779                 4.4239                 0.0432
 Raman Activ --     0.0000                 0.0000                 0.0000
 Depolar     --     0.0000                 0.0000                 0.0000
 Atom AN      X      Y      Z        X      Y      Z        X      Y      Z
   1   6    -0.02   0.03   0.08    -0.05   0.10  -0.04    -0.02   0.01   0.08
   2   6     0.15   0.11   0.11     0.09  -0.01   0.14     0.17   0.12   0.11
   3   6     0.13  -0.10  -0.08     0.09   0.07  -0.03     0.15  -0.09  -0.04
   4   6     0.02  -0.05  -0.06     0.06   0.02  -0.03     0.02  -0.04  -0.03
   5   6     0.02  -0.07   0.03     0.05  -0.09  -0.06     0.01  -0.01  -0.22
   6   6     0.15  -0.12  -0.01    -0.18  -0.02  -0.00     0.00  -0.01   0.09
   7   6     0.15   0.12  -0.01    -0.18   0.02  -0.00    -0.00  -0.01  -0.09
   8   6     0.02   0.07   0.03     0.05   0.09  -0.06    -0.01  -0.01   0.22
   9   6     0.02   0.05  -0.06     0.06  -0.02  -0.03    -0.02  -0.04   0.03
  10   6     0.13   0.10  -0.08     0.09  -0.07  -0.03    -0.15  -0.09   0.04
  11   6     0.15  -0.11   0.11     0.09   0.01   0.14    -0.17   0.12  -0.11
  12   6    -0.02  -0.03   0.08    -0.05  -0.10  -0.04     0.02   0.01  -0.08
  13   6    -0.14  -0.10   0.08    -0.09   0.04   0.08     0.16   0.12  -0.08
  14   6    -0.14   0.11  -0.11    -0.07  -0.04  -0.10     0.15  -0.08   0.07
  15   6    -0.14   0.13  -0.08     0.24  -0.02  -0.05     0.01  -0.03   0.20
  16   6    -0.07   0.18  -0.03     0.06  -0.15  -0.06    -0.01  -0.05   0.03
  17   6     0.14  -0.01  -0.16     0.01  -0.17  -0.02    -0.15   0.08   0.07
  18   6     0.06  -0.09  -0.03     0.03  -0.15   0.24     0.00   0.19  -0.08
  19   6     0.08  -0.17   0.05    -0.18   0.07  -0.00    -0.03   0.03  -0.09
  20   6    -0.16   0.03   0.18    -0.02   0.15   0.07     0.19  -0.08  -0.12
  21   6    -0.07   0.09   0.05    -0.04   0.11  -0.19     0.02  -0.17   0.03
  22   6    -0.14  -0.13  -0.08     0.24   0.02  -0.05    -0.01  -0.03  -0.21
  23   6    -0.07  -0.18  -0.03     0.06   0.15  -0.06     0.01  -0.05  -0.03
  24   6     0.14   0.01  -0.16     0.01   0.17  -0.02     0.15   0.08  -0.07
  25   6     0.06   0.09  -0.03     0.03   0.15   0.24    -0.00   0.19   0.08
  26   6     0.08   0.17   0.05    -0.18  -0.07  -0.00     0.03   0.03   0.09
  27   6    -0.16  -0.03   0.18    -0.02  -0.15   0.07    -0.19  -0.08   0.12
  28   6    -0.07  -0.09   0.05    -0.04  -0.11  -0.19    -0.02  -0.17  -0.03
  29   6    -0.14  -0.11  -0.11    -0.07   0.04  -0.10    -0.15  -0.08  -0.07
  30   6    -0.14   0.10   0.08    -0.09  -0.04   0.08    -0.16   0.12   0.08
  31   1    -0.01  -0.03  -0.03    -0.01   0.00  -0.04    -0.01  -0.04  -0.04
  32   1     0.02   0.05   0.03     0.03  -0.04   0.06     0.04   0.06   0.02
  33   1     0.01  -0.03  -0.04     0.01  -0.01  -0.00     0.02  -0.01  -0.03
  34   1     0.02  -0.05   0.00    -0.08  -0.02   0.03    -0.00  -0.00   0.07
  35   1     0.02   0.05   0.00    -0.08   0.02   0.03     0.00  -0.00  -0.07
  36   1     0.01   0.03  -0.04     0.01   0.01  -0.00    -0.02  -0.01   0.03
  37   1     0.02  -0.05   0.03     0.03   0.04   0.06    -0.04   0.06  -0.02
  38   1    -0.01   0.03  -0.03    -0.01  -0.00  -0.04     0.01  -0.04   0.04
  39   1    -0.01  -0.05   0.03    -0.01   0.04   0.06     0.02   0.06  -0.02
  40   1    -0.02   0.03  -0.04    -0.03   0.01  -0.01     0.03  -0.01   0.03
  41   1     0.04  -0.03  -0.04     0.01   0.01  -0.01    -0.03   0.02   0.03
  42   1    -0.04   0.01   0.01     0.06  -0.04   0.08     0.04   0.05  -0.02
  43   1     0.04  -0.04  -0.03    -0.02   0.04  -0.05    -0.04  -0.01   0.04
  44   1    -0.06   0.03   0.03     0.04   0.01   0.07     0.07  -0.00  -0.02
  45   1     0.01  -0.02  -0.02    -0.00   0.06  -0.03     0.00  -0.02   0.03
  46   1     0.04   0.03  -0.04     0.01  -0.01  -0.01     0.03   0.02  -0.03
  47   1    -0.04  -0.01   0.01     0.06   0.04   0.08    -0.04   0.05   0.02
  48   1     0.04   0.04  -0.03    -0.02  -0.04  -0.05     0.04  -0.01  -0.04
  49   1    -0.06  -0.03   0.03     0.04  -0.01   0.07    -0.07  -0.00   0.02
  50   1     0.01   0.02  -0.02    -0.00  -0.06  -0.03    -0.00  -0.02  -0.03
  51   1    -0.02  -0.03  -0.04    -0.03  -0.01  -0.01    -0.03  -0.01  -0.03
  52   1    -0.01   0.05   0.03    -0.01  -0.04   0.06    -0.02   0.06   0.02
                     40                     41                     42
                        a                      a                      a 
 Frequencies --   627.9734               665.3770               668.6672
 Red. masses --    11.0532                10.1985                10.2441
 Frc consts  --     0.0000                 0.0000                 0.0000
 IR Inten    --     1.1966                 2.0306                 1.3506
 Raman Activ --     0.0000                 0.0000                 0.0000
 Depolar     --     0.0000                 0.0000                 0.0000
 Atom AN      X      Y      Z        X      Y      Z        X      Y      Z
   1   6    -0.02   0.08  -0.08     0.04  -0.15   0.11     0.09  -0.03   0.02
   2   6    -0.10  -0.10   0.01    -0.00   0.15  -0.17    -0.04  -0.02  -0.09
   3   6    -0.07   0.09  -0.05    -0.03  -0.17   0.09    -0.04  -0.07  -0.03
   4   6     0.03  -0.03   0.01    -0.03   0.24  -0.18    -0.08   0.04  -0.04
   5   6     0.01   0.01   0.43    -0.01   0.04  -0.02    -0.02   0.05   0.10
   6   6     0.02   0.01  -0.04    -0.00   0.05   0.04    -0.01   0.08  -0.05
   7   6     0.02  -0.01  -0.04     0.00   0.05  -0.04     0.01   0.08   0.05
   8   6     0.01  -0.01   0.43     0.01   0.04   0.02     0.02   0.05  -0.10
   9   6     0.03   0.03   0.01     0.03   0.24   0.18     0.08   0.04   0.04
  10   6    -0.07  -0.09  -0.05     0.03  -0.17  -0.09     0.04  -0.07   0.03
  11   6    -0.10   0.10   0.01     0.00   0.15   0.17     0.04  -0.02   0.09
  12   6    -0.02  -0.07  -0.08    -0.04  -0.15  -0.11    -0.09  -0.03  -0.02
  13   6     0.10   0.13  -0.01     0.00   0.20   0.10     0.00   0.07  -0.03
  14   6     0.08  -0.05  -0.07     0.02  -0.13  -0.15     0.01   0.01  -0.06
  15   6    -0.03  -0.01  -0.33     0.02  -0.03  -0.11     0.04  -0.02  -0.02
  16   6    -0.02  -0.02  -0.01    -0.05  -0.14  -0.06     0.28   0.03   0.16
  17   6     0.10  -0.02   0.06     0.05  -0.02   0.11    -0.15  -0.14  -0.02
  18   6    -0.05  -0.12   0.00    -0.09  -0.10   0.03     0.13   0.03   0.20
  19   6     0.07   0.05   0.06     0.01   0.12   0.04    -0.19   0.03  -0.09
  20   6    -0.12   0.01  -0.01    -0.03  -0.03  -0.11     0.21   0.10   0.03
  21   6     0.04   0.09   0.05     0.10   0.04  -0.01    -0.08  -0.08  -0.18
  22   6    -0.03   0.01  -0.33    -0.02  -0.03   0.11    -0.04  -0.02   0.02
  23   6    -0.02   0.02  -0.01     0.05  -0.14   0.06    -0.28   0.03  -0.16
  24   6     0.10   0.02   0.06    -0.05  -0.02  -0.11     0.15  -0.14   0.02
  25   6    -0.05   0.12   0.00     0.09  -0.10  -0.02    -0.13   0.03  -0.20
  26   6     0.07  -0.05   0.06    -0.01   0.12  -0.04     0.19   0.03   0.09
  27   6    -0.12  -0.01  -0.01     0.03  -0.03   0.11    -0.21   0.10  -0.03
  28   6     0.04  -0.09   0.05    -0.10   0.04   0.01     0.08  -0.08   0.18
  29   6     0.08   0.05  -0.07    -0.02  -0.13   0.15    -0.01   0.01   0.06
  30   6     0.10  -0.13  -0.01    -0.00   0.20  -0.10    -0.00   0.07   0.03
  31   1    -0.01   0.04   0.02     0.01  -0.11   0.08     0.02  -0.02   0.02
  32   1    -0.02  -0.06   0.03    -0.02  -0.00  -0.00    -0.04  -0.00  -0.01
  33   1    -0.03   0.00  -0.00    -0.00  -0.13   0.09     0.00  -0.03   0.01
  34   1     0.01   0.00  -0.13    -0.00   0.01   0.01    -0.00   0.02  -0.03
  35   1     0.01  -0.00  -0.13     0.00   0.01  -0.01     0.00   0.02   0.03
  36   1    -0.03  -0.00  -0.00     0.00  -0.13  -0.09    -0.00  -0.03  -0.01
  37   1    -0.02   0.06   0.03     0.02  -0.00   0.00     0.04  -0.00   0.01
  38   1    -0.01  -0.04   0.02    -0.01  -0.11  -0.08    -0.02  -0.02  -0.02
  39   1     0.03   0.07   0.02     0.02   0.00  -0.00     0.02   0.00  -0.00
  40   1     0.02   0.00  -0.01     0.00  -0.12  -0.10    -0.01  -0.02  -0.02
  41   1     0.01  -0.01   0.00     0.04   0.03   0.04    -0.13  -0.06  -0.07
  42   1    -0.04  -0.05  -0.02     0.01  -0.04   0.00     0.01  -0.04   0.01
  43   1     0.03   0.02  -0.02     0.03   0.05   0.02    -0.12  -0.03  -0.08
  44   1    -0.06  -0.01  -0.02     0.01  -0.02  -0.01     0.02  -0.04  -0.01
  45   1    -0.01   0.02   0.01     0.04   0.04   0.03    -0.12  -0.05  -0.09
  46   1     0.01   0.01   0.00    -0.04   0.03  -0.04     0.13  -0.06   0.07
  47   1    -0.04   0.05  -0.02    -0.01  -0.04  -0.00    -0.01  -0.04  -0.01
  48   1     0.03  -0.02  -0.02    -0.03   0.05  -0.02     0.12  -0.03   0.08
  49   1    -0.06   0.01  -0.02    -0.01  -0.02   0.01    -0.02  -0.04   0.01
  50   1    -0.01  -0.02   0.01    -0.04   0.04  -0.03     0.12  -0.05   0.09
  51   1     0.02  -0.00  -0.01    -0.00  -0.12   0.10     0.01  -0.02   0.02
  52   1     0.03  -0.07   0.02    -0.02   0.00   0.00    -0.03   0.00   0.00
                     43                     44                     45
                        a                      a                      a 
 Frequencies --   672.4158               678.2271               681.3228
 Red. masses --     9.5900                 9.1903                 9.9862
 Frc consts  --     0.0000                 0.0000                 0.0000
 IR Inten    --     1.6173                 7.6579                 2.0510
 Raman Activ --     0.0000                 0.0000                 0.0000
 Depolar     --     0.0000                 0.0000                 0.0000
 Atom AN      X      Y      Z        X      Y      Z        X      Y      Z
   1   6    -0.09   0.09  -0.06    -0.11  -0.09   0.06     0.11   0.05  -0.04
   2   6     0.04  -0.07   0.16     0.05   0.20  -0.03    -0.05  -0.16  -0.01
   3   6     0.05   0.13  -0.00     0.04  -0.05   0.16    -0.04   0.01  -0.12
   4   6     0.08  -0.17   0.13     0.12   0.21  -0.15    -0.11  -0.14   0.10
   5   6     0.03   0.02  -0.17     0.03  -0.05   0.02    -0.01   0.10  -0.03
   6   6    -0.08   0.06   0.02    -0.15  -0.00  -0.00    -0.02   0.19   0.02
   7   6    -0.08  -0.06   0.02    -0.15   0.00  -0.00     0.02   0.19  -0.02
   8   6     0.03  -0.02  -0.17     0.03   0.05   0.02     0.01   0.10   0.03
   9   6     0.08   0.17   0.13     0.12  -0.21  -0.15     0.11  -0.14  -0.10
  10   6     0.05  -0.13  -0.00     0.04   0.05   0.16     0.04   0.01   0.12
  11   6     0.04   0.07   0.16     0.05  -0.20  -0.03     0.05  -0.16   0.01
  12   6    -0.09  -0.09  -0.06    -0.11   0.09   0.06    -0.11   0.05   0.04
  13   6    -0.00   0.16   0.04     0.03  -0.09  -0.18     0.03  -0.04  -0.15
  14   6     0.02  -0.05  -0.12     0.02   0.14   0.03     0.03   0.11  -0.01
  15   6    -0.02  -0.01   0.14     0.03   0.02   0.00     0.03  -0.02  -0.01
  16   6    -0.19  -0.06  -0.12    -0.14  -0.10  -0.10    -0.02  -0.21  -0.07
  17   6     0.10   0.09   0.04     0.07   0.03   0.07     0.01  -0.07   0.16
  18   6    -0.11  -0.03  -0.12    -0.09  -0.07  -0.06    -0.11  -0.14   0.09
  19   6     0.11   0.02   0.06     0.06   0.05   0.04    -0.05   0.19   0.03
  20   6    -0.12  -0.08  -0.07    -0.09  -0.05  -0.07     0.03  -0.04  -0.18
  21   6     0.09   0.04   0.08     0.08   0.04   0.05     0.13   0.01  -0.07
  22   6    -0.02   0.01   0.14     0.03  -0.02   0.00    -0.03  -0.02   0.01
  23   6    -0.19   0.06  -0.12    -0.14   0.10  -0.10     0.02  -0.21   0.07
  24   6     0.10  -0.09   0.04     0.07  -0.03   0.07    -0.01  -0.07  -0.16
  25   6    -0.11   0.03  -0.12    -0.09   0.07  -0.06     0.11  -0.14  -0.09
  26   6     0.11  -0.02   0.06     0.06  -0.05   0.04     0.05   0.19  -0.03
  27   6    -0.12   0.08  -0.07    -0.09   0.05  -0.07    -0.03  -0.04   0.18
  28   6     0.09  -0.04   0.08     0.08  -0.04   0.05    -0.13   0.01   0.07
  29   6     0.02   0.05  -0.12     0.02  -0.14   0.03    -0.03   0.11   0.01
  30   6    -0.00  -0.16   0.04     0.03   0.09  -0.18    -0.03  -0.04   0.15
  31   1    -0.02   0.09  -0.08    -0.04  -0.12   0.09     0.04   0.09  -0.06
  32   1     0.04   0.04  -0.02     0.05  -0.04   0.04    -0.05   0.04  -0.04
  33   1     0.00   0.12  -0.07    -0.02  -0.12   0.11     0.02   0.09  -0.08
  34   1    -0.02   0.02   0.05    -0.07  -0.02  -0.02    -0.01   0.05   0.01
  35   1    -0.02  -0.02   0.05    -0.07   0.02  -0.02     0.01   0.05  -0.01
  36   1     0.00  -0.12  -0.07    -0.02   0.12   0.11    -0.02   0.09   0.08
  37   1     0.04  -0.04  -0.02     0.05   0.04   0.04     0.05   0.04   0.04
  38   1    -0.02  -0.09  -0.08    -0.04   0.12   0.09    -0.04   0.09   0.06
  39   1     0.03  -0.03  -0.03     0.03   0.05   0.03     0.03   0.05   0.03
  40   1    -0.01  -0.10  -0.09    -0.03   0.14   0.10    -0.02   0.10   0.07
  41   1     0.09   0.06   0.06     0.07   0.04   0.06     0.04   0.04   0.06
  42   1     0.01   0.03   0.01     0.02   0.00   0.01     0.05  -0.06   0.03
  43   1     0.09   0.04   0.07     0.07   0.04   0.05     0.03   0.08   0.04
  44   1     0.02   0.02   0.01     0.02   0.01   0.01     0.06  -0.04   0.00
  45   1     0.10   0.04   0.07     0.08   0.05   0.06     0.06   0.06   0.03
  46   1     0.09  -0.06   0.06     0.07  -0.04   0.06    -0.04   0.04  -0.06
  47   1     0.01  -0.03   0.01     0.02  -0.00   0.01    -0.05  -0.06  -0.03
  48   1     0.09  -0.04   0.07     0.07  -0.04   0.05    -0.03   0.08  -0.04
  49   1     0.02  -0.02   0.01     0.02  -0.01   0.01    -0.06  -0.04  -0.00
  50   1     0.10  -0.04   0.07     0.08  -0.05   0.06    -0.06   0.06  -0.03
  51   1    -0.01   0.10  -0.09    -0.03  -0.14   0.10     0.02   0.10  -0.07
  52   1     0.03   0.03  -0.03     0.03  -0.05   0.03    -0.03   0.05  -0.03
                     46                     47                     48
                        a                      a                      a 
 Frequencies --   695.5650               718.8971               756.6614
 Red. masses --     9.8095                 9.5234                 5.6489
 Frc consts  --     0.0000                 0.0000                 0.0000
 IR Inten    --     2.3477                 0.7984                28.0798
 Raman Activ --     0.0000                 0.0000                 0.0000
 Depolar     --     0.0000                 0.0000                 0.0000
 Atom AN      X      Y      Z        X      Y      Z        X      Y      Z
   1   6    -0.19   0.00  -0.00     0.01   0.02  -0.02     0.04   0.08  -0.06
   2   6     0.06   0.09   0.13    -0.03   0.01  -0.04    -0.02   0.02  -0.06
   3   6     0.06   0.08   0.11    -0.02   0.01  -0.04    -0.01   0.07  -0.09
   4   6     0.17  -0.01   0.00    -0.00  -0.01   0.00    -0.02  -0.18   0.13
   5   6     0.01   0.13   0.01    -0.00   0.00   0.36     0.03   0.11  -0.02
   6   6    -0.22   0.23   0.01    -0.01   0.02  -0.20    -0.01   0.18  -0.04
   7   6    -0.22  -0.23   0.01     0.01   0.02   0.20    -0.01  -0.18  -0.04
   8   6     0.01  -0.13   0.01     0.00   0.00  -0.36     0.03  -0.11  -0.02
   9   6     0.17   0.01   0.00     0.00  -0.01  -0.00    -0.02   0.18   0.13
  10   6     0.06  -0.08   0.11     0.02   0.01   0.04    -0.01  -0.07  -0.09
  11   6     0.06  -0.09   0.13     0.03   0.01   0.04    -0.02  -0.02  -0.06
  12   6    -0.19  -0.00  -0.00    -0.01   0.02   0.02     0.03  -0.08  -0.06
  13   6     0.08   0.11  -0.14    -0.03   0.02   0.03    -0.01  -0.06  -0.01
  14   6     0.08   0.09  -0.11    -0.02   0.01   0.03    -0.01  -0.08  -0.05
  15   6    -0.09  -0.05  -0.00     0.02   0.01   0.44     0.04  -0.05  -0.01
  16   6     0.10   0.13   0.08     0.01  -0.01  -0.01     0.09   0.09   0.07
  17   6    -0.03   0.02  -0.08    -0.03   0.01  -0.03    -0.04   0.02  -0.08
  18   6     0.09   0.10  -0.00    -0.05   0.01  -0.03    -0.01   0.05  -0.09
  19   6     0.00  -0.08  -0.02    -0.03  -0.00  -0.02    -0.02  -0.10  -0.04
  20   6     0.05   0.04   0.11     0.01  -0.05  -0.06    -0.08   0.00   0.05
  21   6    -0.06  -0.02   0.00     0.01  -0.03  -0.04    -0.09  -0.01   0.00
  22   6    -0.09   0.05  -0.00    -0.02   0.01  -0.44     0.04   0.05  -0.01
  23   6     0.10  -0.13   0.08    -0.01  -0.01   0.01     0.09  -0.10   0.07
  24   6    -0.03  -0.02  -0.08     0.03   0.01   0.03    -0.04  -0.02  -0.09
  25   6     0.09  -0.10  -0.00     0.05   0.01   0.03    -0.01  -0.05  -0.09
  26   6     0.00   0.08  -0.02     0.03  -0.00   0.02    -0.02   0.10  -0.04
  27   6     0.05  -0.04   0.11    -0.01  -0.05   0.06    -0.08  -0.00   0.05
  28   6    -0.06   0.02   0.00    -0.01  -0.03   0.04    -0.09   0.01   0.00
  29   6     0.08  -0.09  -0.11     0.02   0.01  -0.03    -0.01   0.08  -0.05
  30   6     0.08  -0.11  -0.14     0.03   0.02  -0.03    -0.01   0.06  -0.01
  31   1    -0.05   0.02  -0.00    -0.00  -0.07   0.07    -0.00  -0.19   0.15
  32   1     0.07   0.01   0.00    -0.02  -0.08   0.05    -0.03  -0.16   0.12
  33   1    -0.02   0.02   0.01    -0.02  -0.08   0.05    -0.01  -0.13   0.09
  34   1    -0.03   0.08  -0.02    -0.00   0.01  -0.04     0.05   0.08   0.08
  35   1    -0.03  -0.08  -0.02     0.00   0.01   0.04     0.05  -0.08   0.08
  36   1    -0.02  -0.02   0.01     0.02  -0.08  -0.05    -0.01   0.13   0.09
  37   1     0.07  -0.01   0.00     0.02  -0.08  -0.05    -0.03   0.16   0.12
  38   1    -0.05  -0.02  -0.00     0.00  -0.07  -0.07    -0.00   0.19   0.15
  39   1     0.08   0.01  -0.02    -0.01  -0.08  -0.05    -0.02   0.15   0.12
  40   1    -0.02   0.01  -0.02    -0.01  -0.07  -0.05    -0.01   0.11   0.08
  41   1    -0.09  -0.06  -0.08     0.08   0.06   0.05     0.08   0.05   0.04
  42   1    -0.08  -0.01  -0.05     0.08   0.06   0.06     0.08   0.09   0.06
  43   1    -0.09  -0.08  -0.06     0.08   0.05   0.08     0.13   0.05   0.09
  44   1    -0.08  -0.02  -0.04     0.10   0.03   0.05     0.08   0.09   0.08
  45   1    -0.10  -0.07  -0.07     0.09   0.04   0.05     0.07   0.04   0.06
  46   1    -0.09   0.06  -0.08    -0.08   0.06  -0.05     0.08  -0.05   0.04
  47   1    -0.08   0.01  -0.05    -0.08   0.06  -0.06     0.09  -0.09   0.07
  48   1    -0.09   0.08  -0.06    -0.08   0.05  -0.08     0.13  -0.05   0.09
  49   1    -0.08   0.02  -0.04    -0.10   0.03  -0.05     0.08  -0.09   0.08
  50   1    -0.10   0.07  -0.07    -0.09   0.04  -0.05     0.07  -0.04   0.06
  51   1    -0.02  -0.01  -0.02     0.01  -0.07   0.05    -0.01  -0.11   0.08
  52   1     0.08  -0.01  -0.02     0.01  -0.08   0.05    -0.02  -0.16   0.12
[...]
  39   1    -0.01  -0.01   0.02     0.06   0.06  -0.08    -0.14  -0.15   0.19
  40   1    -0.09   0.09  -0.13     0.01  -0.01   0.02     0.18  -0.18   0.25
  41   1    -0.10   0.03   0.12     0.00  -0.00  -0.00     0.12  -0.04  -0.14
  42   1     0.03   0.16  -0.18    -0.00  -0.01   0.01    -0.00  -0.02   0.03
  43   1     0.02  -0.03  -0.00     0.01  -0.01  -0.00     0.11  -0.19  -0.00
  44   1     0.13  -0.04  -0.15    -0.01   0.00   0.01    -0.03   0.01   0.03
  45   1    -0.02  -0.11   0.13     0.00   0.00  -0.00    -0.03  -0.14   0.16
  46   1     0.11   0.03  -0.12     0.00   0.00  -0.00    -0.12  -0.04   0.14
  47   1    -0.03   0.16   0.18    -0.00   0.01   0.01     0.00  -0.02  -0.02
  48   1    -0.02  -0.03   0.00     0.01   0.01  -0.00    -0.10  -0.18   0.00
  49   1    -0.13  -0.04   0.16    -0.01  -0.00   0.01     0.02   0.01  -0.03
  50   1     0.02  -0.12  -0.13     0.00  -0.00  -0.00     0.03  -0.14  -0.15
  51   1     0.10   0.10   0.14     0.01   0.01   0.02    -0.17  -0.16  -0.23
  52   1     0.01  -0.01  -0.02     0.06  -0.06  -0.08     0.13  -0.14  -0.18
                    139                    140                    141
                        a                      a                      a 
 Frequencies --  3073.6634              3074.2317              3074.9293
 Red. masses --     1.8439                 1.8351                 1.8325
 Frc consts  --     0.0000                 0.0000                 0.0000
 IR Inten    --   176.4726                35.4162                 8.7179
 Raman Activ --     0.0000                 0.0000                 0.0000
 Depolar     --     0.0000                 0.0000                 0.0000
 Atom AN      X      Y      Z        X      Y      Z        X      Y      Z
   1   6    -0.08   0.00  -0.00    -0.04   0.00  -0.00     0.02  -0.00   0.00
   2   6    -0.04  -0.04  -0.06    -0.02  -0.02  -0.03     0.01   0.01   0.02
   3   6    -0.02   0.02   0.03    -0.01   0.01   0.01     0.00  -0.00  -0.00
   4   6    -0.01   0.00   0.00    -0.00   0.00   0.00     0.00  -0.00  -0.00
   5   6     0.00  -0.00  -0.00    -0.00  -0.00  -0.00    -0.00   0.00   0.00
   6   6     0.01  -0.02   0.00    -0.00   0.00   0.00    -0.00   0.01  -0.00
   7   6     0.01   0.02   0.00     0.00   0.00  -0.00    -0.00  -0.01  -0.00
   8   6     0.00   0.00  -0.00     0.00  -0.00   0.00    -0.00  -0.00   0.00
   9   6    -0.01  -0.00   0.00     0.00   0.00  -0.00     0.00   0.00  -0.00
  10   6    -0.02  -0.02   0.03     0.01   0.01  -0.01     0.00   0.00  -0.00
  11   6    -0.04   0.04  -0.05     0.02  -0.02   0.03     0.01  -0.01   0.02
  12   6    -0.07  -0.00  -0.00     0.04   0.00   0.00     0.02   0.00   0.00
  13   6     0.04   0.05  -0.06    -0.02  -0.03   0.03    -0.01  -0.01   0.02
  14   6    -0.06   0.05  -0.08     0.03  -0.03   0.04     0.02  -0.02   0.03
  15   6     0.00  -0.00  -0.00    -0.00  -0.00   0.00     0.00   0.00  -0.00
  16   6    -0.00   0.00   0.00    -0.00   0.01   0.00    -0.00   0.01   0.00
  17   6    -0.02   0.00   0.02    -0.05   0.02   0.07    -0.06   0.02   0.07
  18   6     0.00   0.01  -0.01     0.00   0.01  -0.01     0.00   0.02  -0.02
  19   6    -0.02   0.03   0.00    -0.05   0.09   0.00    -0.06   0.10   0.00
  20   6     0.01  -0.00  -0.01     0.01  -0.00  -0.01     0.00  -0.00  -0.01
  21   6     0.00   0.02  -0.02     0.01   0.06  -0.07     0.02   0.07  -0.08
  22   6     0.00   0.00  -0.00     0.00  -0.00  -0.00     0.00  -0.00  -0.00
  23   6    -0.00  -0.00   0.00     0.00   0.01  -0.00    -0.00  -0.01   0.00
  24   6    -0.02  -0.01   0.02     0.05   0.02  -0.06    -0.06  -0.02   0.07
  25   6     0.00  -0.01  -0.01    -0.00   0.01   0.01     0.00  -0.02  -0.02
  26   6    -0.02  -0.03   0.00     0.05   0.09  -0.00    -0.06  -0.10   0.00
  27   6     0.01   0.00  -0.01    -0.01  -0.00   0.01     0.00   0.00  -0.01
  28   6     0.01  -0.02  -0.03    -0.01   0.06   0.07     0.02  -0.07  -0.08
  29   6    -0.06  -0.06  -0.08    -0.03  -0.03  -0.05     0.02   0.02   0.03
  30   6     0.04  -0.05  -0.06     0.02  -0.03  -0.03    -0.01   0.01   0.02
  31   1     0.27  -0.01   0.00     0.15  -0.01   0.00    -0.08   0.00  -0.00
  32   1     0.15   0.14   0.20     0.08   0.08   0.11    -0.05  -0.05  -0.06
  33   1     0.08  -0.09  -0.11     0.03  -0.04  -0.05    -0.01   0.01   0.02
  34   1    -0.04   0.08  -0.00     0.01  -0.01   0.00     0.02  -0.03   0.00
  35   1    -0.05  -0.08  -0.00    -0.01  -0.01  -0.00     0.02   0.03   0.00
  36   1     0.07   0.08  -0.11    -0.03  -0.04   0.05    -0.01  -0.01   0.02
  37   1     0.14  -0.13   0.19    -0.08   0.08  -0.11    -0.05   0.04  -0.06
  38   1     0.26   0.01   0.00    -0.14  -0.01  -0.00    -0.08  -0.00  -0.00
  39   1    -0.14  -0.16   0.20     0.08   0.09  -0.11     0.04   0.05  -0.06
  40   1     0.19  -0.19   0.26    -0.11   0.11  -0.15    -0.06   0.06  -0.09
  41   1     0.06  -0.02  -0.07     0.19  -0.06  -0.23     0.21  -0.07  -0.25
  42   1    -0.00  -0.02   0.02    -0.01  -0.04   0.04    -0.01  -0.06   0.07
  43   1     0.06  -0.10  -0.00     0.17  -0.30  -0.00     0.20  -0.34  -0.00
  44   1    -0.02   0.01   0.03    -0.02   0.01   0.02    -0.02   0.00   0.02
  45   1    -0.02  -0.07   0.08    -0.05  -0.23   0.25    -0.05  -0.25   0.28
  46   1     0.07   0.02  -0.08    -0.19  -0.06   0.23     0.21   0.07  -0.25
  47   1    -0.00   0.02   0.03     0.01  -0.04  -0.04    -0.01   0.06   0.07
  48   1     0.06   0.11  -0.00    -0.17  -0.30   0.00     0.20   0.34  -0.00
  49   1    -0.02  -0.01   0.03     0.02   0.01  -0.02    -0.02  -0.00   0.02
  50   1    -0.02   0.08   0.09     0.05  -0.23  -0.25    -0.05   0.25   0.28
  51   1     0.20   0.20   0.28     0.11   0.11   0.15    -0.06  -0.06  -0.09
  52   1    -0.15   0.17   0.21    -0.08   0.09   0.11     0.04  -0.05  -0.06
                    142                    143                    144
                        a                      a                      a 
 Frequencies --  3078.0242              3079.0351              3081.4314
 Red. masses --     1.8793                 1.8767                 1.8734
 Frc consts  --     0.0000                 0.0000                 0.0000
 IR Inten    --   493.6022                39.5014                 4.6399
 Raman Activ --     0.0000                 0.0000                 0.0000
 Depolar     --     0.0000                 0.0000                 0.0000
 Atom AN      X      Y      Z        X      Y      Z        X      Y      Z
   1   6     0.02  -0.00   0.00    -0.02   0.00  -0.00     0.09  -0.00   0.00
   2   6    -0.00  -0.00  -0.00     0.00   0.00   0.00     0.00   0.00   0.01
   3   6     0.01  -0.01  -0.02    -0.01   0.02   0.02     0.05  -0.05  -0.07
   4   6     0.00   0.00   0.00    -0.00  -0.00  -0.00     0.00  -0.00   0.00
   5   6    -0.00  -0.00  -0.00    -0.00   0.00   0.00    -0.00  -0.00  -0.00
   6   6    -0.00   0.00   0.00    -0.00   0.00  -0.00    -0.05   0.08  -0.00
   7   6    -0.00  -0.00   0.00     0.00   0.00   0.00     0.05   0.08   0.00
   8   6    -0.00   0.00  -0.00     0.00   0.00  -0.00     0.00  -0.00   0.00
   9   6     0.00  -0.00   0.00     0.00  -0.00   0.00    -0.00  -0.00  -0.00
  10   6     0.01   0.01  -0.02     0.01   0.02  -0.02    -0.05  -0.06   0.07
  11   6    -0.00   0.00  -0.00    -0.00   0.00  -0.00    -0.00   0.00  -0.01
  12   6     0.02   0.00   0.00     0.02   0.00   0.00    -0.10  -0.00  -0.00
  13   6     0.01   0.01  -0.01     0.01   0.01  -0.01    -0.04  -0.05   0.06
  14   6    -0.00   0.00  -0.00    -0.00   0.00  -0.00     0.02  -0.02   0.03
  15   6     0.00   0.00  -0.00     0.00   0.00  -0.00    -0.00  -0.00  -0.00
  16   6    -0.00  -0.00   0.00     0.00  -0.00   0.00     0.00  -0.00  -0.00
  17   6     0.07  -0.02  -0.08     0.07  -0.02  -0.09     0.02  -0.01  -0.02
  18   6     0.01   0.06  -0.06     0.01   0.05  -0.06     0.00   0.01  -0.01
  19   6     0.01  -0.02   0.00     0.00  -0.01   0.00     0.00  -0.01   0.00
  20   6     0.06  -0.02  -0.07     0.06  -0.02  -0.07     0.01  -0.00  -0.01
  21   6     0.01   0.06  -0.07     0.01   0.06  -0.07     0.00   0.01  -0.01
  22   6     0.00  -0.00  -0.00    -0.00   0.00   0.00     0.00  -0.00   0.00
  23   6    -0.00   0.00   0.00    -0.00  -0.00  -0.00    -0.00  -0.00   0.00
  24   6     0.07   0.02  -0.08    -0.07  -0.02   0.09    -0.01  -0.00   0.02
  25   6     0.01  -0.06  -0.06    -0.01   0.05   0.06    -0.00   0.01   0.01
  26   6     0.01   0.02   0.00    -0.00  -0.01  -0.00    -0.00  -0.00  -0.00
  27   6     0.06   0.02  -0.07    -0.06  -0.02   0.07    -0.01  -0.00   0.01
  28   6     0.01  -0.06  -0.07    -0.01   0.06   0.07    -0.00   0.01   0.01
  29   6    -0.00  -0.00  -0.00     0.00   0.00   0.00    -0.02  -0.02  -0.03
  30   6     0.01  -0.01  -0.01    -0.01   0.01   0.01     0.04  -0.05  -0.06
  31   1    -0.07   0.00  -0.00     0.08  -0.00   0.00    -0.32   0.01  -0.00
  32   1     0.01   0.01   0.01    -0.01  -0.01  -0.01    -0.01  -0.01  -0.02
  33   1    -0.05   0.05   0.07     0.05  -0.06  -0.07    -0.16   0.18   0.24
  34   1     0.00  -0.00  -0.00     0.01  -0.01   0.00     0.16  -0.27   0.00
  35   1     0.00   0.00  -0.00    -0.01  -0.01  -0.00    -0.16  -0.27  -0.00
  36   1    -0.05  -0.05   0.07    -0.05  -0.06   0.07     0.18   0.20  -0.26
  37   1     0.01  -0.01   0.01     0.01  -0.01   0.01     0.01  -0.01   0.02
  38   1    -0.07  -0.00  -0.00    -0.08  -0.00  -0.00     0.35   0.01   0.01
  39   1    -0.03  -0.03   0.04    -0.03  -0.04   0.05     0.15   0.17  -0.21
  40   1     0.00  -0.00   0.00     0.01  -0.01   0.01    -0.07   0.07  -0.10
  41   1    -0.25   0.08   0.29    -0.26   0.08   0.30    -0.05   0.02   0.06
  42   1    -0.04  -0.19   0.22    -0.04  -0.18   0.20    -0.01  -0.03   0.03
  43   1    -0.03   0.05  -0.00    -0.02   0.03  -0.00    -0.01   0.02  -0.00
  44   1    -0.21   0.07   0.25    -0.20   0.06   0.23    -0.04   0.01   0.04
  45   1    -0.04  -0.20   0.23    -0.04  -0.21   0.24    -0.01  -0.04   0.05
  46   1    -0.25  -0.08   0.29     0.26   0.08  -0.30     0.05   0.02  -0.06
  47   1    -0.04   0.19   0.22     0.04  -0.18  -0.20     0.01  -0.03  -0.03
  48   1    -0.03  -0.05  -0.00     0.02   0.03   0.00     0.01   0.01   0.00
  49   1    -0.21  -0.07   0.25     0.20   0.06  -0.23     0.03   0.01  -0.04
  50   1    -0.04   0.20   0.23     0.04  -0.21  -0.24     0.01  -0.04  -0.04
  51   1     0.00   0.00   0.00    -0.01  -0.01  -0.01     0.07   0.06   0.09
  52   1    -0.03   0.03   0.04     0.03  -0.04  -0.05    -0.14   0.15   0.19
                    145                    146                    147
                        a                      a                      a 
 Frequencies --  3081.5184              3082.2189              3087.4619
 Red. masses --     1.8698                 1.8769                 1.9226
 Frc consts  --     0.0000                 0.0000                 0.0000
 IR Inten    --   142.7800               220.2552                67.3948
 Raman Activ --     0.0000                 0.0000                 0.0000
 Depolar     --     0.0000                 0.0000                 0.0000
 Atom AN      X      Y      Z        X      Y      Z        X      Y      Z
   1   6    -0.11   0.00  -0.00     0.04  -0.00   0.00     0.03  -0.00   0.00
   2   6    -0.00  -0.00  -0.00    -0.00  -0.00  -0.00     0.01   0.01   0.02
   3   6    -0.06   0.07   0.09     0.03  -0.03  -0.04    -0.01   0.01   0.01
   4   6    -0.00   0.00   0.00     0.00  -0.00  -0.00    -0.00   0.00  -0.00
   5   6     0.00   0.00   0.00     0.01   0.00   0.00     0.00   0.00   0.00
   6   6    -0.00   0.00  -0.00     0.09  -0.15   0.00     0.00  -0.00  -0.00
   7   6    -0.00  -0.01  -0.00    -0.09  -0.15  -0.00     0.00   0.00  -0.00
   8   6     0.00  -0.00   0.00    -0.01   0.00  -0.00     0.00  -0.00   0.00
   9   6    -0.00  -0.00   0.00    -0.00  -0.00   0.00    -0.00  -0.00  -0.00
  10   6    -0.06  -0.06   0.08    -0.03  -0.03   0.04    -0.01  -0.01   0.01
  11   6    -0.00   0.00  -0.00     0.00  -0.00   0.00     0.01  -0.01   0.02
  12   6    -0.10  -0.00  -0.00    -0.03  -0.00  -0.00     0.03   0.00   0.00
  13   6    -0.05  -0.05   0.06    -0.02  -0.02   0.03     0.01   0.01  -0.01
  14   6     0.03  -0.02   0.03     0.02  -0.02   0.02    -0.00   0.00  -0.01
  15   6     0.00   0.00  -0.00     0.00   0.00   0.00     0.00   0.00  -0.00
  16   6    -0.00   0.00  -0.00    -0.00   0.00  -0.00    -0.00   0.00  -0.00
  17   6     0.01  -0.00  -0.01     0.01  -0.00  -0.01    -0.05   0.02   0.06
  18   6     0.00   0.00  -0.00    -0.00  -0.00   0.00    -0.01  -0.06   0.07
  19   6     0.01  -0.01   0.00     0.01  -0.02   0.00     0.06  -0.10  -0.00
  20   6     0.01  -0.00  -0.02     0.01  -0.00  -0.01     0.06  -0.02  -0.07
  21   6     0.00   0.01  -0.02     0.00   0.01  -0.01     0.01   0.04  -0.05
  22   6     0.00  -0.00  -0.00    -0.00   0.00  -0.00     0.00  -0.00  -0.00
  23   6    -0.00  -0.00  -0.00     0.00   0.00   0.00    -0.00  -0.00  -0.00
  24   6     0.01   0.00  -0.02    -0.01  -0.00   0.01    -0.05  -0.02   0.06
  25   6     0.00  -0.01  -0.01     0.00  -0.00  -0.00    -0.01   0.06   0.07
  26   6     0.01   0.01   0.00    -0.01  -0.02  -0.00     0.06   0.10  -0.00
  27   6     0.01   0.00  -0.02    -0.01  -0.00   0.01     0.06   0.02  -0.07
  28   6     0.00  -0.02  -0.02    -0.00   0.01   0.01     0.01  -0.04  -0.05
  29   6     0.03   0.03   0.04    -0.02  -0.02  -0.02    -0.00  -0.00  -0.01
  30   6    -0.05   0.06   0.07     0.02  -0.02  -0.03     0.01  -0.01  -0.01
  31   1     0.37  -0.02   0.01    -0.12   0.00  -0.00    -0.09   0.00  -0.00
  32   1     0.01   0.01   0.01     0.01   0.01   0.02    -0.04  -0.04  -0.05
  33   1     0.21  -0.24  -0.31    -0.11   0.12   0.16     0.03  -0.04  -0.05
  34   1     0.00  -0.00   0.00    -0.30   0.51  -0.00    -0.00   0.00  -0.00
  35   1     0.01   0.03   0.00     0.30   0.51   0.00    -0.00  -0.00  -0.00
  36   1     0.20   0.22  -0.28     0.11   0.12  -0.16     0.03   0.04  -0.05
  37   1     0.01  -0.01   0.01    -0.01   0.01  -0.02    -0.04   0.04  -0.05
  38   1     0.34   0.01   0.01     0.12   0.00   0.00    -0.09  -0.00  -0.00
  39   1     0.15   0.17  -0.22     0.07   0.07  -0.09    -0.03  -0.03   0.04
  40   1    -0.09   0.08  -0.11    -0.05   0.05  -0.08     0.02  -0.01   0.02
  41   1    -0.04   0.01   0.05    -0.02   0.01   0.02     0.16  -0.05  -0.19
  42   1    -0.00  -0.02   0.02     0.00   0.00  -0.00     0.04   0.20  -0.23
  43   1    -0.02   0.04   0.00    -0.03   0.05   0.00    -0.19   0.33   0.00
  44   1    -0.04   0.01   0.05    -0.04   0.01   0.05    -0.19   0.06   0.22
  45   1    -0.01  -0.05   0.05    -0.01  -0.04   0.04    -0.03  -0.14   0.16
  46   1    -0.05  -0.01   0.05     0.02   0.01  -0.02     0.16   0.05  -0.19
  47   1    -0.00   0.02   0.02    -0.00   0.00   0.00     0.04  -0.20  -0.22
  48   1    -0.02  -0.04   0.00     0.03   0.05  -0.00    -0.19  -0.33   0.00
  49   1    -0.05  -0.01   0.05     0.04   0.01  -0.05    -0.19  -0.06   0.22
  50   1    -0.01   0.05   0.06     0.01  -0.04  -0.04    -0.03   0.14   0.16
  51   1    -0.09  -0.09  -0.12     0.06   0.05   0.08     0.02   0.01   0.02
  52   1     0.16  -0.18  -0.23    -0.07   0.07   0.09    -0.03   0.03   0.04
                    148                    149                    150
                        a                      a                      a 
 Frequencies --  3087.5597              3089.0021              3089.2175
 Red. masses --     1.9229                 1.9060                 1.9064
 Frc consts  --     0.0000                 0.0000                 0.0000
 IR Inten    --    67.7404                81.1751                 3.0807
 Raman Activ --     0.0000                 0.0000                 0.0000
 Depolar     --     0.0000                 0.0000                 0.0000
 Atom AN      X      Y      Z        X      Y      Z        X      Y      Z
   1   6     0.01  -0.00   0.00     0.09  -0.00   0.00     0.09  -0.00   0.00
   2   6     0.00   0.00   0.00     0.05   0.05   0.07     0.05   0.05   0.07
   3   6     0.00  -0.00  -0.01    -0.06   0.07   0.09    -0.07   0.07   0.09
   4   6     0.00  -0.00  -0.00    -0.01   0.00   0.00    -0.01   0.00   0.00
   5   6     0.00   0.00   0.00    -0.00   0.00  -0.00     0.00   0.00   0.00
   6   6     0.01  -0.02   0.00    -0.00   0.00   0.00     0.01  -0.02   0.00
   7   6    -0.01  -0.02  -0.00     0.00  -0.00   0.00    -0.01  -0.02  -0.00
   8   6    -0.00   0.00  -0.00    -0.00  -0.00  -0.00    -0.00   0.00  -0.00
   9   6    -0.00  -0.00   0.00    -0.01  -0.00   0.00     0.01   0.00  -0.00
  10   6    -0.00  -0.00   0.01    -0.06  -0.07   0.09     0.06   0.07  -0.09
  11   6    -0.00   0.00  -0.00     0.05  -0.05   0.07    -0.05   0.05  -0.07
  12   6    -0.01  -0.00  -0.00     0.09   0.00   0.00    -0.09  -0.00  -0.00
  13   6    -0.00  -0.00   0.00     0.03   0.03  -0.04    -0.03  -0.03   0.04
  14   6     0.00  -0.00   0.00    -0.02   0.02  -0.02     0.02  -0.02   0.03
  15   6     0.00   0.00  -0.00     0.00  -0.00  -0.00    -0.00   0.00   0.00
  16   6     0.00  -0.00  -0.00     0.00  -0.00  -0.00    -0.00   0.00   0.00
  17   6     0.04  -0.01  -0.05     0.02  -0.01  -0.02    -0.00   0.00   0.00
  18   6     0.01   0.06  -0.07     0.00   0.01  -0.02    -0.00  -0.00   0.00
  19   6    -0.06   0.10   0.00    -0.01   0.02   0.00    -0.00   0.00   0.00
  20   6    -0.06   0.02   0.07    -0.01   0.00   0.01    -0.00   0.00   0.00
  21   6    -0.01  -0.04   0.05    -0.00  -0.01   0.01     0.00  -0.00   0.00
  22   6    -0.00   0.00   0.00     0.00   0.00  -0.00     0.00   0.00  -0.00
  23   6    -0.00  -0.00   0.00     0.00   0.00  -0.00     0.00   0.00  -0.00
  24   6    -0.04  -0.01   0.05     0.02   0.01  -0.02     0.00   0.00  -0.00
  25   6    -0.01   0.06   0.07     0.00  -0.01  -0.02     0.00  -0.00  -0.00
  26   6     0.06   0.10  -0.00    -0.01  -0.02   0.00     0.00   0.00  -0.00
  27   6     0.06   0.02  -0.07    -0.01  -0.00   0.01     0.00   0.00  -0.00
  28   6     0.01  -0.04  -0.05    -0.00   0.01   0.01    -0.00  -0.00   0.00
  29   6    -0.00  -0.00  -0.00    -0.02  -0.02  -0.02    -0.02  -0.02  -0.03
  30   6     0.00  -0.00  -0.00     0.03  -0.03  -0.04     0.03  -0.03  -0.04
  31   1    -0.02   0.00  -0.00    -0.30   0.01  -0.00    -0.31   0.01  -0.00
  32   1    -0.00  -0.00  -0.01    -0.15  -0.15  -0.21    -0.16  -0.16  -0.23
  33   1    -0.02   0.02   0.02     0.22  -0.24  -0.31     0.22  -0.25  -0.32
  34   1    -0.03   0.05  -0.00     0.00  -0.00   0.00    -0.03   0.05  -0.00
  35   1     0.03   0.05   0.00     0.00   0.00   0.00     0.03   0.05   0.00
  36   1     0.02   0.02  -0.02     0.22   0.25  -0.32    -0.22  -0.24   0.31
  37   1     0.00  -0.00   0.00    -0.16   0.16  -0.22     0.16  -0.15   0.22
  38   1     0.02   0.00   0.00    -0.30  -0.01  -0.00     0.30   0.01   0.00
  39   1     0.01   0.01  -0.01    -0.09  -0.10   0.13     0.09   0.10  -0.13
  40   1    -0.00   0.00  -0.01     0.06  -0.06   0.08    -0.06   0.06  -0.09
  41   1    -0.15   0.05   0.17    -0.05   0.02   0.06     0.01  -0.00  -0.01
  42   1    -0.04  -0.21   0.23    -0.01  -0.05   0.05     0.00   0.00  -0.00
  43   1     0.20  -0.34  -0.00     0.03  -0.06  -0.00     0.00  -0.01  -0.00
  44   1     0.19  -0.06  -0.22     0.03  -0.01  -0.04     0.00  -0.00  -0.01
  45   1     0.03   0.14  -0.15     0.01   0.03  -0.03     0.00   0.00  -0.00
  46   1     0.15   0.05  -0.18    -0.05  -0.02   0.06    -0.01  -0.00   0.01
  47   1     0.04  -0.21  -0.24    -0.01   0.05   0.05    -0.00   0.00   0.00
  48   1    -0.20  -0.35   0.00     0.03   0.06  -0.00    -0.00  -0.00   0.00
  49   1    -0.19  -0.06   0.23     0.03   0.01  -0.04    -0.00  -0.00   0.00
  50   1    -0.03   0.14   0.16     0.01  -0.03  -0.03    -0.00  -0.00  -0.00
  51   1     0.01   0.00   0.01     0.06   0.06   0.08     0.06   0.06   0.09
  52   1    -0.01   0.01   0.01    -0.09   0.10   0.12    -0.09   0.11   0.13
