$hessian                                                                        
        0.6738641429  -0.0187535493   0.0144461571  -0.1509156251   0.0876214662
        0.1089106785  -0.0346126866   0.0167550976   0.0202135227   0.0061528377
       -0.0013636164  -0.0005939505  -0.0019272925  -0.0001172386   0.0000509065
        0.0003626382   0.0003653037   0.0003363984  -0.0001587999   0.0001176648
       -0.0000521229   0.0001167868  -0.0000171729  -0.0000160241   0.0000073178
        0.0000062998   0.0000158700   0.0000284219  -0.0000176025   0.0000181561
       -0.0000080775   0.0000088127  -0.0000181877  -0.0000281770  -0.0000013973
       -0.0000013359  -0.0000048203  -0.0000097928   0.0000172223   0.0000216489
        0.0000174673  -0.0000171161  -0.0001276715  -0.0001026093   0.0000166288
        0.0000212798  -0.0000289673   0.0000126525   0.0000031566  -0.0000042380
        0.0000040203  -0.0000026228   0.0000149208  -0.0000113037  -0.0000098805
        0.0000160998  -0.0000019020  -0.0000025716  -0.0000041196   0.0000061144
       -0.0000019671  -0.0000075373  -0.0000077610   0.0004476436  -0.0004023273
       -0.0002585497  -0.0000610867   0.0000014223   0.0000943655   0.0000054576
        0.0000026875   0.0000108310  -0.0000039631  -0.0000224677  -0.0000200754
        0.0000092194   0.0000088286   0.0000149835   0.0000369691   0.0000457241
        0.0000274079   0.0000283603   0.0000364712   0.0000313670  -0.0384207381
       -0.0129434262  -0.0204708406  -0.1578335371  -0.0829864894  -0.1177153025
       -0.2984861858   0.0114860206  -0.0035266879   0.0066427780  -0.0080176579
       -0.0104733818  -0.0058545252   0.0007417394  -0.0000782685  -0.0000270252
        0.0001047420  -0.0000498648   0.0000053547   0.0000084402  -0.0000162789
       -0.0000004690  -0.0000024436  -0.0000010428  -0.0000063470  -0.0000033955
        0.0000038227   0.0000013175  -0.0000002159  -0.0000003361  -0.0000076553
        0.0000018786  -0.0000034413  -0.0000018132   0.0000015769   0.0000009480
       -0.0000108650  -0.0000086097   0.0000047735  -0.0000052466   0.0000026214
        0.0000000882  -0.0000012545  -0.0000013295  -0.0000041826  -0.0000030504
        0.0000036825  -0.0000044426   0.0000046923   0.0000010827  -0.0000060376
        0.0000278375  -0.0000074540  -0.0000701974   0.0000039259   0.0000026947
       -0.0000182383   0.0000100057   0.0000006555  -0.0000177511   0.0000302824
        0.0000402011  -0.0000372468  -0.0000905385  -0.0000194334  -0.0000399515
       -0.0058871553   0.0003880893  -0.0004710321   0.0066695741   0.0070414001
        0.0097659392
       -0.0187535493   0.3094604100   0.2564833954   0.0399980152  -0.1334995304
       -0.1122526377   0.0529287777   0.0077672660   0.0122980363  -0.0011224215
       -0.0277943011  -0.0288507144   0.0001243437  -0.0003469633   0.0000713371
       -0.0002620264  -0.0001149913   0.0000858723   0.0000282151  -0.0000253663
       -0.0000658642  -0.0000201736   0.0000543948  -0.0000067172  -0.0000018992
        0.0000131182   0.0000184678   0.0000049703   0.0000012511  -0.0000055670
       -0.0000020869   0.0000037502  -0.0000008300   0.0000014018  -0.0000010744
       -0.0000024790  -0.0000019815  -0.0000009591  -0.0000038695  -0.0000005365
       -0.0000048603  -0.0000029520  -0.0000596047  -0.0000272624   0.0000245720
        0.0000145785   0.0000035120  -0.0000041034   0.0000079110   0.0000133795
       -0.0000033453  -0.0000010748   0.0000036264   0.0000057851   0.0000022123
        0.0000024859   0.0000038852   0.0000003337  -0.0000023798   0.0000055866
       -0.0000013034   0.0000049062   0.0000098758   0.0000807507  -0.0000833971
        0.0000826357   0.0000598218  -0.0000395457  -0.0000579249  -0.0000049319
        0.0001480908   0.0000329325  -0.0000560928  -0.0000722138   0.0000526420
        0.0000328522  -0.0000294825  -0.0000897329   0.0000338197   0.0000947367
        0.0000854148   0.0000395562  -0.0001821832  -0.0000215583  -0.0492070369
        0.0134458954   0.0126933839  -0.0352891648  -0.1242679570  -0.1035216611
        0.0114854615  -0.0379951770  -0.0047473747   0.0063939021  -0.0090353055
       -0.0123647028   0.0004125574   0.0057017242  -0.0031779182   0.0000365411
        0.0001480339   0.0000213673  -0.0000123549   0.0000178916  -0.0000084594
       -0.0000002797  -0.0000041995  -0.0000002304   0.0000022105   0.0000014327
        0.0000000909   0.0000005563  -0.0000009946  -0.0000019177   0.0000017552
       -0.0000047066  -0.0000039948  -0.0000006147  -0.0000051762  -0.0000033718
       -0.0000032399  -0.0000010874   0.0000007474  -0.0000004227   0.0000015402
        0.0000074234  -0.0000017042  -0.0000021092   0.0000077002  -0.0000001636
       -0.0000039798   0.0000052861  -0.0000029278  -0.0000052677   0.0000058577
       -0.0000205512   0.0000074949   0.0000333036   0.0000013302  -0.0000069692
        0.0000152144  -0.0000130636   0.0000064375   0.0000085685  -0.0000114895
        0.0000064243   0.0000117899  -0.0000673390   0.0000194178   0.0000185403
        0.0007712923   0.0057605306  -0.0032889489  -0.0075451315  -0.0091303104
       -0.0136028365
        0.0144461571   0.2564833954   0.4555834589   0.0450505171  -0.1084088454
       -0.1887310843   0.0680797490   0.0102185850   0.0190724037  -0.0007385400
       -0.0290331788  -0.0446635233   0.0000635504  -0.0002253248  -0.0002375797
       -0.0003364398  -0.0001821508   0.0002228710   0.0000656263  -0.0000116287
       -0.0000762177  -0.0000322436   0.0001111883  -0.0000149444   0.0000003971
        0.0000220871   0.0000278711  -0.0000022576   0.0000024358   0.0000001595
        0.0000036901  -0.0000080258  -0.0000023950  -0.0000013364   0.0000024763
        0.0000005280  -0.0000020349   0.0000010861   0.0000031900  -0.0000051361
        0.0000047221  -0.0000016530  -0.0001328310  -0.0000439772   0.0000457020
        0.0000194126  -0.0000017733  -0.0000041681   0.0000172548   0.0000115171
       -0.0000030075  -0.0000043219  -0.0000007435  -0.0000070002   0.0000046617
        0.0000034669  -0.0000050477  -0.0000067119   0.0000018625  -0.0000045402
        0.0000000994   0.0000131296   0.0000043144   0.0001074599  -0.0001529534
        0.0001186817   0.0001588688  -0.0001480936  -0.0000382163   0.0000233919
        0.0001899552   0.0000804580  -0.0000611728  -0.0000831441   0.0000661180
        0.0000452407  -0.0000543091  -0.0001523309   0.0000757085   0.0001257907
        0.0000886134   0.0001817823  -0.0003266746  -0.0000075718  -0.0682623754
        0.0156340029   0.0166821702  -0.0540084187  -0.1069444535  -0.1922825925
       -0.0035240582  -0.0047107533  -0.0404330888   0.0090204219  -0.0137972329
       -0.0165556331  -0.0005818157  -0.0032194876   0.0038035409   0.0000120968
        0.0002251169   0.0000225742  -0.0000134485   0.0000250562   0.0000024126
        0.0000156583  -0.0000152925  -0.0000026676   0.0000017422  -0.0000040245
       -0.0000013142   0.0000005233  -0.0000010306   0.0000018286  -0.0000023422
        0.0000013183   0.0000026723  -0.0000014043   0.0000008012   0.0000079994
       -0.0000047382  -0.0000015333  -0.0000076808  -0.0000002160  -0.0000067188
       -0.0000006403   0.0000006573  -0.0000032250  -0.0000065521   0.0000000450
        0.0000000247  -0.0000022527  -0.0000045994   0.0000006114   0.0000062685
       -0.0000300632   0.0000050022   0.0000544642   0.0000018078  -0.0000043436
        0.0000161930  -0.0000171788  -0.0000012229  -0.0000000615  -0.0000196403
       -0.0000144983   0.0000324473  -0.0000617082   0.0000202725   0.0000622672
        0.0000396469  -0.0031195980   0.0037830271  -0.0095811341  -0.0125796665
       -0.0165504712
       -0.1509156251   0.0399980152   0.0450505171   0.6578390553  -0.0150614079
        0.0218015880  -0.3352165117   0.0378043409   0.0262187638  -0.0387172035
       -0.0474563110  -0.0664327242   0.0022583470  -0.0015423496  -0.0021219367
       -0.0014002954  -0.0007951368  -0.0002900313   0.0002154971  -0.0002235827
        0.0000774574  -0.0001703374   0.0001025525  -0.0000269094   0.0000300561
        0.0000074251  -0.0000099783   0.0000005223   0.0000407257  -0.0000155255
        0.0000113823   0.0000078717  -0.0000066056  -0.0000080773   0.0000020842
        0.0000036901   0.0000084984   0.0000008853   0.0000075025   0.0000062680
       -0.0000282780   0.0000240224   0.0002042645   0.0000502280   0.0001974504
        0.0000131494   0.0000454958  -0.0000341422   0.0000346880  -0.0000126465
        0.0000035705   0.0000073979  -0.0000003349  -0.0000095565  -0.0000026279
        0.0000137996  -0.0000045808  -0.0000014838  -0.0000101553   0.0000138636
        0.0000137297  -0.0000352032   0.0000259919  -0.0004123507   0.0004257864
        0.0006628602   0.0000522914  -0.0001777031  -0.0001956299  -0.0000879912
        0.0002059782   0.0001896796  -0.0001424032  -0.0001549821   0.0001572781
        0.0001029117   0.0000089195  -0.0001487946   0.0001879968   0.0002255459
        0.0000862572   0.0000041198  -0.0004331253   0.0001243042  -0.0476225582
        0.0191070933   0.0225861544   0.0600861304   0.0144576248   0.0237012103
       -0.0181381201   0.0165694639   0.0205635845  -0.1100796035  -0.0643627911
       -0.0910816824  -0.0173709648   0.0023177120   0.0017340428  -0.0000254120
        0.0002743830  -0.0000239696  -0.0000252537   0.0000446659   0.0000416808
       -0.0000104998  -0.0000076795   0.0000026292  -0.0000039363   0.0000021816
       -0.0000011135  -0.0000062645   0.0000053991   0.0000006320  -0.0000057955
        0.0000048308  -0.0000000290  -0.0000145047   0.0000079972  -0.0000106955
       -0.0000171541  -0.0000000805  -0.0000116024  -0.0000004579   0.0000085036
       -0.0000021671   0.0000023515   0.0000040701  -0.0000024877   0.0000035380
        0.0000054876  -0.0000070106  -0.0000046068   0.0000194271  -0.0000105529
        0.0000505329   0.0000180356  -0.0000692966   0.0000270047  -0.0000357735
       -0.0000499369  -0.0000201144  -0.0000328836  -0.0000314636   0.0000191218
        0.0000019011  -0.0000102569  -0.0000496427  -0.0000742289  -0.0000719038
       -0.0001416187   0.0005184872   0.0004457360  -0.0005674406  -0.0018622643
       -0.0030398835
        0.0876214662  -0.1334995304  -0.1084088454  -0.0150614079   0.3139640152
        0.2637988433  -0.0106890422  -0.0651482183  -0.0244369435  -0.0125283603
        0.0128336511   0.0151833718  -0.0021172480   0.0035973838  -0.0054380660
        0.0009703103   0.0001878145   0.0001485969  -0.0001158268   0.0002942852
        0.0005329276   0.0000646880  -0.0001251470   0.0000063325   0.0000000092
        0.0000051177  -0.0001047681  -0.0000096641  -0.0000126406   0.0000131658
       -0.0000078696   0.0000197487  -0.0000063365  -0.0000088111   0.0000037430
        0.0000080250  -0.0000124132   0.0000121342   0.0000112330   0.0000295019
        0.0000178357  -0.0000098116  -0.0001157332   0.0001623890   0.0003935340
       -0.0000393755  -0.0000199243  -0.0000119979  -0.0000037723   0.0000095909
       -0.0000001658   0.0000056171   0.0000099246  -0.0000095736   0.0000016860
        0.0000100434  -0.0000072184   0.0000050185   0.0000099566   0.0000039776
       -0.0000054688   0.0000140916   0.0000007024  -0.0009058364  -0.0003156032
       -0.0002025766  -0.0000473169  -0.0000221175  -0.0001418634   0.0000618542
       -0.0001609251   0.0000683510   0.0000740865   0.0000806534  -0.0000227708
       -0.0000306166   0.0000077302   0.0000241094   0.0001444983  -0.0000573613
        0.0000460198   0.0001520833  -0.0000454046   0.0000399793   0.0204830469
       -0.0101075982  -0.0046787441  -0.0213275712  -0.0237014703  -0.0347212231
        0.0019166411  -0.0007261670  -0.0017389733  -0.0640929616  -0.1001035311
       -0.0933590783   0.0167481412  -0.0009288296  -0.0013704444   0.0000101456
       -0.0000260927  -0.0001643761   0.0000680315   0.0000111453  -0.0000258487
        0.0000023374  -0.0000066527  -0.0000057725  -0.0000025413   0.0000009842
        0.0000015329   0.0000009997   0.0000062991   0.0000027892  -0.0000033710
        0.0000093636   0.0000038914  -0.0000045440   0.0000005134   0.0000106311
       -0.0000037410  -0.0000090917  -0.0000072260   0.0000034990  -0.0000021055
       -0.0000071241   0.0000037043  -0.0000003942  -0.0000119068   0.0000038161
        0.0000082706  -0.0000071814  -0.0000026448   0.0000045783  -0.0000023629
       -0.0000277736   0.0000068799   0.0000065084  -0.0000002163  -0.0000002571
       -0.0000114801  -0.0000101082  -0.0000085076  -0.0000126789  -0.0000072584
        0.0000164189  -0.0000144111  -0.0000549496  -0.0000296657  -0.0000370683
        0.0003669824   0.0000301903   0.0004207213  -0.0015017209   0.0037224831
       -0.0057484062
        0.1089106785  -0.1122526377  -0.1887310843   0.0218015880   0.2637988433
        0.4699617590  -0.0361921975  -0.0216049920  -0.0777374938  -0.0200916800
        0.0138027474   0.0166150539  -0.0024965602  -0.0054215240  -0.0002142314
       -0.0012359994   0.0000020055   0.0000520415  -0.0002190619  -0.0003091948
        0.0001038022   0.0000691593  -0.0000193135  -0.0000097835  -0.0000043933
        0.0000082253  -0.0000072289   0.0000246010   0.0000040403   0.0000079205
       -0.0000066080   0.0000063563  -0.0000201519  -0.0000181851   0.0000008276
       -0.0000024124  -0.0000095302  -0.0000058756   0.0000169967   0.0000327706
        0.0000012175  -0.0000114947  -0.0000182913  -0.0001081817  -0.0001002701
        0.0000152298   0.0000275008   0.0000213533   0.0000161946  -0.0000117819
        0.0000048071  -0.0000073676   0.0000078032  -0.0000105120  -0.0000042640
        0.0000091320   0.0000103362  -0.0000123031  -0.0000006053   0.0000100477
        0.0000083680  -0.0000221919   0.0000030971   0.0007086738  -0.0001547874
       -0.0000452265  -0.0000638523   0.0001907327  -0.0000111595   0.0000524070
       -0.0001270146  -0.0000259598   0.0001256206   0.0001162875  -0.0000909984
       -0.0000792153   0.0000249843   0.0001073594  -0.0001078023  -0.0000654701
       -0.0000615442  -0.0000415638   0.0003678116  -0.0000854940   0.0239165153
       -0.0045063558  -0.0102330792  -0.0238823185  -0.0320171110  -0.0427572889
        0.0012247091  -0.0006950754  -0.0001627666  -0.0913454241  -0.0931029200
       -0.1663263630   0.0212458276  -0.0023754420  -0.0008659097  -0.0000611349
        0.0000443032  -0.0000270242  -0.0000905252  -0.0000097102  -0.0000126939
        0.0000090149  -0.0000047855  -0.0000082584   0.0000041620  -0.0000022609
        0.0000065887   0.0000100080   0.0000000160  -0.0000008598   0.0000024746
        0.0000027747  -0.0000104831  -0.0000049646  -0.0000042660   0.0000024755
       -0.0000008581   0.0000045294  -0.0000016233   0.0000004024  -0.0000076700
        0.0000143635   0.0000073640  -0.0000095418   0.0000065258   0.0000069002
       -0.0000069261   0.0000009091  -0.0000032554  -0.0000007963   0.0000072765
       -0.0000343977   0.0000003618   0.0000295316   0.0000052648  -0.0000201992
        0.0000007004  -0.0000089052  -0.0000421188   0.0000171330  -0.0000065424
        0.0000106323   0.0000149968  -0.0000394182  -0.0000533859   0.0000011321
        0.0004741196   0.0003506491   0.0003427672  -0.0025854339  -0.0058196463
        0.0002124206
       -0.0346126866   0.0529287777   0.0680797490  -0.3352165117  -0.0106890422
       -0.0361921975   0.6624224374  -0.0291920206   0.0040271993  -0.1442511995
       -0.0335693976  -0.0536072917  -0.0290665835  -0.0146803729  -0.0205330380
       -0.0019105278   0.0026260163  -0.0000654584  -0.0014937145  -0.0005166766
        0.0013567519   0.0005663648  -0.0004417204   0.0000112976  -0.0000142115
        0.0000010359  -0.0002530532  -0.0000737644  -0.0000693589   0.0000397640
        0.0000005074   0.0000097571   0.0000245927   0.0000283983  -0.0000048905
       -0.0000022901  -0.0000008497   0.0000238781  -0.0000413492  -0.0000099684
        0.0000908637  -0.0000396058  -0.0001128461   0.0000211385   0.0008345068
        0.0000000357  -0.0001805780   0.0000203070  -0.0000377034   0.0000232544
        0.0000380379   0.0000198293  -0.0000205297   0.0000231686   0.0000043903
       -0.0000049796   0.0000029520   0.0000165596  -0.0000083068  -0.0000025641
       -0.0000062979   0.0000860190  -0.0000260502   0.0006677413  -0.0023544332
       -0.0012917174  -0.0007376443   0.0007602775  -0.0004342020   0.0001047497
       -0.0002418805  -0.0001219697  -0.0000461174   0.0002725171  -0.0000578433
       -0.0000723299   0.0002060235   0.0001309499  -0.0001861279  -0.0001939864
       -0.0003644535  -0.0002053891   0.0010978958  -0.0005203002   0.0569139786
       -0.0184379164  -0.0218230824  -0.0496456808  -0.0166314268  -0.0253213772
       -0.0004217401   0.0019843197   0.0020534114  -0.0185465498  -0.0004363363
       -0.0027425955  -0.1028362892   0.0659327483   0.0852440667   0.0000033194
       -0.0001032711  -0.0004609712  -0.0003738155  -0.0000665955  -0.0000074439
        0.0000125780  -0.0000023647   0.0000052632  -0.0000254312   0.0000121828
       -0.0000208760  -0.0000246646  -0.0000049668  -0.0000107251  -0.0000231306
       -0.0000184650   0.0000053975   0.0000179738  -0.0000083007  -0.0000273612
        0.0000049145  -0.0000109072   0.0000099550  -0.0000035295   0.0000300379
       -0.0000130073  -0.0000178928   0.0000210906  -0.0000005024  -0.0000262971
        0.0000174120   0.0000153830  -0.0000080361  -0.0000165149  -0.0000162442
       -0.0000333435  -0.0000272497  -0.0000163989  -0.0000200103   0.0000573546
        0.0000143413   0.0000260653  -0.0000017121   0.0000222011  -0.0000023780
       -0.0000044054   0.0000437034   0.0000764813   0.0000384479  -0.0000314279
       -0.0006385701   0.0021606005   0.0025139857  -0.0001844922  -0.0004630424
       -0.0004715870
        0.0167550976   0.0077672660   0.0102185850   0.0378043409  -0.0651482183
       -0.0216049920  -0.0291920206   0.3078894599   0.2566827237  -0.0704471978
       -0.1179206748  -0.0985918108  -0.0105311196   0.0017155873  -0.0003448328
        0.0013754260   0.0012983298   0.0000937647  -0.0005338704   0.0001292634
        0.0000529006   0.0005427949   0.0001063691  -0.0000156981  -0.0002487874
       -0.0000106936  -0.0000378878   0.0000694312   0.0000001180  -0.0000280610
       -0.0000407223  -0.0000126511  -0.0000040187   0.0000176064   0.0000012179
       -0.0000024351  -0.0000307019   0.0000148252   0.0000039813   0.0000983035
       -0.0000315901   0.0000329096  -0.0008686633  -0.0003267424   0.0000847656
        0.0000080646   0.0000384693   0.0000717950   0.0000351988  -0.0000143271
       -0.0000120794  -0.0000165803   0.0000185220  -0.0000057635   0.0000076368
        0.0000054835  -0.0000188997  -0.0000085137  -0.0000001806   0.0000054617
       -0.0000435964  -0.0000446363   0.0000536139   0.0022709982  -0.0017289826
       -0.0006921248   0.0009984446  -0.0007794307   0.0002098911  -0.0000672610
        0.0001251066   0.0001841616  -0.0000731321  -0.0002253993   0.0000938413
        0.0001098141  -0.0000765702  -0.0003051742   0.0002737352   0.0001163564
        0.0002190839   0.0000698058  -0.0008337528   0.0006353658   0.0128290797
       -0.0215409646  -0.0305002591  -0.0157988893  -0.0068067804  -0.0029062335
        0.0022565175   0.0033533670  -0.0058054608  -0.0149847441   0.0005298941
       -0.0015667557   0.0656884232  -0.1104710415  -0.1004460154  -0.0000768044
       -0.0001184010  -0.0000494229   0.0000795732   0.0000670242   0.0000034258
       -0.0000103569  -0.0000246387   0.0000134018   0.0000160781  -0.0000099533
        0.0000106536   0.0000134566  -0.0000041107   0.0000000873   0.0000226153
        0.0000040040  -0.0000110610  -0.0000046057   0.0000222606  -0.0000142813
       -0.0000226137   0.0000165412  -0.0000056746   0.0000002242  -0.0000136317
        0.0000081793   0.0000076474  -0.0000138914  -0.0000032996   0.0000210299
       -0.0000129619  -0.0000137884   0.0000326323   0.0000186492  -0.0000220308
        0.0000732413  -0.0000598274  -0.0000451344   0.0000232979  -0.0000581009
       -0.0000004015  -0.0000358252  -0.0000254843  -0.0000169338   0.0000028858
        0.0000005613   0.0000111532   0.0000584360  -0.0000025001  -0.0001821068
        0.0018692289   0.0029922259  -0.0058735562  -0.0003950599   0.0000852357
        0.0004364480
        0.0202135227   0.0122980363   0.0190724037   0.0262187638  -0.0244369435
       -0.0777374938   0.0040271993   0.2566827237   0.4616400181  -0.1090758948
       -0.0969052258  -0.1850306700  -0.0086222501  -0.0012124372  -0.0005099619
        0.0020093652   0.0012346944   0.0005482686  -0.0003994587  -0.0000608815
        0.0000084344   0.0002275797  -0.0002580575  -0.0000180466  -0.0001450496
       -0.0000279282   0.0000157946   0.0000397797   0.0000281462  -0.0000401165
       -0.0000155359  -0.0000130746   0.0000078694   0.0000181400   0.0000056328
        0.0000000706  -0.0000260906   0.0000137356  -0.0000026515   0.0000366425
       -0.0000265736   0.0000182308   0.0000679250  -0.0001889074  -0.0000547541
        0.0000478838   0.0000561064   0.0000110893   0.0000241294  -0.0000279127
       -0.0000035696  -0.0000029221  -0.0000145650  -0.0000017448   0.0000120861
       -0.0000025598  -0.0000048865  -0.0000066316   0.0000154649  -0.0000090031
        0.0000011856  -0.0000577510  -0.0000116246   0.0016448162  -0.0000542477
       -0.0004828523  -0.0004971313   0.0005302274   0.0001412100  -0.0001955276
        0.0001192267  -0.0004099823  -0.0001664410  -0.0002153840  -0.0000966287
        0.0000056419  -0.0000442235  -0.0000705054  -0.0001566070   0.0000028576
       -0.0000766588  -0.0003996018   0.0007044307   0.0001388728   0.0215859553
       -0.0324697892  -0.0409854155  -0.0240323429  -0.0030180504  -0.0115071287
        0.0024710636  -0.0058827408   0.0002765780  -0.0217826143  -0.0004997279
       -0.0015116209   0.0852530630  -0.1006373238  -0.1632298859  -0.0000374203
       -0.0002334048  -0.0000754511   0.0000673606   0.0000809484  -0.0000365388
        0.0000006578  -0.0000209175   0.0000266303   0.0000135772  -0.0000014709
        0.0000105858   0.0000055658   0.0000023810   0.0000056625   0.0000107072
        0.0000053616  -0.0000024627  -0.0000067862   0.0000195256  -0.0000062039
       -0.0000182779   0.0000178948   0.0000304246   0.0000004894  -0.0000073087
        0.0000161901   0.0000084286  -0.0000059322   0.0000065042   0.0000185593
       -0.0000053407  -0.0000025069   0.0000206583   0.0000186474  -0.0000079126
        0.0000965699  -0.0000077767  -0.0001142846   0.0000010446  -0.0000001025
       -0.0000336173   0.0000291636  -0.0000149276  -0.0000119486   0.0000556777
        0.0000256131  -0.0000486625  -0.0000615153   0.0000913616  -0.0004668162
        0.0019613211  -0.0059363357   0.0002464568  -0.0005464248   0.0003348064
        0.0003803119
        0.0061528377  -0.0011224215  -0.0007385400  -0.0387172035  -0.0125283603
       -0.0200916800  -0.1442511995  -0.0704471978  -0.1090758948   0.6210457650
       -0.0128381130   0.0146830819  -0.2191319889   0.0044025669  -0.0020712507
       -0.0301883905  -0.0145904392  -0.0045379692   0.0021583180  -0.0030893236
       -0.0002807879  -0.0019744465  -0.0000257100  -0.0000427040   0.0003960106
       -0.0000051675   0.0000372176  -0.0000141905   0.0002488056  -0.0001450057
        0.0000300593  -0.0000000110  -0.0000043960   0.0000073187   0.0000018913
        0.0000003960   0.0000409698  -0.0000053612   0.0000135302  -0.0000021180
       -0.0002484571   0.0001346914   0.0023582406   0.0026094619  -0.0000845114
       -0.0005876943   0.0004087293  -0.0001332717   0.0000670268  -0.0001330259
       -0.0000298386  -0.0000114948   0.0000224915  -0.0000092070   0.0000104976
       -0.0000364271   0.0000091492   0.0000058700   0.0000640799   0.0000233856
        0.0000497041  -0.0001764797   0.0000324323  -0.0259866869   0.0143838598
        0.0042354236   0.0005486043  -0.0004178137  -0.0002809559  -0.0003801255
       -0.0001036959   0.0001493180  -0.0001149254  -0.0000803824  -0.0001846534
       -0.0000414666  -0.0000632378   0.0000204048  -0.0001133970  -0.0000789557
       -0.0001165049  -0.0000134379   0.0002936895  -0.0001167029  -0.1389557033
        0.0760059593   0.0996414649  -0.0349592508   0.0166831485   0.0197664392
        0.0008339612  -0.0000134279  -0.0000243912  -0.0059857937   0.0002508875
       -0.0003419440   0.0065444636   0.0058585898   0.0097724989   0.0007059647
        0.0011715666   0.0003478606  -0.0003311958   0.0001015803   0.0002880529
       -0.0000418891  -0.0000332319   0.0000287490   0.0000413194  -0.0000206635
        0.0000097030   0.0000155188  -0.0000001614   0.0000033393   0.0000398662
        0.0000144828  -0.0000075772  -0.0000374449   0.0000197259  -0.0000233031
       -0.0000575136   0.0000492403   0.0000179016   0.0000024119  -0.0000441328
        0.0000241770   0.0000113485  -0.0000262382  -0.0000032160   0.0000378363
       -0.0000242968  -0.0000251905  -0.0000053227   0.0000579629  -0.0000461563
        0.0000909997  -0.0000131325  -0.0000362550  -0.0000329225  -0.0001117517
       -0.0000381962   0.0000002470  -0.0000734183   0.0000102411  -0.0000900272
       -0.0001122116   0.0000461558   0.0003221374   0.0001879425  -0.0003136783
        0.0064850940  -0.0072347147  -0.0102960851  -0.0059765621   0.0008612998
       -0.0001957470
       -0.0013636164  -0.0277943011  -0.0290331788  -0.0474563110   0.0128336511
        0.0138027474  -0.0335693976  -0.1179206748  -0.0969052258  -0.0128381130
        0.3400068513   0.2401073101   0.0055565108  -0.0627232727  -0.0044820565
       -0.0259133721  -0.0005789152   0.0001706585  -0.0028410621  -0.0040472694
        0.0001426930  -0.0000019986  -0.0004366098   0.0000929665   0.0000051628
        0.0000265083   0.0000082017  -0.0000009724  -0.0000106923   0.0000279580
       -0.0000074235   0.0000051069  -0.0000082301  -0.0000062994   0.0000131222
       -0.0000220911   0.0000080977   0.0000026329  -0.0000028979  -0.0000206969
        0.0000300121   0.0000153509   0.0025369900  -0.0041034088   0.0001639683
        0.0010868453   0.0002117718  -0.0000276960   0.0000635431  -0.0000770791
       -0.0000623067  -0.0000613734   0.0000026856  -0.0000319787   0.0000082323
        0.0000119782  -0.0000167991  -0.0000355429  -0.0000583762  -0.0000682165
        0.0001094991  -0.0002431244   0.0000388539   0.0245824659  -0.0016940718
        0.0000616282   0.0020487936  -0.0004340563  -0.0002621351   0.0002798502
        0.0002714065   0.0001734339  -0.0001425139  -0.0001176860   0.0000678684
        0.0000347637  -0.0000817385  -0.0002172780   0.0000717945   0.0001659649
        0.0001793944   0.0004674250  -0.0012225263   0.0005166975   0.0382109402
       -0.1320666546  -0.1050405980   0.0518120983   0.0068768694   0.0134287369
       -0.0000433908  -0.0001950047  -0.0003742681   0.0008834658   0.0057098277
       -0.0031943799  -0.0068305595  -0.0090042072  -0.0136946639  -0.0013140301
        0.0004150050  -0.0003065456  -0.0013651032  -0.0002176445  -0.0000119145
       -0.0000144969  -0.0000027862  -0.0000244930  -0.0000047133  -0.0000020025
       -0.0000007762   0.0000000914  -0.0000021407  -0.0000010768   0.0000011151
       -0.0000018140   0.0000012255   0.0000261436  -0.0000031595  -0.0000262462
        0.0000304814   0.0000346637  -0.0000061508   0.0000069487  -0.0000178469
        0.0000131122   0.0000149794  -0.0000046061   0.0000107395   0.0000186701
       -0.0000237682  -0.0000058932  -0.0000030318   0.0000012667   0.0000371509
       -0.0000457462   0.0000633238   0.0000936156  -0.0000122954   0.0000508864
        0.0000182110  -0.0000123415   0.0000274252   0.0000236285  -0.0000051811
        0.0000414886   0.0000311947   0.0001272226  -0.0003891103   0.0006269661
        0.0056630900  -0.0090949611  -0.0127353198   0.0002543623   0.0057670606
       -0.0032918954
       -0.0005939505  -0.0288507144  -0.0446635233  -0.0664327242   0.0151833718
        0.0166150539  -0.0536072917  -0.0985918108  -0.1850306700   0.0146830819
        0.2401073101   0.4443950860  -0.0027172526  -0.0027072648  -0.0566834767
        0.0002773330   0.0001988030   0.0017326505  -0.0005380249   0.0004084924
        0.0071247056   0.0000540579  -0.0006285750  -0.0001361714   0.0000372084
       -0.0000080738  -0.0015355867  -0.0002529348   0.0000378013   0.0000156657
       -0.0000098990   0.0001046801  -0.0000075000   0.0000158752  -0.0000184949
        0.0000275658  -0.0000319015   0.0001029917  -0.0000060615   0.0002662110
        0.0000258188  -0.0000130046   0.0005827675   0.0000018416   0.0069525219
       -0.0000222185   0.0001388616  -0.0000633539  -0.0000625171  -0.0000648374
        0.0000114086  -0.0000088603   0.0000359906   0.0000163603   0.0000139517
       -0.0000089726  -0.0000035180   0.0000102912   0.0000372329  -0.0000117390
       -0.0000185700   0.0000105924  -0.0000253228  -0.0005080354  -0.0006505161
        0.0011871608   0.0002883547   0.0001685223  -0.0025001373  -0.0001977428
       -0.0005554361  -0.0000989517   0.0001691957  -0.0000741305  -0.0000135090
       -0.0000322901  -0.0000941784  -0.0000279261   0.0001681845   0.0000289120
       -0.0000786716   0.0001462215   0.0003905344   0.0002446690   0.0440302468
       -0.1016146504  -0.1773009966   0.0661167283   0.0093561711   0.0189674829
        0.0000213480  -0.0001321175  -0.0005499226  -0.0002299641  -0.0032402839
        0.0038574777  -0.0091219605  -0.0127080636  -0.0166540198  -0.0000768165
       -0.0001534935  -0.0025147776   0.0000057871  -0.0000142364  -0.0000154099
       -0.0000036805  -0.0000379546  -0.0000124089  -0.0000204107  -0.0000065000
       -0.0000062300  -0.0000006655  -0.0000156691  -0.0000082647   0.0000146274
       -0.0000051198  -0.0000042014   0.0000193636  -0.0000199366  -0.0000078919
       -0.0000141785   0.0000054234  -0.0000088202  -0.0000021190   0.0000044037