108
 energy: -173.426039296185 gnorm: 0.000051507398 xtb: 6.7.1 (edcfbbe)
O            0.01258759035314        4.59666143030362       -0.15945428453877
C            0.00917604588583        3.32233591402923       -0.11810319282913
C            1.26652111139208        2.59991420468189       -0.13656713140122
C            1.43975798784105        1.32878117929300        0.44474267263865
C            2.66879154680857        0.71367788093309        0.44489035356023
C            3.77558486949883        1.34587222384670       -0.12592763004419
N            5.04358338187418        0.69789549818556       -0.12848201956346
C            5.26817495954039       -0.33378499108579       -1.01862571859327
C            4.26535229211768       -0.71799263085902       -1.92039708450534
C            4.47059290960425       -1.75548141624324       -2.80298219557745
C            5.68179289789572       -2.43293117465458       -2.81751610299641
C            6.68469604796541       -2.04561967032289       -1.94826654496529
C            6.49922338906605       -1.00419453793445       -1.05159491819709
C            7.64866693556552       -0.61145662976675       -0.15206355660470
C            8.81509933407241       -0.17839271289469       -1.02452895357238
C            8.65285258414199        0.87923253630368       -1.91058458929428
C            9.69360740741887        1.30368740762755       -2.71370330441032
C           10.92391413406988        0.66871046523806       -2.63842232754981
C           11.10408277665114       -0.38425852915176       -1.76526378681636
C           10.05182449425162       -0.81002534254793       -0.95737803478256
O           10.31873422259484       -1.85995766603150       -0.12388139054846
C            9.31749720717307       -2.34348898155093        0.67115288994653
C            9.64397269288233       -3.43296038033255        1.47598768264831
C            8.69435226144290       -3.98635585015860        2.30999823431938
C            7.41221320857467       -3.45976566158179        2.34588169361412
C            7.09238001195617       -2.37918812336111        1.54688730888533
C            8.03523466174601       -1.80716972114563        0.70206820092185
C            7.28662975807718        0.53074188526636        0.77087659234523
C            8.24217842164397        0.99120226280158        1.66392202769118
C            7.96359795279862        2.01516312639329        2.55019365834844
C            6.69729097533604        2.58306839278774        2.55657313628143
C            5.73352854595488        2.14178856908692        1.67688206724071
C            6.01444222622295        1.12044665806390        0.75781799746322
C            3.63338337350064        2.62532454730942       -0.66961049333180
C            2.40841512947788        3.24226141987804       -0.66124889558547
C           -1.25175435330718        2.60930753020152       -0.05221731991130
C           -2.39014694585784        3.29112565589098        0.42868684436652
C           -3.61768504654314        2.68164006638498        0.47991216724063
C           -3.76657587456389        1.36907720314958        0.02352982772315
N           -5.03731262617323        0.72867157142194        0.07308343611959
C           -6.01411603115253        1.10545384160834       -0.82735536071130
C           -5.73571336493499        2.06900953941815       -1.80762760912846
C           -6.70596007430577        2.46665993596914       -2.70088045343366
C           -7.97656434035845        1.91094412240448       -2.64755883441136
C           -8.25276973807908        0.94208192552789       -1.70069487655983
C           -7.29042499181619        0.52547794587808       -0.79352295116355
C           -7.64914154137379       -0.56203331158582        0.19438008722373
C           -8.03379388123940       -1.80594670125007       -0.58918249925628
C           -7.09067797084682       -2.42375287006125       -1.40084862168630
C           -7.40909115694107       -3.54931684992541       -2.13575657159372
C           -8.69019458051213       -4.07533716388180       -2.06845969460869
C           -9.63994984433620       -3.47683278249765       -1.26641364200433
C           -9.31467780758348       -2.34269714953100       -0.52535624414867
O          -10.31569743406741       -1.81750260483990        0.24302339942929
C          -10.05022213642335       -0.72069150656352        1.01431859315656
C          -11.10200575611460       -0.25227134404506        1.79885236843069
C          -10.92318246241257        0.84972790920259        2.60953005394387
C           -9.69493736357805        1.49216500717543        2.64465432266453
C           -8.65462167449285        1.02532123566506        1.86478195807468
C           -8.81536193948615       -0.08252093780127        1.04206935641785
C           -6.49752954640713       -0.90094990055026        1.11271960851350
C           -6.68492389638391       -1.87949709195331        2.07727078202409
C           -5.67992498878644       -2.21484361301324        2.96551862563270
C           -4.46402907902347       -1.54899418815379        2.89906279730043
C           -4.25658015954919       -0.57436981722346        1.94801101945489
C           -5.26241744742344       -0.24258038961284        1.02892936271832
C           -2.66351774369745        0.69504609186158       -0.50525715676431
C           -1.43167170172302        1.30302035848035       -0.54741983975163
H            0.60726142190541        0.84763851026897        0.93513232787937
H            2.79208291297009       -0.25827163556062        0.90142205859506
H            3.32595535346734       -0.18834629848736       -1.92214670085731
H            3.68286043752815       -2.03567057127656       -3.48580485141444
H            5.84506437423132       -3.24802615646752       -3.50518989368668
H            7.63641601677940       -2.55697129844602       -1.96279528682463
H            7.69234227145510        1.37045905712779       -1.96558853488929
H            9.54664659404361        2.12695404363124       -3.39583037978346
H           11.74321823441505        0.99332579118010       -3.26161555750944
H           12.05026545264880       -0.89702599775926       -1.68680155836764
H           10.64885459034829       -3.82301888695766        1.42699238945193
H            8.95459355740445       -4.82924306985510        2.93194039628386
H            6.66548774789581       -3.88923346814052        2.99591232419737
H            6.09573207912932       -1.96349954085024        1.57210279280863
H            9.22106942560362        0.53385146169130        1.66267852836228
H            8.72216287470423        2.36132033057557        3.23479378034611
H            6.45892255434784        3.37319841420319        3.25238743390711
H            4.74902701942115        2.58201849774128        1.69429088209024
H            4.49389504163929        3.12074855048108       -1.09610857933257
H            2.28245489685629        4.23421796989672       -1.07070037236509
H           -2.25899614660799        4.30778737893353        0.77031042459971
H           -4.47531786022137        3.20821792368251        0.87361640763229
H           -4.74820713452566        2.49948983570567       -1.86115469342912
H           -6.46930077923346        3.21258452993301       -3.44442669923958
H           -8.74040114281864        2.22366673252414       -3.34231723194289
H           -9.23504129417965        0.49366531631779       -1.66228087945670
H           -6.09511322477123       -2.00785753430307       -1.45199329411166
H           -6.66209960733787       -4.01432229215147       -2.76056073566245
H           -8.94942749515737       -4.95298524536302       -2.64082364463080
H          -10.64402270234300       -3.86526364114667       -1.19394243055700
H          -12.04665882811741       -0.77170644970212        1.75245018042945
H          -11.74206366995504        1.20695236742943        3.21519222612111
H           -9.54946220698261        2.35437010969442        3.27721276040802
H           -7.69565799529634        1.52212177502821        1.88850411732936
H           -7.63995194885479       -2.38204328032607        2.13043606806099
H           -5.84487668504614       -2.98029929456742        3.70772577495882
H           -3.67416195987242       -1.78888824857592        3.59466835686894
H           -3.31337458661459       -0.05298342724907        1.90960394161320
H           -2.79173666764260       -0.30462800709081       -0.89575354238016
H           -0.60195047246479        0.78688318725301       -1.00589907140322
