$hessian                                                                        
        0.6600188214  -0.0092717449  -0.0439821562  -0.1402601934  -0.0499477886
        0.0012937117   0.0532337945  -0.0239732466  -0.0072581194  -0.0397553654
       -0.0221558730  -0.0001618567  -0.0518850982   0.0691157571   0.0130529073
       -0.3389872237  -0.0559976861   0.0152755049   0.0137063506  -0.0041701413
       -0.0011539266   0.0002393921   0.0100384632   0.0013250575  -0.0013929324
        0.0034697994   0.0005370672   0.0004103963   0.0003057270  -0.0000027139
       -0.0000073012  -0.0001507783  -0.0000237469   0.0000968101   0.0000026689
        0.0000090632  -0.0000365078   0.0000015239   0.0000016762   0.0000434285
        0.0000123291  -0.0000020598  -0.0000127374   0.0000245008   0.0000016549
       -0.0000017424   0.0000049272   0.0000047866   0.0000643238   0.0000180888
        0.0000008842  -0.0000753895   0.0000043634   0.0000064627  -0.0000008022
       -0.0000121890   0.0000137444   0.0000034563   0.0000053085   0.0000053409
        0.0000003460  -0.0000004187   0.0000047863  -0.0000048625  -0.0000067201
        0.0000048814  -0.0000058176  -0.0000132964   0.0000070846   0.0000023391
       -0.0000008467   0.0000062830  -0.0000029957  -0.0000129776   0.0000145197
       -0.0000005460  -0.0000261646   0.0000091847   0.0000336171   0.0000008276
       -0.0000121081  -0.0002622062   0.0001209765   0.0000529458  -0.0011250449
       -0.0028155989  -0.0002859388   0.0000753579   0.0015132277   0.0001857646
       -0.0010910901  -0.0007621621  -0.0000220273   0.0009745036  -0.0004863082
       -0.0001534429  -0.0001381319   0.0007483971   0.0001022547  -0.0000927776
       -0.0004897280  -0.0000702589  -0.0022326287  -0.0041804167  -0.0003585167
       -0.1184565916   0.1148986589   0.0216548801  -0.0173707312  -0.0260470985
       -0.0019917661  -0.0005397406   0.0034456123   0.0011355256  -0.0150505880
       -0.0033463546   0.0007616037  -0.0001569987   0.0000554008   0.0000170717
       -0.0000151108  -0.0000089969   0.0000079332   0.0000014789   0.0000008856
        0.0000094326  -0.0000101569  -0.0000026391   0.0000149215  -0.0000058959
       -0.0000010754   0.0000113222  -0.0000076706   0.0000002234   0.0000039541
       -0.0000058164   0.0000014392  -0.0000026443   0.0000019265  -0.0000013973
       -0.0000015569   0.0000029674   0.0000063921  -0.0000008733  -0.0000216941
        0.0000126222   0.0000035514  -0.0000005430  -0.0000187777  -0.0000093730
        0.0000049250   0.0000306364  -0.0000165055   0.0000255676   0.0000094919
       -0.0000166658   0.0000731299   0.0000521760  -0.0000095057
       -0.0092717449   0.6384109090   0.0680460836  -0.1277800122  -0.2588343695
       -0.0165676917   0.0325056008  -0.0654872775  -0.0112276509  -0.0315178474
       -0.0117788176   0.0016641149   0.0195798570   0.0283625018   0.0021839908
        0.0184667859  -0.0944388162  -0.0079931038   0.0069343450  -0.0054022441
       -0.0020280708   0.0015569987   0.0006801834  -0.0001614615  -0.0019964946
        0.0019887378   0.0004736225   0.0007610284   0.0003443035  -0.0000183866
       -0.0001326475  -0.0001517974   0.0000018915   0.0002242857  -0.0000290192
       -0.0000163864  -0.0000442053   0.0000913290   0.0000157959   0.0000238652
        0.0000083579  -0.0000018614  -0.0000174989   0.0000240397   0.0000103770
       -0.0000101961   0.0000118300  -0.0000081184   0.0000929743   0.0000264369
       -0.0000043308  -0.0000953585   0.0000059794   0.0000022567   0.0000026062
       -0.0000129531   0.0000091111   0.0000042376   0.0000059951   0.0000055553
        0.0000025876  -0.0000034182  -0.0000065332  -0.0000008736  -0.0000047635
       -0.0000015589  -0.0000024565  -0.0000147594  -0.0000026401   0.0000105586
        0.0000028137   0.0000091907  -0.0000085048  -0.0000200458   0.0000183058
       -0.0000053406  -0.0000259782   0.0000006956   0.0000516065  -0.0000467945
       -0.0000204422  -0.0002634755   0.0001900792   0.0000448622  -0.0007522246
       -0.0016413695  -0.0001420562   0.0000146283   0.0006227787   0.0000736853
       -0.0004800060  -0.0003705357  -0.0000234513   0.0005742905  -0.0001892090
       -0.0000834201  -0.0001779989   0.0002735096   0.0000410372  -0.0001648432
       -0.0000771960   0.0000097352   0.0026531377  -0.0034036557  -0.0006407013
        0.1149185134  -0.2200318792  -0.0334010231  -0.0023106250  -0.0023098080
       -0.0001341395   0.0028709115  -0.0032714682  -0.0017143008  -0.0262597675
       -0.0035825509   0.0015996526  -0.0000652713  -0.0000824728  -0.0000030983
       -0.0000075114  -0.0000120905   0.0000000319   0.0000047034   0.0000040590
        0.0000020691  -0.0000026589  -0.0000016812   0.0000099727  -0.0000004948
       -0.0000001992   0.0000052630  -0.0000020683  -0.0000010316  -0.0000009111
        0.0000008476  -0.0000019114  -0.0000053409   0.0000037529  -0.0000043281
       -0.0000032918   0.0000054347   0.0000002486   0.0000018891  -0.0000231425
        0.0000046054   0.0000048202  -0.0000034683  -0.0000067154  -0.0000059976
        0.0000159904   0.0000140182  -0.0000092447   0.0000136376   0.0000150794
       -0.0000110931   0.0001035517   0.0001513614   0.0000022965
       -0.0439821562   0.0680460836   0.1287277885  -0.0088108801  -0.0227500067
       -0.0511343625   0.0000722897  -0.0067494118   0.0002832314  -0.0013522371
        0.0009212509  -0.0050622602   0.0066207131  -0.0017416556  -0.0013026652
        0.0249161623  -0.0020929020  -0.0469290895   0.0002903555  -0.0011561581
        0.0058939007   0.0002522998  -0.0008080162   0.0007323564  -0.0001851760
        0.0000365414  -0.0004046756   0.0000756018   0.0000297209  -0.0000172733
       -0.0000197123  -0.0000042911  -0.0000491600   0.0000280165  -0.0000100310
        0.0000230064  -0.0000000485   0.0000014781   0.0000136508  -0.0000064930
       -0.0000004794  -0.0000056321  -0.0000006395  -0.0000042313  -0.0000041058
        0.0000008504  -0.0000026594  -0.0000057078   0.0000086887  -0.0000098696
       -0.0000133462  -0.0000022668  -0.0000048643  -0.0000001587   0.0000039125
       -0.0000045021   0.0000001318   0.0000029859  -0.0000124223  -0.0000134846
       -0.0000037690   0.0000191682   0.0000358103  -0.0000070282   0.0000085857
        0.0000168074  -0.0000039973   0.0000155914   0.0000331283   0.0000039720
       -0.0000146236  -0.0000170371   0.0000024504  -0.0000010977   0.0000037890
       -0.0000065845   0.0000000154   0.0000007923   0.0000082776  -0.0000033445
       -0.0000034520  -0.0000081205   0.0000077714   0.0000394417  -0.0000162994
        0.0000256810  -0.0001257670  -0.0000012500  -0.0000445368  -0.0000194972
        0.0000181192   0.0000066103   0.0000425838   0.0000067995   0.0000092872
        0.0000372028  -0.0000193373  -0.0000263934  -0.0000045003  -0.0000284177
        0.0000443716  -0.0001398762   0.0005183001  -0.0001099470  -0.0000387212
        0.0216669462  -0.0333737870  -0.0390600922   0.0010832921   0.0017355476
        0.0003136502   0.0010649397  -0.0017593616   0.0078804784  -0.0021981616
       -0.0002174627   0.0002407121   0.0000012027  -0.0000121892  -0.0000300283
        0.0000016793  -0.0000020176  -0.0000064762   0.0000013258  -0.0000072132
       -0.0000103512   0.0000007596  -0.0000092482  -0.0000098543   0.0000013244
       -0.0000036806   0.0000024074   0.0000001416   0.0000015104   0.0000107118
       -0.0000016233   0.0000071719   0.0000164395  -0.0000022948   0.0000050157
        0.0000134740  -0.0000006777   0.0000020868   0.0000062909   0.0000007371
       -0.0000025433   0.0000078852  -0.0000016927   0.0000020430  -0.0000027576
        0.0000010399  -0.0000041653   0.0000204454  -0.0000021651   0.0000011210
        0.0000089891   0.0000078453   0.0000164590   0.0000052268
       -0.1402601934  -0.1277800122  -0.0088108801   0.6637334418  -0.0066589508
       -0.0448677534  -0.1539710015   0.1421061369   0.0272829254  -0.0412196842
        0.0261166801   0.0066028229   0.0054795488  -0.0004028202  -0.0008908450
       -0.0327437067  -0.0257133007  -0.0006603049  -0.0023272631   0.0028139610
        0.0005073696  -0.0017142988  -0.0025579762  -0.0001537077  -0.0010792441
        0.0005561905   0.0001535817   0.0001319182   0.0001077116  -0.0000040767
        0.0000355384  -0.0000991821  -0.0000239817  -0.0000252273   0.0000671137
        0.0000147451   0.0000138955   0.0000137690  -0.0000034990   0.0000254970
        0.0000100646  -0.0000057975  -0.0000064433   0.0000232862  -0.0000107988
       -0.0000083676  -0.0000026185  -0.0000064734   0.0000210772   0.0000056857
       -0.0000081498  -0.0000255224  -0.0000030209  -0.0000038211  -0.0000023864
       -0.0000045937  -0.0000008261  -0.0000005919   0.0000043704  -0.0000043684
       -0.0000001029   0.0000015315   0.0000000293  -0.0000036411  -0.0000004548
        0.0000034332  -0.0000045245  -0.0000017231   0.0000030056  -0.0000026053
       -0.0000000848   0.0000004777  -0.0000041249  -0.0000070561   0.0000014172
        0.0000053943  -0.0000253561   0.0000082822  -0.0000577384  -0.0000661530
       -0.0000080367  -0.0000547117   0.0000709565   0.0000281640  -0.0000528982
       -0.0001869321  -0.0000257839  -0.0000632339   0.0000998717   0.0000194297
        0.0001203831  -0.0000557409  -0.0000096093  -0.0000257974   0.0001343265
        0.0000180524  -0.0001040985  -0.0004392049  -0.0000320949  -0.0005353070
        0.0009547039   0.0002383974  -0.0024701477  -0.0033531912   0.0002011769
        0.0061373546   0.0137661464   0.0013292518  -0.3004500923  -0.0077720513
        0.0200875162   0.0069427970  -0.0114853544  -0.0020406676  -0.0054375109
       -0.0004889640   0.0010188066   0.0000246681   0.0000692262   0.0000012493
        0.0000063684  -0.0000115365  -0.0000051631   0.0000066561  -0.0000067559
       -0.0000048671  -0.0000068807  -0.0000073231  -0.0000057874  -0.0000032331
       -0.0000020803  -0.0000026630  -0.0000037860   0.0000027339  -0.0000006168
       -0.0000030292   0.0000059223   0.0000018465   0.0000024000   0.0000025408
        0.0000022698   0.0000029474   0.0000064652  -0.0000008237  -0.0000076133
        0.0000123345   0.0000047555   0.0000087167  -0.0000228124   0.0000055443
        0.0000037372   0.0000025383   0.0000081445   0.0000018738   0.0000023989
        0.0000093495  -0.0000292058   0.0001985846   0.0000393527
       -0.0499477886  -0.2588343695  -0.0227500067  -0.0066589508   0.6329147724
        0.0672889374   0.0666860697  -0.2703816824  -0.0347905996   0.0799797914
        0.0200824692  -0.0036636253   0.0100359317  -0.0540141833  -0.0071237031
       -0.0831258486   0.0185055208   0.0088336327  -0.0085217578   0.0024272284
        0.0010383528  -0.0011608226  -0.0036543617  -0.0004408974   0.0029077590
       -0.0042575887  -0.0007731007  -0.0010641666  -0.0005016291   0.0000379636
        0.0001773273   0.0001953302   0.0000039187  -0.0002041681  -0.0000419803
       -0.0000033356   0.0000237185  -0.0000971485  -0.0000158087  -0.0000465001
       -0.0000067536   0.0000026497   0.0000269551  -0.0000596863   0.0000079164
        0.0000221131  -0.0000119138   0.0000046779  -0.0001266881  -0.0000403230
        0.0000102500   0.0001359209   0.0000104164  -0.0000037610  -0.0000020300
        0.0000103710  -0.0000095222  -0.0000069993  -0.0000031522   0.0000040911
       -0.0000035800  -0.0000047974  -0.0000036250   0.0000058669   0.0000081220
       -0.0000006131   0.0000077442   0.0000096096  -0.0000078697  -0.0000074743
        0.0000065094  -0.0000008398   0.0000097478   0.0000240120  -0.0000291763
       -0.0000016744   0.0000541755  -0.0000050007  -0.0000178093   0.0001161421
        0.0000387742   0.0003348666  -0.0001673101  -0.0000655636   0.0013599704
        0.0032134612   0.0003394036  -0.0000299457  -0.0014520348  -0.0001621818
        0.0011507183   0.0006984341   0.0000061840  -0.0011554428   0.0005560037
        0.0001949459  -0.0001104446  -0.0010046170  -0.0001268649   0.0000683480
        0.0003316246  -0.0000489417  -0.0048109399   0.0080634801   0.0006795717
       -0.0100684038  -0.0254734576  -0.0025163918  -0.0073785532  -0.0436868032
       -0.0008755113   0.0114782840  -0.0251591430  -0.0042046340  -0.0000548761
        0.0016354357  -0.0008642738   0.0001058009  -0.0000667530  -0.0000157466
        0.0000280895   0.0000399858  -0.0000005496  -0.0000109149   0.0000035938
       -0.0000082111   0.0000094543   0.0000072420  -0.0000154155   0.0000039122
        0.0000026155  -0.0000060095   0.0000034735   0.0000013441   0.0000003459
        0.0000026063   0.0000007145   0.0000058755  -0.0000043061   0.0000037743
        0.0000022052  -0.0000108922  -0.0000037422  -0.0000018807   0.0000351536
       -0.0000152704  -0.0000063892  -0.0000015292   0.0000228353   0.0000088930
        0.0000208395  -0.0000236133   0.0000037678   0.0000004754  -0.0000014350
        0.0000143837  -0.0000884314   0.0000185259   0.0000133094
        0.0012937117  -0.0165676917  -0.0511343625  -0.0448677534   0.0672889374
        0.1262478222   0.0174760347  -0.0407601678  -0.0495141405   0.0136146472
        0.0006042156  -0.0015915321   0.0004644513  -0.0062961863  -0.0061323308
       -0.0081134817   0.0042840053   0.0024070396  -0.0009490484   0.0001478642
       -0.0003251263   0.0000283047  -0.0003527598   0.0005823254   0.0004576699
       -0.0005847555  -0.0002202351  -0.0001494595  -0.0000635797  -0.0000382022
        0.0000164985   0.0000316986   0.0000107545  -0.0000178067  -0.0000114273
        0.0000112500   0.0000013049  -0.0000151314   0.0000108043  -0.0000091707
        0.0000009153   0.0000094324   0.0000033467  -0.0000040968   0.0000156538
        0.0000032473   0.0000049961   0.0000125970  -0.0000156952  -0.0000073818
        0.0000035622   0.0000212160   0.0000028563   0.0000130388   0.0000024659
        0.0000012148   0.0000014126   0.0000004034  -0.0000082580  -0.0000042478
       -0.0000034748   0.0000072761   0.0000171825  -0.0000036137   0.0000001661
        0.0000001944  -0.0000000282   0.0000054101   0.0000100165   0.0000014963
       -0.0000100655  -0.0000129902   0.0000048970   0.0000034778  -0.0000006168
       -0.0000055689   0.0000123243  -0.0000006375   0.0000037004   0.0000259358
        0.0000012284   0.0000511918  -0.0000280138  -0.0000092676   0.0001659362
        0.0004604228  -0.0001650266  -0.0000044159  -0.0001818601  -0.0001595876
        0.0001338721   0.0000950795  -0.0000186463  -0.0001521645   0.0000795174
       -0.0001144601   0.0000010466  -0.0001073206   0.0000704884   0.0001062720
       -0.0001305357   0.0007413876   0.0000267897   0.0005746564   0.0057200692
       -0.0017682098  -0.0044156653  -0.0002251265   0.0201344744  -0.0008427911
       -0.0339589258   0.0009488129  -0.0023858080  -0.0004062003   0.0010802095
       -0.0008338935   0.0081378339   0.0000114794  -0.0000138078  -0.0000041328
        0.0000035043   0.0000063957   0.0000124768  -0.0000021169   0.0000067937
        0.0000123460   0.0000016505   0.0000084119   0.0000152913   0.0000006200
        0.0000009808   0.0000075172   0.0000008044  -0.0000048527  -0.0000008280
       -0.0000004727  -0.0000070519  -0.0000068124  -0.0000021016  -0.0000052112
       -0.0000054788  -0.0000020966  -0.0000031547  -0.0000020167   0.0000070258
        0.0000004818  -0.0000058181  -0.0000001406   0.0000081398  -0.0000104439
        0.0000058598  -0.0000050133   0.0000115974   0.0000001258   0.0000016421
       -0.0000269181  -0.0000062515  -0.0000173342   0.0000107889
        0.0532337945   0.0325056008   0.0000722897  -0.1539710015   0.0666860697
        0.0174760347   0.6508808497   0.0247982828  -0.0390880994  -0.3281697952
       -0.0075254424   0.0211134852  -0.0220821408  -0.0643255983  -0.0067451045
       -0.0428997182   0.0208004381   0.0059623450  -0.0038202805  -0.0028466564
        0.0002953840  -0.0029311140   0.0048858760   0.0010783598   0.0035759324
       -0.0051484297  -0.0009237816  -0.0020268974  -0.0006129702   0.0001245611
        0.0003308850   0.0003306051   0.0000114415  -0.0003946329  -0.0000830622
        0.0000052729   0.0000173226  -0.0001982655  -0.0000222278  -0.0000341867
       -0.0000155162   0.0000094448   0.0000448027  -0.0000747558   0.0000109307
        0.0000402632  -0.0000166710   0.0000251946  -0.0001614456  -0.0000460207
        0.0000214559   0.0001688622  -0.0000022648   0.0000116195  -0.0000028922
        0.0000245996  -0.0000079324  -0.0000019835  -0.0000092839   0.0000113976
       -0.0000027561   0.0000003535   0.0000059420   0.0000107721   0.0000073693
        0.0000029893   0.0000196695   0.0000134815  -0.0000007495  -0.0000110403
        0.0000027729  -0.0000022032   0.0000264752   0.0000365604  -0.0000314688
        0.0000089072   0.0000847083  -0.0000062987   0.0000565722   0.0002820471
        0.0000554746   0.0002566641  -0.0003061302  -0.0000907184   0.0013425681
        0.0032396975   0.0002988845  -0.0002006225  -0.0009197486  -0.0001157594
        0.0007418599   0.0006322097   0.0000232458  -0.0012126782   0.0002945210
        0.0001416729   0.0003591540  -0.0006454134  -0.0001462431  -0.0000876128
        0.0000184258  -0.0000145031  -0.0312683355   0.0127806883   0.0038390273
       -0.0003837100  -0.0028071048   0.0001645761  -0.0191686081   0.0256224319
        0.0048256571  -0.1019701808  -0.1077779721  -0.0084491125  -0.0002016384
        0.0008167301   0.0001019747   0.0000014558  -0.0000975045  -0.0000068401
        0.0000348606   0.0000493881   0.0000090229  -0.0000156177   0.0000044262
        0.0000028711   0.0000099634   0.0000104545  -0.0000017845   0.0000041228
        0.0000032826   0.0000046607   0.0000040100  -0.0000007306   0.0000077531
        0.0000022145  -0.0000029889   0.0000081423  -0.0000084296   0.0000010489
        0.0000040462  -0.0000177055  -0.0000119115   0.0000010181   0.0000409483
       -0.0000315925  -0.0000149890  -0.0000068119   0.0000526122   0.0000063061
       -0.0000029830  -0.0000782873  -0.0000015271  -0.0000246001  -0.0000578577
       -0.0000097209  -0.0001335109  -0.0003425027  -0.0000534177
       -0.0239732466  -0.0654872775  -0.0067494118   0.1421061369  -0.2703816824
       -0.0407601678   0.0247982828   0.6631024095   0.0701412950  -0.0648685225
       -0.0847024468  -0.0006836564  -0.0238240822   0.0178061569   0.0044356494
        0.0276607854  -0.0086333258  -0.0030798731  -0.0037771548  -0.0032277405
       -0.0006965122   0.0008026419  -0.0036864749  -0.0008309140   0.0014478605
        0.0015846039  -0.0000079539  -0.0004569501  -0.0003439690  -0.0000550931
        0.0001296084   0.0000938409  -0.0000014342  -0.0001636888   0.0000551997
        0.0000181969   0.0000439274  -0.0000400354  -0.0000101896  -0.0000107555
        0.0000031752   0.0000005155   0.0000135214   0.0000026950  -0.0000027111
        0.0000042602  -0.0000050286   0.0000038185  -0.0000351843  -0.0000100033
        0.0000020642   0.0000327974   0.0000030340   0.0000014201  -0.0000013268
        0.0000001500  -0.0000008000  -0.0000020743   0.0000036260   0.0000014426
        0.0000011475  -0.0000022351  -0.0000025604   0.0000019259  -0.0000005116
        0.0000010637   0.0000000672   0.0000003602  -0.0000034594  -0.0000050288
        0.0000034292   0.0000018956   0.0000024791   0.0000037254  -0.0000106889
        0.0000123707   0.0000046945   0.0000061038  -0.0000726594   0.0000005231
        0.0000189435   0.0002669151  -0.0000163154  -0.0000261162   0.0001432070
       -0.0021182365  -0.0002914908   0.0000818643   0.0008481949   0.0001100443
       -0.0006448320  -0.0003942043   0.0000040645   0.0005306477  -0.0001164725
       -0.0000669271  -0.0001808144   0.0007840629   0.0001415169   0.0006897612
        0.0016667629   0.0001885774   0.0275482873   0.0000019931  -0.0016873623
       -0.0026332103  -0.0042478260  -0.0011709914   0.0016561823  -0.0008908903
       -0.0002295986  -0.1083621700  -0.2412639309  -0.0186224139   0.0005685234
        0.0002612265   0.0000090221   0.0000586777   0.0000458996   0.0000030252
        0.0000180581   0.0000080149   0.0000023218   0.0000014369  -0.0000048759
        0.0000029106  -0.0000026432  -0.0000015166  -0.0000014728  -0.0000023002
       -0.0000008595   0.0000008549  -0.0000035893   0.0000013993  -0.0000005795
       -0.0000018078   0.0000026767  -0.0000006116  -0.0000000422   0.0000011995
       -0.0000015013  -0.0000055818   0.0000029293  -0.0000040361   0.0000155817
       -0.0000016006  -0.0000052020   0.0000170695  -0.0000846624  -0.0000119479
        0.0000253089  -0.0000445785  -0.0000074884   0.0000073648  -0.0000676102
       -0.0000107539   0.0003409664  -0.0005176727  -0.0000608265
       -0.0072581194  -0.0112276509   0.0002832314   0.0272829254  -0.0347905996
       -0.0495141405  -0.0390880994   0.0701412950   0.1200951738   0.0136170415
       -0.0052072718  -0.0423478910  -0.0014871659   0.0076473929  -0.0006427745
        0.0068575215  -0.0025308446  -0.0027069768   0.0001715318  -0.0007653692
        0.0043537139   0.0005139581  -0.0011732239   0.0019878361  -0.0000366066
        0.0005262174   0.0007590932   0.0001262832  -0.0000457095   0.0003540958
       -0.0000061664  -0.0000080382  -0.0000556574   0.0000049334   0.0000152655
        0.0000226735   0.0000102761   0.0000071040  -0.0000010874   0.0000011399
        0.0000000249   0.0000045745  -0.0000020636   0.0000098337   0.0000056892
       -0.0000022248  -0.0000009207   0.0000012902   0.0000089386  -0.0000003695
       -0.0000001812  -0.0000056515  -0.0000031117   0.0000105099   0.0000012400
       -0.0000015476   0.0000044676  -0.0000000675  -0.0000018294   0.0000066357
       -0.0000022773   0.0000042302   0.0000168701  -0.0000045005   0.0000023091
        0.0000126700  -0.0000016544   0.0000029912   0.0000125963   0.0000001845
       -0.0000038207   0.0000018885   0.0000007466  -0.0000039202   0.0000060355
       -0.0000011870  -0.0000034100   0.0000054102  -0.0000188698  -0.0000134784
       -0.0000601250   0.0000115857   0.0000212208   0.0000231724  -0.0000830497
       -0.0005346466  -0.0000208164   0.0000274118   0.0001887147   0.0000057393
       -0.0001462692  -0.0001026519  -0.0000244473   0.0001739049  -0.0000501461
        0.0000563813  -0.0000542892   0.0001664494  -0.0000403319   0.0000670588
        0.0002425985  -0.0002268697   0.0057947927  -0.0005239937  -0.0044169228
        0.0001982776  -0.0011600442   0.0062623064   0.0017173941  -0.0021286185
       -0.0006670992  -0.0085233413  -0.0186450778  -0.0332526008   0.0000749701
       -0.0000071587  -0.0001976414   0.0000062666   0.0000155643  -0.0000054035
        0.0000018467  -0.0000035771   0.0000033902   0.0000024745  -0.0000034170
        0.0000024218   0.0000001491  -0.0000026837   0.0000054171  -0.0000013389
       -0.0000011642   0.0000096816  -0.0000019989  -0.0000006260   0.0000100358
       -0.0000026693   0.0000006179   0.0000087336  -0.0000012667  -0.0000002858
        0.0000066130   0.0000004269   0.0000009306   0.0000026904   0.0000003504
        0.0000029717   0.0000022328   0.0000064498  -0.0000188503   0.0000218999
        0.0000029409   0.0000017268  -0.0000131409   0.0000046640  -0.0000058917
        0.0000042543   0.0000411919  -0.0000275092  -0.0001753177
       -0.0397553654  -0.0315178474  -0.0013522371  -0.0412196842   0.0799797914
        0.0136146472  -0.3281697952  -0.0648685225   0.0136170415   0.8003115702
        0.0001851876  -0.0537193103  -0.1114827506  -0.0431130588  -0.0013906307
        0.0477572537  -0.0158368033  -0.0059986442  -0.0541475706  -0.0055035818
        0.0045910349  -0.0610785663  -0.0129224086   0.0034299224  -0.0130069046
        0.0067210496   0.0021142976  -0.0000058593   0.0013326099   0.0002038679
       -0.0004735883  -0.0003241414  -0.0000252859   0.0001404540   0.0002525933
        0.0000319604  -0.0000865584   0.0002105665   0.0000460455   0.0000135580
        0.0000245436  -0.0000025096  -0.0000360731   0.0000436913  -0.0000009804
       -0.0000277640   0.0000082528  -0.0000213960   0.0001103546   0.0000342015
       -0.0000235671  -0.0001298387  -0.0000042590  -0.0000094933  -0.0000025215
       -0.0000154004  -0.0000000758   0.0000017440   0.0000084730  -0.0000096582
        0.0000003027   0.0000075952  -0.0000071575  -0.0000014793  -0.0000001732
       -0.0000006179  -0.0000085696  -0.0000071304   0.0000043445   0.0000104788
       -0.0000028602   0.0000028025  -0.0000234055  -0.0000260040   0.0000190175
       -0.0000108055  -0.0000496429   0.0000041134  -0.0002442178  -0.0002351389
       -0.0000318004  -0.0004810805   0.0004598378   0.0001076713  -0.0023836832
       -0.0041870880  -0.0001555782  -0.0001805503   0.0016983534   0.0003345206
       -0.0010620383  -0.0008587770  -0.0000253138   0.0011656055  -0.0000868318
       -0.0000352028   0.0012877626  -0.0008145491  -0.0002226060   0.0015340983
        0.0066181318   0.0000147906  -0.1807835189   0.0832612390   0.0222544821
       -0.0002596383  -0.0008789146  -0.0000721659  -0.0002951577   0.0023908871
        0.0009372906  -0.0169171357  -0.0041574635   0.0008893872  -0.0008874649
        0.0026296753   0.0010436515   0.0005750287   0.0004120267   0.0000289915
        0.0000061930   0.0000036042  -0.0000076608   0.0000153087   0.0000087820
       -0.0000208581  -0.0000131388  -0.0000131098  -0.0000056820  -0.0000043799
       -0.0000030877  -0.0000066463  -0.0000051323   0.0000022574  -0.0000056174
       -0.0000048682   0.0000060986  -0.0000038951   0.0000032730  -0.0000023218
        0.0000002181   0.0000074336  -0.0000098420   0.0000088650  -0.0000628599
       -0.0000037383   0.0000087871   0.0000564264  -0.0002745097  -0.0000318453
        0.0000485064  -0.0001184766  -0.0000230917   0.0000068670  -0.0003079250
       -0.0000287654   0.0001997458  -0.0001558415  -0.0000694578
       -0.0221558730  -0.0117788176   0.0009212509   0.0261166801   0.0200824692
        0.0006042156  -0.0075254424  -0.0847024468  -0.0052072718   0.0001851876
        0.5189327934   0.0519303201  -0.0872873167  -0.2011553328  -0.0109415232
        0.0231868727  -0.0512593083  -0.0082646236  -0.0437251475  -0.0110718300
        0.0005307935   0.0185214352   0.0171423726   0.0002659047  -0.0005514661
       -0.0063230522  -0.0010771346   0.0009432313   0.0003303501  -0.0000937191
       -0.0003978313  -0.0000908228   0.0000218400   0.0001030083   0.0001247228
        0.0000192107   0.0000496832   0.0001844165   0.0000137720  -0.0000345303
        0.0000129889  -0.0000056944  -0.0000275635   0.0000385480   0.0000023301
       -0.0000398606   0.0000081850  -0.0000184975   0.0000780015   0.0000154376
       -0.0000047334  -0.0000659009   0.0000027434  -0.0000046966  -0.0000006294
       -0.0000116353   0.0000054362  -0.0000019879  -0.0000005275  -0.0000013628
       -0.0000017730  -0.0000066143  -0.0000019804  -0.0000157651  -0.0000053490
        0.0000000138  -0.0000057742  -0.0000046097  -0.0000049914   0.0000047274
       -0.0000000530   0.0000046935  -0.0000206309  -0.0000320941   0.0000209284
       -0.0000116592  -0.0000598021  -0.0000028404  -0.0002371097  -0.0003145283
       -0.0000172859  -0.0000229846  -0.0002125346  -0.0000101205   0.0015997310
       -0.0003003026  -0.0004729683   0.0013929313  -0.0011865362  -0.0004124828
        0.0008398516   0.0007868973   0.0000481993  -0.0013639608  -0.0001598569
       -0.0000108763  -0.0004046141  -0.0004147959   0.0000128385   0.0163909622
       -0.0113582860  -0.0016136374   0.0977595635  -0.1686165230  -0.0248815556
       -0.0006636481   0.0005824197   0.0000658589   0.0031175620  -0.0036862704
       -0.0017110606  -0.0281004551  -0.0039202296   0.0016047234   0.0021910569
       -0.0024301052  -0.0015209909   0.0006786256   0.0003003863  -0.0000078518
       -0.0000768413  -0.0000556931  -0.0000109636   0.0000193915   0.0000143165
       -0.0000120369  -0.0000010161  -0.0000045864  -0.0000014774   0.0000039627
       -0.0000026298  -0.0000009539   0.0000018315  -0.0000009895  -0.0000006982
        0.0000057379   0.0000005019   0.0000009879   0.0000127503  -0.0000029041
        0.0000050291   0.0000309267   0.0000053734   0.0000090620  -0.0000464148
        0.0000469120   0.0000254818   0.0000438778  -0.0000920036  -0.0000103122
       -0.0000931398   0.0002058519   0.0000575264   0.0000526331   0.0002625264
        0.0000299448  -0.0004508864   0.0001808574   0.0001239799
       -0.0001618567   0.0016641149  -0.0050622602   0.0066028229  -0.0036636253
       -0.0015915321   0.0211134852  -0.0006836564  -0.0423478910  -0.0537193103
        0.0519303201   0.1291957785  -0.0071144651  -0.0144783663  -0.0626906786
       -0.0009002408  -0.0051874354  -0.0023681469  -0.0004119483  -0.0025462612
        0.0113376781   0.0076331360   0.0027879372   0.0035676287   0.0011642625
       -0.0016586259   0.0019374197   0.0001566448  -0.0001204691   0.0003912575
       -0.0000232199   0.0000263486  -0.0000582300   0.0000018847   0.0000021538
       -0.0000240180   0.0000107458  -0.0000011788   0.0000149752   0.0000039700
        0.0000024872   0.0000066657  -0.0000015550  -0.0000046483   0.0000011296
       -0.0000023739   0.0000006832  -0.0000092588   0.0000031753   0.0000006332
       -0.0000069245  -0.0000021731   0.0000065311  -0.0000104727   0.0000012539
       -0.0000040074  -0.0000037516   0.0000000335  -0.0000008881  -0.0000124157
       -0.0000008202   0.0000051879  -0.0000007199  -0.0000023121   0.0000040149
       -0.0000051449  -0.0000008998   0.0000029225  -0.0000014186   0.0000037276
       -0.0000023530  -0.0000119057  -0.0000023227  -0.0000021980  -0.0000050647
       -0.0000030713  -0.0000059688  -0.0000049806  -0.0000132927  -0.0000158029
       -0.0000403909   0.0000162795  -0.0000544248  -0.0000690432   0.0006005822
       -0.0000253983   0.0023288696   0.0002934786  -0.0004263369   0.0010322358
        0.0001821151   0.0001775705  -0.0001009819  -0.0002065689  -0.0001224552