$hessian                                                                        
        0.6523459887  -0.0201799760  -0.0441070439  -0.1304527815  -0.0366449261
        0.0044223686   0.0528527296  -0.0201767388  -0.0054736718  -0.0355429217
       -0.0156599993   0.0013767644  -0.0610253452   0.0578088324   0.0086874702
       -0.3356329802  -0.0612205239   0.0188357842   0.0171080566  -0.0031659093
       -0.0013804392  -0.0032363505   0.0087918272   0.0009505045   0.0003042227
       -0.0026955733  -0.0002048922   0.0007300956   0.0000920476  -0.0000391563
        0.0003788769   0.0001341627  -0.0001708949  -0.0007053460   0.0002691819
       -0.0001051584   0.0012734642   0.0001048781   0.0002379997  -0.0014072040
       -0.0002250489  -0.0000899810   0.0004927010   0.0006487936  -0.0001475334
       -0.0005297161   0.0002419035  -0.0000391683   0.0003155043   0.0000057443
        0.0000310491   0.0000434773  -0.0000692225   0.0000058778  -0.0000178231
        0.0000522765  -0.0000001960   0.0000338737   0.0000371264   0.0000025042
       -0.0000239704  -0.0000814580   0.0000202216   0.0001428564  -0.0000134988
        0.0000199305  -0.0001163013   0.0000847422  -0.0000162828   0.0000380663
       -0.0000866604   0.0000156324  -0.0004055767  -0.0003173695   0.0000623949
        0.0008008984  -0.0004825724   0.0001185602  -0.0001795250  -0.0004993786
        0.0001345223   0.0002082211   0.0002663208  -0.0000386844  -0.0007255427
        0.0028686325   0.0002344639   0.0001599005  -0.0021389167  -0.0001031341
        0.0007700470   0.0012778761   0.0000675133  -0.0001767413   0.0002411595
       -0.0001073547  -0.0000892062   0.0001822144  -0.0000167652  -0.0000849831
        0.0012706234   0.0001075303   0.0001217903  -0.0043706498  -0.0002468835
       -0.1268079569   0.1197122641   0.0153723422  -0.0161772607  -0.0263518565
       -0.0003152227  -0.0008367687   0.0035282303   0.0008645823  -0.0139639713
       -0.0035017290   0.0009618847  -0.0001302729   0.0000169998   0.0000645826
       -0.0000184305  -0.0000005142   0.0000745177  -0.0000104340  -0.0000012425
        0.0000166005  -0.0000062965  -0.0000064914   0.0000166458   0.0000040393
        0.0000071076   0.0000087135  -0.0000107987   0.0000049846   0.0000064201
        0.0000016166  -0.0000034584   0.0000021837  -0.0000060509   0.0000013408
        0.0000000068   0.0000011405   0.0000065410  -0.0000327852   0.0000064489
        0.0000376013  -0.0001397686   0.0000205395   0.0000401663  -0.0000247048
        0.0000271778   0.0000330241   0.0000068565   0.0000055595   0.0000412785
        0.0000130177   0.0001332633   0.0000858329   0.0000602755
       -0.0201799760   0.6357290023   0.0357807272  -0.1202980880  -0.2592417686
       -0.0040636500   0.0353946479  -0.0648794273  -0.0071393577  -0.0300318388
       -0.0074980356   0.0021092991   0.0106983926   0.0251105431   0.0008216871
        0.0156558858  -0.0953430697  -0.0046219062   0.0118861896  -0.0070089649
       -0.0018512748  -0.0017385998   0.0028528271   0.0002954857   0.0011878818
       -0.0027927874  -0.0001676042  -0.0004413842  -0.0005887206  -0.0000248751
        0.0005703636   0.0006059944  -0.0002776053  -0.0007656755   0.0003372104
       -0.0001280785   0.0014866982   0.0003954539   0.0004017723  -0.0016040949
       -0.0002387895  -0.0001396217   0.0005743377   0.0008793253  -0.0002215002
       -0.0007470043   0.0004098950  -0.0000988653   0.0011117182   0.0001590763
        0.0000544720  -0.0007743823  -0.0000690142  -0.0000628379   0.0000469464
       -0.0000857155   0.0000242925   0.0000031024   0.0001583710  -0.0000273427
        0.0000085437  -0.0001812287   0.0000342642   0.0002245843  -0.0000144488
        0.0000163344  -0.0002338410   0.0000667606  -0.0000259160   0.0001285317
       -0.0001213061   0.0000245656  -0.0005786917  -0.0005274088   0.0001094910
        0.0009736544  -0.0006771722   0.0001450155  -0.0004305371  -0.0010346516
        0.0001769992   0.0006355309   0.0005563690  -0.0000818653  -0.0007159321
        0.0019439039   0.0001969476   0.0001351782  -0.0015157503  -0.0000594120
        0.0002540784   0.0007720140   0.0000309682   0.0003867427   0.0000405628
       -0.0001037547  -0.0001116449   0.0002660338   0.0000037342   0.0000891203
        0.0012814888   0.0001248491   0.0038927718  -0.0035621020  -0.0004848467
        0.1196620706  -0.2156871357  -0.0216682585  -0.0027678639  -0.0030567344
       -0.0000334184   0.0029252209  -0.0032735322  -0.0009567631  -0.0264946246
       -0.0042128545   0.0018446771  -0.0001519026  -0.0001651083   0.0000672571
       -0.0000254447  -0.0000659578   0.0001054352   0.0000203898  -0.0000207703
        0.0000195032  -0.0000260589  -0.0000274165   0.0000215457  -0.0000094143
       -0.0000118723  -0.0000008012  -0.0000253440   0.0000112093  -0.0000046535
       -0.0000090732   0.0000233696  -0.0000060980   0.0000210544   0.0000131779
        0.0000011307   0.0000193393   0.0000223215  -0.0000462331  -0.0000176764
        0.0000744683  -0.0002038286   0.0000254868  -0.0000309614   0.0000013282
        0.0000212109   0.0000106722   0.0000136051   0.0000173440   0.0000151778
        0.0000272171   0.0001220756   0.0001974770   0.0000477645
       -0.0441070439   0.0357807272   0.1197249685  -0.0011226870  -0.0108046556
       -0.0479634300  -0.0018653664  -0.0026634020   0.0009471601   0.0005532209
        0.0010363451  -0.0046448815   0.0055747479  -0.0029188207  -0.0004566791
        0.0238566871   0.0015266045  -0.0457410980  -0.0002180615  -0.0003786324
        0.0049619897   0.0002958234  -0.0007339472   0.0007859583   0.0000788668
        0.0001406512  -0.0003416015  -0.0001581199  -0.0000771573  -0.0000264499
        0.0001042305  -0.0000537779  -0.0000862201  -0.0000017573  -0.0000435327
       -0.0001230139  -0.0001168918  -0.0001626894   0.0000581390   0.0001911155
       -0.0000117398   0.0000223116  -0.0000482545  -0.0001218846  -0.0000305379
        0.0000602061  -0.0000387393   0.0000071704   0.0000867787   0.0000305917
        0.0000171724  -0.0001541723   0.0000023168  -0.0000060119   0.0000094598
       -0.0000221415   0.0000191997  -0.0000142078   0.0000079456  -0.0000036284
       -0.0000014350  -0.0000110126   0.0000143807   0.0000032937   0.0000053204
        0.0000090175  -0.0000046426   0.0000068071   0.0000214905   0.0000139565
       -0.0000066028  -0.0000071293  -0.0000110717   0.0000127208   0.0000082028
       -0.0000833643   0.0001363891   0.0000342291   0.0000679138   0.0001197947
        0.0000691261   0.0001057055   0.0001518927   0.0000363742   0.0000141900
       -0.0002536162  -0.0000082398  -0.0000265308   0.0001718224   0.0000141100
       -0.0000322858  -0.0000876080  -0.0000213260  -0.0000195033   0.0000328615
       -0.0000040445  -0.0000025363  -0.0001070487  -0.0000186803  -0.0000094062
        0.0000564068  -0.0001457250   0.0002079978   0.0000676992  -0.0001831576
        0.0153875324  -0.0216495646  -0.0359215468   0.0011999436   0.0018817708
        0.0008348547   0.0008837361  -0.0009900264   0.0074832383  -0.0006074522
       -0.0000322427   0.0005660658  -0.0000903953  -0.0000236427   0.0000665329
        0.0000018054  -0.0000179987   0.0000412661  -0.0000041933   0.0000141514
        0.0000091000   0.0000036860   0.0000101093   0.0000155445   0.0000000321
       -0.0000010390   0.0000123183   0.0000013639  -0.0000020931   0.0000124996
        0.0000000136  -0.0000018630   0.0000097318   0.0000005327  -0.0000006850
        0.0000081072  -0.0000009089  -0.0000186178  -0.0000087544  -0.0000096870
        0.0000238612  -0.0000715668   0.0000088759  -0.0000012567   0.0000192824
       -0.0000034194   0.0000044939  -0.0000002741   0.0000056907   0.0000029304
        0.0000044115  -0.0000040118   0.0000118248  -0.0000199568
       -0.1304527815  -0.1202980880  -0.0011226870   0.6568334277  -0.0019910205
       -0.0443491594  -0.1515560597   0.1379278024   0.0179869061  -0.0487738514
        0.0231233241   0.0053650096   0.0114924565   0.0003293432  -0.0013274132
       -0.0331830177  -0.0250167468   0.0011495408  -0.0071457012   0.0052036145
        0.0008560250   0.0007062483  -0.0044779560  -0.0002783046   0.0005358024
        0.0019278798   0.0000027610  -0.0000491126  -0.0000371889   0.0000377369
       -0.0012537494  -0.0013030767   0.0001912234   0.0025514055  -0.0015775826
        0.0001396290  -0.0054963495  -0.0013969492  -0.0005539511   0.0055066625
        0.0007561851   0.0002596697  -0.0018103411  -0.0024405414   0.0002189112
        0.0019896493  -0.0007972673   0.0002265942  -0.0013498219  -0.0000121362
       -0.0000875393   0.0002301955   0.0001280206   0.0000155256   0.0000231609
       -0.0000998598   0.0000063780  -0.0000677711  -0.0001314985   0.0000148347
        0.0000110683   0.0002290328  -0.0000392841  -0.0004302638   0.0000251312
       -0.0000299369   0.0003800481  -0.0002823685   0.0000704271  -0.0001706557
        0.0003288858  -0.0000732912   0.0015315077   0.0011485363  -0.0001485182
       -0.0028759710   0.0018797976  -0.0002553486   0.0018358733   0.0029710807
       -0.0001698646  -0.0018148899  -0.0000506447   0.0002684256  -0.0001748637
       -0.0014396584  -0.0001661162  -0.0001068848   0.0011737402   0.0000603918
       -0.0003730386  -0.0005245507   0.0000389752   0.0000051215   0.0008491124
        0.0000315569  -0.0004692640  -0.0019112485  -0.0000706537  -0.0001238640
        0.0032140220   0.0002831914  -0.0025436271  -0.0064045793   0.0002561674
        0.0060326700   0.0147724549   0.0005055958  -0.3010530587  -0.0151270844
        0.0207864003   0.0069681770  -0.0103656706  -0.0012685823  -0.0054535504
       -0.0006628471   0.0010940508   0.0000761295   0.0001236131  -0.0000937950
        0.0000181543   0.0000719646  -0.0000709096  -0.0000220850  -0.0000058001
       -0.0000103248   0.0000189389  -0.0000164606   0.0000006821   0.0000138971
        0.0000195517   0.0000023534  -0.0000096516   0.0000075547  -0.0000018709
        0.0000046053  -0.0000258499  -0.0000021972  -0.0000151957  -0.0000258718
       -0.0000100254  -0.0000285994   0.0000190630   0.0000381034   0.0000393624
       -0.0000716916   0.0002225628   0.0000033760   0.0000418519  -0.0000253248
       -0.0000031214   0.0000116639  -0.0000028611  -0.0000085118   0.0000012695
       -0.0000094489   0.0000077159   0.0002097415   0.0000377792
       -0.0366449261  -0.2592417686  -0.0108046556  -0.0019910205   0.6157076775
        0.0332005309   0.0574369482  -0.2522661473  -0.0187496181   0.0824042737
        0.0169973161  -0.0053949632   0.0093543547  -0.0416603251  -0.0030845991
       -0.0854571489   0.0081198108   0.0073478978  -0.0047380406  -0.0023366172
        0.0004250973  -0.0007922723   0.0008392134   0.0000183682  -0.0022768500
        0.0004363638   0.0002898936  -0.0005109213   0.0001455494  -0.0000566672
        0.0016424877   0.0015414584  -0.0001786110  -0.0033366991   0.0022268209
       -0.0001338842   0.0074882181   0.0021299169   0.0006437864  -0.0075008872
       -0.0009770677  -0.0003375790   0.0023954541   0.0032960076  -0.0001971843
       -0.0026571755   0.0010768091  -0.0002931550   0.0015646982  -0.0000288156
        0.0001102366  -0.0000322706  -0.0001711601   0.0000079425  -0.0000621429
        0.0001527501  -0.0000265789   0.0001264898   0.0001136430  -0.0000098642
       -0.0000636994  -0.0002426368   0.0000416928   0.0005262622  -0.0000437900
        0.0000399734  -0.0004536910   0.0003675620  -0.0000905633   0.0002063162
       -0.0004252195   0.0001148155  -0.0020024707  -0.0014761737   0.0001992254
        0.0038569975  -0.0025687262   0.0002876372  -0.0028850488  -0.0042103400
        0.0001605435   0.0024615127   0.0000730489  -0.0003152169   0.0011834212
       -0.0010007431  -0.0000272764  -0.0001156717   0.0008486236   0.0000501823
       -0.0000939553  -0.0007534035  -0.0001748505   0.0000615743  -0.0013750567
        0.0000876555   0.0003979410   0.0019071986   0.0000902050  -0.0007435866
       -0.0053140906  -0.0003745020  -0.0071114701   0.0122307450   0.0009119995
       -0.0090028836  -0.0256807605  -0.0009502941  -0.0147577278  -0.0443814119
        0.0004239078   0.0124955326  -0.0251631721  -0.0025944865  -0.0002367067
        0.0013482954  -0.0005008556   0.0000001044  -0.0000956290   0.0000862940
        0.0000077856  -0.0000266983   0.0000474393   0.0000140878   0.0000058868
       -0.0000157467  -0.0000115246   0.0000023288  -0.0000326702   0.0000094458
        0.0000030701  -0.0000015143  -0.0000016912   0.0000010555   0.0000042734
        0.0000015114   0.0000001243   0.0000040367  -0.0000067475   0.0000116822
        0.0000041325   0.0000258553  -0.0000178117  -0.0000274876  -0.0000146514
        0.0000528773  -0.0002263976   0.0000048215  -0.0000928614   0.0000860816
       -0.0000056672  -0.0000400614  -0.0000183607   0.0000278358  -0.0000183484
        0.0000161106  -0.0001863814  -0.0000269990  -0.0000823767
        0.0044223686  -0.0040636500  -0.0479634300  -0.0443491594   0.0332005309
        0.1165823816   0.0126771215  -0.0251362417  -0.0444424036   0.0092027990
       -0.0007026475  -0.0015749982  -0.0007101535  -0.0023340009  -0.0057812282
       -0.0027808821   0.0024541610   0.0016823699   0.0002377547  -0.0005717608
       -0.0003160045  -0.0000669410   0.0003725422   0.0005736119  -0.0002339058
       -0.0000990649   0.0000042298  -0.0000060553   0.0000005135  -0.0000322249
        0.0001909478   0.0002160283  -0.0000051071  -0.0004221913   0.0002858043
        0.0000027050   0.0009608908   0.0002933572   0.0000906931  -0.0009858709
       -0.0001250242  -0.0000448014   0.0003116008   0.0004476042  -0.0000120006
       -0.0003469795   0.0001478162  -0.0000328736   0.0001940135   0.0000014132
        0.0000196940   0.0000129745  -0.0000196472   0.0000086629  -0.0000095828
        0.0000212437   0.0000013610   0.0000235981   0.0000133320  -0.0000112640
       -0.0000049621  -0.0000304352   0.0000041192   0.0000694995  -0.0000085855
       -0.0000054344  -0.0000644632   0.0000474027  -0.0000063223   0.0000334619
       -0.0000589947   0.0000091773  -0.0002582844  -0.0001935386   0.0000286307
        0.0005058374  -0.0003565183   0.0000298003  -0.0003587539  -0.0005519407
       -0.0000001434   0.0002783003   0.0000124071  -0.0000868898   0.0000687939
        0.0000621677  -0.0002121344   0.0000045644  -0.0000182109  -0.0001542017
        0.0000056132  -0.0000156169   0.0000166756   0.0000208037  -0.0001729004
       -0.0001652662   0.0000759254   0.0003185060   0.0001355995   0.0000409603
       -0.0007211003   0.0007638171   0.0002034160   0.0009958769   0.0059147928
       -0.0010694983  -0.0028806843   0.0002088868   0.0207915880   0.0004401717
       -0.0334579632   0.0002492273  -0.0008081253   0.0000454519   0.0010901766
       -0.0004034978   0.0081965393   0.0000076353  -0.0000119417  -0.0000060582
       -0.0000015417  -0.0000036192   0.0000042578   0.0000043140  -0.0000023223
        0.0000015961  -0.0000045335  -0.0000012979   0.0000033240  -0.0000018131
       -0.0000010830   0.0000006858  -0.0000004749  -0.0000005339  -0.0000043224
        0.0000000742   0.0000017694  -0.0000079852   0.0000017756   0.0000033920
       -0.0000052199   0.0000039742   0.0000019591  -0.0000043202  -0.0000001741
       -0.0000002832  -0.0000090347  -0.0000066105  -0.0000148054  -0.0000165752
        0.0000018285  -0.0000058162   0.0000266547   0.0000015944  -0.0000003671
       -0.0000188102  -0.0000106019  -0.0000237432   0.0000212999
        0.0528527296   0.0353946479  -0.0018653664  -0.1515560597   0.0574369482
        0.0126771215   0.6424302760   0.0363709068  -0.0404079839  -0.3252588447
       -0.0168866249   0.0210677282  -0.0292878018  -0.0567519280  -0.0013471625
       -0.0390972533   0.0125673006   0.0038310169   0.0054131243  -0.0088502826
       -0.0005822606  -0.0057471057   0.0096295016   0.0011807888  -0.0019759028
       -0.0035072461   0.0001157585  -0.0006496287  -0.0001393509  -0.0001045940
        0.0024171396   0.0022256951  -0.0003673292  -0.0048883900   0.0030854192
       -0.0002753886   0.0109934848   0.0031557433   0.0010707844  -0.0112144162
       -0.0014726799  -0.0005300068   0.0036149460   0.0050487587  -0.0003715738
       -0.0040877326   0.0017344750  -0.0004326222   0.0025973526   0.0000057724
        0.0002010372  -0.0002430994  -0.0003147453   0.0000077454  -0.0000842718
        0.0002126888  -0.0000421745   0.0002177470   0.0001970159  -0.0000170721
       -0.0001378442  -0.0004056499   0.0000775834   0.0008418803  -0.0000818579
        0.0000714454  -0.0007201511   0.0005555495  -0.0001424298   0.0003090107
       -0.0006483098   0.0001835579  -0.0030407742  -0.0022759933   0.0003430093
        0.0058961587  -0.0038988080   0.0004720331  -0.0039827071  -0.0061040083
        0.0003173259   0.0032338631   0.0003923436  -0.0004183466   0.0001982241
        0.0019192683   0.0002491246  -0.0000841023  -0.0008503936  -0.0000327268
       -0.0002975684   0.0002830403  -0.0001127703   0.0006115260  -0.0025535788
       -0.0000739259   0.0013102492   0.0042209554   0.0001801972  -0.0003864072
       -0.0081945980  -0.0005683745  -0.0339338597   0.0203854025   0.0037684410
       -0.0001912214  -0.0026556522   0.0003722689  -0.0196690566   0.0248940542
        0.0032456082  -0.0957448461  -0.1040881804  -0.0014889097  -0.0002538098
        0.0006158622  -0.0000079853  -0.0001855985  -0.0001577746   0.0001446237
       -0.0000143959  -0.0000287342   0.0001292923  -0.0000011572  -0.0000072362
       -0.0000161796  -0.0000227241  -0.0000255791  -0.0000333476   0.0000333397
        0.0000289835   0.0000099042  -0.0000363716   0.0000198598   0.0000032370
        0.0000041799  -0.0000358031  -0.0000072111  -0.0000352779  -0.0000081088
       -0.0000100444   0.0000315497  -0.0000203272  -0.0000587378   0.0000172380
        0.0000688446  -0.0004222562   0.0000331937  -0.0000391377   0.0000897078
       -0.0000646433  -0.0000693106  -0.0000301045   0.0000540554  -0.0000276455
        0.0000295390  -0.0002182448  -0.0003494923  -0.0000719951
       -0.0201767388  -0.0648794273  -0.0026634020   0.1379278024  -0.2522661473
       -0.0251362417   0.0363709068   0.6559124197   0.0333370694  -0.0773821449
       -0.0876031663   0.0030729909  -0.0170289263   0.0098728850   0.0019866743
        0.0230872203  -0.0013485906  -0.0018107583  -0.0111812848   0.0015477270
        0.0007815948   0.0037575538  -0.0095017549  -0.0010676614   0.0026830144
        0.0017874364  -0.0003089622   0.0006295079  -0.0000795367   0.0000446905
       -0.0020289389  -0.0020023561   0.0004554427   0.0037155515  -0.0022822222
        0.0002669149  -0.0079317244  -0.0020210906  -0.0009729747   0.0079952085
        0.0011275113   0.0004264785  -0.0026223205  -0.0036833288   0.0004116312
        0.0030213432  -0.0013159931   0.0003534754  -0.0025644843  -0.0001651596
       -0.0001522947   0.0009484915   0.0002225006   0.0000650023  -0.0000081039
       -0.0000324676  -0.0000066400  -0.0000943895  -0.0002759620   0.0000386683
        0.0000366537   0.0004130787  -0.0000769594  -0.0006947294   0.0000402362
       -0.0000560932   0.0006389308  -0.0003981290   0.0001056043  -0.0003219019
        0.0005030861  -0.0001202255   0.0023444889   0.0018277143  -0.0002768887
       -0.0042704140   0.0028078498  -0.0004092876   0.0028313786   0.0044993452
       -0.0003505969  -0.0026890996  -0.0004575824   0.0003823065  -0.0002223258
       -0.0014830168  -0.0002148967   0.0001685908   0.0007325850   0.0000170431
       -0.0007562166  -0.0001941967   0.0001571354   0.0003262011   0.0009093114
       -0.0000365220  -0.0006487285  -0.0009285847   0.0000035619   0.0015646384
        0.0045480876   0.0002071106   0.0271932875  -0.0015402590  -0.0020401931
       -0.0024336576  -0.0044798449  -0.0004953445   0.0010595125  -0.0000560475
       -0.0001507673  -0.1045122568  -0.2497808144  -0.0057732034   0.0004884084
        0.0002864351   0.0000078697   0.0002217408   0.0001815795  -0.0001619192
        0.0000518551   0.0001265198  -0.0001655617  -0.0000306819   0.0000099285
       -0.0000148464   0.0000378674   0.0000133026  -0.0000063249   0.0000108093
        0.0000172168   0.0000009420   0.0000192874  -0.0000061588  -0.0000021763
        0.0000087344  -0.0000284567   0.0000009532  -0.0000204601  -0.0000257025
       -0.0000091461  -0.0000473241   0.0000121598   0.0000749297   0.0000724276
       -0.0001159946   0.0004179288   0.0000075500   0.0000432092  -0.0000746094
        0.0000354070  -0.0000023202  -0.0000058104  -0.0000013157  -0.0000378681
       -0.0000375836   0.0004137982  -0.0004499462  -0.0000181269
       -0.0054736718  -0.0071393577   0.0009471601   0.0179869061  -0.0187496181
       -0.0444424036  -0.0404079839   0.0333370694   0.1104486274   0.0172326978
       -0.0017779079  -0.0415081293   0.0012405559   0.0053844256  -0.0007792133
        0.0044910386  -0.0009654253  -0.0022814392  -0.0009441341   0.0006361543
        0.0039841176   0.0009679205  -0.0016951711   0.0020559468   0.0002302327
        0.0004448171   0.0006562199   0.0002273072  -0.0000405978   0.0000484977
       -0.0002758615  -0.0003987146   0.0000328497   0.0006135496  -0.0004060772
       -0.0000141560  -0.0014459479  -0.0004334555  -0.0001464975   0.0014738668
        0.0001958608   0.0000763629  -0.0004717783  -0.0006779652   0.0000354877
        0.0005441061  -0.0002378531   0.0000626796  -0.0003979660  -0.0000193873
       -0.0000242127   0.0000914429   0.0000383077   0.0000110080   0.0000054656
       -0.0000166686   0.0000192477  -0.0000216714  -0.0000417935   0.0000090148
        0.0000129957   0.0000657581   0.0000027366  -0.0001226342   0.0000082668
       -0.0000009722   0.0001049411  -0.0000719527   0.0000390787  -0.0000480962
        0.0000839350  -0.0000261738   0.0004201632   0.0003197532  -0.0000416519
       -0.0007790763   0.0005165246  -0.0000309874   0.0005321349   0.0007618765
        0.0000154792  -0.0004877892   0.0001616131   0.0000336689  -0.0000518132
       -0.0003024209   0.0000882358   0.0000435424   0.0001251504   0.0000472444
       -0.0000413317  -0.0000329729   0.0000208372  -0.0000137220   0.0002643888
        0.0000779895  -0.0001643736  -0.0004012918  -0.0000520439   0.0001427009
        0.0009191223  -0.0002244350   0.0042701693  -0.0015045537  -0.0035482853
        0.0003702358  -0.0004796267   0.0062072185   0.0016853403  -0.0020479309
        0.0000693990  -0.0015734583  -0.0058275579  -0.0316523674   0.0000389859
       -0.0000222711  -0.0001737914  -0.0000400951   0.0000229083   0.0000143402
        0.0000083743   0.0000032101  -0.0000084599  -0.0000018401   0.0000003987
        0.0000021926   0.0000054853   0.0000019289   0.0000065019  -0.0000024480
       -0.0000025181   0.0000104779   0.0000038618  -0.0000036217   0.0000142017
       -0.0000008912   0.0000001029   0.0000157054   0.0000001468  -0.0000019216
        0.0000107266  -0.0000066753   0.0000012380   0.0000099785   0.0000116567
       -0.0000061575   0.0000466176  -0.0000168043  -0.0000149643  -0.0000210740
        0.0000069694   0.0000060859  -0.0000133185  -0.0000057776   0.0000002931
        0.0000010329   0.0000330480   0.0000205655  -0.0001312709
       -0.0355429217  -0.0300318388   0.0005532209  -0.0487738514   0.0824042737
        0.0092027990  -0.3252588447  -0.0773821449   0.0172326978   0.7935795537
        0.0050640352  -0.0534419858  -0.0943477778  -0.0402959772   0.0000548436
        0.0414482718  -0.0067919779  -0.0039015056  -0.0619867377  -0.0047347546
        0.0058544933  -0.0570373045  -0.0159634839   0.0037816859  -0.0085797086
        0.0021218099   0.0008244880  -0.0000747474   0.0013669917   0.0002605126
       -0.0025513080  -0.0024284972   0.0002677062   0.0041950263  -0.0025745750
        0.0002970632  -0.0096206462  -0.0026949303  -0.0009048242   0.0096239907
        0.0012825101   0.0004430054  -0.0031327772  -0.0044662689   0.0003513643
        0.0036221534  -0.0015940647   0.0004144990  -0.0029224098  -0.0001364563
       -0.0001925533   0.0009563804   0.0002681633   0.0000388461   0.0000071352
       -0.0000634340   0.0000053859  -0.0001504232  -0.0002713141   0.0000325506
        0.0000828678   0.0004449867  -0.0000812432  -0.0007812474   0.0000704287
       -0.0000647177   0.0007128076  -0.0004654784   0.0001291061  -0.0003537173
        0.0005903357  -0.0001597261   0.0027327646   0.0021218447  -0.0003187778
       -0.0051378074   0.0034389978  -0.0004375257   0.0032955386   0.0054232308
       -0.0002576266  -0.0033135560  -0.0000965897   0.0003888951  -0.0001410949
       -0.0004612029   0.0000505231  -0.0003496230   0.0005362859   0.0001581690
        0.0009939638  -0.0001625363   0.0000380822  -0.0015138997   0.0033060309
        0.0002381664   0.0002067912  -0.0065539844  -0.0004468776   0.0000722688
        0.0168336887   0.0004129643  -0.1833104558   0.0721472393   0.0164040818
       -0.0001619949  -0.0009579948  -0.0000283059  -0.0005654103   0.0026372092
        0.0007655510  -0.0160597075  -0.0045556165   0.0010443209  -0.0011090535
        0.0028187101   0.0008685758   0.0007818819   0.0005279424  -0.0001077620
        0.0000724357   0.0001283596  -0.0001266553  -0.0000144254   0.0000297513
       -0.0000068020   0.0000323668   0.0000374043   0.0000126287  -0.0000111298
       -0.0000037766  -0.0000068144   0.0000379109  -0.0000168137  -0.0000038668
       -0.0000044710  -0.0000054076   0.0000061976  -0.0000058285  -0.0000131354
        0.0000034276  -0.0000538496  -0.0000149581   0.0000582751   0.0000170448
       -0.0000980100   0.0003709580   0.0000267023  -0.0001259992  -0.0000765437
        0.0000956523  -0.0001019585   0.0000191970  -0.0000278105  -0.0003329637
       -0.0000232759   0.0003010319  -0.0002040860   0.0000031081
       -0.0156599993  -0.0074980356   0.0010363451   0.0231233241   0.0169973161
       -0.0007026475  -0.0168866249  -0.0876031663  -0.0017779079   0.0050640352
        0.5060012413   0.0248709211  -0.0622925068  -0.1990231658  -0.0039428763
        0.0173756901  -0.0446932333  -0.0042749629  -0.0561630778  -0.0050421043
        0.0035949417   0.0238533448   0.0094323240  -0.0015897212  -0.0034273275
        0.0048311765   0.0003511503  -0.0001990612   0.0005794650   0.0001167339
       -0.0009562393  -0.0005796066   0.0005091315   0.0015892131  -0.0008848564
        0.0002508658  -0.0040643574  -0.0011516091  -0.0007678842   0.0044422186
        0.0006573787   0.0003000656  -0.0015650979  -0.0021397956   0.0003599405
        0.0018068265  -0.0008051541   0.0001901874  -0.0014193072  -0.0000847379
       -0.0000948666   0.0003742526   0.0001793888   0.0000347812   0.0000289939
       -0.0000856956   0.0000111461  -0.0000867653  -0.0001476945   0.0000207017
        0.0000502772   0.0002441319  -0.0000459822  -0.0004539729   0.0000236065
       -0.0000359975   0.0003858857  -0.0002573491   0.0000670558  -0.0001661295
        0.0002983271  -0.0000630200   0.0013867637   0.0010829467  -0.0001932797
       -0.0025555642   0.0016001984  -0.0002893494   0.0008617610   0.0022399004
       -0.0003090891  -0.0009726456  -0.0014118654   0.0000971679  -0.0004319870
       -0.0084744611  -0.0007149790   0.0011916326   0.0038531701  -0.0000032050
       -0.0024355375  -0.0016580223   0.0001046943   0.0008730411  -0.0014062478
       -0.0000310754  -0.0002679138   0.0008787019   0.0001594704   0.0181734877
       -0.0149755188  -0.0018809120   0.0927895566  -0.1614133715  -0.0156577717
       -0.0005632356   0.0004489113   0.0000552259   0.0033322385  -0.0037095532
       -0.0009626477  -0.0284350968  -0.0046518767   0.0019543547   0.0022476953
       -0.0025284095  -0.0007935567   0.0006692804   0.0004094999  -0.0001230018
       -0.0000356430   0.0000368768  -0.0001721036   0.0000056569   0.0000229082
       -0.0000162395   0.0000176697   0.0000120785  -0.0000171003  -0.0000086810
       -0.0000089401  -0.0000018031   0.0000170223  -0.0000105729   0.0000020635
        0.0000046031   0.0000094605   0.0000075559   0.0000135636  -0.0000045273
        0.0000045791  -0.0000007330   0.0000112010   0.0000733636  -0.0000483168
       -0.0000739140   0.0003838429   0.0000322334  -0.0000526940  -0.0000366075
       -0.0001140130   0.0001638757   0.0000009151   0.0000263302   0.0002159299
       -0.0000645188  -0.0005267637   0.0001461636   0.0000059057
        0.0013767644   0.0021092991  -0.0046448815   0.0053650096  -0.0053949632
       -0.0015749982   0.0210677282   0.0030729909  -0.0415081293  -0.0534419858
        0.0248709211   0.1222935412  -0.0018520311  -0.0056453330  -0.0616285659
       -0.0021496296  -0.0023655241  -0.0013096104   0.0029149455  -0.0007976156
        0.0135738736   0.0060674328   0.0020032210   0.0018890703   0.0009055169
       -0.0001190519   0.0018743098  -0.0000714367   0.0000267344   0.0003980085
        0.0000392762   0.0004434432  -0.0000447533  -0.0002210294   0.0001885605
        0.0001291290   0.0007036136   0.0002693424   0.0000604584  -0.0006866216
       -0.0000875556  -0.0000415771   0.0002218106   0.0003136802   0.0000435851
       -0.0002657558   0.0001095826  -0.0000344684   0.0003379981   0.0000310684
        0.0000114420  -0.0002331778  -0.0000159020  -0.0000160108   0.0000091461
       -0.0000172066  -0.0000068975  -0.0000011312   0.0000327192  -0.0000269039
       -0.0000083147  -0.0000476757  -0.0000034566   0.0000719840   0.0000003967
       -0.0000171107  -0.0000620377   0.0000421335  -0.0000197798   0.0000381815
       -0.0000500513   0.0000178188  -0.0002403967  -0.0001594282   0.0000183567
        0.0003629181  -0.0002388093  -0.0000715149  -0.0003191405  -0.0003396233
       -0.0001079987   0.0003451324  -0.0005275687  -0.0000390278   0.0001924983
       -0.0005767413   0.0024306441   0.0002184112   0.0000168957   0.0011438183
       -0.0001354820  -0.0000459584  -0.0000835044   0.0001288237  -0.0003561786