$hessian                                                                        
        0.4066006692   0.0027529672  -0.2554964705  -0.3759825220  -0.0064642354
        0.2271601706  -0.0000030633   0.0027176866   0.0068460836   0.0006767007
       -0.0007270496   0.0014352389   0.0001753951  -0.0000216184  -0.0006184399
        0.0000282005  -0.0005308968  -0.0000157817   0.0004344585   0.0001416965
        0.0003527931  -0.0010084180   0.0022505792   0.0003185222  -0.0058253248
       -0.0006967805   0.0071779253  -0.0013524637   0.0026240521   0.0007014134
        0.0000629286  -0.0001820501  -0.0001635882   0.0004809724   0.0004468878
       -0.0005775505  -0.0006436349   0.0002140494   0.0002260368   0.0015775669
       -0.0029662390   0.0009878547  -0.0237330245   0.0002766389   0.0123662123
        0.0015681913   0.0018581435   0.0073614751  -0.0008819333   0.0006493757
        0.0001383145   0.0013442671   0.0001652150   0.0018438376  -0.0017472066
        0.0006663400  -0.0015259472  -0.0015783341  -0.0018478866  -0.0060818152
        0.0000193653  -0.0000800969  -0.0000667747   0.0006687325  -0.0003870884
       -0.0008326653   0.0002285908  -0.0000414385  -0.0000586151  -0.0004461132
       -0.0000682497  -0.0004722561   0.0000826230   0.0000884635   0.0005398751
       -0.0001342775   0.0000887546   0.0000421630  -0.0000237001  -0.0001221119
       -0.0001827781   0.0000519077  -0.0000909188  -0.0000510721  -0.0000875878
       -0.0000737551   0.0000170206   0.0000120858   0.0000798104  -0.0000199303
        0.0003907716   0.0003799717  -0.0000344120  -0.0002165434  -0.0005000847
        0.0001953154   0.0005600169   0.0002766592   0.0002039855  -0.0004527191
       -0.0005471194   0.0000068610   0.0002600679   0.0003327859  -0.0000183299
       -0.0003815771   0.0008539857   0.0000823416   0.0009540264  -0.0003187738
       -0.0001740525  -0.0007231348   0.0000979056   0.0001090717   0.0002020935
       -0.0003469130  -0.0000284918  -0.0010196289   0.0001302278   0.0001229419
        0.0014677061  -0.0009629809  -0.0002686788  -0.0012986673   0.0011848171
        0.0002546453   0.0003845354  -0.0009706691  -0.0000780618  -0.0003901931
        0.0001223452   0.0000370908   0.0002805429  -0.0006838050  -0.0000814143
       -0.0005602019   0.0008499838   0.0001397161   0.0009203644  -0.0001581060
       -0.0001198228   0.0001124631   0.0006045800  -0.0001732721  -0.0005041596
       -0.0002863683  -0.0001273828   0.0002753446  -0.0008370080   0.0004617726
        0.0000407830  -0.0000078352  -0.0004901288   0.0000319576  -0.0002385649
        0.0003810066  -0.0000698123   0.0004537770  -0.0006250743  -0.0002732483
        0.0002959469   0.0008800408   0.0001312288   0.0002470848  -0.0017336571
       -0.0003072771   0.0001314547   0.0016902738   0.0000492301   0.0003740170
       -0.0009086826  -0.0002210340   0.0003582470   0.0005415176   0.0001100018
       -0.0001029892  -0.0003854268  -0.0000551218  -0.0000277121   0.0005863785
        0.0003016028  -0.0007370025  -0.0004403984   0.0000907932   0.0001180149
        0.0000571203   0.0000157929   0.0001423757   0.0001056691   0.0002704593
       -0.0000034929   0.0001261570  -0.0009554717   0.0002730181   0.0002190530
       -0.0002349470  -0.0001601222  -0.0002659961  -0.0000659648   0.0002542684
        0.0000312451  -0.0001228257   0.0000972604   0.0000898074   0.0000880315
        0.0002044455   0.0002942288  -0.0003272975   0.0000684342  -0.0000033956
        0.0010322893  -0.0004812392  -0.0010031233   0.0000648794  -0.0002958354
        0.0000370490   0.0000714129  -0.0000852318   0.0000256337  -0.0001703036
       -0.0003571787   0.0001595224   0.0005959555   0.0000594495  -0.0004647663
       -0.0002894295  -0.0003207417  -0.0004791190  -0.0001024683  -0.0000834184
       -0.0002148679  -0.0002137841  -0.0001038572  -0.0001307109   0.0000064091
       -0.0000095964   0.0000396706  -0.0000736196   0.0000313828   0.0000291055
        0.0000307453   0.0000202137   0.0000322111  -0.0000667029   0.0000115542
        0.0000132275   0.0000310506   0.0000118471   0.0000148744  -0.0000112836
       -0.0000375293  -0.0000033288   0.0000364485   0.0000261358  -0.0000095805
       -0.0000177212   0.0000315154   0.0000101221  -0.0000542538   0.0000025320
        0.0000085007  -0.0000181861  -0.0000315157  -0.0000204970  -0.0000264586
       -0.0000184469   0.0000244324   0.0000128464  -0.0000534336  -0.0000040844
        0.0000352715  -0.0000130978  -0.0000111350   0.0000142950   0.0000460898
        0.0000089702  -0.0000226359  -0.0000264269   0.0000013347   0.0000267463
        0.0000393687  -0.0000195238   0.0000133933  -0.0000644367   0.0000069444
        0.0000106529  -0.0000086046   0.0000572785  -0.0000248761   0.0000360246
        0.0000410699  -0.0000414778   0.0000430211  -0.0000215385  -0.0000151406
        0.0000528374   0.0000180970  -0.0000182560   0.0000379385  -0.0000472410
       -0.0000004070  -0.0000151104  -0.0000568594   0.0000227788  -0.0000630177
        0.0000005733  -0.0000661410  -0.0000116417  -0.0000027382   0.0000188248
       -0.0000505628  -0.0000189076  -0.0001138943  -0.0000012915  -0.0000314090
        0.0027529672   0.0409176187  -0.0032701114  -0.0016703522  -0.0512490093
       -0.0012702352   0.0138222657   0.0043391689  -0.0092276779   0.0001612087
        0.0017198324  -0.0004879008  -0.0012385179   0.0006204549   0.0003774427
       -0.0001027291   0.0003583340  -0.0003063453  -0.0013180298  -0.0007109062
        0.0000489379   0.0009201332  -0.0015384972   0.0006159226  -0.0142314812
        0.0016464649   0.0110375861  -0.0016821037   0.0032040479   0.0000117388
       -0.0014170922   0.0003994312   0.0011042257   0.0001079801   0.0010020539
       -0.0005243499  -0.0002742466  -0.0016695783   0.0010716587   0.0019607068
       -0.0027083613   0.0000689621   0.0030899416   0.0039202350   0.0001887649
        0.0003173983   0.0001379116  -0.0009010966   0.0001125291  -0.0002158354
        0.0002149790  -0.0000173604  -0.0000628760  -0.0004926683  -0.0001493515
       -0.0002244106   0.0008603629  -0.0000970924   0.0014882987   0.0002618600
        0.0003331850   0.0002536199  -0.0003099398  -0.0005366381   0.0000104333
        0.0005708254   0.0005044681  -0.0001030871  -0.0002912950  -0.0002299836
        0.0001229650   0.0001505660   0.0000264889  -0.0000162994  -0.0002369909
        0.0000647531  -0.0000317648   0.0000003660  -0.0000445940   0.0000094755
       -0.0000116331   0.0000500560  -0.0000031464  -0.0000044221  -0.0000393732
       -0.0000057621   0.0000218744  -0.0000081337   0.0000112325  -0.0000172458
        0.0000929007   0.0001039346  -0.0000016298  -0.0000587678  -0.0001292022
        0.0000452717   0.0001510355   0.0000636976   0.0000386324  -0.0001574381
       -0.0001990235   0.0000039238   0.0000668413   0.0000817600  -0.0000026288
       -0.0000190706   0.0002076389   0.0000004801   0.0002352408  -0.0000592047
       -0.0000400966  -0.0001927430   0.0000208237   0.0000277359   0.0000326982
       -0.0000434724  -0.0000009268  -0.0002082096  -0.0000036438   0.0000243405
        0.0003113814  -0.0002272079  -0.0000574442  -0.0002970674   0.0002455269
        0.0000563341   0.0000484325  -0.0002004999  -0.0000100795  -0.0000528181
        0.0000197847   0.0000035429   0.0000702358  -0.0001819837  -0.0000165278
       -0.0001214593   0.0002128177   0.0000310346   0.0002018577   0.0000353284
       -0.0000122135   0.0000206910   0.0001630131  -0.0000327856  -0.0001281456
       -0.0000765461  -0.0000295657   0.0000500050  -0.0001752584   0.0000979605
        0.0000062753  -0.0000039304  -0.0001037002   0.0000087898  -0.0000424410
        0.0000770663  -0.0000130121   0.0000939113  -0.0001309594  -0.0000504450
        0.0000615418   0.0001830423   0.0000256701   0.0000492046  -0.0003678757
       -0.0000708079   0.0000333181   0.0003578291   0.0000162975   0.0000768227
       -0.0001895349  -0.0000504824   0.0000784691   0.0001167989   0.0000289834
       -0.0000240795  -0.0000786764  -0.0000139452  -0.0000038214   0.0001171220
        0.0000555476  -0.0001606133  -0.0000853967   0.0000509916   0.0000046050
       -0.0000161997  -0.0000510007   0.0000153982   0.0000050807  -0.0002338773
        0.0001860877   0.0001159630   0.0003949926  -0.0004061978  -0.0002572284
        0.0001426081   0.0003261693  -0.0003849498   0.0000278865  -0.0000869631
        0.0000473269   0.0002567059  -0.0000581378  -0.0001531073  -0.0001055039
       -0.0001471312  -0.0002553338   0.0004238204   0.0000642377  -0.0003480095
       -0.0013665252  -0.0006218474   0.0011243153   0.0000328781   0.0000676750
       -0.0000423007  -0.0001099400  -0.0001335105   0.0000982661  -0.0002037148
       -0.0003713621   0.0002448715  -0.0001244655  -0.0002098274   0.0002006055
       -0.0001724709  -0.0001889379   0.0002840726   0.0000249447   0.0000065273
        0.0000189038  -0.0000226896   0.0000017395   0.0000075020  -0.0000427109
       -0.0000142669   0.0000407898  -0.0000178852  -0.0000145045   0.0000024478
       -0.0000006099  -0.0000025691   0.0000111565  -0.0000191992   0.0000017187
        0.0000017194   0.0000071473   0.0000018265   0.0000071179  -0.0000037804
       -0.0000078593   0.0000026200   0.0000082826   0.0000073984  -0.0000006252
       -0.0000047693   0.0000059528   0.0000025939  -0.0000117950  -0.0000007351
        0.0000031053  -0.0000028737  -0.0000086070  -0.0000044948  -0.0000053526
       -0.0000051038   0.0000069608   0.0000043905  -0.0000112723  -0.0000004798
        0.0000099185  -0.0000044868  -0.0000022958   0.0000080159   0.0000066422
       -0.0000000299  -0.0000044325  -0.0000089938  -0.0000040476   0.0000053134
        0.0000073843  -0.0000077247   0.0000026480  -0.0000168719   0.0000010234
        0.0000016713  -0.0000024913   0.0000136674  -0.0000077311   0.0000081633
        0.0000100102  -0.0000137234   0.0000103965  -0.0000062990  -0.0000062504
        0.0000129936   0.0000034174  -0.0000064535   0.0000064457  -0.0000132527
       -0.0000005382  -0.0000066544  -0.0000159932   0.0000052014  -0.0000174368
       -0.0000011153  -0.0000110012  -0.0000046263  -0.0000017006   0.0000042378
       -0.0000177522  -0.0000062634  -0.0000178344  -0.0000119242  -0.0000073206
       -0.2554964705  -0.0032701114   0.2185307916   0.2310970832   0.0024108736
       -0.2101391424   0.0150473181  -0.0017137547  -0.0087030114  -0.0004309773
        0.0014257067  -0.0027210552  -0.0015094036  -0.0003343040   0.0002313711
        0.0001466519   0.0002402260   0.0004180681  -0.0016543631  -0.0002451150
        0.0003768986   0.0012197348  -0.0023798130   0.0011433298   0.0155358710
        0.0023466650  -0.0073723893   0.0023316130  -0.0034158933  -0.0001853719
        0.0003697534  -0.0001504685  -0.0009486411  -0.0003255735  -0.0009458416
        0.0007326615   0.0000827531   0.0007844499  -0.0012122534  -0.0012902357
        0.0042460075   0.0005218396  -0.0043139271  -0.0004296820   0.0064015860
        0.0007745226  -0.0008509032   0.0013652699  -0.0006644740   0.0002551688
        0.0009349555   0.0000003251   0.0001570425   0.0005639477  -0.0002014009
       -0.0000660040  -0.0010283880   0.0000605167  -0.0000697657  -0.0015441299
        0.0002925856  -0.0000078625   0.0010824980  -0.0009458325   0.0001758601
       -0.0003408480  -0.0000025498  -0.0000219611  -0.0000379767   0.0000350873
       -0.0001037543  -0.0002213950   0.0002471170  -0.0000404724   0.0000995456
       -0.0002262802   0.0000598091  -0.0000002103   0.0000793417  -0.0000490935
       -0.0000483271  -0.0000594997  -0.0000016198  -0.0000039369   0.0000755389
       -0.0000028909   0.0000048709   0.0000032157  -0.0000421587  -0.0000252402
        0.0000275822   0.0000559604   0.0000165561   0.0000042273  -0.0000575381
        0.0000325551   0.0000862403  -0.0000128242   0.0000052361  -0.0000980465
       -0.0001339584  -0.0000017856   0.0000288182   0.0000384433   0.0000063122
        0.0000827906  -0.0000450008  -0.0000372704  -0.0000357530   0.0000692719
        0.0000155733  -0.0000045473   0.0000138771  -0.0000011203  -0.0000543540
        0.0001059114   0.0000129403   0.0001527088  -0.0000981949  -0.0000238794
       -0.0001620906   0.0000367119   0.0000265555   0.0000777171  -0.0001486057
       -0.0000166866  -0.0001293125   0.0001274961   0.0000247278   0.0001144467
       -0.0000310876  -0.0000164552   0.0000137669   0.0000023908   0.0000043134
        0.0000797583  -0.0000221297  -0.0000082403  -0.0000617374   0.0000707786
        0.0000300774  -0.0000363052   0.0000778495  -0.0000032702  -0.0000592786
       -0.0000064860  -0.0000227587  -0.0000090924  -0.0000487910   0.0000194441
        0.0000091709  -0.0000377094   0.0000161776   0.0000169705  -0.0000304987
        0.0000184148  -0.0000152925   0.0000447245  -0.0000053187  -0.0000192782
        0.0000454638   0.0000156810  -0.0000063161   0.0000208175  -0.0000470154
       -0.0000130021   0.0000203238   0.0000338598  -0.0000171472   0.0000405703
       -0.0000100048  -0.0000240503   0.0000447155   0.0000062318   0.0000127375
       -0.0000284081  -0.0000174332   0.0000105235  -0.0000391746  -0.0000015513
        0.0000143518  -0.0000267706  -0.0000081764  -0.0000634737   0.0000219775
        0.0000232591   0.0000926164   0.0000029158   0.0000621398   0.0000075360
        0.0000082669   0.0001134209  -0.0000967539   0.0002419664   0.0005977374
        0.0008069188  -0.0000789231   0.0003333844   0.0000164853  -0.0004188601
       -0.0000420414   0.0003954068  -0.0000981455  -0.0001894769  -0.0000896469
       -0.0001664228  -0.0003510015   0.0005797473   0.0002272036   0.0001889029
       -0.0004337155   0.0004734451  -0.0000918370  -0.0000841812   0.0002039928
        0.0000098437   0.0000679961   0.0001735828   0.0000323375   0.0001002980
        0.0003847559  -0.0004088674  -0.0002513616   0.0000976436   0.0005090775
       -0.0014326395   0.0007749246   0.0010712143   0.0001747375   0.0000567409
        0.0002222315  -0.0000672781   0.0000712685   0.0000327937  -0.0000565819
        0.0000215875   0.0000047552   0.0000075192  -0.0000031539  -0.0000211193
       -0.0000167361   0.0000061689  -0.0000050767   0.0000041061  -0.0000044044
        0.0000007908  -0.0000124688   0.0000024397   0.0000000659  -0.0000040352
        0.0000071438   0.0000046304  -0.0000075585  -0.0000013891   0.0000043617
        0.0000041281  -0.0000078396  -0.0000028127   0.0000083578  -0.0000002483
       -0.0000006156   0.0000035009   0.0000067196   0.0000000429   0.0000056212
        0.0000044096  -0.0000022090  -0.0000018147   0.0000089642  -0.0000015753
       -0.0000101389   0.0000031902   0.0000002302  -0.0000004714  -0.0000090638
       -0.0000076156   0.0000061202  -0.0000014627  -0.0000127239  -0.0000010023
       -0.0000129609  -0.0000063397  -0.0000061588   0.0000131214  -0.0000045436
       -0.0000000691   0.0000042376  -0.0000116133   0.0000010808  -0.0000052006
       -0.0000095020   0.0000052598  -0.0000095217   0.0000020472   0.0000047298
       -0.0000073273  -0.0000071582   0.0000034782  -0.0000091254   0.0000077790
       -0.0000002819   0.0000016515   0.0000103920  -0.0000035194   0.0000115036
       -0.0000032127   0.0000121464   0.0000041277  -0.0000054219  -0.0000004414
        0.0000034983  -0.0000070891   0.0000682900  -0.0000118669   0.0000214077
       -0.3759825220  -0.0016703522   0.2310970832   0.5936576954   0.0000100636
       -0.1720539241  -0.0383514381  -0.0018224002   0.0023095104  -0.0012995192
        0.0026800687   0.0023369656   0.0054097291   0.0012463652  -0.0007467222
       -0.0001038318   0.0005390917  -0.0000280006   0.0052768871   0.0008833083
       -0.0026544348  -0.0000609164  -0.0039297618  -0.0022275895  -0.0334601641
       -0.0083319197   0.0110580006   0.0027297482   0.0055272767  -0.0069818015
       -0.0003909207   0.0041384979   0.0024968379  -0.0006574926  -0.0001270627
        0.0006009823  -0.0002993494  -0.0000588902   0.0042993017  -0.0034793187
       -0.0130915287   0.0067146824  -0.1107235190   0.0131120831  -0.0488599165
       -0.0074677181  -0.0075098335  -0.0354940470   0.0123302828  -0.0012062388
        0.0027169561  -0.0076892411  -0.0001493870  -0.0068414708   0.0032889958
        0.0034106748   0.0136603727  -0.0373249884   0.0070871316  -0.0011845407
        0.0011985281  -0.0014540020  -0.0042889925   0.0017881409   0.0010188639
        0.0056829247  -0.0017326979   0.0005057558   0.0007013345   0.0031613049
        0.0006815167   0.0039930797  -0.0025476081  -0.0004775627  -0.0041432406
        0.0019144035  -0.0005348491  -0.0000156090  -0.0004227012   0.0007990440
        0.0010193835   0.0000980246   0.0003197985   0.0002731388  -0.0000638938
        0.0003583416  -0.0000815283  -0.0000896461   0.0000713071   0.0002186105
       -0.0021456804  -0.0023392088   0.0000701312   0.0009470155   0.0030292358
       -0.0012872698  -0.0035946332  -0.0012463827  -0.0010821837   0.0030771201
        0.0038364959  -0.0000529654  -0.0015578394  -0.0020110998   0.0000782127
        0.0011888284  -0.0038593024  -0.0001279756  -0.0044191262   0.0009298030
        0.0007530096   0.0036334777  -0.0006621748  -0.0005349914  -0.0005134087
        0.0008726626   0.0000186547   0.0038306672   0.0002293470  -0.0003931226
       -0.0059130061   0.0045121908   0.0010944346   0.0058197199  -0.0046196648
       -0.0010802360  -0.0007887737   0.0038287123   0.0001830956   0.0009657010
       -0.0002851697  -0.0000493309  -0.0015469241   0.0033684116   0.0003977486
        0.0019901837  -0.0040517092  -0.0005704285  -0.0040984406   0.0001675643
        0.0003324112  -0.0001957802  -0.0037225588   0.0009584034   0.0030473692
        0.0014672614   0.0008976721  -0.0013210660   0.0045023949  -0.0024570068
       -0.0002876407   0.0003717835   0.0022424239  -0.0003165652   0.0015181617
       -0.0020361945   0.0005333452  -0.0026764760   0.0031611858   0.0015117912
       -0.0018535755  -0.0044415556  -0.0005789460  -0.0014560143   0.0089166547
        0.0016187933  -0.0008574687  -0.0086462016  -0.0000228192  -0.0022286161
        0.0045674050   0.0012786141  -0.0021488407  -0.0026884697  -0.0006649570
        0.0007915668   0.0020384726   0.0000925813   0.0005023468  -0.0028210464
       -0.0016682847   0.0038139599   0.0022722537  -0.0000299230  -0.0005064781
       -0.0002536624  -0.0006165954  -0.0006228355  -0.0007980002  -0.0009436372
       -0.0001126986   0.0003729044  -0.0003265858  -0.0012674920  -0.0054610598
       -0.0018149862  -0.0003388416  -0.0002858117   0.0000894255   0.0001226797
       -0.0000768494  -0.0013174843  -0.0002273907   0.0002709197   0.0000079409
       -0.0003683839  -0.0002657940  -0.0016067347  -0.0007004638   0.0003941221
       -0.0025218412   0.0014881812  -0.0000183474   0.0001373952   0.0009629060
       -0.0002602618  -0.0005798408  -0.0002357991  -0.0004782183  -0.0002042192
       -0.0005482410   0.0006888078  -0.0011942651   0.0000638986  -0.0000216203
       -0.0000814722   0.0006889671   0.0019613544   0.0005434864   0.0001095111
        0.0006037561   0.0003474324  -0.0000975571   0.0003304466   0.0000333245
       -0.0000075211  -0.0000328927   0.0002813515  -0.0001250294  -0.0000383635
       -0.0000558013  -0.0001593211  -0.0001463493   0.0002520136  -0.0000401432
       -0.0000512245  -0.0000387231  -0.0000585606  -0.0000966437   0.0000905475
        0.0000983613  -0.0000125396  -0.0000856634  -0.0000831286   0.0000003045
        0.0000491909  -0.0000875555  -0.0000181875   0.0001896999  -0.0000126887
       -0.0000353411   0.0000403123   0.0000981597   0.0001007375   0.0000838447
        0.0000512614  -0.0001008452  -0.0000386570   0.0001857245   0.0000298751
       -0.0000776480   0.0000225945   0.0000196673  -0.0000174544  -0.0001389431
        0.0000041154   0.0000404508   0.0001383968   0.0000774048  -0.0001192257
       -0.0000714659   0.0001411107  -0.0000081219   0.0002003119  -0.0000464076
       -0.0000623307   0.0000111319  -0.0001563221   0.0000902628  -0.0001191175
       -0.0001237256   0.0001070568  -0.0001055823   0.0000591955   0.0000141909
       -0.0001520685  -0.0000417785   0.0000618516  -0.0001510914   0.0001377278
        0.0000378770   0.0000340817   0.0001345155  -0.0000556653   0.0001833076
        0.0000026190   0.0002894219  -0.0000045410   0.0000274663   0.0000174433
        0.0001626475   0.0000885569   0.0003847852  -0.0000282198   0.0000841011
       -0.0064642354  -0.0512490093   0.0024108736   0.0000100636   0.3544299702
        0.0041813911  -0.0071513761  -0.1039399954  -0.0586801408   0.0015094673
       -0.0253486229  -0.0076526496   0.0025538231  -0.0035463066   0.0024550275
        0.0002110938  -0.0010978709  -0.0000546835   0.0013189453   0.0025060873
        0.0001587878  -0.0028733253   0.0034803750  -0.0093170507   0.0008929408
       -0.1105285040   0.0447803939   0.0113944368  -0.0371053079   0.0067706759
        0.0080964657   0.0036291687  -0.0064882465  -0.0007871319  -0.0061868631
        0.0035253568  -0.0019428786   0.0113205362  -0.0015530989  -0.0171503298
       -0.0084318204   0.0168505873   0.0106759138  -0.0299413099  -0.0010536052
       -0.0064941312   0.0005092808   0.0017990989   0.0018479957   0.0016896868
       -0.0022024731  -0.0014541535   0.0009241354   0.0034756165   0.0039107630
        0.0021687588  -0.0054390147   0.0023703709  -0.0029461334   0.0029592012
       -0.0045562245  -0.0008312967   0.0009317256   0.0051012549  -0.0013000354
       -0.0031245870  -0.0042477729   0.0013106797   0.0021561597   0.0028811905
       -0.0007255790  -0.0000742000  -0.0007359093   0.0000900718   0.0008239987
        0.0000230560   0.0001244469   0.0000155493   0.0001041830   0.0001923461
        0.0002259780  -0.0001792669   0.0000739812   0.0001241095   0.0001685307
        0.0000502013  -0.0000569346  -0.0000175754   0.0000411632   0.0000474018
       -0.0008338896  -0.0008911254   0.0000277168   0.0004022370   0.0011283788
       -0.0004588470  -0.0013112792  -0.0005209093  -0.0003895479   0.0011511191
        0.0014311832  -0.0000179719  -0.0006040326  -0.0007743781   0.0000298362
        0.0004932272  -0.0015411108  -0.0000743541  -0.0017859889   0.0004271932
        0.0003034273   0.0014413033  -0.0002207938  -0.0002120397  -0.0002547617
        0.0003942207   0.0000149973   0.0016104384   0.0000187854  -0.0001742828
       -0.0024488722   0.0017920341   0.0004459821   0.0023358938  -0.0019323579
       -0.0004386359  -0.0004131756   0.0015790310   0.0000879479   0.0004432716
       -0.0001408734  -0.0000337816  -0.0005639703   0.0013471542   0.0001489324
        0.0008540981  -0.0016224797  -0.0002394858  -0.0016454109   0.0000839443
        0.0001543987  -0.0001198631  -0.0013743844   0.0003346547   0.0011313905
        0.0005950738   0.0003115213  -0.0005343194   0.0017515088  -0.0009658705
       -0.0001191840   0.0001123198   0.0009345570  -0.0001068383   0.0005427619
       -0.0008097424   0.0001955364  -0.0010122224   0.0012446216   0.0006046216
       -0.0007035795  -0.0017672998  -0.0002501420  -0.0005532046   0.0035196461
        0.0006406956  -0.0003344882  -0.0034305791  -0.0000227136  -0.0008490222
        0.0018108819   0.0004960354  -0.0008146978  -0.0010702655  -0.0002537705
        0.0002857749   0.0008130082   0.0000428137   0.0001694503  -0.0011278103
       -0.0006671609   0.0015173218   0.0008801100  -0.0002351896  -0.0001068424
        0.0000181867   0.0001176110  -0.0002023217  -0.0002232398   0.0025583594
       -0.0013011755  -0.0007351296  -0.0034589049   0.0020337471   0.0016304598
       -0.0001414068   0.0000124444   0.0015141825   0.0000224452  -0.0001132494
       -0.0005842831  -0.0002778839   0.0004208490   0.0005685907   0.0002302384
        0.0002460282   0.0010589395   0.0001435504  -0.0003994718   0.0016072486
        0.0004494762   0.0000475954  -0.0006401196  -0.0000352069  -0.0003783295
        0.0003183219  -0.0001152828   0.0002175764  -0.0004097116   0.0003919712
        0.0004009013  -0.0003032494   0.0006461715   0.0007839307  -0.0012113237
        0.0003623673  -0.0007635613   0.0000051521  -0.0002551171   0.0001057656
       -0.0003601977  -0.0000101925  -0.0003013313   0.0000517623   0.0001041592
       -0.0000333077  -0.0001914461   0.0001298391   0.0000323816  -0.0000355318
       -0.0000322522  -0.0000514954  -0.0000850760   0.0001280589  -0.0000485578
       -0.0000152204  -0.0000360397  -0.0000299289  -0.0000361616   0.0000338386
        0.0000501152   0.0000005158  -0.0000431869  -0.0000397485   0.0000015353
        0.0000342781  -0.0000512996  -0.0000092913   0.0000911783  -0.0000020262
       -0.0000173739   0.0000219208   0.0000561423   0.0000398820   0.0000467580
        0.0000346427  -0.0000440051  -0.0000201184   0.0000867570   0.0000117415
       -0.0000515240   0.0000140114   0.0000084367  -0.0000170144  -0.0000631878
        0.0000032051   0.0000298794   0.0000608467   0.0000340572  -0.0000492522
       -0.0000438917   0.0000620438  -0.0000076792   0.0000998549  -0.0000124531
       -0.0000181604   0.0000082050  -0.0000766374   0.0000441561  -0.0000613069
       -0.0000622296   0.0000489494  -0.0000579747   0.0000345057   0.0000178753
       -0.0000732032  -0.0000201504   0.0000296094  -0.0000691796   0.0000738927
        0.0000150166   0.0000247380   0.0000713940  -0.0000292639   0.0000938795
       -0.0000004395   0.0001355991   0.0000180583   0.0000230700  -0.0000266101
        0.0000820511   0.0000342610   0.0001034860   0.0000081257   0.0000549121
        0.2271601706  -0.0012702352  -0.2101391424  -0.1720539241   0.0041813911
        0.4682980246  -0.0003173722  -0.0599455821  -0.0802269827   0.0027637636
       -0.0056763840   0.0087965611  -0.0006914445   0.0022593033   0.0019821259
       -0.0003773754  -0.0000825310  -0.0017579731  -0.0018462655   0.0007023188
       -0.0034945183  -0.0024456172  -0.0113653342  -0.0180666438   0.0027656903
        0.0473611975  -0.0626224541  -0.0095774465   0.0111760553   0.0028221212
        0.0000677911  -0.0029904561   0.0068287662   0.0011005701   0.0033282154
       -0.0025194797   0.0056327516  -0.0036633187   0.0020111812   0.0099218345
        0.0122484338  -0.0166162272  -0.0445654355   0.0054462487  -0.0681172860
       -0.0205778362  -0.0010193665  -0.0308533257   0.0094863799  -0.0028796410
       -0.0031314160  -0.0049089088  -0.0001064864  -0.0046306271   0.0048851860
       -0.0001704800   0.0086110424  -0.0082943297   0.0037884006   0.0133068893
       -0.0020733139   0.0001384067  -0.0047374728   0.0034758779  -0.0000418994
        0.0033850789  -0.0015778108   0.0005686950   0.0005973677   0.0023761170
        0.0005122471   0.0029928638  -0.0024030661  -0.0000753590  -0.0026346424
        0.0020772677  -0.0005363478  -0.0000391151  -0.0006650496   0.0006697190
        0.0007393242   0.0004961732   0.0002092719   0.0002326839  -0.0004583060
        0.0001960865  -0.0000177477  -0.0000512231   0.0001444370   0.0001482463
       -0.0009944536  -0.0011690686  -0.0000009161   0.0003701498   0.0014788234
       -0.0006650392  -0.0018443396  -0.0004861606  -0.0005225304   0.0015718335
        0.0019833910  -0.0000271031  -0.0007384911  -0.0009528558   0.0000253179
        0.0003263540  -0.0015349611   0.0000355907  -0.0017336702   0.0001726125
        0.0002820026   0.0015389269  -0.0003672012  -0.0002304463  -0.0000512657
        0.0001226405  -0.0000281340   0.0012333708   0.0003748270  -0.0001069930
       -0.0020555203   0.0018414441   0.0003962135   0.0022855007  -0.0015390064
       -0.0004116172   0.0000262556   0.0013082479   0.0000133050   0.0001356660
       -0.0000127819   0.0000163009  -0.0007357830   0.0014017867   0.0001675951
        0.0005978365  -0.0016408479  -0.0002067884  -0.0015949716  -0.0000814569
        0.0000574818   0.0000417847  -0.0018702938   0.0004812974   0.0015022085
        0.0006217854   0.0004710989  -0.0005244910   0.0019872746  -0.0010399053
       -0.0001227059   0.0002325803   0.0008156657  -0.0002007673   0.0007576840
       -0.0008321213   0.0002739577  -0.0012484296   0.0013365780   0.0006461741
       -0.0008624612  -0.0018469461  -0.0001998825  -0.0006829134   0.0037418327
        0.0006822487  -0.0003849975  -0.0035932584   0.0000572295  -0.0010129236
        0.0018796524   0.0005731380  -0.0009806665  -0.0011111851  -0.0002865712
        0.0003811192   0.0008387208   0.0000126465   0.0003193223  -0.0011506638
       -0.0007243207   0.0015731825   0.0009713648   0.0004136099  -0.0004410735
       -0.0002781252  -0.0008504110  -0.0003506544  -0.0007019071   0.0001536248
       -0.0002000569  -0.0002033970   0.0000928632  -0.0011883118  -0.0037293593
       -0.0001337114   0.0012458257  -0.0015445714  -0.0001466937   0.0013089560
        0.0001511773   0.0001861443   0.0005384468   0.0002324024   0.0001432651
       -0.0004833384   0.0000024326   0.0002794535   0.0009975293   0.0000978824
        0.0002587208  -0.0017909849  -0.0016417316   0.0003096966  -0.0008572765
        0.0001976760  -0.0005598976  -0.0006305259  -0.0005910042   0.0000080980
        0.0003144830   0.0001709679  -0.0004847604  -0.0007206793  -0.0009575744
        0.0010616419  -0.0003297606  -0.0014972218  -0.0008098535  -0.0002005882
       -0.0006611158   0.0002993502   0.0000135705   0.0001209398   0.0000856641
       -0.0000436163  -0.0001063962   0.0000589134  -0.0000470055   0.0000174037
        0.0000104585  -0.0000609560  -0.0000412023   0.0000820254   0.0000140337
       -0.0000245097   0.0000266605  -0.0000187041  -0.0000456491   0.0000460556
        0.0000144477  -0.0000185302  -0.0000128202  -0.0000276997  -0.0000106699
       -0.0000036405  -0.0000051133  -0.0000035906   0.0000464975  -0.0000057090
       -0.0000151512   0.0000004185   0.0000119330   0.0000423417   0.0000094974
       -0.0000000775  -0.0000385702  -0.0000110156   0.0000448504   0.0000156933