105
 energy: -164.779102246460 gnorm: 0.000079906467 xtb: 6.7.1 (edcfbbe)
O          -10.05549052514212        0.66672355371717        1.47473739264266
P           -8.86560332256575        0.72700981420484        0.60317950630318
C           -8.80376013463263       -0.63323697781457       -0.60918804164810
C           -8.51021084220381       -1.90066126124278       -0.12312678136032
C           -8.48660425839010       -2.98317183242849       -0.98299470262555
C           -8.76539793225082       -2.80030479864373       -2.32878760946324
C           -9.07717525781904       -1.53939926920792       -2.81014985721311
C           -9.09890549973554       -0.45301574075487       -1.95156265591153
C           -8.72124360780104        2.29179134905680       -0.31067832046604
C           -9.66354167073858        3.27722826589983       -0.05058802102386
C           -9.58410879925157        4.49865997771147       -0.69698977761882
C           -8.56066169405227        4.73410548462484       -1.60076980201039
C           -7.61830292009899        3.74992127543876       -1.86053801318661
C           -7.69383257668441        2.52824658077563       -1.21712002023341
C           -7.31687179336746        0.57367850046173        1.54599644272489
C           -7.32457735512849        0.82850860152511        2.91088058799829
C           -6.16937059931618        0.72296585477016        3.67763830881742
C           -4.96535437555852        0.35239986991108        3.10669606516911
C           -4.93159871690161        0.08643416615191        1.74343949000065
C           -6.10720187682601        0.20667351360913        0.97700933604962
O           -5.89346192755772       -0.09104325150110       -0.33038338020788
C           -4.57106133913409       -0.41902796488314       -0.43438161711512
C           -3.90409980005902       -0.79966749082583       -1.58437677112003
C           -2.55748663594532       -1.08854374562348       -1.46874013973672
C           -1.87825971698267       -0.99893102496292       -0.24629860367468
C           -0.44122806392026       -1.31044857698006       -0.18105208233134
C            0.08487338707203       -2.40834954389901       -0.85644213938419
C            1.43461331286241       -2.69888661726168       -0.79458114337857
C            2.30178439461279       -1.89153751177157       -0.06950721344010
C            3.77429733616708       -2.23113184634109        0.04908631324450
C            4.65650722673237       -0.99880741867583        0.05928569676855
C            4.36428889807577        0.07680919784240       -0.77327857075956
C            5.19332783279539        1.18006574581369       -0.82381681460090
C            6.33725080482908        1.23076136823859       -0.03324640668126
N            7.17599502697018        2.35626011738007       -0.07344827909510
C            8.53916286371903        2.34179219644503       -0.28764541954756
C            9.38099770909785        1.27006700666709       -0.55136516998172
C           10.72087623049468        1.53731627563062       -0.75758557383311
C           11.21903392666606        2.83825417219167       -0.71183443693582
C           10.38332319581453        3.91043076170927       -0.46983799935851
C            9.03176176478368        3.66754346112552       -0.25929692213112
C            7.90135302859267        4.51688234234512       -0.00680853836994
C            7.75097695492107        5.88915919530047        0.14944324506991
C            6.49200577355697        6.39179632486158        0.41201589597934
C            5.39218352608766        5.54380423055892        0.53038314138540
C            5.51619122390614        4.17594817802287        0.37925528777559
C            6.77588445389049        3.66615017857242        0.09604092186123
C            6.64006766861345        0.15549777151435        0.79516426793264
C            5.81108910633773       -0.95000104615615        0.83038678085047
C            4.27767982706611       -3.14584318003226       -1.05327711150416
C            4.38351199629649       -2.88957257014331       -2.40390203206208
C            4.89392507410143       -3.88034177599237       -3.23257805314008
C            5.29484295289480       -5.10292523285758       -2.71482729331147
C            5.19876729395573       -5.36319343330279       -1.35701465119257
C            4.68912276247533       -4.37836325894813       -0.52624040778559
C            4.47310975561953       -4.36310419307730        0.91191743368345
C            4.70093227123114       -5.33392054188571        1.87385101523141
C            4.39586534152925       -5.04529293240649        3.19449869341702
C            3.86994046454847       -3.81146665445609        3.54724532072226
C            3.63907358550972       -2.83534580912248        2.58674025873165
C            3.94822241029953       -3.11368043316450        1.27218019728693
C            1.77700207983724       -0.80143300313001        0.61682091814998
C            0.42730872708805       -0.51500229974386        0.56267341603547
C           -2.56206572282881       -0.61376584054471        0.90083378727675
C           -3.91536397003217       -0.32531033215134        0.80811056933818
H           -8.30112687724213       -2.02335589466678        0.93266429557484
H           -8.25046428425111       -3.96762292880932       -0.60574278632925
H           -8.74382908421136       -3.64443474426869       -3.00230925736089
H           -9.30321637479848       -1.39996409908646       -3.85732145741790
H           -9.34114065691843        0.53437348609451       -2.32001864814655
H          -10.45197916266998        3.06525455630804        0.65844217174382
H          -10.31866155886434        5.26467068502711       -0.49576638008081
H           -8.49633302139219        5.68685169405881       -2.10552133663404
H           -6.82270313775767        3.93641522646218       -2.56719526037590
H           -6.96911072718052        1.75330649346363       -1.41701318293686
H           -8.26590696368979        1.10209502592926        3.36639924067115
H           -6.21927084631451        0.92979370974668        4.73603373932611
H           -4.07080748842807        0.26513655217687        3.70345255956929
H           -4.42099913349570       -0.86578553128710       -2.52859155730090
H           -2.00495540551963       -1.37435210503197       -2.35091226701527
H           -0.57311429865345       -3.05514101234957       -1.41825683441972
H            1.81688882785638       -3.56347172835263       -1.31728137667208
H            3.47613191222201        0.05433200815041       -1.38726128228843
H            4.96435547073852        2.00346609025036       -1.48408166840382
H            9.00143351655297        0.26056250064458       -0.60403879857961
H           11.39700685109735        0.71987371997484       -0.96273416838496
H           12.27346350061528        3.00595526444899       -0.87652354696713
H           10.76779649260767        4.91943544893867       -0.44807751805280
H            8.60494823222448        6.54558378997274        0.07085539520130
H            6.35373998301218        7.45608339947341        0.53542117867809
H            4.42166924589243        5.96556152804049        0.74883008217934
H            4.66094006229333        3.52601519981753        0.48732399732876
H            7.52130450033229        0.19311297789626        1.41808064082553
H            6.06218751930603       -1.77917032152282        1.47499551359269
H            4.07350138995106       -1.94032276684437       -2.81479720517691
H            4.97913801825863       -3.69579629965449       -4.29372249855092
H            5.68897429819414       -5.85971022937573       -3.37790625218585
H            5.51463812563951       -6.31488129456456       -0.95594273589449
H            5.10743505637002       -6.29666062465204        1.60140336868439
H            4.56737744630117       -5.79002669192008        3.95844189888975
H            3.63688998160282       -3.60658498767846        4.58216278897708
H            3.22930833367225       -1.87721409413972        2.86963973078583
H            2.43353237393265       -0.16242561042600        1.18956185213242
H            0.04406326223929        0.34915083070301        1.08570306916951
H           -2.05518570535039       -0.55928110806412        1.85164595749062
