$hessian                                                                        
        0.1050192286  -0.0062197296  -0.1583842327  -0.1064907775   0.0010014160
        0.1445959043   0.0084589935   0.0034875557   0.0012562869   0.0064870174
        0.0024195535  -0.0071412116   0.0001767228   0.0010565177  -0.0003315498
        0.0000171327  -0.0006907826  -0.0006623488   0.0001585309  -0.0001557968
       -0.0002072380  -0.0006449180   0.0000080367  -0.0005402381  -0.0003454945
        0.0016225530  -0.0010224699  -0.0072578332  -0.0006551870   0.0227349203
        0.0001356384   0.0021580007   0.0019413107  -0.0006924131   0.0005431683
       -0.0005138139   0.0003614041   0.0001638518   0.0003482611   0.0010040465
        0.0000948895  -0.0001150526  -0.0006478765  -0.0004553574  -0.0001393082
        0.0010294638  -0.0001716001  -0.0001287445  -0.0015808307  -0.0003470719
        0.0000453207   0.0008234323   0.0007488287   0.0000529796  -0.0013021993
       -0.0000704704   0.0001316843  -0.0000461346   0.0001307676   0.0000278851
       -0.0000931424  -0.0000041540  -0.0001691640   0.0000430222   0.0001186593
        0.0000326064   0.0000724006   0.0000645860  -0.0000531659   0.0000084591
        0.0000138900  -0.0000611723  -0.0000118721  -0.0000414736   0.0000625748
       -0.0000813008  -0.0000589569   0.0000945535   0.0001116393  -0.0000703454
        0.0001911144   0.0000802602   0.0000330635  -0.0001326167   0.0000051447
       -0.0000176011  -0.0000794392  -0.0000044715  -0.0000037464   0.0000497046
       -0.0000937652   0.0000175514   0.0000647943  -0.0000767780   0.0000819971
       -0.0000028402  -0.0005760397   0.0000848861   0.0001561803   0.0006912333
        0.0001521538  -0.0000740675  -0.0003321371  -0.0002833526  -0.0000252394
        0.0003194163   0.0000922966  -0.0000357619  -0.0006369307  -0.0003175720
       -0.0000098805   0.0013975551   0.0003267493  -0.0000566666  -0.0022179400
        0.0007751680  -0.0001518454  -0.0030359136  -0.0040427465  -0.0007906965
        0.0002200508  -0.0006950423  -0.0007932325   0.0000795579  -0.0001108072
        0.0000714756   0.0001067563   0.0000866443  -0.0000736406  -0.0000814216
        0.0000063320  -0.0001646914   0.0002035471   0.0000487516  -0.0004913368
       -0.0001237661  -0.0000693163   0.0002784780  -0.0002227418  -0.0001837868
       -0.0000294970   0.0000474392   0.0000009020  -0.0000056583  -0.0000360901
       -0.0000972744  -0.0000066742   0.0000897112   0.0000335547   0.0000193158
       -0.0000214692  -0.0000090782  -0.0000709914  -0.0000091256  -0.0000359723
        0.0000399351  -0.0000054763   0.0000212302   0.0000209935   0.0000302445
        0.0000118062   0.0000073642   0.0000165746  -0.0000028811  -0.0000491997
       -0.0000092214  -0.0000265478   0.0000542465  -0.0000393469   0.0000188465
        0.0000124978   0.0000015203   0.0000244513  -0.0000031277   0.0000194203
        0.0000020987  -0.0000324500   0.0000391765  -0.0000156184   0.0000543001
       -0.0000541704   0.0000715719   0.0000275195  -0.0000749830  -0.0000001402
        0.0000100086  -0.0000640827  -0.0000758003  -0.0000044358   0.0000474960
       -0.0000695180  -0.0000114525  -0.0006503349  -0.0001057061   0.0000265098
        0.0002587623  -0.0004188962   0.0001564267
       -0.0062197296   0.0548292039   0.0192754761  -0.0003765102  -0.0623979422
       -0.0075154650   0.0129680805   0.0029963372  -0.0357092545  -0.0050689759
        0.0029350235   0.0124570376   0.0004682910  -0.0005171640   0.0008740675
       -0.0005709672   0.0007965968   0.0004111259  -0.0000854432   0.0000974176
        0.0000523533  -0.0001361734   0.0001367175   0.0009616639   0.0022805002
       -0.0026835545   0.0025307467  -0.0005782361   0.0036037158   0.0045740000
       -0.0006499239  -0.0009727722  -0.0006430708   0.0005693667   0.0005169642
        0.0001986218  -0.0003735116  -0.0000547053   0.0000732905   0.0002085903
        0.0000711094   0.0000408070   0.0001245812   0.0001228071   0.0000010712
       -0.0002156462   0.0000804976   0.0000653953   0.0004817195   0.0001597047
       -0.0000294480  -0.0000193017  -0.0002179324  -0.0000627199   0.0000219437
       -0.0000380839  -0.0000185679  -0.0000172503  -0.0000012758  -0.0000039823
       -0.0000153407   0.0000195490   0.0000213259  -0.0000016622   0.0000156607
       -0.0000080844   0.0000090229   0.0000169063  -0.0000050434   0.0000020828
        0.0000148896  -0.0000159952  -0.0000022299  -0.0000152984   0.0000020121
       -0.0000076072  -0.0000144199  -0.0000000599  -0.0000016620   0.0000227620
       -0.0000056131   0.0000154427  -0.0000018008  -0.0000024025  -0.0000007801
        0.0000062133  -0.0000195095  -0.0000041063   0.0000067480   0.0000141116
       -0.0000186024   0.0000077164   0.0000121597   0.0000142083  -0.0000005447
       -0.0000054174   0.0001277903  -0.0002234202  -0.0000729755  -0.0001019789
       -0.0000611127  -0.0000030938   0.0000621302  -0.0000744475  -0.0000292577
       -0.0001846916   0.0001269630   0.0000638244   0.0002029263   0.0001536335
        0.0000109198  -0.0004934183  -0.0000210347   0.0000713743   0.0000713162
        0.0006579205   0.0002159566  -0.0016042697  -0.0003205948   0.0001532887
       -0.0007565289  -0.0000400704   0.0007929606   0.0000027123   0.0000472481
       -0.0000572872   0.0000028076  -0.0000948672   0.0001260158   0.0001101975
       -0.0002758091   0.0002861382   0.0000147196  -0.0002053600   0.0001420365
        0.0001009221   0.0008568630   0.0004610081   0.0001148857   0.0000343487
        0.0000484135   0.0000155180   0.0000424624   0.0000111806  -0.0000015277
       -0.0000014250  -0.0000012017  -0.0000063611  -0.0000195896   0.0000103527
        0.0000049826   0.0000017202  -0.0000006104   0.0000023433  -0.0000061897
        0.0000021714  -0.0000029561  -0.0000016731   0.0000025668  -0.0000020668
       -0.0000045951   0.0000097719  -0.0000065759  -0.0000094253  -0.0000075844
       -0.0000037888  -0.0000072177   0.0000068013  -0.0000111002  -0.0000047089
        0.0000033264  -0.0000048272   0.0000018630   0.0000014813  -0.0000016526
       -0.0000045007  -0.0000042824   0.0000009726   0.0000032350   0.0000053249
       -0.0000025657  -0.0000048200   0.0000012093  -0.0000011300   0.0000023244
       -0.0000016186   0.0000011312  -0.0000020268   0.0000047433   0.0000099248
        0.0000093120   0.0000031897  -0.0001530923  -0.0000305703   0.0000482496
       -0.0003069184  -0.0000654819   0.0001749737
       -0.1583842327   0.0192754761   0.4485629505   0.1368033664  -0.0090749521
       -0.4056707041   0.0080588333  -0.0132032328  -0.0195458290   0.0117241580
       -0.0023709415  -0.0162683397   0.0016858503  -0.0016768789  -0.0013108459
       -0.0000852099  -0.0008952137  -0.0000230844   0.0003221346  -0.0004887223
        0.0004667049  -0.0002431176  -0.0003419000  -0.0016946596  -0.0037184260
        0.0062907536  -0.0019302383   0.0046820000  -0.0023511625  -0.0028462947
       -0.0007415772  -0.0029170229  -0.0017573141   0.0004754082   0.0003376774
        0.0003944476  -0.0001431738   0.0001593742   0.0001171029  -0.0010940600
       -0.0000899017   0.0000692684   0.0007044219   0.0003957284   0.0000964149
       -0.0010891696   0.0001537681   0.0001820310   0.0015791175   0.0002680780
       -0.0001562171  -0.0008133588  -0.0006604279  -0.0000822860   0.0012097323
        0.0000684858  -0.0001635001   0.0000409373  -0.0001480972   0.0000285940
        0.0000935538   0.0000144438   0.0001863474  -0.0000429558  -0.0001224608
       -0.0000357699  -0.0000508870  -0.0000525416   0.0000611138   0.0000003040
       -0.0000272522   0.0000540195   0.0000066746   0.0000123125  -0.0000274596
        0.0000806276   0.0000685347  -0.0001136148  -0.0001104934   0.0000889277
       -0.0001804968  -0.0000769974  -0.0000242980   0.0001328392   0.0000024085
        0.0000103297   0.0000944815  -0.0000116826   0.0000021422  -0.0000263490
        0.0000800161  -0.0000249229  -0.0000839019   0.0000805384  -0.0001130904
        0.0000018539   0.0005740957  -0.0001094183  -0.0001571142  -0.0006937226
       -0.0001645706   0.0000526087   0.0003554644   0.0002706527   0.0000201652
       -0.0003177678  -0.0000575188   0.0000347698   0.0006176636   0.0002974275
        0.0000351375  -0.0014144455  -0.0003169135   0.0000917822   0.0010172884
       -0.0003986674  -0.0002910168   0.0002742619   0.0034330191   0.0006504842
       -0.0006420738   0.0010324318   0.0001673431  -0.0002669173   0.0003443024
       -0.0000181593  -0.0000314700   0.0003167589  -0.0000916854  -0.0003991066
        0.0005772547  -0.0006323895  -0.0000254546   0.0001122274   0.0010646808
       -0.0002208174   0.0011401577   0.0000649362   0.0003369255   0.0001467963
        0.0001777851  -0.0000403710   0.0000833965  -0.0000151045   0.0000326232
        0.0001093108   0.0000118640  -0.0000633430  -0.0000536691  -0.0000489851
        0.0000193247   0.0000232395   0.0000616739   0.0000042110   0.0000315962
       -0.0000374520  -0.0000000695  -0.0000163822  -0.0000052302  -0.0000293710
        0.0000004261  -0.0000188713  -0.0000120002  -0.0000110804   0.0000387496
        0.0000024087   0.0000292256  -0.0000464488   0.0000371029  -0.0000068031
       -0.0000120482   0.0000063680  -0.0000192311  -0.0000044616   0.0000026978
       -0.0000088302   0.0000417253  -0.0000250768   0.0000438394  -0.0000773058
        0.0000542762  -0.0000610764  -0.0000225980   0.0000617619  -0.0000007921
        0.0000006865   0.0000549377   0.0000672209  -0.0000050326  -0.0000404033
        0.0000744940   0.0000068713   0.0004898209   0.0000030392   0.0001352876
       -0.0007435634   0.0005251237   0.0002960876
       -0.1064907775  -0.0003765102   0.1368033664   0.3900190900   0.0143198984
       -0.1041554476  -0.0549669497  -0.0229508471  -0.0056493856  -0.0651069694
        0.0279199130  -0.0238208294  -0.0091934245   0.0114959101  -0.0031782070
        0.0027485109   0.0040643327   0.0043360650  -0.0013199230   0.0014186581
       -0.0003115809   0.0060571281   0.0003946440   0.0016252990   0.0016529124
       -0.0028647703  -0.0063130927  -0.1319797631  -0.0204610644  -0.0035108224
       -0.0121604028  -0.0182557837  -0.0091161326   0.0076539012   0.0006948248
       -0.0004096483  -0.0032847046  -0.0012776263  -0.0004628208  -0.0021611285
        0.0000691946   0.0004204001   0.0024676570   0.0016241109   0.0002960150
       -0.0044765733   0.0009585077   0.0007142070   0.0070832636   0.0015123486
       -0.0004214846  -0.0031773534  -0.0033132554  -0.0003779830   0.0044122486
        0.0002609416  -0.0005550518   0.0001376903  -0.0005508141  -0.0000812535
        0.0003440228   0.0000121184   0.0005987993  -0.0001526316  -0.0003753500
       -0.0001290217  -0.0002426163  -0.0002040058   0.0001606728  -0.0000362705
       -0.0000551545   0.0001855383   0.0000059041   0.0001364412  -0.0001786047
        0.0002124857   0.0001669636  -0.0003414422  -0.0003702900   0.0002202986
       -0.0006217816  -0.0002586638  -0.0001333082   0.0004469797  -0.0000227896
        0.0000705814   0.0002378474  -0.0000087070   0.0000261922  -0.0001436200
        0.0002816552  -0.0000355187  -0.0002017990   0.0002446383  -0.0003009060
        0.0000012216   0.0025964100  -0.0009677110  -0.0008202568  -0.0028729929
       -0.0008685096   0.0001858947   0.0015987145   0.0008897974  -0.0000126004
       -0.0016814388   0.0001200356   0.0003186505   0.0029287185   0.0017488587
        0.0001273927  -0.0065914353  -0.0012595192   0.0005049035   0.0043543213
        0.0047266901   0.0033691230  -0.0274392459   0.0010473515   0.0097907615
       -0.0014239462  -0.0006927124  -0.0006981611   0.0000431730   0.0002296847
       -0.0003921842  -0.0008997246  -0.0010458828   0.0000835022   0.0002381819
       -0.0002000388   0.0008279603  -0.0015071873  -0.0008750686   0.0012634014
        0.0006519122   0.0021999481   0.0007251732   0.0007041243   0.0005542143
        0.0002525617  -0.0001596693   0.0001442381   0.0000472734   0.0001134104
        0.0003370831   0.0000497161  -0.0000919099  -0.0002234144  -0.0000498335
        0.0000828825   0.0000330583   0.0002392581   0.0000400583   0.0001165202
       -0.0001246164   0.0000266558  -0.0000610614  -0.0000742699  -0.0000800000
       -0.0000480727  -0.0000334292  -0.0000237494   0.0000145175   0.0001624545
        0.0000308622   0.0000847406  -0.0001638693   0.0001239384  -0.0000630641
       -0.0000328046  -0.0000060130  -0.0000765156   0.0000143619  -0.0000524474
       -0.0000098956   0.0001067571  -0.0001089673   0.0000575106  -0.0001686319
        0.0001852640  -0.0002257871  -0.0000776468   0.0002364481  -0.0000006754
       -0.0000146175   0.0002057473   0.0002398013   0.0000146907  -0.0001346771
        0.0002407717   0.0000516240   0.0000893491  -0.0000368224  -0.0002307356
        0.0009120630  -0.0003410361  -0.0010882060
        0.0010014160  -0.0623979422  -0.0090749521   0.0143198984   0.5917604524
        0.1380332803  -0.0225892427  -0.3829645664  -0.1585869439   0.0364454643
       -0.0781459530   0.0331981320   0.0110501365  -0.0152128130   0.0030464095
        0.0036398538   0.0009745383  -0.0024373877   0.0011795596  -0.0018231498
        0.0005169788   0.0006337912   0.0042194300  -0.0005433860  -0.0021400041
       -0.0020210576   0.0107181296  -0.0307062788  -0.0465580941  -0.0057538674
       -0.0170201914  -0.0095664854  -0.0017517400  -0.0003696801  -0.0015248747
       -0.0035834674   0.0006280815   0.0001642434   0.0005675616  -0.0023573616
       -0.0005970414   0.0000876453   0.0012417396   0.0009287708   0.0001933511
       -0.0023163407   0.0002748184   0.0003569330   0.0031452830   0.0003458539
       -0.0004163231  -0.0016382498  -0.0012285261  -0.0001079405   0.0025789631
        0.0001466696  -0.0005418220   0.0001120807  -0.0003779554   0.0000351795
        0.0002138617   0.0000552996   0.0004524453  -0.0000854616  -0.0002396188
       -0.0000631916  -0.0001359078  -0.0001320225   0.0000894689  -0.0000433955
       -0.0000823442   0.0001147539   0.0000036329   0.0001368069  -0.0000702920
        0.0001072273   0.0001242073  -0.0002551317  -0.0002241338   0.0001723103
       -0.0003827384  -0.0001849790  -0.0000747620   0.0002555723  -0.0000107620
        0.0000098149   0.0001648327  -0.0000093409  -0.0000093533  -0.0000811628
        0.0001631550  -0.0000565380  -0.0001318095   0.0000965084  -0.0002013433
       -0.0000135123   0.0012474664  -0.0000850371  -0.0002911283  -0.0014880709
       -0.0003306228   0.0000738079   0.0007195614   0.0006152244   0.0000534729
       -0.0005773001  -0.0001989373   0.0000178863   0.0011864760   0.0005651846
        0.0000750511  -0.0027492750  -0.0007340268   0.0002137530   0.0027391892
       -0.0003203606  -0.0034125959   0.0007759709   0.0054854325   0.0045952454
       -0.0010049609  -0.0000546823  -0.0002314416  -0.0001040063   0.0001248926
        0.0001864285  -0.0007274296  -0.0001072564  -0.0004764487  -0.0001144402
        0.0005850286  -0.0009007812  -0.0004433908   0.0001883618  -0.0025754358
        0.0000519594  -0.0008545745  -0.0000346279  -0.0005394434  -0.0004579218
       -0.0001104760  -0.0001088206   0.0000592770  -0.0000066180   0.0000362419
        0.0001679233   0.0000576391   0.0000605063  -0.0001351431  -0.0000756125
        0.0000320977   0.0000019161   0.0001362134   0.0000152017   0.0000628154
       -0.0000636739   0.0000294032  -0.0000216876  -0.0000538081  -0.0000226013
       -0.0000511005  -0.0000732024   0.0000377839   0.0000245918   0.0001329312
        0.0000389463   0.0000589486  -0.0001010877   0.0000939985  -0.0000333259
       -0.0000180598   0.0000168507  -0.0000482311   0.0000112536  -0.0000110316
        0.0000045356   0.0000861478  -0.0000459517   0.0000647702  -0.0001122716
        0.0001459629  -0.0001392700  -0.0000555436   0.0001414523  -0.0000042004
        0.0000193778   0.0001163231   0.0001343555  -0.0000002353  -0.0000874440
        0.0001308431   0.0000270836   0.0011995409   0.0001962710  -0.0002729790
        0.0026099106  -0.0009927689  -0.0008552696
        0.1445959043  -0.0075154650  -0.4056707041  -0.1041554476   0.1380332803
        0.6691592480  -0.0060272777  -0.1624643376  -0.1399896989  -0.0329632664
        0.0318618929  -0.0679224833  -0.0021208532   0.0023681295   0.0072786509
        0.0030128203  -0.0012872798   0.0007194962  -0.0006592336   0.0010371560
       -0.0010787765   0.0032765982  -0.0010959965  -0.0038969560  -0.0078964406
        0.0125508874  -0.0172106578  -0.0027507565  -0.0023045222  -0.0393643528
       -0.0080404256  -0.0012352457   0.0002708245   0.0003489809  -0.0038535241
        0.0005992828  -0.0005141366  -0.0003434700  -0.0010683249   0.0009413639
        0.0001369633  -0.0001564832  -0.0005592139  -0.0002980018   0.0000145449
        0.0008327452  -0.0001377760  -0.0002192244  -0.0010281563  -0.0000041929
        0.0003227645   0.0005324414   0.0002734892   0.0000525152  -0.0007092335
        0.0001181360   0.0002861763  -0.0000406095   0.0001181587  -0.0001174256
       -0.0000373829  -0.0000197785  -0.0000937567   0.0000171631   0.0000529666
        0.0000152608   0.0000017275   0.0000215468  -0.0000421588  -0.0000204019
        0.0000202378  -0.0000255617  -0.0000175431   0.0000331097  -0.0000201095
       -0.0000381674  -0.0000268971   0.0000751328   0.0000619502  -0.0000603370
        0.0000973354   0.0000358688   0.0000053113  -0.0000727768   0.0000098067
       -0.0000028048  -0.0000671253   0.0000169054  -0.0000159262  -0.0000062158
       -0.0000549044   0.0000215224   0.0000754317  -0.0000389061   0.0000991493
        0.0000036569  -0.0003890879   0.0001079984   0.0000919295   0.0004097699
        0.0000844254   0.0000297975  -0.0002308322  -0.0001558359  -0.0000079862
        0.0001906515   0.0000222433   0.0000022105  -0.0003662100  -0.0001629853
       -0.0000655353   0.0008528937   0.0001694241  -0.0001545842   0.0026560172
       -0.0025253125   0.0012870167   0.0087694359   0.0024570413   0.0012674249
        0.0019390050  -0.0030772498  -0.0007243865   0.0007812830  -0.0010791060
        0.0002146860  -0.0000228252  -0.0005944000   0.0000019588  -0.0002416962
        0.0004525882  -0.0002640238  -0.0002206149  -0.0001574728  -0.0006907283
       -0.0008453229  -0.0009979021  -0.0012035665  -0.0006509714  -0.0004166403
       -0.0000675836   0.0000140276  -0.0000748018   0.0000544696  -0.0000294468
       -0.0000650233  -0.0000252191   0.0000119226   0.0000086791   0.0000588921
       -0.0000094002  -0.0000311713  -0.0000224482   0.0000014442  -0.0000206629
        0.0000125726   0.0000128484  -0.0000025512  -0.0000126480   0.0000221649
       -0.0000281950   0.0000158862   0.0000138995   0.0000128093   0.0000049736
        0.0000093344  -0.0000178479   0.0000141244  -0.0000167896   0.0000084505
        0.0000059909  -0.0000169163   0.0000284081  -0.0000021463  -0.0000172660
        0.0000185714  -0.0000461317   0.0000039370  -0.0000395195   0.0000739740
       -0.0000255335   0.0000220815   0.0000224209  -0.0000336472   0.0000026992
       -0.0000273711  -0.0000320701  -0.0000400142   0.0000071972   0.0000193238
       -0.0000406631  -0.0000044656   0.0004900938   0.0002149099  -0.0003767111
        0.0009386586  -0.0001693571  -0.0014175187
        0.0084589935   0.0129680805   0.0080588333  -0.0549669497  -0.0225892427
       -0.0060272777   0.0472362088   0.0222836578   0.0057576869   0.0053867509
        0.0114341934   0.0043710225  -0.0002708109   0.0013191943  -0.0018026707
       -0.0013039483  -0.0001597767  -0.0006077818   0.0001906661  -0.0002434653
        0.0002584078  -0.0010182467  -0.0004011620   0.0000045284  -0.0000063514
        0.0007764487   0.0010414803   0.0023431448  -0.0206611873  -0.0087801874
       -0.0058697167  -0.0014025013   0.0011607040  -0.0007787575  -0.0013699677
       -0.0011403240   0.0000971081  -0.0000198179   0.0000777594   0.0005258888
       -0.0000517519  -0.0001311537  -0.0002573485  -0.0000703024  -0.0000032806
        0.0003012976  -0.0000262265  -0.0000075694  -0.0004098398  -0.0000479570
       -0.0000038064   0.0004060608   0.0001875830  -0.0000333065  -0.0005498236
       -0.0000890109   0.0000341459  -0.0000376588   0.0000515327   0.0000132648
       -0.0000575966   0.0000197976  -0.0000523960   0.0000208413   0.0000696380
        0.0000182079   0.0000435280   0.0000436283  -0.0000362556   0.0000051160
        0.0000072237  -0.0000442759  -0.0000072439  -0.0000091629   0.0000426937
       -0.0000534650  -0.0000323951   0.0000289519   0.0000553035  -0.0000027448
        0.0000762417   0.0000500957   0.0000063493  -0.0000743425  -0.0000018677
       -0.0000116889  -0.0000553382  -0.0000099506   0.0000016424   0.0000405423
       -0.0000622201   0.0000132246   0.0000420669  -0.0000473266   0.0000352239
       -0.0000018083  -0.0001560612  -0.0001301638   0.0000164672   0.0002391501
        0.0000168378  -0.0000382263  -0.0001039353  -0.0001950651  -0.0000396772
        0.0000176193   0.0001443549   0.0000358174  -0.0001627177  -0.0000264602
        0.0000048649   0.0003157871   0.0001370470   0.0000262729   0.0005170088
       -0.0005150093  -0.0009567577  -0.0000057859  -0.0009146874  -0.0003406136
        0.0003040540   0.0001656245   0.0001242279  -0.0001640642   0.0001535497
       -0.0000698758   0.0001783327   0.0002090491  -0.0000062217  -0.0000435038
        0.0000449330  -0.0001189829   0.0000956838   0.0002423015  -0.0002109470
       -0.0000769675  -0.0001009534   0.0000854490  -0.0005909078  -0.0003255954
       -0.0001028753   0.0000398206   0.0000384181  -0.0000038525  -0.0000315642
       -0.0000696637  -0.0000092210   0.0000682625   0.0000160388   0.0000040438
       -0.0000092772  -0.0000130787  -0.0000427487  -0.0000045733  -0.0000282554
        0.0000276688  -0.0000027140   0.0000147872   0.0000084343   0.0000232621
       -0.0000052512  -0.0000065923   0.0000159985  -0.0000018710  -0.0000271110
       -0.0000059302  -0.0000155626   0.0000364716  -0.0000240146   0.0000069383
        0.0000074788   0.0000067426   0.0000092902   0.0000001466   0.0000178935
       -0.0000007492  -0.0000172641   0.0000294367  -0.0000032238   0.0000247784
       -0.0000233335   0.0000383110   0.0000127245  -0.0000423669   0.0000025586
        0.0000028625  -0.0000343020  -0.0000437358   0.0000017504   0.0000342606
       -0.0000355872  -0.0000045119   0.0000457077   0.0000106969   0.0000707481
        0.0001211175  -0.0008548801  -0.0007194916
        0.0034875557   0.0029963372  -0.0132032328  -0.0229508471  -0.3829645664
       -0.1624643376   0.0222836578   0.4123414179   0.1906075387  -0.0029779819
       -0.0162466099  -0.0114399081   0.0007712174  -0.0037008679   0.0050284919
        0.0020720454   0.0001631571  -0.0003132231  -0.0004360229   0.0005127689
       -0.0003685720   0.0010221371   0.0009181112  -0.0001417812   0.0010918104
       -0.0009520748  -0.0022173540   0.0007312886  -0.0107869123  -0.0078931161
       -0.0045645121   0.0004108128   0.0018309175  -0.0002066881  -0.0012099813
       -0.0009588307  -0.0002308861  -0.0000146386   0.0000953441   0.0012998688
        0.0002784348  -0.0000122814  -0.0006267285  -0.0004136468  -0.0000973802
        0.0009796034  -0.0000555927  -0.0001028757  -0.0013428328  -0.0001533557
        0.0001301286   0.0008093369   0.0005637346   0.0000319336  -0.0013018133
       -0.0001395710   0.0002227598  -0.0000600379   0.0001670156  -0.0000052225
       -0.0001149277  -0.0000125803  -0.0002183982   0.0000487680   0.0001436752
        0.0000236707   0.0000794302   0.0000870402  -0.0000523838   0.0000290125
        0.0000579202  -0.0000712307   0.0000102485  -0.0000632442   0.0000438507
       -0.0000580346  -0.0000775215   0.0001198851   0.0001141770  -0.0000825348
        0.0001974120   0.0001073387   0.0000385555  -0.0001392950  -0.0000036457
       -0.0000021532  -0.0000925898  -0.0000059596   0.0000209219   0.0000577328
       -0.0000953104   0.0000330223   0.0000735936  -0.0000621097   0.0001061594
        0.0000067769  -0.0005341573  -0.0000775845   0.0001064540   0.0007022464
        0.0001320352  -0.0000599579  -0.0003186933  -0.0003441022  -0.0000443038
        0.0001988434   0.0001770127   0.0000209752  -0.0005094480  -0.0001911777
       -0.0000147956   0.0011490520   0.0003662878  -0.0000462861  -0.0002206088
        0.0001371171   0.0000330165   0.0024994927  -0.0011219855  -0.0019185728
       -0.0009458276   0.0000324201   0.0003444183   0.0005085282  -0.0005731257
        0.0003576017  -0.0001955518  -0.0004219892   0.0001470420   0.0000929546
       -0.0002250130   0.0003905080  -0.0006186605  -0.0004722800   0.0002137993
        0.0002368884   0.0008033417   0.0006960001  -0.0006033900  -0.0002329209
        0.0000009382   0.0000871098   0.0000268157  -0.0000063172  -0.0000177653
       -0.0001105406  -0.0000234286  -0.0000181187   0.0000620465   0.0000306254
       -0.0000149986  -0.0000092778  -0.0000808138  -0.0000091667  -0.0000449771
        0.0000427144  -0.0000183416   0.0000125932   0.0000270922   0.0000102033
        0.0000144624   0.0000393539  -0.0000247601  -0.0000181235  -0.0000832671
       -0.0000244322  -0.0000370838   0.0000641064  -0.0000543519   0.0000071853
        0.0000116137  -0.0000030636   0.0000137780  -0.0000021092   0.0000130286
       -0.0000076969  -0.0000472738   0.0000397578  -0.0000423404   0.0000495729
       -0.0000766991   0.0000711003   0.0000284197  -0.0000802630   0.0000042005
       -0.0000036187  -0.0000631307  -0.0000790786   0.0000033813   0.0000591558
       -0.0000764389  -0.0000150289  -0.0003652504   0.0000292095   0.0000803691
       -0.0007797399   0.0002328970   0.0009797479
        0.0012562869  -0.0357092545  -0.0195458290  -0.0056493856  -0.1585869439
       -0.1399896989   0.0057576869   0.1906075387   0.1513258989   0.0017727983
        0.0071051424   0.0052709847  -0.0008601406   0.0009777331  -0.0002157313
       -0.0006104634  -0.0000402853   0.0000882916  -0.0002283015   0.0002136461
        0.0001250466  -0.0003271580  -0.0002539519   0.0007193967   0.0005266595
        0.0005130871  -0.0012584583   0.0003382532  -0.0058768517   0.0003428398
       -0.0012674044   0.0002254464   0.0022034589  -0.0005382087  -0.0004745280
       -0.0003921420   0.0001210983   0.0001444210   0.0001397005   0.0005108107
        0.0001545803  -0.0000116147  -0.0003704230  -0.0002740736  -0.0000324704
        0.0006203576  -0.0000675800  -0.0000743246  -0.0009525209  -0.0001972468
        0.0000586357   0.0004393222   0.0004517501   0.0000468686  -0.0006906238
       -0.0000911430   0.0001242338  -0.0000229936   0.0000848099   0.0000234820
       -0.0000524212  -0.0000136710  -0.0001238147   0.0000284029   0.0000604546
        0.0000128840   0.0000451966   0.0000411626  -0.0000154827   0.0000219125
        0.0000183618  -0.0000321523   0.0000096098  -0.0000429359   0.0000325057
       -0.0000198582  -0.0000264828   0.0000552467   0.0000583558  -0.0000458414
        0.0001024010   0.0000459310   0.0000285732  -0.0000688635   0.0000029592
       -0.0000087007  -0.0000298079  -0.0000103962   0.0000002801   0.0000273697
       -0.0000430624   0.0000053604   0.0000168907  -0.0000394092   0.0000541791
        0.0000095010  -0.0003606463   0.0000743353   0.0000968713   0.0004146855
        0.0000941011  -0.0000360412  -0.0001818013  -0.0001329781  -0.0000029688
        0.0002161056   0.0000314015  -0.0000244002  -0.0003875593  -0.0001948334
        0.0000045001   0.0008594822   0.0001912066  -0.0000595151  -0.0005277933
        0.0000922390  -0.0000247594   0.0020772092  -0.0007989449  -0.0008396943
       -0.0003650685   0.0006400584   0.0001251763  -0.0000690470   0.0000392383
       -0.0000020391   0.0000032331   0.0000732204   0.0000779536   0.0000838485
       -0.0000983534   0.0001767314  -0.0005847465  -0.0000649776   0.0011446706
        0.0002733267   0.0004658284   0.0002694228  -0.0002928310  -0.0000299138
       -0.0001116705   0.0000457088  -0.0000061325  -0.0000283697  -0.0000052800
       -0.0000496754  -0.0000149174  -0.0000160774   0.0000576326  -0.0000042148
       -0.0000102829   0.0000066639  -0.0000425687  -0.0000102841  -0.0000180943
        0.0000167882  -0.0000158899   0.0000106110   0.0000190576  -0.0000017847
        0.0000206539   0.0000069725  -0.0000129638  -0.0000085259  -0.0000472086
       -0.0000152267  -0.0000163986   0.0000301348  -0.0000202013   0.0000049318
        0.0000021134   0.0000054281   0.0000009497  -0.0000030033   0.0000133542
       -0.0000054765  -0.0000167439   0.0000220844  -0.0000166924   0.0000078653
       -0.0000352330   0.0000375896   0.0000169053  -0.0000400938  -0.0000000777
        0.0000027836  -0.0000317207  -0.0000425722  -0.0000028245   0.0000275405
       -0.0000396407  -0.0000133285  -0.0002157707  -0.0000263090   0.0000792781
       -0.0007145752   0.0007318986   0.0002617964
        0.0064870174  -0.0050689759   0.0117241580  -0.0651069694   0.0364454643
       -0.0329632664   0.0053867509  -0.0029779819   0.0017727983   0.2945578788
       -0.2081593348  -0.1087345620  -0.1469330310   0.1080767390   0.0911955743
       -0.0233812592   0.0405964815  -0.0306740880  -0.0154204377   0.0055648546
        0.0240270465   0.0199475129  -0.0196776404  -0.0066860424  -0.0691074547
        0.0226216854   0.0340221011  -0.0032709623   0.0082990606  -0.0055401705
       -0.0010848324   0.0009717104   0.0002200105  -0.0003117762  -0.0005396292
        0.0004809639   0.0006747564   0.0004557460  -0.0000563796  -0.0002481659
       -0.0002447496  -0.0000582050   0.0000737854   0.0002710431   0.0000896999
       -0.0000677807   0.0000036037   0.0000337070   0.0001211939   0.0001837259
        0.0000467573   0.0000201218  -0.0001717446  -0.0000709735  -0.0000366085
       -0.0000680852  -0.0000199074  -0.0000147160  -0.0000052943  -0.0000087816