      -----------------------------------------------------------      
     |                   =====================                   |     
     |                           x T B                           |     
     |                   =====================                   |     
     |                         S. Grimme                         |     
     |          Mulliken Center for Theoretical Chemistry        |     
     |                    University of Bonn                     |     
      -----------------------------------------------------------      

   * xtb version 6.7.1 (edcfbbe) compiled by 'albert@albert-system' on 2024-07-22

   xtb is free software: you can redistribute it and/or modify it under
   the terms of the GNU Lesser General Public License as published by
   the Free Software Foundation, either version 3 of the License, or
   (at your option) any later version.
   
   xtb is distributed in the hope that it will be useful,
   but WITHOUT ANY WARRANTY; without even the implied warranty of
   MERCHANTABILITY or FITNESS FOR A PARTICULAR PURPOSE.  See the
   GNU Lesser General Public License for more details.
   
   Cite this work as:
   * C. Bannwarth, E. Caldeweyher, S. Ehlert, A. Hansen, P. Pracht,
     J. Seibert, S. Spicher, S. Grimme, WIREs Comput. Mol. Sci., 2020, 11,
     e01493. DOI: 10.1002/wcms.1493
   
   for GFN2-xTB:
   * C. Bannwarth, S. Ehlert and S. Grimme., J. Chem. Theory Comput., 2019,
     15, 1652-1671. DOI: 10.1021/acs.jctc.8b01176
   for GFN1-xTB:
   * S. Grimme, C. Bannwarth, P. Shushkov, J. Chem. Theory Comput., 2017,
     13, 1989-2009. DOI: 10.1021/acs.jctc.7b00118
   for GFN0-xTB:
   * P. Pracht, E. Caldeweyher, S. Ehlert, S. Grimme, ChemRxiv, 2019, preprint.
     DOI: 10.26434/chemrxiv.8326202.v1
   for GFN-FF:
   * S. Spicher and S. Grimme, Angew. Chem. Int. Ed., 2020, 59, 15665-15673.
     DOI: 10.1002/anie.202004239
   
   for ALPB and GBSA implicit solvation:
   * S. Ehlert, M. Stahn, S. Spicher, S. Grimme, J. Chem. Theory Comput.,
     2021, 17, 4250-4261. DOI: 10.1021/acs.jctc.1c00471
   
   for ddCOSMO and CPCM-X implicit solvation:
   * M. Stahn, S. Ehlert, S. Grimme, J. Phys. Chem. A,
     2023, XX, XXXX-XXXX. DOI: 10.1021/acs.jpca.3c04382
   
   for DFT-D4:
   * E. Caldeweyher, C. Bannwarth and S. Grimme, J. Chem. Phys., 2017,
     147, 034112. DOI: 10.1063/1.4993215
   * E. Caldeweyher, S. Ehlert, A. Hansen, H. Neugebauer, S. Spicher,
     C. Bannwarth and S. Grimme, J. Chem. Phys., 2019, 150, 154122.
     DOI: 10.1063/1.5090222
   * E. Caldeweyher, J.-M. Mewes, S. Ehlert and S. Grimme, Phys. Chem. Chem. Phys.
     2020, 22, 8499-8512. DOI: 10.1039/D0CP00502A
   
   for sTDA-xTB:
   * S. Grimme and C. Bannwarth, J. Chem. Phys., 2016, 145, 054103.
     DOI: 10.1063/1.4959605
   
   in the mass-spec context:
   * V. Asgeirsson, C. Bauer and S. Grimme, Chem. Sci., 2017, 8, 4879.
     DOI: 10.1039/c7sc00601b
   * J. Koopman and S. Grimme, ACS Omega 2019, 4, 12, 15120-15133.
     DOI: 10.1021/acsomega.9b02011
   
   for metadynamics refer to:
   * S. Grimme, J. Chem. Theory Comput., 2019, 155, 2847-2862
     DOI: 10.1021/acs.jctc.9b00143
   
   for SPH calculations refer to:
   * S. Spicher and S. Grimme, J. Chem. Theory Comput., 2021, 17, 1701-1714
     DOI: 10.1021/acs.jctc.0c01306
   
   for ONIOM refer to:
   * C. Plett, A. Katbashev, S. Ehlert, S. Grimme, M. Bursch,
     Phys. Chem. Chem. Phys., 2023, 25, 17860-17868. DOI: 10.1039/D3CP02178E
   
   for DIPRO refer to:
   * J. Kohn, N. Gildemeister, S. Grimme, D. Fazzi, A. Hansen,
     J. Chem. Phys., 2023, just accepted.
   
   for PTB refer to:
   * S. Grimme, M. Mueller, A. Hansen, J. Chem. Phys., 2023, 158, 124111.
     DOI: 10.1063/5.0137838
   
   with help from (in alphabetical order)
   P. Atkinson, C. Bannwarth, F. Bohle, G. Brandenburg, E. Caldeweyher
   M. Checinski, S. Dohm, S. Ehlert, S. Ehrlich, I. Gerasimov, C. Hölzer
   A. Katbashev, J. Kohn, J. Koopman, C. Lavigne, S. Lehtola, F. März, M. Müller,
   F. Musil, H. Neugebauer, J. Pisarek, C. Plett, P. Pracht, F. Pultar,
   J. Seibert, P. Shushkov, S. Spicher, M. Stahn, M. Steiner, T. Strunk,
   J. Stückrath, T. Rose, and J. Unsleber
   
 * started run on 2025/09/09 at 21:49:16.989     
   ID    Z sym.   atoms
    1    6 C      1-6, 8-13, 15-26, 28-33, 35-42
    2    7 N      7, 27
    3    8 O      14, 34
    4    1 H      43-66

           -------------------------------------------------
          |                Calculation Setup                |
           -------------------------------------------------

          program call               : xtb data2507/toluene/DPE-DPXZ/DPE-DPXZ_toluene_T1_crest.xyz --gfn 2 --uhf 2 --gbsa toluene --ohess vtight --parallel 40 --molden --ceasefiles --namespace data2507/toluene/DPE-DPXZ/DPE-DPXZ_toluene_T1_finalOpt
          calculation namespace      : data2507/toluene/DPE-DPXZ/DPE-DPXZ_toluene_T1_finalOpt
          coordinate file            : data2507/toluene/DPE-DPXZ/DPE-DPXZ_toluene_T1_crest.xyz
          omp threads                :                    40


           -------------------------------------------------
          |                 G F N 2 - x T B                 |
           -------------------------------------------------

        Reference                      10.1021/acs.jctc.8b01176
      * Hamiltonian:
        H0-scaling (s, p, d)           1.850000    2.230000    2.230000
        zeta-weighting                 0.500000
      * Dispersion:
        s8                             2.700000
        a1                             0.520000
        a2                             5.000000
        s9                             5.000000
      * Repulsion:
        kExp                           1.500000    1.000000
        rExp                           1.000000
      * Coulomb:
        alpha                          2.000000
        third order                    shell-resolved
        anisotropic                    true
        a3                             3.000000
        a5                             4.000000
        cn-shift                       1.200000
        cn-exp                         4.000000
        max-rad                        5.000000

      * Solvation model:               GBSA
        Solvent                        toluene
        Parameter file                 internal GFN2-xTB/GBSA
        Dielectric constant                7.0000E+00
        Reference state                gsolv [1 M gas/solution]
        Free energy shift                  4.5239E-03 Eh       2.8388E+00 kcal/mol
        Temperature                        2.9815E+02 K
        Density                            8.6700E-01 kg/L
        Solvent mass                       9.2140E+01 g/mol
        Interaction kernel             Still
        Born radius scaling (c1)           1.5686E+00
        Born radii integrator          GBOBC
        Born offset                        0.0000E+00 a0       0.0000E+00 AA
        H-bond correction              false
        Ion screening                  false
        Surface tension                    1.0000E-05 Eh       1.5569E+01 dyn/cm
        Grid points                               230 per atom

          ...................................................
          :                      SETUP                      :
          :.................................................:
          :  # basis functions                 192          :
          :  # atomic orbitals                 192          :
          :  # shells                          108          :
          :  # electrons                       198          :
          :  max. iterations                   250          :
          :  Hamiltonian                  GFN2-xTB          :
          :  restarted?                      false          :
          :  GBSA solvation                   true          :
          :  PC potential                    false          :
          :  electronic temp.          300.0000000     K    :
          :  accuracy                    1.0000000          :
          :  -> integral cutoff          0.2500000E+02      :
          :  -> integral neglect         0.1000000E-07      :
          :  -> SCF convergence          0.1000000E-05 Eh   :
          :  -> wf. convergence          0.1000000E-03 e    :
          :  Broyden damping             0.4000000          :
          :  net charge                          0          :
          :  unpaired electrons                  2          :
          ...................................................

 iter      E             dE          RMSdq      gap      omega  full diag
   1   -109.3904397 -0.109390E+03  0.477E+00    0.98       0.0  T
   2   -109.4486782 -0.582385E-01  0.306E+00    0.11       1.0  T
   3   -109.3704768  0.782014E-01  0.127E+00    1.43       1.0  T
   4   -109.4751397 -0.104663E+00  0.390E-01    0.54       1.0  T
   5   -109.4825295 -0.738978E-02  0.140E-01    0.37       1.0  T
   6   -109.4799334  0.259614E-02  0.169E-01    0.32       1.0  T
   7   -109.4826175 -0.268413E-02  0.860E-02    0.35       1.0  T
   8   -109.4833575 -0.740013E-03  0.288E-02    0.38       1.0  T
   9   -109.4834012 -0.436823E-04  0.105E-02    0.39       1.2  T
  10   -109.4834038 -0.264603E-05  0.446E-03    0.38       2.8  T
  11   -109.4834043 -0.496336E-06  0.185E-03    0.38       6.7  T
  12   -109.4834044 -0.118350E-06  0.937E-04    0.38      13.1  T
  13   -109.4834044 -0.277396E-09  0.525E-04    0.38      23.4  T

   *** convergence criteria satisfied after 13 iterations ***

         #    Occupation            Energy/Eh            Energy/eV
      -------------------------------------------------------------
         1        2.0000           -0.7430887             -20.2205
       ...           ...                  ...                  ...
        94        2.0000           -0.3985355             -10.8447
        95        2.0000           -0.3959506             -10.7744
        96        2.0000           -0.3784209             -10.2974
        97        2.0000           -0.3633003              -9.8859
        98        1.9824           -0.3501161              -9.5271
        99        1.0176           -0.3424753              -9.3192
       100        0.9991           -0.2618579              -7.1255 (HOMO)
       101        0.0004           -0.2478181              -6.7435 (LUMO)
       102        0.0004           -0.2478069              -6.7432
       103                         -0.2372562              -6.4561
       104                         -0.2372422              -6.4557
       105                         -0.2257674              -6.1434
       ...                                ...                  ...
       192                          1.3991845              38.0737
      -------------------------------------------------------------
                  HL-Gap            0.0140398 Eh            0.3820 eV
             Fermi-level           -0.3007302 Eh           -8.1833 eV
 
 transition dipole moment (au) for excitation:          99         100
     X       Y       Z   
   3.3371  -0.0018  -0.0005  total (au/Debye):    3.337   8.482
 dE (eV)             :    2.194
 oscillator strength :  0.84644E+00

 SCC (total)                   0 d,  0 h,  0 min,  0.202 sec
 SCC setup                      ...        0 min,  0.002 sec (  0.781%)
 Dispersion                     ...        0 min,  0.003 sec (  1.321%)
 classical contributions        ...        0 min,  0.000 sec (  0.105%)
 integral evaluation            ...        0 min,  0.006 sec (  3.031%)
 iterations                     ...        0 min,  0.165 sec ( 81.449%)
 molecular gradient             ...        0 min,  0.008 sec (  4.054%)
 printout                       ...        0 min,  0.019 sec (  9.210%)

         :::::::::::::::::::::::::::::::::::::::::::::::::::::
         ::                     SUMMARY                     ::
         :::::::::::::::::::::::::::::::::::::::::::::::::::::
         :: total energy            -107.539953190382 Eh    ::
         :: total w/o Gsasa/hb      -107.497464421496 Eh    ::
         :: gradient norm              0.003601798414 Eh/a0 ::
         :: HOMO-LUMO gap              0.382041381098 eV    ::
         ::.................................................::
         :: SCC energy              -109.483977301192 Eh    ::
         :: -> isotropic ES            0.034780017084 Eh    ::
         :: -> anisotropic ES          0.010916263794 Eh    ::
         :: -> anisotropic XC          0.052927558228 Eh    ::
         :: -> dispersion             -0.086991364852 Eh    ::
         :: -> Gsolv                  -0.045215576150 Eh    ::
         ::    -> Gelec               -0.002726807264 Eh    ::
         ::    -> Gsasa               -0.047012648758 Eh    ::
         ::    -> Ghb                  0.000000000000 Eh    ::
         ::    -> Gshift               0.004523879872 Eh    ::
         :: repulsion energy           1.944024110809 Eh    ::
         :: add. restraining           0.000000000000 Eh    ::
         :: total charge               0.000000000003 e     ::
         :::::::::::::::::::::::::::::::::::::::::::::::::::::

      ----------------------------------------------------------- 
     |                   =====================                   |
     |                        A N C O P T                        |
     |                   =====================                   |
     |               Approximate Normal Coordinate               |
     |                Rational Function Optimizer                |
      ----------------------------------------------------------- 

Optimization log is written to '/dev/null'
      ----------------------------------------------------------- 
     |                   =====================                   |
     |                        A N C O P T                        |
     |                   =====================                   |
     |               Approximate Normal Coordinate               |
     |                Rational Function Optimizer                |
      ----------------------------------------------------------- 

          ...................................................
          :                      SETUP                      :
          :.................................................:
          :   optimization level         verytight          :
          :   max. optcycles                  1320          :
          :   ANC micro-cycles                  20          :
          :   degrees of freedom               192          :
          :.................................................:
          :   RF solver                   davidson          :
          :   write xtbopt.log                true          :
          :   linear?                        false          :
          :   energy convergence         0.1000000E-06 Eh   :
          :   grad. convergence          0.2000000E-03 Eh/α :
          :   maxmium RF displ.          1.0000000          :
          :   Hlow (freq-cutoff)         0.1000000E-01      :
          :   Hmax (freq-cutoff)         5.0000000          :
          :   S6 in model hess.         20.0000000          :
          ...................................................

generating ANC from exact Hessian ...
Using Lindh-Hessian (1995)
 Shifting diagonal of input Hessian by   9.945581079975969E-003
 Lowest  eigenvalues of input Hessian
    0.000000    0.000000    0.000000    0.000000    0.000000    0.010000
    0.000000    0.010001    0.010074    0.010283    0.010912    0.011274
    0.011452    0.011454    0.011622    0.011814    0.012302    0.012912
 Highest eigenvalues
    2.070921    2.200621    2.204833    2.226306    2.226347    2.679963
 

........................................................................
.............................. CYCLE    1 ..............................
........................................................................

 iter      E             dE          RMSdq      gap      omega  full diag
   1   -109.4834045 -0.109483E+03  0.235E-04    0.38       0.0  T
   2   -109.4834045  0.931664E-09  0.223E-04    0.38      55.3  T
   3   -109.4834045 -0.262871E-08  0.120E-04    0.38     102.2  T
     SCC iter.                  ...        0 min,  0.023 sec
     gradient                   ...        0 min,  0.008 sec
 * total energy  :  -107.5399532 Eh     change       -0.1348232E-07 Eh
   gradient norm :     0.0035964 Eh/α   predicted     0.0000000E+00 (-100.00%)
   displ. norm   :     0.0331544 α      lambda       -0.3828181E-04
   maximum displ.:     0.0193200 α      in ANC's #13, #7, #40, ...

........................................................................
.............................. CYCLE    2 ..............................
........................................................................

 iter      E             dE          RMSdq      gap      omega  full diag
   1   -109.4801048 -0.109480E+03  0.927E-03    0.38       0.0  T
   2   -109.4801055 -0.694782E-06  0.735E-03    0.38       1.7  T
   3   -109.4801069 -0.139249E-05  0.383E-03    0.38       3.2  T
   4   -109.4801070 -0.729440E-07  0.196E-03    0.38       6.3  T
   5   -109.4801070 -0.749401E-08  0.136E-03    0.38       9.1  T
   6   -109.4801071 -0.127483E-06  0.913E-04    0.38      13.5  T
   7   -109.4801072 -0.108274E-06  0.101E-04    0.38     121.8  T
     SCC iter.                  ...        0 min,  0.049 sec
     gradient                   ...        0 min,  0.009 sec
 * total energy  :  -107.5399830 Eh     change       -0.2978273E-04 Eh
   gradient norm :     0.0017318 Eh/α   predicted    -0.2104120E-04 ( -29.35%)
   displ. norm   :     0.0635134 α      lambda       -0.1938654E-04
   maximum displ.:     0.0424114 α      in ANC's #13, #7, #14, ...

........................................................................
.............................. CYCLE    3 ..............................
........................................................................

 iter      E             dE          RMSdq      gap      omega  full diag
   1   -109.4767382 -0.109477E+03  0.132E-02    0.38       0.0  T
   2   -109.4767397 -0.149929E-05  0.926E-03    0.38       1.3  T
   3   -109.4767407 -0.102323E-05  0.548E-03    0.38       2.2  T
   4   -109.4767411 -0.399426E-06  0.280E-03    0.38       4.4  T
   5   -109.4767408  0.286051E-06  0.263E-03    0.38       4.7  T
   6   -109.4767416 -0.814163E-06  0.973E-04    0.38      12.7  T
   7   -109.4767418 -0.115640E-06  0.122E-04    0.38     100.6  T
     SCC iter.                  ...        0 min,  0.050 sec
     gradient                   ...        0 min,  0.008 sec
 * total energy  :  -107.5399950 Eh     change       -0.1202986E-04 Eh
   gradient norm :     0.0010886 Eh/α   predicted    -0.9712590E-05 ( -19.26%)
   displ. norm   :     0.0181179 α      lambda       -0.4146967E-05
   maximum displ.:     0.0117427 α      in ANC's #7, #13, #40, ...

........................................................................
.............................. CYCLE    4 ..............................
........................................................................

 iter      E             dE          RMSdq      gap      omega  full diag
   1   -109.4777090 -0.109478E+03  0.508E-03    0.38       0.0  T
   2   -109.4777090 -0.362070E-08  0.370E-03    0.38       3.3  T
   3   -109.4777090  0.273243E-07  0.238E-03    0.38       5.2  T
   4   -109.4777087  0.273225E-06  0.212E-03    0.38       5.8  T
   5   -109.4777093 -0.550663E-06  0.662E-04    0.38      18.6  T
   6   -109.4777093 -0.529733E-07  0.121E-04    0.38     101.8  T
     SCC iter.                  ...        0 min,  0.041 sec
     gradient                   ...        0 min,  0.009 sec
 * total energy  :  -107.5399996 Eh     change       -0.4580327E-05 Eh
   gradient norm :     0.0005715 Eh/α   predicted    -0.2074465E-05 ( -54.71%)
   displ. norm   :     0.0333548 α      lambda       -0.3484829E-05
   maximum displ.:     0.0221410 α      in ANC's #7, #13, #10, ...

........................................................................
.............................. CYCLE    5 ..............................
........................................................................

 iter      E             dE          RMSdq      gap      omega  full diag
   1   -109.4783202 -0.109478E+03  0.105E-02    0.38       0.0  T
   2   -109.4783203 -0.435177E-07  0.670E-03    0.38       1.8  T
   3   -109.4783187  0.158169E-05  0.492E-03    0.38       2.5  T
   4   -109.4783201 -0.138274E-05  0.215E-03    0.38       5.7  T
   5   -109.4783206 -0.466292E-06  0.106E-03    0.38      11.7  T
   6   -109.4783207 -0.143428E-06  0.182E-04    0.38      67.7  T
   7   -109.4783207 -0.221165E-08  0.560E-05    0.38     219.9  T
     SCC iter.                  ...        0 min,  0.048 sec
     gradient                   ...        0 min,  0.008 sec
 * total energy  :  -107.5400015 Eh     change       -0.1870712E-05 Eh
   gradient norm :     0.0004258 Eh/α   predicted    -0.1743716E-05 (  -6.79%)
   displ. norm   :     0.0237077 α      lambda       -0.2333733E-05
   maximum displ.:     0.0148598 α      in ANC's #7, #9, #13, ...

........................................................................
.............................. CYCLE    6 ..............................
........................................................................

 iter      E             dE          RMSdq      gap      omega  full diag
   1   -109.4780901 -0.109478E+03  0.101E-02    0.38       0.0  T
   2   -109.4780901 -0.142400E-07  0.601E-03    0.38       2.0  T
   3   -109.4780894  0.682934E-06  0.255E-03    0.38       4.8  T
   4   -109.4780898 -0.333016E-06  0.167E-03    0.38       7.4  T
   5   -109.4780901 -0.375852E-06  0.207E-04    0.38      59.5  T
   6   -109.4780901 -0.324421E-08  0.955E-05    0.38     128.9  T
     SCC iter.                  ...        0 min,  0.041 sec
     gradient                   ...        0 min,  0.008 sec
 * total energy  :  -107.5400027 Eh     change       -0.1192303E-05 Eh
   gradient norm :     0.0003662 Eh/α   predicted    -0.1167661E-05 (  -2.07%)
   displ. norm   :     0.0058316 α      lambda       -0.6390307E-06
   maximum displ.:     0.0028835 α      in ANC's #10, #13, #14, ...

........................................................................
.............................. CYCLE    7 ..............................
........................................................................

 iter      E             dE          RMSdq      gap      omega  full diag
   1   -109.4779081 -0.109478E+03  0.284E-03    0.38       0.0  T
   2   -109.4779081 -0.278979E-08  0.180E-03    0.38       6.8  T
   3   -109.4779079  0.183040E-06  0.149E-03    0.38       8.3  T
   4   -109.4779080 -0.725976E-08  0.123E-03    0.38      10.0  T
   5   -109.4779082 -0.201996E-06  0.213E-04    0.38      57.8  T
   6   -109.4779082 -0.490968E-08  0.436E-05    0.38     282.4  T
     SCC iter.                  ...        0 min,  0.041 sec
     gradient                   ...        0 min,  0.008 sec
 * total energy  :  -107.5400033 Eh     change       -0.6789462E-06 Eh
   gradient norm :     0.0001128 Eh/α   predicted    -0.3206602E-06 ( -52.77%)
   displ. norm   :     0.0140732 α      lambda       -0.5195452E-06
   maximum displ.:     0.0076352 α      in ANC's #10, #7, #14, ...

........................................................................
.............................. CYCLE    8 ..............................
........................................................................

 iter      E             dE          RMSdq      gap      omega  full diag
   1   -109.4777433 -0.109478E+03  0.358E-03    0.38       0.0  T
   2   -109.4777433  0.290845E-08  0.215E-03    0.38       5.7  T
   3   -109.4777428  0.497878E-06  0.203E-03    0.38       6.1  T
   4   -109.4777431 -0.352282E-06  0.110E-03    0.38      11.2  T
   5   -109.4777433 -0.161850E-06  0.105E-04    0.38     117.3  T
   6   -109.4777433 -0.768424E-09  0.362E-05    0.38     340.0  T
     SCC iter.                  ...        0 min,  0.041 sec
     gradient                   ...        0 min,  0.009 sec
 * total energy  :  -107.5400039 Eh     change       -0.5761462E-06 Eh
   gradient norm :     0.0001168 Eh/α   predicted    -0.2601196E-06 ( -54.85%)
   displ. norm   :     0.0245430 α      lambda       -0.5417502E-06
   maximum displ.:     0.0133095 α      in ANC's #10, #7, #9, ...

........................................................................
.............................. CYCLE    9 ..............................
........................................................................

 iter      E             dE          RMSdq      gap      omega  full diag
   1   -109.4777033 -0.109478E+03  0.528E-03    0.38       0.0  T
   2   -109.4777033  0.873118E-08  0.311E-03    0.38       4.0  T
   3   -109.4777021  0.115105E-05  0.293E-03    0.38       4.2  T
   4   -109.4777033 -0.115466E-05  0.337E-04    0.38      36.5  T
   5   -109.4777033 -0.132723E-07  0.793E-05    0.38     155.3  T
   6   -109.4777033 -0.221064E-09  0.471E-05    0.38     261.1  T
     SCC iter.                  ...        0 min,  0.041 sec
     gradient                   ...        0 min,  0.008 sec
 * total energy  :  -107.5400045 Eh     change       -0.5838624E-06 Eh
   gradient norm :     0.0002184 Eh/α   predicted    -0.2722502E-06 ( -53.37%)
   displ. norm   :     0.0256805 α      lambda       -0.3846044E-06
   maximum displ.:     0.0142557 α      in ANC's #10, #7, #9, ...

........................................................................
.............................. CYCLE   10 ..............................
........................................................................

 iter      E             dE          RMSdq      gap      omega  full diag
   1   -109.4778043 -0.109478E+03  0.532E-03    0.38       0.0  T
   2   -109.4778043  0.691651E-08  0.314E-03    0.38       3.9  T
   3   -109.4778034  0.882945E-06  0.259E-03    0.38       4.7  T
   4   -109.4778043 -0.854953E-06  0.591E-04    0.38      20.8  T
   5   -109.4778043 -0.432175E-07  0.803E-05    0.38     153.2  T
     SCC iter.                  ...        0 min,  0.034 sec
     gradient                   ...        0 min,  0.008 sec
 * total energy  :  -107.5400049 Eh     change       -0.3656475E-06 Eh
   gradient norm :     0.0001571 Eh/α   predicted    -0.1960817E-06 ( -46.37%)
   displ. norm   :     0.0093886 α      lambda       -0.1075003E-06
   maximum displ.:     0.0057607 α      in ANC's #10, #9, #7, ...

........................................................................
.............................. CYCLE   11 ..............................
........................................................................

 iter      E             dE          RMSdq      gap      omega  full diag
   1   -109.4779211 -0.109478E+03  0.192E-03    0.38       0.0  T
   2   -109.4779211  0.842093E-09  0.115E-03    0.38      10.7  T
   3   -109.4779210  0.105815E-06  0.992E-04    0.38      12.4  T
   4   -109.4779211 -0.552690E-07  0.643E-04    0.38      19.1  T
     SCC iter.                  ...        0 min,  0.028 sec
     gradient                   ...        0 min,  0.009 sec
 * total energy  :  -107.5400049 Eh     change       -0.5253236E-07 Eh
   gradient norm :     0.0000834 Eh/α   predicted    -0.5474431E-07 (   4.21%)
   displ. norm   :     0.0093886 α      lambda        0.0000000E+00
   maximum displ.:     0.0057607 α      in ANC's #10, #9, #7, ...

   *** GEOMETRY OPTIMIZATION CONVERGED AFTER 11 ITERATIONS ***

------------------------------------------------------------------------
 total energy gain   :        -0.0000517 Eh       -0.0325 kcal/mol
 total RMSD          :         0.0242194 a0        0.0128 Å
 total power (kW/mol):        -0.0123462 (step)   -0.2176 (real)
------------------------------------------------------------------------

 ANCopt (total)                0 d,  0 h,  0 min,  0.624 sec
 optimizer setup                ...        0 min,  0.000 sec (  0.045%)
 model hessian                  ...        0 min,  0.024 sec (  3.879%)
 ANC generation                 ...        0 min,  0.004 sec (  0.714%)
 coordinate transformation      ...        0 min,  0.001 sec (  0.157%)
 single point calculation       ...        0 min,  0.588 sec ( 94.184%)
 optimization log               ...        0 min,  0.003 sec (  0.414%)
 hessian update                 ...        0 min,  0.001 sec (  0.217%)
 rational function              ...        0 min,  0.001 sec (  0.211%)

================
 final structure:
================
66
 xtb: 6.7.1 (edcfbbe)
C            0.61712625536531        0.00809135572507       -0.00272342398251
C           -0.61711397804194        0.00885755955884       -0.00241342470925
C           -1.98580041321327        0.00846390413332       -0.00139525196852
C           -2.72496938514659        0.02757201737990        1.22036454062252
C           -4.08885821150993        0.01653459867812        1.21549599419789
C           -4.80247194450019        0.00470830156263        0.00143543485234
N           -6.21121248706936        0.00172770213456        0.00257834211201
C           -6.92340864603139        1.03444781105052       -0.59881502719884
C           -6.29209898989790        2.14118109216297       -1.16571435033810
C           -7.02921545338507        3.14786526656953       -1.76323094187173
C           -8.41133418066046        3.08131189833614       -1.79749795866093
C           -9.05960895631668        2.01001838726653       -1.20373508542282
C           -8.32795548049452        0.99970980699389       -0.60281681922309
O           -9.03572433253313       -0.00697651447942       -0.00095095674422
C           -8.32322937335640       -1.00833946421778        0.60422424989857
C           -9.05027134828741       -2.02229009872564        1.20464002824324
C           -8.39705601613776       -3.08875389105185        1.80165356892986
C           -7.01448124256053       -3.14676705065954        1.77127205596848
C           -6.28196603119008       -2.13650962658785        1.17409798428054
C           -6.91847618268841       -1.03450137503342        0.60385643498700
C           -4.09121682990802       -0.00428206625250       -1.21406443038346
C           -2.72731490075633       -0.01161308770279       -1.22169424268138
C            1.98581306589397        0.00647632106405       -0.00220329326984
C            2.72691965862704        0.02484365807344       -1.22277424738506
C            4.09079717063989        0.01327725826419       -1.21565567828316
C            4.80248068938428        0.00171756390854       -0.00043715575307
N            6.21122481916982       -0.00091914740479        0.00026000564794
C            6.92278115053342        1.03221371034948        0.60175423879034
C            6.29085138591637        2.13736536145140        1.17101586992757
C            7.02750428983381        3.14442523319525        1.76849903557316
C            8.40976915704647        3.07995046285198        1.80023004489238
C            9.05858254701834        2.01027763824288        1.20414941525527
C            8.32739487081405        0.99952228306103        0.60339822268944
O            9.03574681670159       -0.00537018716785       -0.00078834314896
C            8.32382258527517       -1.00868886058348       -0.60338174071691
C            9.05132651556864       -2.02236677260430       -1.20367925695946
C            8.39863165311421       -3.09058516685109       -1.79813306201369
C            7.01618883875453       -3.15063210126663       -1.76525479972901
C            6.28321402256276       -2.14058486243731       -1.16831773783246
C            6.91912435643902       -1.03687809944414       -0.60067579462441
C            4.08930056856514       -0.00739805244733        1.21390681650361
C            2.72538644062553       -0.01420403958431        1.21928813218453
H           -2.17911603413268        0.06128566137096        2.15223790639540
H           -4.63955808227975        0.04690644233034        2.14566454779362
H           -5.21712109634778        2.21214212269164       -1.12639138777693
H           -6.51455613727698        3.99032456388264       -2.19890558842843
H           -8.98735166005505        3.86292001473596       -2.26688395878893
H          -10.13572371305048        1.93983206657052       -1.18829380740076
H          -10.12675227062810       -1.95877905951110        1.18610328523275
H           -8.96950404648147       -3.87322695990572        2.27062969512308
H           -6.49574973450232       -3.98527482367224        2.20971383871047
H           -5.20650184711660       -2.20113648990538        1.13773848073966
H           -4.64372928983115       -0.03548079624682       -2.14313625907948
H           -2.18324526763221       -0.04343637055976       -2.15468285383701
H            2.18260431067502        0.05844475208224       -2.15555616013875
H            4.64305657194176        0.04295596225959       -2.14492821926683
H            5.21572404177348        2.20691864343774        1.13358974290318
H            6.51231137994049        3.98553373988282        2.20614872568943
H            8.98543675685585        3.86188479575066        2.26950326935876
H           10.13477340683803        1.94174398020474        1.18666968902452
H           10.12774200802383       -1.95722608820432       -1.18716641967733
H            8.97142594170869       -3.87486713681828       -2.26700657988232
H            6.49797453189149       -3.99057268797268       -2.20155863781100
H            5.20788695386246       -2.20657568573863       -1.13009075037069
H            4.64025625889884       -0.03916514364553        2.14387624100227
H            2.17977785746069       -0.04602922953169        2.15137214832908
 
 Bond Distances (Angstroems)
 ---------------------------
C1-C2=1.2342         C1-C23=1.3687        C2-C1=1.2342         C2-C3=1.3687         C3-C2=1.3687         C3-C4=1.4281         
C3-C22=1.4281        C4-C3=1.4281         C4-C5=1.3639         C4-H43=1.0805        C5-C4=1.3639         C5-C6=1.4083         
C5-H44=1.0814        C6-C5=1.4083         C6-N7=1.4087         C6-C21=1.4083        N7-C6=1.4087         N7-C8=1.3912         
N7-C20=1.3912        C8-N7=1.3912         C8-C9=1.3946         C8-C13=1.4050        C9-C8=1.3946         C9-C10=1.3834        
C9-H45=1.0780        C10-C9=1.3834        C10-C11=1.3841       C10-H46=1.0791       C11-C10=1.3841       C11-C12=1.3858       
C11-H47=1.0784       C12-C11=1.3858       C12-C13=1.3846       C12-H48=1.0785       C13-C8=1.4050        C13-C12=1.3846       
C13-O14=1.3699       O14-C13=1.3699       O14-C15=1.3699       C15-O14=1.3699       C15-C16=1.3846       C15-C20=1.4050       
C16-C15=1.3846       C16-C17=1.3858       C16-H49=1.0785       C17-C16=1.3858       C17-C18=1.3841       C17-H50=1.0784       
C18-C17=1.3841       C18-C19=1.3834       C18-H51=1.0791       C19-C18=1.3834       C19-C20=1.3945       C19-H52=1.0780       
C20-N7=1.3912        C20-C15=1.4050       C20-C19=1.3945       C21-C6=1.4083        C21-C22=1.3639       C21-H53=1.0814       
C22-C3=1.4281        C22-C21=1.3639       C22-H54=1.0805       C23-C1=1.3687        C23-C24=1.4281       C23-C42=1.4281       
C24-C23=1.4281       C24-C25=1.3639       C24-H55=1.0805       C25-C24=1.3639       C25-C26=1.4083       C25-H56=1.0814       
C26-C25=1.4083       C26-N27=1.4087       C26-C41=1.4083       N27-C26=1.4087       N27-C28=1.3912       N27-C40=1.3912       
C28-N27=1.3912       C28-C29=1.3945       C28-C33=1.4050       C29-C28=1.3945       C29-C30=1.3834       C29-H57=1.0780       
C30-C29=1.3834       C30-C31=1.3841       C30-H58=1.0791       C31-C30=1.3841       C31-C32=1.3858       C31-H59=1.0784       
C32-C31=1.3858       C32-C33=1.3846       C32-H60=1.0785       C33-C28=1.4050       C33-C32=1.3846       C33-O34=1.3699       
O34-C33=1.3699       O34-C35=1.3699       C35-O34=1.3699       C35-C36=1.3846       C35-C40=1.4050       C36-C35=1.3846       
C36-C37=1.3858       C36-H61=1.0785       C37-C36=1.3858       C37-C38=1.3841       C37-H62=1.0784       C38-C37=1.3841       
C38-C39=1.3834       C38-H63=1.0791       C39-C38=1.3834       C39-C40=1.3945       C39-H64=1.0780       C40-N27=1.3912       
C40-C35=1.4050       C40-C39=1.3945       C41-C26=1.4083       C41-C42=1.3639       C41-H65=1.0814       C42-C23=1.4281       
C42-C41=1.3639       C42-H66=1.0805       H43-C4=1.0805        H44-C5=1.0814        H45-C9=1.0780        H46-C10=1.0791       
H47-C11=1.0784       H48-C12=1.0785       H49-C16=1.0785       H50-C17=1.0784       H51-C18=1.0791       H52-C19=1.0780       
H53-C21=1.0814       H54-C22=1.0805       H55-C24=1.0805       H56-C25=1.0814       H57-C29=1.0780       H58-C30=1.0791       
H59-C31=1.0784       H60-C32=1.0785       H61-C36=1.0785       H62-C37=1.0784       H63-C38=1.0791       H64-C39=1.0780       
H65-C41=1.0814       H66-C42=1.0805       
 C  H  Rav=1.0793 sigma=0.0012  Rmin=1.0780  Rmax=1.0814    24
 C  C  Rav=1.3878 sigma=0.0305  Rmin=1.2342  Rmax=1.4281    39
 N  C  Rav=1.3971 sigma=0.0083  Rmin=1.3912  Rmax=1.4087     6
 O  C  Rav=1.3699 sigma=0.0000  Rmin=1.3699  Rmax=1.3699     4
 
 selected bond angles (degree)
 --------------------
C23-C1-C2=179.95               C3-C2-C1=179.94                C4-C3-C2=121.21                C22-C3-C2=121.24               
C22-C3-C4=117.55               C5-C4-C3=120.96                H43-C4-C3=118.48               H43-C4-C5=120.56               
C6-C5-C4=120.65                H44-C5-C4=120.39               H44-C5-C6=118.93               N7-C6-C5=120.40                
C21-C6-C5=119.22               C21-C6-N7=120.38               C8-N7-C6=120.66                C20-N7-C6=120.68               
C20-N7-C8=118.65               C9-C8-N7=122.22                C13-C8-N7=119.65               C13-C8-C9=118.10               
C10-C9-C8=120.79               H45-C9-C8=119.26               H45-C9-C10=119.95              C11-C10-C9=120.51              
H46-C10-C9=119.23              H46-C10-C11=120.25             
 
 selected dihedral angles (degree)
 ---------------------------------
C3-C2-C1-C23=340.02           C4-C3-C2-C1= 62.43            C22-C3-C2-C1=242.46           C5-C4-C3-C2=180.52            
C5-C4-C3-C22=  0.49           H43-C4-C3-C2=  1.13           H43-C4-C3-C22=181.11          C6-C5-C4-C3=359.11            
C6-C5-C4-H43=178.48           H44-C5-C4-C3=180.97           H44-C5-C4-H43=  0.34          N7-C6-C5-C4=180.40            
N7-C6-C5-H44=358.57           C21-C6-C5-C4=  0.40           C21-C6-C5-H44=178.58          C8-N7-C6-C5=119.71            
C8-N7-C6-C21=299.71           C20-N7-C6-C5=299.65           C20-N7-C6-C21=119.64          C9-C8-N7-C6=356.77            
C9-C8-N7-C20=176.83           C13-C8-N7-C6=179.04           C13-C8-N7-C20=359.10          C10-C9-C8-N7=179.62           
C10-C9-C8-C13=357.38          H45-C9-C8-N7=359.03           H45-C9-C8-C13=176.79          C11-C10-C9-C8=  0.65          
C11-C10-C9-H45=181.25         H46-C10-C9-C8=180.33          H46-C10-C9-H45=  0.93         
           -------------------------------------------------
          |                Final Singlepoint                |
           -------------------------------------------------

          ...................................................
          :                      SETUP                      :
          :.................................................:
          :  # basis functions                 192          :
          :  # atomic orbitals                 192          :
          :  # shells                          108          :
          :  # electrons                       198          :
          :  max. iterations                   250          :
          :  Hamiltonian                  GFN2-xTB          :
          :  restarted?                      false          :
          :  GBSA solvation                   true          :
          :  PC potential                    false          :
          :  electronic temp.          300.0000000     K    :
          :  accuracy                    1.0000000          :
          :  -> integral cutoff          0.2500000E+02      :
          :  -> integral neglect         0.1000000E-07      :
          :  -> SCF convergence          0.1000000E-05 Eh   :
          :  -> wf. convergence          0.1000000E-03 e    :
          :  Broyden damping             0.4000000          :
          :  net charge                          0          :
          :  unpaired electrons                  2          :
          ...................................................

 iter      E             dE          RMSdq      gap      omega  full diag
   1   -109.4779211 -0.109478E+03  0.546E-05    0.38       0.0  T
   2   -109.4779211  0.929802E-09  0.957E-05    0.38     128.6  T
   3   -109.4779211 -0.933014E-09  0.419E-05    0.38     294.0  T

   *** convergence criteria satisfied after 3 iterations ***

         #    Occupation            Energy/Eh            Energy/eV
      -------------------------------------------------------------
         1        2.0000           -0.7425709             -20.2064
       ...           ...                  ...                  ...
        94        2.0000           -0.3986422             -10.8476
        95        2.0000           -0.3960508             -10.7771
        96        2.0000           -0.3784499             -10.2981
        97        2.0000           -0.3631774              -9.8826
        98        1.9805           -0.3503055              -9.5323
        99        1.0195           -0.3428618              -9.3297
       100        0.9990           -0.2618308              -7.1248 (HOMO)
       101        0.0005           -0.2479581              -6.7473 (LUMO)
       102        0.0005           -0.2479573              -6.7473
       103                         -0.2373733              -6.4593
       104                         -0.2373724              -6.4592
       105                         -0.2258436              -6.1455
       ...                                ...                  ...
       192                          1.3964975              38.0006
      -------------------------------------------------------------
                  HL-Gap            0.0138727 Eh            0.3775 eV
             Fermi-level           -0.3009037 Eh           -8.1880 eV
 
 transition dipole moment (au) for excitation:          99         100
     X       Y       Z   
   3.3039  -0.0012  -0.0004  total (au/Debye):    3.304   8.398
 dE (eV)             :    2.205
 oscillator strength :  0.83392E+00

 SCC (total)                   0 d,  0 h,  0 min,  0.052 sec
 SCC setup                      ...        0 min,  0.001 sec (  1.080%)
 Dispersion                     ...        0 min,  0.001 sec (  1.569%)
 classical contributions        ...        0 min,  0.000 sec (  0.058%)
 integral evaluation            ...        0 min,  0.003 sec (  5.594%)
 iterations                     ...        0 min,  0.021 sec ( 40.525%)
 molecular gradient             ...        0 min,  0.009 sec ( 16.512%)
 printout                       ...        0 min,  0.018 sec ( 34.509%)

         :::::::::::::::::::::::::::::::::::::::::::::::::::::
         ::                     SUMMARY                     ::
         :::::::::::::::::::::::::::::::::::::::::::::::::::::
         :: total energy            -107.540004973152 Eh    ::
         :: total w/o Gsasa/hb      -107.497454061620 Eh    ::
         :: gradient norm              0.000056498091 Eh/a0 ::
         :: HOMO-LUMO gap              0.377495297304 eV    ::
         ::.................................................::
         :: SCC energy              -109.478488225427 Eh    ::
         :: -> isotropic ES            0.034972526473 Eh    ::
         :: -> anisotropic ES          0.010881134267 Eh    ::
         :: -> anisotropic XC          0.053112488683 Eh    ::
         :: -> dispersion             -0.086888901378 Eh    ::
         :: -> Gsolv                  -0.045316364265 Eh    ::
         ::    -> Gelec               -0.002765452733 Eh    ::
         ::    -> Gsasa               -0.047074791403 Eh    ::
         ::    -> Ghb                  0.000000000000 Eh    ::
         ::    -> Gshift               0.004523879872 Eh    ::
         :: repulsion energy           1.938483252275 Eh    ::
         :: add. restraining           0.000000000000 Eh    ::
         :: total charge              -0.000000000000 e     ::
         :::::::::::::::::::::::::::::::::::::::::::::::::::::

           ------------------------------------------------- 
          |                Numerical Hessian                |
           ------------------------------------------------- 
step length          :   0.00500
SCC accuracy         :   0.30000
Hessian scale factor :   1.00000
frozen atoms in %    :   0.00000    0
RMS gradient         :   0.00006
estimated CPU  time     23.75 min
estimated wall time      0.60 min

writing file <hessian>.

 projected vibrational frequencies (cm⁻¹)
eigval :       -0.00    -0.00    -0.00    -0.00     0.00     0.00
eigval :       11.01    11.92    19.42    26.00    26.09    39.98
eigval :       62.15    65.45    68.14    73.66    85.84    92.62
eigval :      106.78   119.06   119.29   126.89   187.65   193.72
eigval :      197.46   202.51   242.80   250.38   257.80   273.77
eigval :      275.08   279.05   297.64   334.02   360.74   373.41
eigval :      373.74   374.08   375.71   384.39   393.27   419.17
eigval :      420.62   420.76   435.82   436.58   442.04   449.02
eigval :      456.70   459.11   467.37   477.14   502.66   502.77
eigval :      527.19   527.50   530.30   537.60   538.52   581.70
eigval :      581.89   594.89   605.93   608.95   618.81   635.64
eigval :      638.48   656.96   664.13   665.60   666.91   666.94
eigval :      679.73   714.09   775.36   775.48   777.86   778.18
eigval :      786.70   787.69   790.94   799.00   820.95   829.08
eigval :      838.35   853.94   853.95   865.17   865.26   865.67
eigval :      865.98   897.82   897.90   898.22   898.31   900.92
eigval :      901.36   905.71   905.95   912.51   912.63   912.88
eigval :      913.00   917.53   917.68   919.58   919.88   981.49
eigval :      985.39  1086.03  1086.05  1086.48  1087.29  1109.70
eigval :     1109.80  1116.21  1117.21  1126.40  1129.91  1154.19
eigval :     1158.25  1167.79  1170.66  1170.68  1174.95  1181.73
eigval :     1186.30  1199.26  1205.58  1205.65  1212.85  1229.08
eigval :     1235.66  1236.19  1245.51  1250.79  1254.38  1255.03
eigval :     1296.12  1298.35  1300.36  1307.82  1310.94  1312.33
eigval :     1321.67  1323.57  1339.26  1344.18  1384.48  1385.03
eigval :     1387.13  1413.37  1413.41  1424.28  1438.28  1438.95
eigval :     1447.69  1447.75  1468.70  1469.11  1474.91  1476.76
eigval :     1513.81  1534.11  1549.87  1549.89  1556.17  1556.19
eigval :     1566.55  1571.23  1579.79  1583.79  1599.34  2144.54
eigval :     3060.67  3060.70  3062.79  3062.95  3077.16  3077.41
eigval :     3080.11  3081.33  3092.00  3092.01  3092.10  3092.14
eigval :     3100.30  3100.31  3100.42  3100.46  3109.83  3109.84
eigval :     3110.12  3110.19  3113.68  3113.71  3113.85  3113.99
           -------------------------------------------------
          |                Property Printout                |
           -------------------------------------------------

    * Orbital Energies and Occupations

         #    Occupation            Energy/Eh            Energy/eV
      -------------------------------------------------------------
         1        2.0000           -0.7425718             -20.2064
       ...           ...                  ...                  ...
        88        2.0000           -0.4206213             -11.4457
        89        2.0000           -0.4201908             -11.4340
        90        2.0000           -0.4201846             -11.4338
        91        2.0000           -0.4047426             -11.0136
        92        2.0000           -0.4017489             -10.9321
        93        2.0000           -0.4017036             -10.9309
        94        2.0000           -0.3986423             -10.8476
        95        2.0000           -0.3960508             -10.7771
        96        2.0000           -0.3784495             -10.2981
        97        2.0000           -0.3631772              -9.8826
        98        1.9805           -0.3503056              -9.5323
        99        1.0195           -0.3428618              -9.3297
       100        0.9990           -0.2618306              -7.1248 (HOMO)
       101        0.0005           -0.2479586              -6.7473 (LUMO)
       102        0.0005           -0.2479570              -6.7473
       103                         -0.2373736              -6.4593
       104                         -0.2373722              -6.4592
       105                         -0.2258436              -6.1455
       106                         -0.2226158              -6.0577
       107                         -0.2136819              -5.8146
       108                         -0.2136812              -5.8146
       109                         -0.2116668              -5.7597
       110                         -0.2040912              -5.5536
       111                         -0.1981607              -5.3922
       ...                                ...                  ...
       192                          1.3964979              38.0006
      -------------------------------------------------------------
                  HL-Gap            0.0138720 Eh            0.3775 eV
             Fermi-level           -0.3009037 Eh           -8.1880 eV

     #   Z          covCN         q      C6AA      α(0)
     1   6 C        1.982    -0.063    32.758     9.243
     2   6 C        1.982    -0.063    32.758     9.243
     3   6 C        2.963     0.014    27.699     8.633
     4   6 C        2.920    -0.042    29.056     8.839
     5   6 C        2.911    -0.044    29.086     8.843
     6   6 C        2.920     0.028    27.380     8.581
     7   7 N        2.750    -0.038    21.967     6.961
     8   6 C        2.924     0.044    27.004     8.522
     9   6 C        2.922    -0.054    29.333     8.882
    10   6 C        2.918    -0.035    28.864     8.810
    11   6 C        2.919    -0.035    28.879     8.812
    12   6 C        2.918    -0.056    29.386     8.889
    13   6 C        2.884     0.126    25.231     8.235
    14   8 O        1.709    -0.249    18.132     5.749
    15   6 C        2.884     0.126    25.231     8.235
    16   6 C        2.918    -0.056    29.386     8.889
    17   6 C        2.919    -0.035    28.879     8.812
    18   6 C        2.918    -0.035    28.864     8.810
    19   6 C        2.922    -0.054    29.334     8.882
    20   6 C        2.924     0.044    27.004     8.522
    21   6 C        2.911    -0.044    29.085     8.843
    22   6 C        2.920    -0.042    29.055     8.839
    23   6 C        2.963     0.014    27.699     8.633
    24   6 C        2.920    -0.042    29.055     8.839
    25   6 C        2.911    -0.044    29.085     8.843
    26   6 C        2.920     0.028    27.380     8.581
    27   7 N        2.750    -0.038    21.967     6.961
    28   6 C        2.924     0.044    27.004     8.522
    29   6 C        2.922    -0.054    29.334     8.882
    30   6 C        2.918    -0.035    28.864     8.810
    31   6 C        2.919    -0.035    28.879     8.812
    32   6 C        2.918    -0.056    29.386     8.889
    33   6 C        2.884     0.126    25.231     8.235
    34   8 O        1.709    -0.249    18.132     5.749
    35   6 C        2.884     0.126    25.231     8.235
    36   6 C        2.918    -0.056    29.386     8.889
    37   6 C        2.919    -0.035    28.879     8.812
    38   6 C        2.918    -0.035    28.864     8.810
    39   6 C        2.922    -0.054    29.334     8.882
    40   6 C        2.924     0.044    27.004     8.522
    41   6 C        2.911    -0.044    29.085     8.843
    42   6 C        2.920    -0.042    29.056     8.839
    43   1 H        0.926     0.021     2.717     2.577
    44   1 H        0.925     0.024     2.673     2.557
    45   1 H        0.926     0.051     2.311     2.377
    46   1 H        0.926     0.048     2.342     2.393
    47   1 H        0.926     0.050     2.321     2.383
    48   1 H        0.926     0.055     2.256     2.349
    49   1 H        0.926     0.055     2.256     2.349
    50   1 H        0.926     0.050     2.321     2.383
    51   1 H        0.926     0.048     2.342     2.393
    52   1 H        0.926     0.051     2.310     2.377
    53   1 H        0.925     0.024     2.674     2.557
    54   1 H        0.926     0.021     2.717     2.577
    55   1 H        0.926     0.021     2.716     2.577
    56   1 H        0.925     0.024     2.674     2.557
    57   1 H        0.926     0.051     2.310     2.377
    58   1 H        0.926     0.048     2.342     2.393
    59   1 H        0.926     0.050     2.321     2.383
    60   1 H        0.926     0.055     2.256     2.349
    61   1 H        0.926     0.055     2.256     2.349
    62   1 H        0.926     0.050     2.321     2.383
    63   1 H        0.926     0.048     2.342     2.393
    64   1 H        0.926     0.051     2.311     2.377
    65   1 H        0.925     0.024     2.673     2.557
    66   1 H        0.926     0.021     2.717     2.577

 Mol. C6AA /au·bohr⁶  :      66517.276993
 Mol. C8AA /au·bohr⁸  :    1695509.091096
 Mol. α(0) /au        :        416.210773


MOs/occ written to file <molden.input>


molecular dipole:
                 x           y           z       tot (Debye)
 q only:       -0.000      -0.003       0.003
   full:       -0.000      -0.003       0.003       0.011
molecular quadrupole (traceless):
                xx          xy          yy          xz          yz          zz
 q only:       19.732      -0.025      -3.508       0.010      -0.001     -16.224
  q+dip:       31.288      -0.019     -12.691       0.027      -0.001     -18.597
   full:       21.585      -0.024      -7.507       0.011      -0.001     -14.079

           -------------------------------------------------
          |                Geometry Summary                 |
           -------------------------------------------------

      molecular mass/u    :      540.6107585
   center of mass at/Å    :        0.0000048      -0.0000253       0.0006235
  moments of inertia/u·Å² :        0.2314378E+04   0.2457529E+05   0.2547614E+05
rotational constants/cm⁻¹ :        0.7283872E-02   0.6859586E-03   0.6617029E-03

 * 73 selected distances

     #   Z          #   Z                                           value/Å
     1   6 C        2   6 C                                       1.2342406
     2   6 C        3   6 C                                       1.3686870
     3   6 C        4   6 C                                       1.4280873
     4   6 C        5   6 C                                       1.3639423
     5   6 C        6   6 C                                       1.4083067
     6   6 C        7   7 N                                       1.4087443
     7   7 N        8   6 C                                       1.3911896
     8   6 C        9   6 C                                       1.3945557
     9   6 C       10   6 C                                       1.3833944
    10   6 C       11   6 C                                       1.3841445
    11   6 C       12   6 C                                       1.3858155
     8   6 C       13   6 C                                       1.4049822
    12   6 C       13   6 C                                       1.3846095
    13   6 C       14   8 O                                       1.3698894
    14   8 O       15   6 C                                       1.3698957
    15   6 C       16   6 C                                       1.3846246
    16   6 C       17   6 C                                       1.3858069
    17   6 C       18   6 C                                       1.3841250
    18   6 C       19   6 C                                       1.3834073
     7   7 N       20   6 C                                       1.3912327
    15   6 C       20   6 C                                       1.4049970
    19   6 C       20   6 C                                       1.3945405
     6   6 C       21   6 C                                       1.4083341
     3   6 C       22   6 C                                       1.4280675
    21   6 C       22   6 C                                       1.3639431
     1   6 C       23   6 C                                       1.3686880
    23   6 C       24   6 C                                       1.4280652
    24   6 C       25   6 C                                       1.3639453
    25   6 C       26   6 C                                       1.4083265
    26   6 C       27   7 N                                       1.4087469
    27   7 N       28   6 C                                       1.3912123
    28   6 C       29   6 C                                       1.3945446
    29   6 C       30   6 C                                       1.3834065
    30   6 C       31   6 C                                       1.3841316
    31   6 C       32   6 C                                       1.3858107
    28   6 C       33   6 C                                       1.4049952
    32   6 C       33   6 C                                       1.3846170
    33   6 C       34   8 O                                       1.3698953
    34   8 O       35   6 C                                       1.3698918
    35   6 C       36   6 C                                       1.3846163
    36   6 C       37   6 C                                       1.3858127
    37   6 C       38   6 C                                       1.3841370
    38   6 C       39   6 C                                       1.3833950
    27   7 N       40   6 C                                       1.3912070
    35   6 C       40   6 C                                       1.4049838
    39   6 C       40   6 C                                       1.3945495
    26   6 C       41   6 C                                       1.4083113
    23   6 C       42   6 C                                       1.4280890 (max)
    41   6 C       42   6 C                                       1.3639419
     4   6 C       43   1 H                                       1.0805002
     5   6 C       44   1 H                                       1.0813910
     9   6 C       45   1 H                                       1.0780350
    10   6 C       46   1 H                                       1.0790850
    11   6 C       47   1 H                                       1.0784391
    12   6 C       48   1 H                                       1.0785118
    16   6 C       49   1 H                                       1.0785122
    17   6 C       50   1 H                                       1.0784403
    18   6 C       51   1 H                                       1.0790779
    19   6 C       52   1 H                                       1.0780177 (min)
    21   6 C       53   1 H                                       1.0813963
    22   6 C       54   1 H                                       1.0805056
    24   6 C       55   1 H                                       1.0805048
    25   6 C       56   1 H                                       1.0813968
    29   6 C       57   1 H                                       1.0780248
    30   6 C       58   1 H                                       1.0790851
    31   6 C       59   1 H                                       1.0784396
    32   6 C       60   1 H                                       1.0785126
    36   6 C       61   1 H                                       1.0785112
    37   6 C       62   1 H                                       1.0784406
    38   6 C       63   1 H                                       1.0790772
    39   6 C       64   1 H                                       1.0780281
    41   6 C       65   1 H                                       1.0813902
    42   6 C       66   1 H                                       1.0805010

 * 4 distinct bonds (by element types)

   Z      Z             #   av. dist./Å        max./Å        min./Å
   1 H    6 C          24     1.0793260     1.0813968     1.0780177
   6 C    6 C          39     1.3877687     1.4280890     1.2342406
   6 C    7 N           6     1.3970555     1.4087469     1.3911896
   6 C    8 O           4     1.3698931     1.3698957     1.3698894

           -------------------------------------------------
          |               Frequency Printout                |
           -------------------------------------------------
 projected vibrational frequencies (cm⁻¹)
eigval :       -0.00    -0.00    -0.00    -0.00     0.00     0.00
eigval :       11.01    11.92    19.42    26.00    26.09    39.98
eigval :       62.15    65.45    68.14    73.66    85.84    92.62
eigval :      106.78   119.06   119.29   126.89   187.65   193.72
eigval :      197.46   202.51   242.80   250.38   257.80   273.77
eigval :      275.08   279.05   297.64   334.02   360.74   373.41
eigval :      373.74   374.08   375.71   384.39   393.27   419.17
eigval :      420.62   420.76   435.82   436.58   442.04   449.02
eigval :      456.70   459.11   467.37   477.14   502.66   502.77
eigval :      527.19   527.50   530.30   537.60   538.52   581.70
eigval :      581.89   594.89   605.93   608.95   618.81   635.64
eigval :      638.48   656.96   664.13   665.60   666.91   666.94
eigval :      679.73   714.09   775.36   775.48   777.86   778.18
eigval :      786.70   787.69   790.94   799.00   820.95   829.08
eigval :      838.35   853.94   853.95   865.17   865.26   865.67
eigval :      865.98   897.82   897.90   898.22   898.31   900.92
eigval :      901.36   905.71   905.95   912.51   912.63   912.88
eigval :      913.00   917.53   917.68   919.58   919.88   981.49
eigval :      985.39  1086.03  1086.05  1086.48  1087.29  1109.70
eigval :     1109.80  1116.21  1117.21  1126.40  1129.91  1154.19
eigval :     1158.25  1167.79  1170.66  1170.68  1174.95  1181.73
eigval :     1186.30  1199.26  1205.58  1205.65  1212.85  1229.08
eigval :     1235.66  1236.19  1245.51  1250.79  1254.38  1255.03
eigval :     1296.12  1298.35  1300.36  1307.82  1310.94  1312.33
eigval :     1321.67  1323.57  1339.26  1344.18  1384.48  1385.03
eigval :     1387.13  1413.37  1413.41  1424.28  1438.28  1438.95
eigval :     1447.69  1447.75  1468.70  1469.11  1474.91  1476.76
eigval :     1513.81  1534.11  1549.87  1549.89  1556.17  1556.19
eigval :     1566.55  1571.23  1579.79  1583.79  1599.34  2144.54
eigval :     3060.67  3060.70  3062.79  3062.95  3077.16  3077.41
eigval :     3080.11  3081.33  3092.00  3092.01  3092.10  3092.14
eigval :     3100.30  3100.31  3100.42  3100.46  3109.83  3109.84
eigval :     3110.12  3110.19  3113.68  3113.71  3113.85  3113.99
 reduced masses (amu)
   1: 11.90   2: 11.63   3: 11.87   4: 11.91   5: 11.14   6: 11.88   7: 11.47   8: 11.63
   9: 10.90  10: 11.37  11: 11.19  12: 11.32  13: 11.74  14: 11.43  15:  9.90  16: 11.65
  17:  9.99  18: 11.43  19: 11.32  20:  9.91  21: 11.19  22:  9.97  23: 11.16  24: 10.95
  25: 11.70  26: 11.74  27: 10.69  28: 10.43  29: 10.73  30: 11.59  31: 11.57  32: 11.19
  33: 11.71  34: 11.11  35: 11.50  36: 10.85  37: 10.08  38: 11.17  39: 11.27  40:  9.96
  41: 11.29  42: 10.60  43: 10.62  44: 11.17  45:  9.70  46:  9.83  47: 11.09  48: 10.49
  49: 10.49  50: 10.94  51: 10.94  52: 11.06  53: 10.13  54: 10.12  55: 10.85  56: 10.84
  57: 12.22  58: 11.88  59: 11.85  60: 11.42  61: 11.40  62: 11.96  63: 11.46  64: 11.46
  65: 11.63  66: 11.55  67: 11.56  68: 11.53  69: 11.63  70: 11.62  71: 11.80  72: 11.80
  73: 11.41  74: 11.44  75:  3.55  76:  3.54  77:  3.28  78:  3.30  79:  4.44  80:  4.54
  81: 12.47  82: 12.39  83:  4.04  84:  3.37  85: 10.52  86: 12.42  87: 12.42  88:  3.33
  89:  3.32  90:  3.34  91:  3.36  92:  3.72  93:  3.73  94:  3.86  95:  3.86  96: 11.72
  97: 11.73  98:  6.56  99:  6.04 100:  6.01 101:  5.14 102:  3.66 103:  8.45 104:  3.21
 105:  3.14 106:  3.21 107:  3.21 108:  8.94 109:  8.49 110:  5.45 111:  5.45 112:  5.97
 113:  5.96 114:  8.13 115:  8.12 116:  8.63 117:  8.54 118:  3.95 119:  3.75 120:  7.69
 121:  4.23 122:  3.26 123:  1.79 124:  1.80 125:  1.90 126:  3.79 127:  6.25 128:  5.83
 129:  7.51 130:  7.50 131:  6.81 132:  8.31 133:  4.92 134:  4.94 135:  4.94 136:  4.79
 137:  4.43 138:  4.64 139: 10.14 140: 10.36 141: 10.10 142: 10.79 143: 10.99 144: 11.29
 145: 10.57 146: 10.42 147: 11.22 148: 11.48 149: 10.35 150:  8.81 151: 10.38 152:  9.41
 153:  9.41 154:  8.38 155:  9.68 156:  9.69 157:  9.88 158:  9.88 159: 11.28 160: 11.26
 161: 10.17 162: 10.18 163: 11.21 164: 11.39 165: 11.39 166: 11.39 167: 11.48 168: 11.48
 169: 11.57 170: 11.59 171: 11.55 172: 11.61 173: 11.57 174: 12.01 175:  1.78 176:  1.78
 177:  1.78 178:  1.78 179:  1.87 180:  1.87 181:  1.87 182:  1.87 183:  1.77 184:  1.77
 185:  1.77 186:  1.77 187:  1.82 188:  1.82 189:  1.82 190:  1.82 191:  1.87 192:  1.87
 193:  1.87 194:  1.86 195:  1.88 196:  1.88 197:  1.88 198:  1.88
 IR intensities (km·mol⁻¹)
   1:  6.24   2: 12.56   3:  0.14   4:  0.05   5:  7.37   6:  1.40   7:  1.75   8:  0.97
   9:  4.53  10:  1.60  11:  1.49  12:  7.19  13:  0.88  14:  1.73  15: 23.68  16:  0.94
  17:  0.27  18:  0.20  19:  0.74  20:273.46  21:  0.90  22:  0.06  23:  0.43  24: 49.63
  25:  1.80  26:  0.95  27:  0.19  28:  3.60  29:  5.13  30: 10.44  31:  1.08  32:  2.55
  33:120.42  34:  0.72  35:  0.17  36: 99.20  37:125.12  38:  2.86  39:  0.28  40:  0.65
  41:194.94  42:  3.77  43:  2.53  44:  2.42  45:  3.14  46:  5.37  47:  0.77  48:  3.31
  49:  7.99  50:  4.82  51:  9.99  52:  1.00  53: 24.11  54:  6.11  55: 28.55  56:  5.94
  57:230.30  58:  4.97  59:  6.84  60:  0.47  61:  3.39  62:  3.74  63:  3.40  64:  1.74
  65:184.08  66:  2.52  67:  6.97  68:  0.34  69:  5.10  70:  0.77  71:  0.30  72:  1.13
  73:154.83  74:  1.17  75:103.06  76: 91.73  77: 94.78  78:101.86  79: 13.38  80: 17.76
  81:222.47  82:  0.04  83:456.31  84:  0.48  85: 30.14  86: 12.37  87: 19.19  88: 13.12
  89: 58.60  90: 80.48  91:956.96  92: 30.44  93: 12.19  94:  0.87  95:  3.24  96: 42.25
  97:  2.13  98:  9.87  99: 20.91 100: 38.15 101:  9.52 102: 24.31 103: 21.13 104:  2.87
 105: 43.49 106:  3.10 107: 10.29 108:  0.00 109: 40.36 110: 93.72 111: 53.33 112:679.54
 113: 34.91 114:  4.38 115:  6.38 116:616.35 117:  2.38 118:  0.38 119:  0.75 120: 54.64
 121:****** 122: 24.78 123:  6.17 124: 23.07 125: 19.07 126: 12.60 127:****** 128:  0.41
 129: 56.61 130: 63.73 131:****** 132:  9.62 133: 24.78 134: 14.26 135: 29.33 136: 22.41
 137:500.69 138:  5.22 139:507.61 140:225.13 141:588.09 142:  0.52 143:268.18 144: 43.42
 145: 57.33 146: 20.28 147:****** 148:  0.23 149:  3.04 150: 87.97 151:  9.68 152: 21.15
 153:  4.52 154:  8.30 155: 30.88 156:  0.09 157:178.91 158:492.82 159:  4.87 160: 37.06
 161:****** 162:  8.12 163:  0.49 164: 36.80 165: 16.29 166: 58.01 167:  2.51 168:  4.63
 169:****** 170:  0.24 171:  0.09 172:106.29 173:  1.20 174:  1.18 175: 11.82 176: 35.32
 177:156.96 178:  0.79 179:364.84 180:  0.31 181:307.21 182:  0.01 183:  5.35 184: 29.82
 185:  6.54 186:  6.76 187: 49.40 188: 96.61 189:  3.29 190: 13.28 191: 34.69 192: 22.02
 193:854.73 194: 34.91 195: 31.14 196: 76.65 197:249.93 198:  7.36
 Raman intensities (Ä⁴*amu⁻¹)
   1:  0.00   2:  0.00   3:  0.00   4:  0.00   5:  0.00   6:  0.00   7:  0.00   8:  0.00
   9:  0.00  10:  0.00  11:  0.00  12:  0.00  13:  0.00  14:  0.00  15:  0.00  16:  0.00
  17:  0.00  18:  0.00  19:  0.00  20:  0.00  21:  0.00  22:  0.00  23:  0.00  24:  0.00
  25:  0.00  26:  0.00  27:  0.00  28:  0.00  29:  0.00  30:  0.00  31:  0.00  32:  0.00
  33:  0.00  34:  0.00  35:  0.00  36:  0.00  37:  0.00  38:  0.00  39:  0.00  40:  0.00
  41:  0.00  42:  0.00  43:  0.00  44:  0.00  45:  0.00  46:  0.00  47:  0.00  48:  0.00
  49:  0.00  50:  0.00  51:  0.00  52:  0.00  53:  0.00  54:  0.00  55:  0.00  56:  0.00
  57:  0.00  58:  0.00  59:  0.00  60:  0.00  61:  0.00  62:  0.00  63:  0.00  64:  0.00
  65:  0.00  66:  0.00  67:  0.00  68:  0.00  69:  0.00  70:  0.00  71:  0.00  72:  0.00
  73:  0.00  74:  0.00  75:  0.00  76:  0.00  77:  0.00  78:  0.00  79:  0.00  80:  0.00
  81:  0.00  82:  0.00  83:  0.00  84:  0.00  85:  0.00  86:  0.00  87:  0.00  88:  0.00
  89:  0.00  90:  0.00  91:  0.00  92:  0.00  93:  0.00  94:  0.00  95:  0.00  96:  0.00
  97:  0.00  98:  0.00  99:  0.00 100:  0.00 101:  0.00 102:  0.00 103:  0.00 104:  0.00
 105:  0.00 106:  0.00 107:  0.00 108:  0.00 109:  0.00 110:  0.00 111:  0.00 112:  0.00
 113:  0.00 114:  0.00 115:  0.00 116:  0.00 117:  0.00 118:  0.00 119:  0.00 120:  0.00
 121:  0.00 122:  0.00 123:  0.00 124:  0.00 125:  0.00 126:  0.00 127:  0.00 128:  0.00
 129:  0.00 130:  0.00 131:  0.00 132:  0.00 133:  0.00 134:  0.00 135:  0.00 136:  0.00
 137:  0.00 138:  0.00 139:  0.00 140:  0.00 141:  0.00 142:  0.00 143:  0.00 144:  0.00
 145:  0.00 146:  0.00 147:  0.00 148:  0.00 149:  0.00 150:  0.00 151:  0.00 152:  0.00
 153:  0.00 154:  0.00 155:  0.00 156:  0.00 157:  0.00 158:  0.00 159:  0.00 160:  0.00
 161:  0.00 162:  0.00 163:  0.00 164:  0.00 165:  0.00 166:  0.00 167:  0.00 168:  0.00
 169:  0.00 170:  0.00 171:  0.00 172:  0.00 173:  0.00 174:  0.00 175:  0.00 176:  0.00
 177:  0.00 178:  0.00 179:  0.00 180:  0.00 181:  0.00 182:  0.00 183:  0.00 184:  0.00
 185:  0.00 186:  0.00 187:  0.00 188:  0.00 189:  0.00 190:  0.00 191:  0.00 192:  0.00
 193:  0.00 194:  0.00 195:  0.00 196:  0.00 197:  0.00 198:  0.00
 output can be read by thermo (or use thermo option).
 writing <g98.out> molden fake output.
 recommended (thermochemical) frequency scaling factor: 1.0
           -------------------------------------------------
          |             Thermodynamic Functions             |
           -------------------------------------------------

Molecule has the following symmetry elements: 3*(C2) 
It seems to be the D2 point group
d2  symmetry found (for desy threshold:  0.10E+00) used in thermo

          ...................................................
          :                      SETUP                      :
          :.................................................:
          :  # frequencies                         192      :
          :  # imaginary freq.                       0      :
          :  linear?                             false      :
          :  only rotor calc.                    false      :
          :  symmetry                               d2      :
          :  rotational number                       4      :
          :  scaling factor                  1.0000000      :
          :  rotor cutoff                   50.0000000 cm⁻¹ :
          :  imag. cutoff                  -20.0000000 cm⁻¹ :
          :.................................................:

    mode    ω/cm⁻¹     T·S(HO)/kcal·mol⁻¹    T·S(FR)/kcal·mol⁻¹   T·S(vib)
   ------------------------------------------------------------------------
       1     11.01    -2.33155 (  0.23%)    -1.50483 ( 99.77%)    -1.50677
       2     11.92    -2.28470 (  0.32%)    -1.48140 ( 99.68%)    -1.48399
       3     19.42    -1.99527 (  2.23%)    -1.33663 ( 97.77%)    -1.35130
       4     26.00    -1.82260 (  6.82%)    -1.25021 ( 93.18%)    -1.28924
       5     26.09    -1.82069 (  6.90%)    -1.24926 ( 93.10%)    -1.28869
       6     39.98    -1.56823 ( 29.03%)    -1.12276 ( 70.97%)    -1.25206
       7     62.15    -1.30822 ( 70.47%)    -0.99212 ( 29.53%)    -1.21489
       8     65.45    -1.27779 ( 74.59%)    -0.97678 ( 25.41%)    -1.20131
       9     68.14    -1.25417 ( 77.52%)    -0.96487 ( 22.48%)    -1.18913
      10     73.66    -1.20844 ( 82.49%)    -0.94178 ( 17.51%)    -1.16174
      11     85.84    -1.11890 ( 89.68%)    -0.89646 ( 10.32%)    -1.09593
      12     92.62    -1.07452 ( 92.17%)    -0.87392 (  7.83%)    -1.05882
      13    106.78    -0.99185 ( 95.41%)    -0.83179 (  4.59%)    -0.98451
      14    119.06    -0.92892 ( 96.98%)    -0.79954 (  3.02%)    -0.92502
      15    119.29    -0.92781 ( 97.01%)    -0.79897 (  2.99%)    -0.92396
      16    126.89    -0.89225 ( 97.65%)    -0.78066 (  2.35%)    -0.88963
      17    187.65    -0.67111 ( 99.50%)    -0.66475 (  0.50%)    -0.67108
      18    193.72    -0.65351 ( 99.56%)    -0.65531 (  0.44%)    -0.65352
      19    197.46    -0.64300 ( 99.59%)    -0.64966 (  0.41%)    -0.64302
      20    202.51    -0.62914 ( 99.63%)    -0.64217 (  0.37%)    -0.62919
      21    242.80    -0.53139 ( 99.82%)    -0.58843 (  0.18%)    -0.53149
      22    250.38    -0.51516 ( 99.84%)    -0.57931 (  0.16%)    -0.51527
      23    257.80    -0.49987 ( 99.86%)    -0.57066 (  0.14%)    -0.49997
      24    273.77    -0.46878 ( 99.89%)    -0.55286 (  0.11%)    -0.46887
      25    275.08    -0.46633 ( 99.89%)    -0.55145 (  0.11%)    -0.46642
      26    279.05    -0.45900 ( 99.90%)    -0.54720 (  0.10%)    -0.45910
      27    297.64    -0.42639 ( 99.92%)    -0.52809 (  0.08%)    -0.42647
   ------------------------------------------------------------------------

   temp. (K)  partition function   enthalpy   heat capacity  entropy
                                   cal/mol     cal/K/mol   cal/K/mol   J/K/mol
 298.15  VIB  0.544E+15            19194.904    123.426    118.435
         ROT  0.230E+08              888.752      2.981     36.666
         INT  0.125E+23            20083.657    126.407    155.101
         TR   0.122E+29             1481.254      4.968     44.728
         TOT                       21564.9105   131.3748   199.8292   836.0855

       T/K    H(0)-H(T)+PV         H(T)/Eh          T*S/Eh         G(T)/Eh
   ------------------------------------------------------------------------
    298.15    0.343659E-01    0.526333E+00    0.949453E-01    0.431388E+00
   ------------------------------------------------------------------------

         :::::::::::::::::::::::::::::::::::::::::::::::::::::
         ::                  THERMODYNAMIC                  ::
         :::::::::::::::::::::::::::::::::::::::::::::::::::::
         :: total free energy        -107.108617031769 Eh   ::
         ::.................................................::
         :: total energy             -107.540004972931 Eh   ::
         :: zero point energy           0.491967386943 Eh   ::
         :: G(RRHO) w/o ZPVE           -0.060579445780 Eh   ::
         :: G(RRHO) contrib.            0.431387941162 Eh   ::
         :::::::::::::::::::::::::::::::::::::::::::::::::::::

optimized geometry written to: xtbopt.xyz


           -------------------------------------------------
          | TOTAL ENERGY             -107.540004972931 Eh   |
          | TOTAL ENTHALPY           -107.013671713677 Eh   |
          | TOTAL FREE ENERGY        -107.108617031769 Eh   |
          | GRADIENT NORM               0.000056408279 Eh/α |
          | HOMO-LUMO GAP               0.377476145154 eV   |
           -------------------------------------------------

------------------------------------------------------------------------
 * finished run on 2025/09/09 at 21:49:20.346     
------------------------------------------------------------------------
 total:
 * wall-time:     0 d,  0 h,  0 min,  3.356 sec
 *  cpu-time:     0 d,  0 h,  2 min,  6.627 sec
 * ratio c/w:    37.737 speedup
 SCF:
 * wall-time:     0 d,  0 h,  0 min,  0.203 sec
 *  cpu-time:     0 d,  0 h,  0 min,  7.771 sec
 * ratio c/w:    38.338 speedup
 ANC optimizer:
 * wall-time:     0 d,  0 h,  0 min,  0.677 sec
 *  cpu-time:     0 d,  0 h,  0 min, 27.092 sec
 * ratio c/w:    39.996 speedup
 analytical hessian:
 * wall-time:     0 d,  0 h,  0 min,  2.279 sec
 *  cpu-time:     0 d,  0 h,  1 min, 24.617 sec
 * ratio c/w:    37.131 speedup

