$hessian                                                                        
        0.4425593558   0.0493441927   0.0200551868  -0.1506444404   0.0636154938
        0.0125857714  -0.0409668903   0.0092544522  -0.0035273530  -0.0037818829
       -0.0017496521  -0.0024015998  -0.0014275987   0.0020279587   0.0005865325
       -0.0014130674  -0.0005533713  -0.0006981572  -0.0003150921   0.0000097457
       -0.0002363392   0.0017108407   0.0003265279   0.0010257358  -0.0000598251
        0.0000073165   0.0000356962   0.0001729312  -0.0002062303  -0.0000572493
        0.0000644062   0.0000453870   0.0000500294  -0.0000854682   0.0000301455
        0.0000059306  -0.0001363535  -0.0000381110  -0.0000540719   0.0003046995
       -0.0001963303  -0.0001424513   0.0013983752   0.0005856658   0.0007950437
       -0.0006628815   0.0002822691   0.0000144123   0.0001326447  -0.0000588449
        0.0000505018  -0.0002334088  -0.0001072389   0.0000767819   0.0000045178
        0.0000858489  -0.0000345683  -0.0001686958   0.0000267082  -0.0000151726
        0.0001764140  -0.0000099875  -0.0000749615  -0.0000642267  -0.0001006270
        0.0000897035   0.0000132494   0.0001384573   0.0000254681  -0.0000495453
       -0.0000131920   0.0000573312  -0.0000019947   0.0000135396   0.0000169365
       -0.0000037618  -0.0000136072   0.0000112746   0.0000273985   0.0000313530
        0.0000241558  -0.0000305375  -0.0000260960   0.0000270830   0.0000195904
       -0.0000236506   0.0000001603   0.0000026109  -0.0000162562  -0.0000027067
       -0.0000257468   0.0000227945   0.0000119837   0.0000204105   0.0000007804
       -0.0000066109  -0.0000126593  -0.0000527527   0.0000144764   0.0000661630
       -0.0000256187  -0.0001067935   0.0000564382  -0.0000276961   0.0000054153
       -0.0000028120  -0.0000053256  -0.0000024310   0.0000101394   0.0000066101
       -0.0000098374  -0.0000079467  -0.0000018292  -0.0000066149  -0.0000081055
       -0.0000083570  -0.0000060224   0.0000196862   0.0000035356  -0.0000052249
       -0.0000309088  -0.0000051266  -0.0000041148   0.0001553813   0.0000857496
       -0.0000643485  -0.0492474184  -0.0003251275   0.0434455968  -0.1517431249
       -0.0925379792  -0.0820071636  -0.0439741737  -0.0291458678   0.0114170262
       -0.0000799227  -0.0004452668  -0.0003072034  -0.0003725431  -0.0002584532
       -0.0002383771  -0.0013056096  -0.0001359960  -0.0003274899  -0.0000300089
        0.0000517610   0.0000202521  -0.0000122182   0.0000409384   0.0000208076
        0.0000209455   0.0000294105   0.0000229037   0.0000574017  -0.0000126641
        0.0000082216  -0.0000174418   0.0000021503  -0.0000001519   0.0000052175
       -0.0000156921   0.0000004390  -0.0000005118   0.0000169171  -0.0000237112
       -0.0000151215   0.0000098295  -0.0000119481  -0.0000063754   0.0000174856
       -0.0000132288  -0.0000090233   0.0000035764  -0.0000162644   0.0000018084
       -0.0000166988  -0.0000194262   0.0000076155   0.0000037579   0.0000011105
        0.0000048040   0.0000107297  -0.0000066901   0.0000015476   0.0000141796
       -0.0000330027  -0.0000040912   0.0000025336  -0.0000020856  -0.0000050612
       -0.0000030345  -0.0000118806  -0.0000142134   0.0000047429  -0.0000105497
       -0.0000162878  -0.0000004365  -0.0000090957  -0.0000162058  -0.0000044854
       -0.0000060084  -0.0000113905  -0.0000109414  -0.0000010621
        0.0493441927   0.4811528754   0.0113621102   0.0772450362  -0.1225077870
       -0.0272427918  -0.0043305555   0.0107899656   0.0081144890  -0.0004632768
       -0.0007166922  -0.0012369139  -0.0007148485  -0.0005141856  -0.0013280539
        0.0008847107   0.0010121147   0.0006320289   0.0003475869   0.0010968351
        0.0001972135  -0.0027664091  -0.0003361677   0.0000791674   0.0000197941
       -0.0000737605  -0.0000106198  -0.0000227705   0.0002158214   0.0001211263
       -0.0000825085  -0.0000196790  -0.0000295414   0.0001274553  -0.0000661397
       -0.0000127058   0.0001010798   0.0000646748   0.0000617778  -0.0001254804
        0.0000661712   0.0000705716  -0.0012433898  -0.0003837182  -0.0004041868
        0.0005238208  -0.0002437713   0.0000253136  -0.0001061722   0.0000678813
       -0.0000435993   0.0002033350   0.0001032058  -0.0000793142   0.0000040513
       -0.0000896608   0.0000373829   0.0001374214  -0.0000285194   0.0000130988
       -0.0001372272   0.0000053274   0.0000530403   0.0000176573   0.0001029640
       -0.0000520094  -0.0000162333  -0.0001069197  -0.0000097347   0.0000505916
        0.0000168462  -0.0000644455   0.0000060936  -0.0000223851  -0.0000224239
       -0.0000118844   0.0000020550  -0.0000164808  -0.0000425819  -0.0000252921
       -0.0000316155   0.0000243509   0.0000234254  -0.0000196546  -0.0000152288
        0.0000055431   0.0000009310  -0.0000065622   0.0000048828  -0.0000178020
        0.0000074950  -0.0000294465  -0.0000036079  -0.0000080922   0.0000066707
        0.0000092324   0.0000164144   0.0000359871  -0.0000097817  -0.0000187022
        0.0000140552   0.0000672474  -0.0000425416   0.0000123582  -0.0000010846
        0.0000007743   0.0000047591   0.0000016573  -0.0000027587  -0.0000076579
        0.0000089194   0.0000060135  -0.0000028241   0.0000066638   0.0000116983
        0.0000015885   0.0000046361  -0.0000175861  -0.0000000400   0.0000012333
        0.0000357212  -0.0000027418   0.0000007076  -0.0001515547  -0.0000682565
        0.0000547924  -0.0004183008  -0.0427818821  -0.0111918288  -0.0872714821
       -0.1104007880  -0.0611639843  -0.0294211962  -0.2164616851   0.0820441295
        0.0000526786   0.0003251861   0.0002153645  -0.0001451153   0.0000710912
        0.0000995997  -0.0015241026  -0.0002409288  -0.0003250184  -0.0000226172
       -0.0000356614  -0.0000578156  -0.0000063830  -0.0000386973  -0.0000235813
       -0.0000363573  -0.0000223070  -0.0000251628  -0.0000554206   0.0000140980
       -0.0000141520   0.0000049118   0.0000007715  -0.0000022028  -0.0000041394
        0.0000098796   0.0000012278   0.0000021391  -0.0000125302   0.0000199272
        0.0000120213  -0.0000054011   0.0000144692   0.0000111764  -0.0000117371
        0.0000127382   0.0000091561  -0.0000052127   0.0000247543  -0.0000052084
        0.0000214170   0.0000221520  -0.0000052546   0.0000044894   0.0000067766
       -0.0000031302  -0.0000031494   0.0000055748  -0.0000081232  -0.0000079210
        0.0000253427   0.0000023911   0.0000006715   0.0000020904   0.0000031802
        0.0000046073   0.0000076357   0.0000106471  -0.0000037680   0.0000074230
        0.0000131660   0.0000008817   0.0000055202   0.0000101554   0.0000072998
        0.0000018641   0.0000062779   0.0000109135   0.0000001827
        0.0200551868   0.0113621102   0.4952060343   0.0213660900  -0.0310045897
       -0.0600345596  -0.0120782210   0.0116640460  -0.0000162643  -0.0015184451
       -0.0015464928  -0.0002889801  -0.0011388350  -0.0006124220   0.0006553023
        0.0000522056   0.0003438671   0.0005121234  -0.0000030652   0.0001352619
        0.0009237993  -0.0010286748   0.0008181956  -0.0012189910   0.0000020816
       -0.0000309681  -0.0001029801   0.0000268400   0.0000979339   0.0000381658
       -0.0000413624   0.0000116171  -0.0000113004   0.0000706942  -0.0000383663
       -0.0000045464   0.0000187569   0.0000325402   0.0000293345   0.0000253757
       -0.0000833031   0.0000140597  -0.0003590694   0.0001277021  -0.0003487559
        0.0001811008  -0.0000883378  -0.0000331156  -0.0000481537   0.0000147553
       -0.0000130050   0.0000725558   0.0000258456  -0.0000110746   0.0000116976
       -0.0000123821  -0.0000009690   0.0000314874  -0.0000164636   0.0000023563
       -0.0000722117  -0.0000011794   0.0000392033   0.0000479767   0.0000578108
       -0.0000241647  -0.0000200146  -0.0000538925  -0.0000132393   0.0000094191
        0.0000098810  -0.0000208985  -0.0000029041  -0.0000039309  -0.0000096291
        0.0000258119  -0.0000007391  -0.0000185405  -0.0000197098  -0.0000289779
        0.0000156818  -0.0000010574  -0.0000034981   0.0000008924  -0.0000063531
        0.0000260163   0.0000206761   0.0000197838  -0.0000222587   0.0000198545
        0.0000367765  -0.0000189023   0.0000112360   0.0000166392  -0.0000163106
       -0.0000172862  -0.0000024565  -0.0000213978  -0.0000217484  -0.0000570295
        0.0000196793   0.0000356711  -0.0000038011   0.0000001033   0.0000005443
        0.0000023524  -0.0000002256  -0.0000001359  -0.0000014533  -0.0000057248
        0.0000035202   0.0000044870   0.0000018853   0.0000004141  -0.0000002321
        0.0000043622   0.0000069739  -0.0000012798  -0.0000017171  -0.0000076342
        0.0000125020  -0.0000010076   0.0000061123  -0.0000401897  -0.0000122900
        0.0000035155   0.0427048323  -0.0117149044  -0.2513913023  -0.0788234444
       -0.0624735306  -0.1009939764   0.0117514369   0.0828088993  -0.0822628717
        0.0000128617   0.0000995007   0.0000447996  -0.0001447731   0.0000504493
       -0.0001484137  -0.0010777018   0.0000514405  -0.0005943002  -0.0000319449
       -0.0000328166   0.0000136276  -0.0000077956  -0.0000124655  -0.0000126806
       -0.0000188175  -0.0000056746  -0.0000090831  -0.0000226344   0.0000029403
        0.0000008162   0.0000063691   0.0000074801  -0.0000004034  -0.0000070498
        0.0000064041   0.0000023464   0.0000108579  -0.0000039214   0.0000060493
        0.0000068785  -0.0000052210   0.0000032884  -0.0000007179   0.0000042868
        0.0000101329   0.0000105355   0.0000349772   0.0000004165  -0.0000007394
        0.0000340088  -0.0000134970  -0.0000092087  -0.0000028080  -0.0000138916
       -0.0000132634   0.0000024404   0.0000032026  -0.0000020139   0.0000117188
        0.0000114292  -0.0000038939   0.0000017580  -0.0000003654  -0.0000009329
        0.0000012271   0.0000052876   0.0000021317  -0.0000010304   0.0000039332
        0.0000054028  -0.0000000299   0.0000036025   0.0000058780   0.0000018284
        0.0000028644   0.0000024454   0.0000048069   0.0000013369
       -0.1506444404   0.0772450362   0.0213660900   0.4579196831  -0.0503204100
        0.0709804849  -0.1779727315  -0.0602621297  -0.0748683039  -0.0490336991
       -0.0038056895  -0.0157293072  -0.0024470904   0.0018963030  -0.0002823634
        0.0088715241   0.0015581682   0.0028042836  -0.0032844670   0.0010400072
       -0.0023497620  -0.0110183207  -0.0112008758  -0.0105085386   0.0004876705
        0.0013507486   0.0006201682  -0.0009747823   0.0006666142   0.0000886544
        0.0000517821   0.0000651454   0.0000707246   0.0000357742   0.0001812210
        0.0000446520   0.0005342182  -0.0002769105  -0.0000515881  -0.0023198044
        0.0017789124   0.0011694537  -0.0085666879  -0.0042849018  -0.0045795992
        0.0037368832  -0.0019414061   0.0000895380  -0.0010011647   0.0003214731
       -0.0002162284   0.0013781957   0.0006868627  -0.0004400727   0.0000144759
       -0.0004331142   0.0001619814   0.0006770343  -0.0001312741   0.0001228926
       -0.0008921938   0.0002915582   0.0002859982   0.0004652121   0.0007111458
       -0.0003996361  -0.0002226513  -0.0008221741  -0.0001153970   0.0001315687
        0.0002389220  -0.0001258663   0.0000553476  -0.0000722390  -0.0001199962
        0.0000723824  -0.0000569095  -0.0000522440  -0.0001429471  -0.0000634275
        0.0000849269   0.0001285407  -0.0000167534  -0.0000979950   0.0000262407
        0.0000997403   0.0000349114  -0.0000833299  -0.0001481945   0.0000274927
        0.0000072225   0.0001102709   0.0000846262  -0.0000433992   0.0001687192
        0.0000377052   0.0000455335   0.0000971731  -0.0002280563  -0.0004078282
        0.0000721280   0.0005530287  -0.0001731281  -0.0000103024   0.0000239738
        0.0000130722   0.0001730068  -0.0000572608   0.0000012159  -0.0000762475
        0.0000470650  -0.0000082469   0.0000000196   0.0000223890   0.0000466268
        0.0000260871   0.0000020545  -0.0001682883   0.0000262659   0.0000242237
        0.0005246407  -0.0001801456   0.0000421307  -0.0012620385  -0.0004430344
        0.0002853686  -0.0220272318   0.0146566700   0.0145700234  -0.0333501352
        0.0134507386  -0.0003795605  -0.0082946947   0.0185965288  -0.0033394472
        0.0013927792  -0.0008016576   0.0005409080  -0.0015103822  -0.0000205385
       -0.0004121268  -0.0007985558   0.0004890281   0.0006357363   0.0001961680
       -0.0001182850  -0.0000379542   0.0000648930  -0.0003420626  -0.0001817378
       -0.0001728751  -0.0002481619  -0.0001889169  -0.0003401060  -0.0000323964
       -0.0001385478   0.0000894533  -0.0000190027  -0.0000348065  -0.0000652152
        0.0001057614  -0.0000564410   0.0000151864  -0.0000970606   0.0000302612
       -0.0000299544   0.0000152635   0.0000730660   0.0000249270   0.0000715587
        0.0000429828   0.0000763593   0.0000506989  -0.0000325583   0.0000695059
        0.0000645249  -0.0000516212   0.0000304814  -0.0000498283  -0.0000671839
       -0.0000105800  -0.0000880564   0.0000106389   0.0000371678  -0.0000464854
        0.0001158833  -0.0000436653   0.0000114110  -0.0000750671  -0.0000312738
        0.0000687091   0.0000744181   0.0000355997   0.0000142399   0.0000080992
        0.0000146206   0.0000066688   0.0000176227   0.0000198891  -0.0000009226
        0.0000192093   0.0000500335   0.0000032669   0.0000045174
        0.0636154938  -0.1225077870  -0.0310045897  -0.0503204100   0.2573686226
        0.1089172092  -0.0390204312  -0.0992760268  -0.0507315374   0.0162204645
        0.0095610711   0.0081462809   0.0028882734  -0.0021361136  -0.0030600478
        0.0026483723   0.0011553617   0.0012413039   0.0011381959  -0.0034417528
       -0.0059819168  -0.0321983134  -0.0148718765  -0.0200910713  -0.0009589745
        0.0002738563  -0.0005319825  -0.0004642546   0.0003026436   0.0000595745
       -0.0000383935  -0.0000724179  -0.0000224279   0.0000042965   0.0001167941
        0.0000276026   0.0000836794  -0.0000634893   0.0000120169  -0.0009412773
        0.0002656989   0.0004430731  -0.0029125456  -0.0017087798  -0.0014204003
        0.0012996922  -0.0006778600   0.0000668781  -0.0003430141   0.0000920403
       -0.0000565509   0.0004149396   0.0001806026  -0.0001500703  -0.0000206121
       -0.0001213755   0.0000449408   0.0002616802  -0.0000150441   0.0000364583
       -0.0003764360   0.0001100820   0.0000719383   0.0003040296   0.0002875376
       -0.0000970751  -0.0001764975  -0.0004181731  -0.0001134310   0.0000135338
        0.0000923597   0.0000481355  -0.0000325447  -0.0000099191   0.0000095266
        0.0000600068   0.0000153017   0.0000248744  -0.0000103907  -0.0000007069
        0.0000644833   0.0000787215  -0.0000457433  -0.0000668437  -0.0000272712
        0.0000132010   0.0000401184  -0.0000333669  -0.0000839462   0.0000190976
        0.0000367988   0.0000918279   0.0000344269  -0.0000941686   0.0000503415
        0.0000419867   0.0000101238   0.0000439036  -0.0000854092  -0.0002186022
        0.0000342892   0.0001779215  -0.0000559742   0.0000127176   0.0000062750
        0.0000012034   0.0000654832  -0.0000250721   0.0000025383  -0.0000253941
        0.0000142547  -0.0000039474   0.0000044113   0.0000009639   0.0000099170
        0.0000065503  -0.0000001547  -0.0000613743   0.0000082826   0.0000009507
        0.0001846265  -0.0000781726   0.0000094596  -0.0004265493  -0.0001334804
        0.0000863345   0.0136003608  -0.0066985394  -0.0091076851  -0.0093968796
        0.0086731916   0.0022846977   0.0347732411  -0.0276975160  -0.0027113420
       -0.0007844527   0.0002435665   0.0016635829   0.0009042346   0.0001654261
        0.0002291014   0.0003431601   0.0010489973   0.0018091519   0.0001005918
       -0.0000035159   0.0000330434   0.0000357516  -0.0001208854  -0.0000727918
       -0.0000484397  -0.0000976035  -0.0000723474  -0.0001486176  -0.0000604820
       -0.0000502618   0.0000347181  -0.0000105364  -0.0000228994  -0.0000456538
        0.0000384036  -0.0000340126   0.0000058906  -0.0000182494  -0.0000219583
       -0.0000162141   0.0000077732   0.0000052253  -0.0000070436   0.0000450908
       -0.0000029614   0.0000243896   0.0000414151  -0.0000601751   0.0000551863
        0.0000313822  -0.0000686689   0.0000250147  -0.0000294380  -0.0000323847
        0.0000114095  -0.0000247082   0.0000060827   0.0000439520  -0.0000195103
        0.0000298756  -0.0000265772   0.0000017454  -0.0000318936  -0.0000260172
        0.0000214557   0.0000242583   0.0000011595   0.0000083109  -0.0000045714
       -0.0000082743   0.0000006344  -0.0000001375  -0.0000053571  -0.0000052495
        0.0000020908   0.0000132282  -0.0000060804  -0.0000005247
        0.0125857714  -0.0272427918  -0.0600345596   0.0709804849   0.1089172092
        0.1464747265  -0.0612213323  -0.0561393049  -0.0845560298  -0.0035163378
        0.0027000834   0.0045243353   0.0002040196  -0.0032392649   0.0018331615
        0.0039693203   0.0010895486   0.0013879259  -0.0022814891  -0.0058421939
        0.0026237531  -0.0232878292  -0.0143790728  -0.0110983068  -0.0006512547
        0.0001334026   0.0004425843  -0.0005322148   0.0003841398   0.0000253234
       -0.0000021305  -0.0000156673  -0.0000336493  -0.0000075040   0.0001043532
        0.0000723067   0.0002103645  -0.0000774981  -0.0000664766  -0.0010647699
        0.0009115021   0.0000465699  -0.0039233243  -0.0018521546  -0.0025177174
        0.0018149259  -0.0009317449  -0.0000543122  -0.0004673184   0.0001175921
       -0.0000729059   0.0006839479   0.0003356976  -0.0002230786  -0.0000055234
       -0.0002026644   0.0000755243   0.0003390336  -0.0000351938   0.0000662591
       -0.0003720273   0.0002137130   0.0001076409   0.0001584387   0.0002556577
       -0.0001015195  -0.0000989889  -0.0003641084  -0.0000856342   0.0000514108
        0.0000722287  -0.0000230052   0.0000329564  -0.0000187382  -0.0000365843
        0.0000075969  -0.0000259493  -0.0000011078  -0.0000272647  -0.0000357819
       -0.0000017718   0.0000941977   0.0000268170  -0.0000436012   0.0000143826
        0.0000256821  -0.0000009254  -0.0000643544  -0.0000216281   0.0000207806
       -0.0000214005   0.0000735009   0.0000348436  -0.0000525134   0.0000905307
        0.0000384408   0.0000072174   0.0000937764  -0.0000745278  -0.0001198704
        0.0000153331   0.0002049618  -0.0000972677   0.0000050222   0.0000079275
        0.0000035800   0.0000923320  -0.0000349881  -0.0000033373  -0.0000387679
        0.0000234864  -0.0000046475   0.0000018952   0.0000079094   0.0000172036
        0.0000161606   0.0000060736  -0.0000830382   0.0000142649   0.0000073215
        0.0002675901  -0.0001034589   0.0000149008  -0.0006691727  -0.0002409185
        0.0001573793   0.0300032021  -0.0199470436  -0.0034616133  -0.0142823579
        0.0079448996   0.0022336793  -0.0096052495   0.0042103403   0.0040181059
        0.0005047994   0.0016511546  -0.0014428753   0.0001054872  -0.0000387009
        0.0002359655   0.0004527641   0.0016998481  -0.0004299867   0.0001218545
       -0.0000216103  -0.0000113660   0.0000318120  -0.0001799083  -0.0000655597
       -0.0000740044  -0.0001306646  -0.0000895231  -0.0001659944  -0.0000035436
       -0.0001348062   0.0000342727  -0.0000209279  -0.0000304409  -0.0000359825
        0.0000481495  -0.0000344295  -0.0000243628  -0.0000407032   0.0000098441
       -0.0000310768   0.0000224724   0.0000346123   0.0000110975   0.0000330266
        0.0000074600   0.0000160117  -0.0000124727   0.0000025144   0.0000388982
        0.0000010688  -0.0000021088   0.0000339408  -0.0000307596  -0.0000235296
        0.0000072514  -0.0000605147  -0.0000043662   0.0000094075  -0.0000499870
        0.0000421328  -0.0000258895   0.0000060777  -0.0000361173  -0.0000224680
        0.0000337209   0.0000298526   0.0000121470   0.0000092188  -0.0000017586
       -0.0000025318   0.0000034649   0.0000038006  -0.0000001715  -0.0000050286
        0.0000079200   0.0000196122  -0.0000051176  -0.0000008409
       -0.0409668903  -0.0043305555  -0.0120782210  -0.1779727315  -0.0390204312
       -0.0612213323   0.5677040532  -0.0587290872   0.0774978791  -0.2028151582
        0.1258588542   0.0402817012  -0.0586350051  -0.0063182344  -0.0188350210
       -0.0127841934   0.0194176255   0.0112078920   0.0168370419  -0.0250549172
       -0.0098711001  -0.0911141710  -0.0312156390  -0.0325367925  -0.0056983762
       -0.0047581497  -0.0058836397   0.0006182628   0.0013036058   0.0008930894
       -0.0011137631  -0.0008901349  -0.0007090426   0.0012028804  -0.0005256950
        0.0000898680  -0.0009344874   0.0006906830   0.0003886204   0.0029613568
       -0.0025327004  -0.0012609676   0.0048497377   0.0030715494   0.0030508430
       -0.0028249385   0.0017284225  -0.0000235194   0.0008418752  -0.0002457722
        0.0001167788  -0.0010583227  -0.0005326223   0.0003232158   0.0000488874
        0.0003492864  -0.0001399103  -0.0005552963   0.0000919186  -0.0000576429
        0.0006696059  -0.0003449079  -0.0001939361  -0.0005618031  -0.0006151486
        0.0002082767   0.0001429429   0.0005767161   0.0001686201  -0.0001972604
       -0.0001250737   0.0001565711  -0.0000697227   0.0000347621   0.0000961105
       -0.0000044584   0.0000500785   0.0000196695   0.0001975064   0.0001644588
       -0.0000677311  -0.0001381810   0.0000303976   0.0001244174   0.0000757650
       -0.0000526752  -0.0000997141   0.0001507520   0.0001308874  -0.0000734357
       -0.0000000229  -0.0001095740  -0.0000602150   0.0000679200  -0.0001640573
       -0.0000590071  -0.0000203702  -0.0002175777   0.0001451971   0.0001162923
       -0.0000645323  -0.0003063451   0.0001570150  -0.0000123059  -0.0000106266
        0.0000007834  -0.0001327888   0.0000498359   0.0000126426   0.0000661778
       -0.0000363073  -0.0000019793  -0.0000025463  -0.0000081735  -0.0000431420
       -0.0000268252   0.0000024000   0.0001480071  -0.0000151985  -0.0000160985
       -0.0004361935   0.0001638990  -0.0000245375   0.0010700535   0.0003627071
       -0.0002518158   0.0022595809  -0.0001825137  -0.0016862808  -0.0052925963
        0.0029227948   0.0002702484   0.0020018584  -0.0018147119   0.0013001377
        0.0026587925  -0.0003330942  -0.0007030491  -0.0023895885  -0.0005722866
       -0.0035783507   0.0006222652   0.0213976727   0.0129945452  -0.0002372764
       -0.0000051039  -0.0001233005  -0.0000802610   0.0003163493   0.0002032308
        0.0001835203   0.0002655956   0.0001604988   0.0003390133   0.0000169512
        0.0001246227  -0.0000909531   0.0000609047   0.0000110630   0.0000574361
       -0.0001005212   0.0000662464   0.0000794345   0.0000284873  -0.0000716892
        0.0000448629  -0.0000318312  -0.0000669341   0.0000138100  -0.0000883593
       -0.0000478706  -0.0000202193  -0.0000533124   0.0000524824  -0.0000419375
       -0.0000493846   0.0000766095  -0.0000299173   0.0000696260   0.0000653687
        0.0000075494   0.0000868684   0.0000008178  -0.0000190796   0.0000984304
       -0.0000511542   0.0000387725  -0.0000114408   0.0000755275   0.0000330480
       -0.0000700386  -0.0000600266  -0.0000219776  -0.0000195798   0.0000059219
        0.0000024265  -0.0000064731  -0.0000038334  -0.0000049421   0.0000109816
       -0.0000106722  -0.0000405361   0.0000091099  -0.0000000127
        0.0092544522   0.0107899656   0.0116640460  -0.0602621297  -0.0992760268
       -0.0561393049  -0.0587290872   0.5235487007   0.2307986037   0.0638836748
       -0.1476424378  -0.0464420241   0.0377386861   0.0362834516   0.0342109065
        0.0113150798  -0.0409845471  -0.0189236685  -0.0685450824  -0.0171933474
       -0.0273273891   0.0324646183  -0.2463023977  -0.1121359421   0.0038956699
        0.0128527045   0.0047064250   0.0008951578  -0.0055472450  -0.0029669083
        0.0035289659   0.0017784965   0.0023762014  -0.0032148215   0.0015079919
        0.0000191258  -0.0002103102  -0.0018609917  -0.0011146241  -0.0031204027
        0.0025252868  -0.0002194410   0.0076088680  -0.0001995495   0.0022203677
       -0.0026272094   0.0010612101   0.0000707543   0.0007779460  -0.0000965431
        0.0002047381  -0.0008675637  -0.0003112091   0.0002627521  -0.0000122958
        0.0002184979  -0.0000740423  -0.0003808435   0.0000542596  -0.0001361747
        0.0007772988  -0.0002751418  -0.0001562009  -0.0002748143  -0.0003792385
        0.0003677883   0.0000794167   0.0006099530  -0.0000333144  -0.0000110711
       -0.0001656061  -0.0000565786   0.0000227113   0.0000704010   0.0000333249
       -0.0000818785   0.0000281829   0.0000105107   0.0000498524  -0.0000239544
       -0.0001114937  -0.0001119960   0.0001000468   0.0000674690  -0.0000476677
       -0.0001240157  -0.0000022982   0.0000571232   0.0001335683  -0.0000159530
       -0.0000273311  -0.0001222929  -0.0000473274   0.0000246517  -0.0000738377
       -0.0000236317  -0.0001361262  -0.0000243255   0.0001140773   0.0004255611
       -0.0001596375  -0.0004577691   0.0000758257   0.0000251246  -0.0000145355
       -0.0000107886  -0.0001222154   0.0000449828  -0.0000063890   0.0000600573
       -0.0000283165   0.0000070297   0.0000032551  -0.0000090832  -0.0000294989
       -0.0000096832   0.0000052177   0.0000982715  -0.0000191511  -0.0000020539
       -0.0003657053   0.0001289323  -0.0000419782   0.0007720725   0.0002297679
       -0.0001556944   0.0001883809   0.0006784141  -0.0005282042   0.0027796109
       -0.0012116338  -0.0003861040   0.0013860869   0.0002596220   0.0007762282
        0.0197677225  -0.0178288255  -0.0067274014  -0.0013270014   0.0028960599
       -0.0037235208   0.0024298523  -0.0160242493  -0.0100888623  -0.0000086276
        0.0000495686  -0.0000615163  -0.0000097916   0.0000943139   0.0000909387
        0.0000513587   0.0000980628   0.0000711786   0.0000825914  -0.0000537883
       -0.0000505321   0.0000051503   0.0000230077   0.0000190491   0.0000489210
       -0.0000639189   0.0000343726  -0.0000429714   0.0000636316   0.0000116953
        0.0000016014  -0.0000000260  -0.0000255242  -0.0000105881  -0.0000367535
       -0.0000215061  -0.0000582434  -0.0000441859   0.0000413880  -0.0000414017
       -0.0000247053   0.0000494738  -0.0000043965   0.0000220112   0.0000328534
       -0.0000076431   0.0000420809   0.0000249820   0.0000362143   0.0000162663
       -0.0000655431   0.0000448865  -0.0000172938   0.0000524982   0.0000321007
       -0.0000372974  -0.0000469520  -0.0000113802  -0.0000140591  -0.0000027106
        0.0000061259  -0.0000029552  -0.0000084648   0.0000013114   0.0000097423
       -0.0000083609  -0.0000197910   0.0000104511  -0.0000009987
       -0.0035273530   0.0081144890  -0.0000162643  -0.0748683039  -0.0507315374
       -0.0845560298   0.0774978791   0.2307986037   0.2841572056   0.0009898977
       -0.0289415107  -0.0696147955   0.0086781612   0.0221567117   0.0145270884
        0.0048638755  -0.0166188832  -0.0143356020  -0.0366265609  -0.0162867379
       -0.0214544709   0.0068151012  -0.1303816117  -0.1195355791  -0.0009168785
        0.0032394030   0.0075770148   0.0006595784  -0.0031457685  -0.0014849301
        0.0020215757   0.0012163437   0.0007711942  -0.0016579130   0.0008110765
        0.0000266964  -0.0002786626  -0.0007778450  -0.0009874209  -0.0012698310
        0.0005165894  -0.0000238519   0.0058414986   0.0006668257   0.0021981290
       -0.0021817281   0.0011243852  -0.0000203536   0.0006287387  -0.0001305848
        0.0001554255  -0.0008617661  -0.0003957149   0.0002882866   0.0000069817
        0.0002523482  -0.0000992149  -0.0004218511   0.0000602764  -0.0001000694
        0.0004091001  -0.0003485715  -0.0000864829  -0.0000859170  -0.0003222783
        0.0002397892   0.0001023839   0.0004162992   0.0000907135  -0.0000928494
       -0.0001324687   0.0001053829  -0.0000000560   0.0000520060   0.0000776238
       -0.0000258498   0.0000261295   0.0000454409   0.0000736475   0.0000355891
        0.0000029454  -0.0000382256  -0.0000063424   0.0000999610  -0.0001080009
        0.0000202572  -0.0000014778   0.0000946039   0.0000266428  -0.0000071339
        0.0000149138  -0.0000757005  -0.0000075217   0.0000236857  -0.0000868395
       -0.0000150890  -0.0000822253  -0.0001464374   0.0000585782   0.0002172902
       -0.0000879313  -0.0003131771   0.0001218471  -0.0000012122  -0.0000014101
       -0.0000028706  -0.0001179490   0.0000429470   0.0000035584   0.0000505579
       -0.0000254605   0.0000030254  -0.0000013854  -0.0000097286  -0.0000334802
       -0.0000168326   0.0000007723   0.0001084419  -0.0000236119  -0.0000191635
       -0.0003317647   0.0001191891  -0.0000298222   0.0008448326   0.0003088931
       -0.0002189273   0.0022337283   0.0002177464   0.0004173530   0.0003902918
       -0.0004177621   0.0004421643  -0.0003685349  -0.0007988905   0.0008113882
        0.0130658845  -0.0127380165  -0.0027211891  -0.0036451344  -0.0040887300
        0.0052673351   0.0015686638  -0.0036429421  -0.0021156840  -0.0001228951
       -0.0000966726   0.0001186091  -0.0000032209   0.0001850648   0.0000143152
        0.0000527633   0.0000923023   0.0001365433   0.0001147206  -0.0000883365
        0.0000879920  -0.0000050244   0.0000444698  -0.0000003524   0.0000435175
       -0.0000564355   0.0000458855   0.0000244923   0.0000390486  -0.0000154971
        0.0000280190  -0.0000372025  -0.0000316083  -0.0000097230  -0.0000522929
       -0.0000064544  -0.0000268140  -0.0000013521   0.0000255083  -0.0000175770
        0.0000240359   0.0000229442  -0.0000139547   0.0000551619   0.0000278213
       -0.0000044351   0.0000988781   0.0000222804   0.0000569391   0.0000898825
       -0.0000460813   0.0000338493  -0.0000068192   0.0000532047   0.0000255310
       -0.0000432099  -0.0000322055  -0.0000153190  -0.0000121620   0.0000072955
        0.0000050362  -0.0000066634  -0.0000045715   0.0000023064   0.0000019790
       -0.0000156551  -0.0000216411   0.0000040569  -0.0000125592
       -0.0037818829  -0.0004632768  -0.0015184451  -0.0490336991   0.0162204645
       -0.0035163378  -0.2028151582   0.0638836748   0.0009898977   0.6416215210