      -----------------------------------------------------------      
     |                   =====================                   |     
     |                           x T B                           |     
     |                   =====================                   |     
     |                         S. Grimme                         |     
     |          Mulliken Center for Theoretical Chemistry        |     
     |                    University of Bonn                     |     
      -----------------------------------------------------------      

   * xtb version 6.7.1 (edcfbbe) compiled by 'albert@albert-system' on 2024-07-22

   xtb is free software: you can redistribute it and/or modify it under
   the terms of the GNU Lesser General Public License as published by
   the Free Software Foundation, either version 3 of the License, or
   (at your option) any later version.
   
   xtb is distributed in the hope that it will be useful,
   but WITHOUT ANY WARRANTY; without even the implied warranty of
   MERCHANTABILITY or FITNESS FOR A PARTICULAR PURPOSE.  See the
   GNU Lesser General Public License for more details.
   
   Cite this work as:
   * C. Bannwarth, E. Caldeweyher, S. Ehlert, A. Hansen, P. Pracht,
     J. Seibert, S. Spicher, S. Grimme, WIREs Comput. Mol. Sci., 2020, 11,
     e01493. DOI: 10.1002/wcms.1493
   
   for GFN2-xTB:
   * C. Bannwarth, S. Ehlert and S. Grimme., J. Chem. Theory Comput., 2019,
     15, 1652-1671. DOI: 10.1021/acs.jctc.8b01176
   for GFN1-xTB:
   * S. Grimme, C. Bannwarth, P. Shushkov, J. Chem. Theory Comput., 2017,
     13, 1989-2009. DOI: 10.1021/acs.jctc.7b00118
   for GFN0-xTB:
   * P. Pracht, E. Caldeweyher, S. Ehlert, S. Grimme, ChemRxiv, 2019, preprint.
     DOI: 10.26434/chemrxiv.8326202.v1
   for GFN-FF:
   * S. Spicher and S. Grimme, Angew. Chem. Int. Ed., 2020, 59, 15665-15673.
     DOI: 10.1002/anie.202004239
   
   for ALPB and GBSA implicit solvation:
   * S. Ehlert, M. Stahn, S. Spicher, S. Grimme, J. Chem. Theory Comput.,
     2021, 17, 4250-4261. DOI: 10.1021/acs.jctc.1c00471
   
   for ddCOSMO and CPCM-X implicit solvation:
   * M. Stahn, S. Ehlert, S. Grimme, J. Phys. Chem. A,
     2023, XX, XXXX-XXXX. DOI: 10.1021/acs.jpca.3c04382
   
   for DFT-D4:
   * E. Caldeweyher, C. Bannwarth and S. Grimme, J. Chem. Phys., 2017,
     147, 034112. DOI: 10.1063/1.4993215
   * E. Caldeweyher, S. Ehlert, A. Hansen, H. Neugebauer, S. Spicher,
     C. Bannwarth and S. Grimme, J. Chem. Phys., 2019, 150, 154122.
     DOI: 10.1063/1.5090222
   * E. Caldeweyher, J.-M. Mewes, S. Ehlert and S. Grimme, Phys. Chem. Chem. Phys.
     2020, 22, 8499-8512. DOI: 10.1039/D0CP00502A
   
   for sTDA-xTB:
   * S. Grimme and C. Bannwarth, J. Chem. Phys., 2016, 145, 054103.
     DOI: 10.1063/1.4959605
   
   in the mass-spec context:
   * V. Asgeirsson, C. Bauer and S. Grimme, Chem. Sci., 2017, 8, 4879.
     DOI: 10.1039/c7sc00601b
   * J. Koopman and S. Grimme, ACS Omega 2019, 4, 12, 15120-15133.
     DOI: 10.1021/acsomega.9b02011
   
   for metadynamics refer to:
   * S. Grimme, J. Chem. Theory Comput., 2019, 155, 2847-2862
     DOI: 10.1021/acs.jctc.9b00143
   
   for SPH calculations refer to:
   * S. Spicher and S. Grimme, J. Chem. Theory Comput., 2021, 17, 1701-1714
     DOI: 10.1021/acs.jctc.0c01306
   
   for ONIOM refer to:
   * C. Plett, A. Katbashev, S. Ehlert, S. Grimme, M. Bursch,
     Phys. Chem. Chem. Phys., 2023, 25, 17860-17868. DOI: 10.1039/D3CP02178E
   
   for DIPRO refer to:
   * J. Kohn, N. Gildemeister, S. Grimme, D. Fazzi, A. Hansen,
     J. Chem. Phys., 2023, just accepted.
   
   for PTB refer to:
   * S. Grimme, M. Mueller, A. Hansen, J. Chem. Phys., 2023, 158, 124111.
     DOI: 10.1063/5.0137838
   
   with help from (in alphabetical order)
   P. Atkinson, C. Bannwarth, F. Bohle, G. Brandenburg, E. Caldeweyher
   M. Checinski, S. Dohm, S. Ehlert, S. Ehrlich, I. Gerasimov, C. Hölzer
   A. Katbashev, J. Kohn, J. Koopman, C. Lavigne, S. Lehtola, F. März, M. Müller,
   F. Musil, H. Neugebauer, J. Pisarek, C. Plett, P. Pracht, F. Pultar,
   J. Seibert, P. Shushkov, S. Spicher, M. Stahn, M. Steiner, T. Strunk,
   J. Stückrath, T. Rose, and J. Unsleber
   
 * started run on 2025/09/08 at 00:27:51.436     
   ID    Z sym.   atoms
    1    6 C      1-8, 10, 12-17, 19-32, 34-45, 47, 48
    2    7 N      9, 18
    3    8 O      11, 33, 46
    4    1 H      49-82

           -------------------------------------------------
          |                Calculation Setup                |
           -------------------------------------------------

          program call               : xtb data2507/gas/BFDMAc-NAI/BFDMAc-NAI_gas_T1_crest.xyz --gfn 2 --spinpol --tblite --uhf 2 --ohess vtight --parallel 40 --molden --ceasefiles --namespace data2507/gas/BFDMAc-NAI/BFDMAc-NAI_gas_T1_finalOpt
          calculation namespace      : data2507/gas/BFDMAc-NAI/BFDMAc-NAI_gas_T1_finalOpt
          coordinate file            : data2507/gas/BFDMAc-NAI/BFDMAc-NAI_gas_T1_crest.xyz
          omp threads                :                    40

repulsion energy          2.1209261708524E+00 Eh
dispersion energy         1.5032764720205E-03 Eh
interaction energy        0.0000000000000E+00 Eh
number of electrons       2.3400000000000E+02 e
integral cutoff           1.7347787504999E+01 bohr

------------------------------------------------------------
  cycle        total energy    energy error   density error
------------------------------------------------------------
      1     -127.1354080100  -1.2925784E+02   1.0668968E-01
      2     -127.2935021604  -1.5809415E-01   6.1512237E-02
      3     -126.7970598491   4.9644231E-01   5.1168784E-02
      4     -127.3311079906  -5.3404814E-01   2.7664931E-02
      5     -127.4873831797  -1.5627519E-01   1.9227477E-02
      6     -127.5255170088  -3.8133829E-02   1.5145076E-02
      7     -127.5267677699  -1.2507611E-03   1.2600440E-02
      8     -127.5073843435   1.9383426E-02   1.1606260E-02
      9     -127.5145944799  -7.2101364E-03   8.5818275E-03
     10     -127.5266091437  -1.2014664E-02   5.6958229E-03
     11     -127.5288003960  -2.1912523E-03   2.4384909E-03
     12     -127.5296389162  -8.3852022E-04   9.5049550E-04
     13     -127.5297559783  -1.1706214E-04   5.3081049E-04
     14     -127.5297743726  -1.8394250E-05   2.8289696E-04
     15     -127.5297856104  -1.1237870E-05   1.2797214E-04
     16     -127.5297839030   1.7074321E-06   1.3877082E-04
     17     -127.5297869510  -3.0480315E-06   2.9981651E-05
     18     -127.5297870655  -1.1443296E-07   1.1447229E-05
------------------------------------------------------------

electronic energy        -1.2965221651280E+02 Eh
total energy             -1.2752978706547E+02 Eh

 total:                                   0.522 sec
 - repulsion                              0.001 sec (  0%)
 - dispersion                             0.021 sec (  4%)
 - coulomb                                0.007 sec (  1%)
 - hamiltonian                            0.015 sec (  2%)
 - scc                                    0.478 sec ( 91%)

      ----------------------------------------------------------- 
     |                   =====================                   |
     |                        A N C O P T                        |
     |                   =====================                   |
     |               Approximate Normal Coordinate               |
     |                Rational Function Optimizer                |
      ----------------------------------------------------------- 

Optimization log is written to '/dev/null'
      ----------------------------------------------------------- 
     |                   =====================                   |
     |                        A N C O P T                        |
     |                   =====================                   |
     |               Approximate Normal Coordinate               |
     |                Rational Function Optimizer                |
      ----------------------------------------------------------- 

          ...................................................
          :                      SETUP                      :
          :.................................................:
          :   optimization level         verytight          :
          :   max. optcycles                  1640          :
          :   ANC micro-cycles                  20          :
          :   degrees of freedom               240          :
          :.................................................:
          :   RF solver                   davidson          :
          :   write xtbopt.log                true          :
          :   linear?                        false          :
          :   energy convergence         0.1000000E-06 Eh   :
          :   grad. convergence          0.2000000E-03 Eh/α :
          :   maxmium RF displ.          1.0000000          :
          :   Hlow (freq-cutoff)         0.1000000E-01      :
          :   Hmax (freq-cutoff)         5.0000000          :
          :   S6 in model hess.         20.0000000          :
          ...................................................

generating ANC from exact Hessian ...
Using Lindh-Hessian (1995)
 Shifting diagonal of input Hessian by   9.941281700598633E-003
 Lowest  eigenvalues of input Hessian
    0.000000    0.000000    0.000000    0.000000    0.000000    0.000000
    0.010000    0.010105    0.010210    0.010269    0.010460    0.010687
    0.010754    0.011224    0.011970    0.012365    0.012708    0.012834
 Highest eigenvalues
    2.111524    2.162452    2.179958    2.194343    2.282112    2.379285
 

........................................................................
.............................. CYCLE    1 ..............................
........................................................................
------------------------------------------------------------
  cycle        total energy    energy error   density error
------------------------------------------------------------
      1     -127.5297867732  -1.2965222E+02   3.7938588E-05
      2     -127.5297849845   1.7887021E-06   9.6089114E-05
      3     -127.5297870074  -2.0229398E-06   1.6432471E-05
      4     -127.5297870696  -6.2191219E-08   4.9768245E-06
------------------------------------------------------------

 total:                                   0.073 sec
 * total energy  :  -127.5297871 Eh     change       -0.4156249E-08 Eh
   gradient norm :     0.0053275 Eh/α   predicted     0.0000000E+00 (-100.00%)
   displ. norm   :     0.0117004 α      lambda       -0.1691682E-04
   maximum displ.:     0.0038643 α      in ANC's #2, #37, #8, ...

........................................................................
.............................. CYCLE    2 ..............................
........................................................................
------------------------------------------------------------
  cycle        total energy    energy error   density error
------------------------------------------------------------
      1     -127.5297978263  -1.2965237E+02   2.7981084E-04
      2     -127.5297801124   1.7713878E-05   3.3437502E-04
      3     -127.5297979201  -1.7807616E-05   2.1280484E-04
      4     -127.5297998379  -1.9177981E-06   1.3980336E-04
      5     -127.5298032307  -3.3928507E-06   4.2757781E-05
      6     -127.5298035407  -3.1001207E-07   1.2848903E-05
------------------------------------------------------------

 total:                                   0.094 sec
 * total energy  :  -127.5298035 Eh     change       -0.1647108E-04 Eh
   gradient norm :     0.0028581 Eh/α   predicted    -0.1110172E-04 ( -32.60%)
   displ. norm   :     0.0196549 α      lambda       -0.1322473E-04
   maximum displ.:     0.0081962 α      in ANC's #2, #17, #37, ...

........................................................................
.............................. CYCLE    3 ..............................
........................................................................
------------------------------------------------------------
  cycle        total energy    energy error   density error
------------------------------------------------------------
      1     -127.5298051423  -1.2965238E+02   2.8948711E-04
      2     -127.5297762063   2.8935988E-05   3.9798490E-04
      3     -127.5298001317  -2.3925376E-05   2.5284625E-04
      4     -127.5298085357  -8.4040006E-06   1.4453534E-04
      5     -127.5298106474  -2.1117154E-06   4.8533226E-05
      6     -127.5298112705  -6.2304710E-07   1.6218462E-05
------------------------------------------------------------

 total:                                   0.103 sec
 * total energy  :  -127.5298113 Eh     change       -0.7729769E-05 Eh
   gradient norm :     0.0006309 Eh/α   predicted    -0.6801036E-05 ( -12.02%)
   displ. norm   :     0.0186506 α      lambda       -0.1755810E-05
   maximum displ.:     0.0088316 α      in ANC's #2, #6, #10, ...

........................................................................
.............................. CYCLE    4 ..............................
........................................................................
------------------------------------------------------------
  cycle        total energy    energy error   density error
------------------------------------------------------------
      1     -127.5298125414  -1.2965230E+02   1.1188917E-04
      2     -127.5298104082   2.1331549E-06   1.1151983E-04
      3     -127.5298109444  -5.3612672E-07   1.0720162E-04
      4     -127.5298126894  -1.7450814E-06   5.2837950E-05
      5     -127.5298132152  -5.2580032E-07   1.3574732E-05
------------------------------------------------------------

 total:                                   0.089 sec
 * total energy  :  -127.5298132 Eh     change       -0.1944753E-05 Eh
   gradient norm :     0.0006458 Eh/α   predicted    -0.9128976E-06 ( -53.06%)
   displ. norm   :     0.0319229 α      lambda       -0.2083478E-05
   maximum displ.:     0.0153099 α      in ANC's #2, #6, #10, ...

........................................................................
.............................. CYCLE    5 ..............................
........................................................................
------------------------------------------------------------
  cycle        total energy    energy error   density error
------------------------------------------------------------
      1     -127.5298144536  -1.2965221E+02   1.5997316E-04
      2     -127.5298084815   5.9721245E-06   1.9587640E-04
      3     -127.5298131864  -4.7049774E-06   1.2407787E-04
      4     -127.5298136787  -4.9228595E-07   8.1315937E-05
      5     -127.5298155023  -1.8235750E-06   1.4270003E-05
      6     -127.5298155599  -5.7617740E-08   3.5555682E-06
------------------------------------------------------------

 total:                                   0.118 sec
 * total energy  :  -127.5298156 Eh     change       -0.2344684E-05 Eh
   gradient norm :     0.0006936 Eh/α   predicted    -0.1052183E-05 ( -55.12%)
   displ. norm   :     0.0451472 α      lambda       -0.2034847E-05
   maximum displ.:     0.0222863 α      in ANC's #2, #6, #10, ...

........................................................................
.............................. CYCLE    6 ..............................
........................................................................
------------------------------------------------------------
  cycle        total energy    energy error   density error
------------------------------------------------------------
      1     -127.5298174517  -1.2965217E+02   2.0042499E-04
      2     -127.5298147455   2.7061940E-06   1.5217726E-04
      3     -127.5298053617   9.3837808E-06   2.2611432E-04
      4     -127.5298159911  -1.0629389E-05   1.0554011E-04
      5     -127.5298179702  -1.9791138E-06   8.9547751E-06
      6     -127.5298179897  -1.9422117E-08   3.6903908E-06
------------------------------------------------------------

 total:                                   0.104 sec
 * total energy  :  -127.5298180 Eh     change       -0.2429743E-05 Eh
   gradient norm :     0.0006974 Eh/α   predicted    -0.1024562E-05 ( -57.83%)
   displ. norm   :     0.0542067 α      lambda       -0.2035985E-05
   maximum displ.:     0.0280811 α      in ANC's #2, #6, #10, ...

........................................................................
.............................. CYCLE    7 ..............................
........................................................................
------------------------------------------------------------
  cycle        total energy    energy error   density error
------------------------------------------------------------
      1     -127.5298201678  -1.2965218E+02   2.2999979E-04
      2     -127.5298200086   1.5923652E-07   1.3737605E-04
      3     -127.5298113750   8.6335938E-06   1.8831859E-04
      4     -127.5298196994  -8.3244423E-06   4.9398993E-05
      5     -127.5298202614  -5.6201674E-07   7.0126204E-06
------------------------------------------------------------

 total:                                   0.088 sec
 * total energy  :  -127.5298203 Eh     change       -0.2271779E-05 Eh
   gradient norm :     0.0004565 Eh/α   predicted    -0.1019755E-05 ( -55.11%)
   displ. norm   :     0.0464216 α      lambda       -0.1417375E-05
   maximum displ.:     0.0257093 α      in ANC's #2, #6, #10, ...

........................................................................
.............................. CYCLE    8 ..............................
........................................................................
------------------------------------------------------------
  cycle        total energy    energy error   density error
------------------------------------------------------------
      1     -127.5298213289  -1.2965224E+02   1.9438526E-04
      2     -127.5298196957   1.6331152E-06   1.3871385E-04
      3     -127.5298109527   8.7430496E-06   2.0110213E-04
      4     -127.5298192247  -8.2720141E-06   1.1705644E-04
      5     -127.5298217702  -2.5455001E-06   8.5555931E-06
      6     -127.5298217867  -1.6467368E-08   3.1750110E-06
------------------------------------------------------------

 total:                                   0.102 sec
 * total energy  :  -127.5298218 Eh     change       -0.1525234E-05 Eh
   gradient norm :     0.0002190 Eh/α   predicted    -0.7127356E-06 ( -53.27%)
   displ. norm   :     0.0389604 α      lambda       -0.1049511E-05
   maximum displ.:     0.0227223 α      in ANC's #2, #6, #10, ...

........................................................................
.............................. CYCLE    9 ..............................
........................................................................
------------------------------------------------------------
  cycle        total energy    energy error   density error
------------------------------------------------------------
      1     -127.5298229983  -1.2965231E+02   1.5528490E-04
      2     -127.5298229630   3.5267192E-08   9.2434127E-05
      3     -127.5298203796   2.5833996E-06   9.6324739E-05
      4     -127.5298228713  -2.4916702E-06   2.6307271E-05
      5     -127.5298230265  -1.5523855E-07   4.3835072E-06
------------------------------------------------------------

 total:                                   0.089 sec
 * total energy  :  -127.5298230 Eh     change       -0.1239850E-05 Eh
   gradient norm :     0.0002828 Eh/α   predicted    -0.5284123E-06 ( -57.38%)
   displ. norm   :     0.0376016 α      lambda       -0.9846618E-06
   maximum displ.:     0.0228179 α      in ANC's #2, #6, #10, ...

........................................................................
.............................. CYCLE   10 ..............................
........................................................................
------------------------------------------------------------
  cycle        total energy    energy error   density error
------------------------------------------------------------
      1     -127.5298240491  -1.2965237E+02   1.4972123E-04
      2     -127.5298234998   5.4928526E-07   1.0244303E-04
      3     -127.5298176947   5.8051721E-06   1.8117176E-04
      4     -127.5298236435  -5.9488382E-06   4.0448070E-05
      5     -127.5298241609  -5.1738988E-07   4.7167815E-06
------------------------------------------------------------

 total:                                   0.089 sec
 * total energy  :  -127.5298242 Eh     change       -0.1134355E-05 Eh
   gradient norm :     0.0003555 Eh/α   predicted    -0.4929923E-06 ( -56.54%)
   displ. norm   :     0.0327397 α      lambda       -0.7594882E-06
   maximum displ.:     0.0206905 α      in ANC's #2, #6, #10, ...

........................................................................
.............................. CYCLE   11 ..............................
........................................................................
------------------------------------------------------------
  cycle        total energy    energy error   density error
------------------------------------------------------------
      1     -127.5298249380  -1.2965239E+02   1.2737512E-04
      2     -127.5298247229   2.1508521E-07   8.0095772E-05
      3     -127.5298189781   5.7447613E-06   1.4249503E-04
      4     -127.5298246795  -5.7013304E-06   4.1871112E-05
      5     -127.5298250027  -3.2321299E-07   4.8193871E-06
------------------------------------------------------------

 total:                                   0.089 sec
 * total energy  :  -127.5298250 Eh     change       -0.8418019E-06 Eh
   gradient norm :     0.0002507 Eh/α   predicted    -0.3835414E-06 ( -54.44%)
   displ. norm   :     0.0237308 α      lambda       -0.4694038E-06
   maximum displ.:     0.0162092 α      in ANC's #2, #6, #10, ...

........................................................................
.............................. CYCLE   12 ..............................
........................................................................
------------------------------------------------------------
  cycle        total energy    energy error   density error
------------------------------------------------------------
      1     -127.5298254443  -1.2965239E+02   8.9973379E-05
      2     -127.5298251073   3.3696230E-07   6.8967286E-05
      3     -127.5298240394   1.0678721E-06   9.2692668E-05
      4     -127.5298250561  -1.0166272E-06   3.9345491E-05
      5     -127.5298255262  -4.7015541E-07   5.1217834E-06
------------------------------------------------------------

 total:                                   0.088 sec
 * total energy  :  -127.5298255 Eh     change       -0.5235335E-06 Eh
   gradient norm :     0.0001126 Eh/α   predicted    -0.2396243E-06 ( -54.23%)
   displ. norm   :     0.0137596 α      lambda       -0.2909264E-06
   maximum displ.:     0.0103258 α      in ANC's #2, #6, #1, ...

........................................................................
.............................. CYCLE   13 ..............................
........................................................................
------------------------------------------------------------
  cycle        total energy    energy error   density error
------------------------------------------------------------
      1     -127.5298256566  -1.2965237E+02   5.3319283E-05
      2     -127.5298243634   1.2932282E-06   7.5571896E-05
      3     -127.5298257028  -1.3394364E-06   3.6792293E-05
      4     -127.5298257242  -2.1385887E-08   3.2737927E-05
      5     -127.5298258980  -1.7373654E-07   5.1185986E-06
------------------------------------------------------------

 total:                                   0.088 sec
 * total energy  :  -127.5298259 Eh     change       -0.3717381E-06 Eh
   gradient norm :     0.0001048 Eh/α   predicted    -0.1483377E-06 ( -60.10%)
   displ. norm   :     0.0136937 α      lambda       -0.3198623E-06
   maximum displ.:     0.0088691 α      in ANC's #2, #13, #1, ...

........................................................................
.............................. CYCLE   14 ..............................
........................................................................
------------------------------------------------------------
  cycle        total energy    energy error   density error
------------------------------------------------------------
      1     -127.5298262009  -1.2965233E+02   5.7247944E-05
      2     -127.5298260427   1.5826205E-07   4.7408897E-05
      3     -127.5298261362  -9.3588625E-08   3.8188477E-05
      4     -127.5298261064   2.9847882E-08   3.0407595E-05
      5     -127.5298262831  -1.7674586E-07   9.8278926E-06
------------------------------------------------------------

 total:                                   0.088 sec
 * total energy  :  -127.5298263 Eh     change       -0.3851856E-06 Eh
   gradient norm :     0.0001774 Eh/α   predicted    -0.1616028E-06 ( -58.05%)
   displ. norm   :     0.0204222 α      lambda       -0.4055210E-06
   maximum displ.:     0.0124053 α      in ANC's #2, #10, #4, ...

........................................................................
.............................. CYCLE   15 ..............................
........................................................................
------------------------------------------------------------
  cycle        total energy    energy error   density error
------------------------------------------------------------
      1     -127.5298247401  -1.2965226E+02   1.1768010E-04
      2     -127.5298101520   1.4588060E-05   2.4885844E-04
      3     -127.5298266185  -1.6466527E-05   5.4376003E-05
      4     -127.5298260392   5.7930683E-07   6.0452931E-05
      5     -127.5298268208  -7.8155537E-07   5.3815738E-06
------------------------------------------------------------

 total:                                   0.088 sec
 * total energy  :  -127.5298268 Eh     change       -0.5376320E-06 Eh
   gradient norm :     0.0002144 Eh/α   predicted    -0.2054803E-06 ( -61.78%)
   displ. norm   :     0.0219900 α      lambda       -0.3926250E-06
   maximum displ.:     0.0133567 α      in ANC's #2, #10, #4, ...

........................................................................
.............................. CYCLE   16 ..............................
........................................................................
------------------------------------------------------------
  cycle        total energy    energy error   density error
------------------------------------------------------------
      1     -127.5298271346  -1.2965222E+02   9.4015280E-05
      2     -127.5298269045   2.3009000E-07   6.7757139E-05
      3     -127.5298260539   8.5059847E-07   8.7440607E-05
      4     -127.5298267583  -7.0443741E-07   4.4878583E-05
      5     -127.5298272042  -4.4588006E-07   1.3146816E-05
------------------------------------------------------------

 total:                                   0.092 sec
 * total energy  :  -127.5298272 Eh     change       -0.3834193E-06 Eh
   gradient norm :     0.0001536 Eh/α   predicted    -0.1968322E-06 ( -48.66%)
   displ. norm   :     0.0230530 α      lambda       -0.3997596E-06
   maximum displ.:     0.0143381 α      in ANC's #2, #10, #1, ...

........................................................................
.............................. CYCLE   17 ..............................
........................................................................
------------------------------------------------------------
  cycle        total energy    energy error   density error
------------------------------------------------------------
      1     -127.5298240927  -1.2965220E+02   1.4368641E-04
      2     -127.5298004462   2.3646481E-05   3.1090663E-04
      3     -127.5298273558  -2.6909575E-05   6.8709621E-05
      4     -127.5298270175   3.3832285E-07   6.6044224E-05
      5     -127.5298277707  -7.5324158E-07   7.9225732E-06
------------------------------------------------------------

 total:                                   0.090 sec
 * total energy  :  -127.5298278 Eh     change       -0.5665455E-06 Eh
   gradient norm :     0.0000971 Eh/α   predicted    -0.2036314E-06 ( -64.06%)
   displ. norm   :     0.0303338 α      lambda       -0.5061483E-06
   maximum displ.:     0.0195286 α      in ANC's #2, #10, #1, ...

........................................................................
.............................. CYCLE   18 ..............................
........................................................................
------------------------------------------------------------
  cycle        total energy    energy error   density error
------------------------------------------------------------
      1     -127.5298282947  -1.2965222E+02   1.2580599E-04
      2     -127.5298274073   8.8748615E-07   1.0350695E-04
      3     -127.5298262778   1.1294763E-06   1.1918891E-04
      4     -127.5298276501  -1.3723194E-06   6.2325104E-05
      5     -127.5298285148  -8.6474489E-07   1.8787786E-05
------------------------------------------------------------

 total:                                   0.088 sec
 * total energy  :  -127.5298285 Eh     change       -0.7441130E-06 Eh
   gradient norm :     0.0001298 Eh/α   predicted    -0.2544515E-06 ( -65.80%)
   displ. norm   :     0.0301492 α      lambda       -0.4468621E-06
   maximum displ.:     0.0203661 α      in ANC's #2, #1, #4, ...

........................................................................
.............................. CYCLE   19 ..............................
........................................................................
------------------------------------------------------------
  cycle        total energy    energy error   density error
------------------------------------------------------------
      1     -127.5298228313  -1.2965225E+02   1.7709830E-04
      2     -127.5297861578   3.6673579E-05   3.8250133E-04
      3     -127.5298283308  -4.2173085E-05   8.9682931E-05
      4     -127.5298285308  -1.9998760E-07   7.0852122E-05
      5     -127.5298291863  -6.5544816E-07   1.2038216E-05
------------------------------------------------------------

 total:                                   0.089 sec
 * total energy  :  -127.5298292 Eh     change       -0.6714354E-06 Eh
   gradient norm :     0.0001484 Eh/α   predicted    -0.2266741E-06 ( -66.24%)
   displ. norm   :     0.0264586 α      lambda       -0.3815649E-06
   maximum displ.:     0.0184175 α      in ANC's #2, #1, #4, ...

........................................................................
.............................. CYCLE   20 ..............................
........................................................................
------------------------------------------------------------
  cycle        total energy    energy error   density error
------------------------------------------------------------
      1     -127.5298288382  -1.2965230E+02   1.0684736E-04
      2     -127.5298244900   4.3481983E-06   1.5829122E-04
      3     -127.5298289268  -4.4368407E-06   7.3196375E-05
      4     -127.5298294485  -5.2171080E-07   3.9433958E-05
      5     -127.5298296154  -1.6689310E-07   1.9225939E-05
------------------------------------------------------------

 total:                                   0.089 sec
 * total energy  :  -127.5298296 Eh     change       -0.4291492E-06 Eh
   gradient norm :     0.0001752 Eh/α   predicted    -0.1940645E-06 ( -54.78%)
   displ. norm   :     0.0292692 α      lambda       -0.4025885E-06
   maximum displ.:     0.0208444 α      in ANC's #2, #1, #4, ...
 * RMSD in coord.:     0.0470058 α      energy gain  -0.4254996E-04 Eh

generating ANC from exact Hessian ...
Using Lindh-Hessian (1995)
 Shifting diagonal of input Hessian by   9.941036304609168E-003
 Lowest  eigenvalues of input Hessian
    0.000000    0.000000    0.000000    0.000000    0.000000    0.000000
    0.010000    0.010104    0.010210    0.010268    0.010462    0.010687
    0.010751    0.011224    0.011973    0.012364    0.012709    0.012838
 Highest eigenvalues
    2.111538    2.161869    2.178866    2.193701    2.283158    2.382730
 

........................................................................
.............................. CYCLE   21 ..............................
........................................................................
------------------------------------------------------------
  cycle        total energy    energy error   density error
------------------------------------------------------------
      1     -127.5298259286  -1.2965234E+02   1.5014509E-04
      2     -127.5298036596   2.2269006E-05   2.9638952E-04
      3     -127.5298297393  -2.6079700E-05   8.5659005E-05
      4     -127.5298304383  -6.9901986E-07   5.5512730E-05
      5     -127.5298307529  -3.1451719E-07   9.3100553E-06
------------------------------------------------------------

 total:                                   0.089 sec
 * total energy  :  -127.5298308 Eh     change       -0.1137426E-05 Eh
   gradient norm :     0.0001186 Eh/α   predicted     0.0000000E+00 (-100.00%)
   displ. norm   :     0.0001779 α      lambda        0.0000000E+00
   maximum displ.:     0.0000656 α      in ANC's #231, #240, #233, ...

........................................................................
.............................. CYCLE   22 ..............................
........................................................................
------------------------------------------------------------
  cycle        total energy    energy error   density error
------------------------------------------------------------
      1     -127.5298303356  -1.2965234E+02   4.5892780E-05
      2     -127.5298282952   2.0404027E-06   1.0492486E-04
      3     -127.5298306763  -2.3811377E-06   2.0407198E-05
      4     -127.5298307771  -1.0075499E-07   3.5189115E-06
------------------------------------------------------------

 total:                                   0.074 sec
 * total energy  :  -127.5298308 Eh     change       -0.2423893E-07 Eh
   gradient norm :     0.0000848 Eh/α   predicted    -0.3362790E-08 ( -86.13%)
   displ. norm   :     0.0046988 α      lambda       -0.1098652E-06
   maximum displ.:     0.0035113 α      in ANC's #2, #10, #14, ...

   *** GEOMETRY OPTIMIZATION CONVERGED AFTER 22 ITERATIONS ***

------------------------------------------------------------------------
 total energy gain   :        -0.0000437 Eh       -0.0274 kcal/mol
 total RMSD          :         0.0470092 a0        0.0249 Å
 total power (kW/mol):        -0.0052166 (step)   -0.0533 (real)
------------------------------------------------------------------------

 ANCopt (total)                0 d,  0 h,  0 min,  2.153 sec
 optimizer setup                ...        0 min,  0.000 sec (  0.014%)
 model hessian                  ...        0 min,  0.114 sec (  5.285%)
 ANC generation                 ...        0 min,  0.013 sec (  0.595%)
 coordinate transformation      ...        0 min,  0.002 sec (  0.107%)
 single point calculation       ...        0 min,  2.011 sec ( 93.386%)
 optimization log               ...        0 min,  0.005 sec (  0.222%)
 hessian update                 ...        0 min,  0.003 sec (  0.129%)
 rational function              ...        0 min,  0.003 sec (  0.143%)

================
 final structure:
================
82
 xtb: 6.7.1 (edcfbbe)
C            9.35840083561840       -1.81180281425858        0.61197092599269
C            8.87565694077873       -0.37802491692224        0.35004674184271
C            9.36823190116354        0.50774069415608        1.49766540766967
C            9.48745437659382        0.14750310822575       -0.95636792235798
C            7.36073199752373       -0.38257833822818        0.22015333390075
C            6.52625614231940        0.34023063412427        1.06462204092087
C            5.15169622640293        0.31552362061283        0.91228298168486
C            4.57899629006728       -0.44704568365442       -0.09148618529233
N            3.16205003595370       -0.47805048953091       -0.25356666138041
C            2.65906504438755       -0.05177646254067       -1.47871313477379
O            3.41062258319661        0.37616571309488       -2.34621025238353
C            1.21654743116456       -0.11258769054801       -1.63782423211841
C            0.63939168389391        0.28777656870561       -2.86366835400686
C           -0.71820224094067        0.22164282705042       -3.03502239917653
C           -1.55029944774100       -0.21184140689318       -1.99762715838327
C           -1.01471903689841       -0.58532038544316       -0.75903128130154
C           -1.80433615413879       -1.02693424523044        0.33503910358361
N           -3.21097383191476       -0.97849766735477        0.25603984313729
C           -3.93471601881890       -2.15673010209337        0.27863209429100
C           -3.25419710316286       -3.38155232473446        0.33777667820609
C           -3.94502800212623       -4.57069358692790        0.39052229752185
C           -5.33071323916743       -4.56471926080260        0.35785457881069
C           -6.00371221640815       -3.36256290562475        0.24138333887384
C           -5.33432141116181       -2.14697988879036        0.19412558001558
C           -6.12107121137401       -0.86833933313394        0.00273282090306
C           -6.85290648756260       -0.95445741477563       -1.35076776514245
C           -7.13765173463461       -0.73132678216967        1.15247799106639
C           -5.23035879082972        0.35673419850531        0.00261618932086
C           -5.81963888926016        1.61414870276876       -0.12514072528153
C           -5.09958239406011        2.78946184715197       -0.07543024839943
C           -3.73129105283027        2.70479660120816        0.14459131717691
C           -3.11563425108986        1.44790005891993        0.26942490775605
O           -1.78560972575312        1.57614570131787        0.51049237047819
C           -1.51529362755094        2.90643778465481        0.53199864120447
C           -0.27664022172277        3.48992540241625        0.73189919745295
C           -0.22382826162037        4.87128944296212        0.70838971160391
C           -1.36632678402906        5.64102988901778        0.49456236757223
C           -2.60057446603766        5.05579655137129        0.29302569235946
C           -2.67729850736627        3.66892665236906        0.30967301472705
C           -3.83914343966703        0.24663560801900        0.16220569115033
C           -1.20416308846300       -1.47214823524202        1.53358126773771
C            0.15016846938105       -1.44139188326834        1.68587064650232
C            0.97514311000285       -0.97096943798075        0.63167078311722
C            0.39821588555258       -0.55247509809777       -0.58367780735414
C            2.41036370917805       -0.94095786442958        0.82398764539639
O            2.95825505027498       -1.31651575567943        1.85470954771672
C            5.39212201026129       -1.18153774309349       -0.94150852507448
C            6.76226941756040       -1.14049444275099       -0.78457879536457
H            9.09404572086680       -2.47463216107775       -0.20703636991269
H           10.44026520911298       -1.82787254857654        0.72823205570212
H            8.90636173698992       -2.19884163905698        1.52270125491862
H           10.45516308850200        0.47222854406580        1.54202702178533
H            8.98176349648707        0.16067967923792        2.45297917613757
H            9.07220429479866        1.54324717737632        1.34692630550949
H            9.22539763148091       -0.48500119822998       -1.79959275051105
H            9.12673412200203        1.15316851912484       -1.16137111916224
H           10.57234579759337        0.17796164406956       -0.87674869267043
H            6.93562343790024        0.94365143275569        1.85813863353865
H            4.52202891986869        0.88513969805916        1.57855555281649
H            1.29912303944899        0.63647375766681       -3.64205016265865
H           -1.16342175793594        0.51926357638581       -3.97312029860710
H           -2.61849684788343       -0.24677788555958       -2.15783680914299
H           -2.17632025167979       -3.38990353671818        0.32994754231842
H           -3.40332950777320       -5.50219090506708        0.44456285766857
H           -5.88287510161399       -5.49070428785082        0.39880478567936
H           -7.08081940541743       -3.37937245302780        0.18030227710559
H           -6.13041488327504       -1.06272162864712       -2.15726859410229
H           -7.52222509929087       -1.80944786129316       -1.37359582505799
H           -7.43778610879914       -0.05750680319090       -1.53197796662459
H           -6.61341072745638       -0.65928555621957        2.10324726639596
H           -7.74839562139786        0.15777600463806        1.02939751290278
H           -7.79813861147739       -1.59236624686334        1.18896514980967
H           -6.88665412225619        1.67696166589797       -0.26810417248986
H           -5.58382811201060        3.74592074221221       -0.18731397430270
H            0.59982006831830        2.88372973241067        0.89297500260215
H            0.72398485128988        5.36525913970241        0.85733553217167
H           -1.27965188636709        6.71703292484787        0.48470149209041
H           -3.48259827611370        5.65409072908846        0.12452586116171
H           -1.84755853233977       -1.78114821574193        2.34513099422736
H            0.63018856614651       -1.74417001146635        2.60252956257827
H            4.94947225065997       -1.77662818644266       -1.72555564932010
H            7.37137737378026       -1.71969919066290       -1.46193159255861
 
 Bond Distances (Angstroems)
 ---------------------------
C1-C2=1.5354         C1-H49=1.0863        C1-H50=1.0882        C1-H51=1.0879        C2-C1=1.5354         C2-C3=1.5311         
C2-C4=1.5353         C2-C5=1.5205         C3-C2=1.5311         C3-H52=1.0884        C3-H53=1.0874        C3-H54=1.0875        
C4-C2=1.5353         C4-H55=1.0862        C4-H56=1.0879        C4-H57=1.0882        C5-C2=1.5205         C5-C6=1.3899         
C5-C48=1.3936        C6-C5=1.3899         C6-C7=1.3832         C6-H58=1.0777        C7-C6=1.3832         C7-C8=1.3846         
C7-H59=1.0793        C8-C7=1.3846         C8-N9=1.4265         C8-C47=1.3868        N9-C8=1.4265         N9-C10=1.3913        
N9-C45=1.3930        C10-N9=1.3913        C10-O11=1.2250       C10-C12=1.4525       O11-C10=1.2250       C12-C10=1.4525       
C12-C13=1.4128       C12-C44=1.4051       C13-C12=1.4128       C13-C14=1.3700       C13-H60=1.0783       C14-C13=1.3700       
C14-C15=1.3987       C14-H61=1.0802       C15-C14=1.3987       C15-C16=1.4002       C15-H62=1.0807       C16-C15=1.4002       
C16-C17=1.4197       C16-C44=1.4242       C17-C16=1.4197       C17-N18=1.4097       C17-C41=1.4124       N18-C17=1.4097       
N18-C19=1.3829       N18-C40=1.3800       C19-N18=1.3829       C19-C20=1.4024       C19-C24=1.4022       C20-C19=1.4024       
C20-C21=1.3763       C20-H63=1.0779       C21-C20=1.3763       C21-C22=1.3861       C21-H64=1.0789       C22-C21=1.3861       
C22-C23=1.3826       C22-H65=1.0789       C23-C22=1.3826       C23-C24=1.3885       C23-H66=1.0790       C24-C19=1.4022       
C24-C23=1.3885       C24-C25=1.5134       C25-C24=1.5134       C25-C26=1.5411       C25-C27=1.5408       C25-C28=1.5147       
C26-C25=1.5411       C26-H67=1.0882       C26-H68=1.0861       C26-H69=1.0860       C27-C25=1.5408       C27-H70=1.0881       
C27-H71=1.0857       C27-H72=1.0858       C28-C25=1.5147       C28-C29=1.3945       C28-C40=1.4047       C29-C28=1.3945       
C29-C30=1.3792       C29-H73=1.0784       C30-C29=1.3792       C30-C31=1.3885       C30-H74=1.0779       C31-C30=1.3885       
C31-C32=1.4051       C31-C39=1.4379       C32-C31=1.4051       C32-O33=1.3578       C32-C40=1.4064       O33-C32=1.3578       
O33-C34=1.3576       C34-O33=1.3576       C34-C35=1.3837       C34-C39=1.4075       C35-C34=1.3837       C35-C36=1.3826       
C35-H75=1.0778       C36-C35=1.3826       C36-C37=1.3941       C36-H76=1.0791       C37-C36=1.3941       C37-C38=1.3808       
C37-H77=1.0795       C38-C37=1.3808       C38-C39=1.3891       C38-H78=1.0790       C39-C31=1.4379       C39-C34=1.4075       
C39-C38=1.3891       C40-N18=1.3800       C40-C28=1.4047       C40-C32=1.4064       C41-C17=1.4124       C41-C42=1.3632       
C41-H79=1.0808       C42-C41=1.3632       C42-C43=1.4189       C42-H80=1.0781       C43-C42=1.4189       C43-C44=1.4089       
C43-C45=1.4484       C44-C12=1.4051       C44-C16=1.4242       C44-C43=1.4089       C45-N9=1.3930        C45-C43=1.4484       
C45-O46=1.2262       O46-C45=1.2262       C47-C8=1.3868        C47-C48=1.3797       C47-H81=1.0793       C48-C5=1.3936        
C48-C47=1.3797       C48-H82=1.0795       H49-C1=1.0863        H50-C1=1.0882        H51-C1=1.0879        H52-C3=1.0884        
H53-C3=1.0874        H54-C3=1.0875        H55-C4=1.0862        H56-C4=1.0879        H57-C4=1.0882        H58-C6=1.0777        
H59-C7=1.0793        H60-C13=1.0783       H61-C14=1.0802       H62-C15=1.0807       H63-C20=1.0779       H64-C21=1.0789       
H65-C22=1.0789       H66-C23=1.0790       H67-C26=1.0882       H68-C26=1.0861       H69-C26=1.0860       H70-C27=1.0881       
H71-C27=1.0857       H72-C27=1.0858       H73-C29=1.0784       H74-C30=1.0779       H75-C35=1.0778       H76-C36=1.0791       
H77-C37=1.0795       H78-C38=1.0790       H79-C41=1.0808       H80-C42=1.0781       H81-C47=1.0793       H82-C48=1.0795       
 C  H  Rav=1.0826 sigma=0.0042  Rmin=1.0777  Rmax=1.0884    34
 C  C  Rav=1.4212 sigma=0.0528  Rmin=1.3632  Rmax=1.5411    46
 N  C  Rav=1.3972 sigma=0.0162  Rmin=1.3800  Rmax=1.4265     6
 O  C  Rav=1.2916 sigma=0.0661  Rmin=1.2250  Rmax=1.3578     4
 
 selected bond angles (degree)
 --------------------
H49-C1-C2=111.39               H50-C1-C2=110.16               H50-C1-H49=108.27              H51-C1-C2=110.14               
H51-C1-H49=108.24              H51-C1-H50=108.57              C3-C2-C1=108.13                C4-C2-C1=109.85                
C4-C2-C3=108.15                C5-C2-C1=108.97                C5-C2-C3=112.72                C5-C2-C4=108.99                
H52-C3-C2=109.45               H53-C3-C2=111.07               H53-C3-H52=107.98              H54-C3-C2=111.06               
H54-C3-H52=107.97              H54-C3-H53=109.20              H55-C4-C2=111.41               H56-C4-C2=110.16               
H56-C4-H55=108.18              H57-C4-C2=110.16               H57-C4-H55=108.28              H57-C4-H56=108.57              
C6-C5-C2=123.00                C48-C5-C2=119.41               C48-C5-C6=117.58               C7-C6-C5=121.36                
H58-C6-C5=120.70               H58-C6-C7=117.94               C8-C7-C6=120.05                H59-C7-C6=120.16               
H59-C7-C8=119.80               N9-C8-C7=120.34                C47-C8-C7=119.57               C47-C8-N9=120.08               
C10-N9-C8=116.90               C45-N9-C8=117.09               C45-N9-C10=126.01              O11-C10-N9=120.59              
C12-C10-N9=116.27              C12-C10-O11=123.12             
 
 selected dihedral angles (degree)
 ---------------------------------
C3-C2-C1-H49=183.82           C3-C2-C1-H50=303.98           C3-C2-C1-H51= 63.71           C4-C2-C1-H49=301.65           
C4-C2-C1-H50= 61.80           C4-C2-C1-H51=181.54           C5-C2-C1-H49= 60.98           C5-C2-C1-H50=181.13           
C5-C2-C1-H51=300.86           H52-C3-C2-C1= 59.48           H52-C3-C2-C4=300.58           H52-C3-C2-C5=180.01           
H53-C3-C2-C1=300.35           H53-C3-C2-C4=181.44           H53-C3-C2-C5= 60.88           H54-C3-C2-C1=178.60           
H54-C3-C2-C4= 59.70           H54-C3-C2-C5=299.13           H55-C4-C2-C1= 58.35           H55-C4-C2-C3=176.16           
H55-C4-C2-C5=299.03           H56-C4-C2-C1=178.42           H56-C4-C2-C3=296.23           H56-C4-C2-C5= 59.10           
H57-C4-C2-C1=298.17           H57-C4-C2-C3= 55.98           H57-C4-C2-C5=178.85           C6-C5-C2-C1=119.76            
C6-C5-C2-C3=359.71            C6-C5-C2-C4=239.62            C48-C5-C2-C1=299.81           C48-C5-C2-C3=179.76           
C48-C5-C2-C4= 59.67           C7-C6-C5-C2=179.74            C7-C6-C5-C48=359.70           H58-C6-C5-C2=  0.08           
H58-C6-C5-C48=180.04          C8-C7-C6-C5=  0.44            C8-C7-C6-H58=180.12           H59-C7-C6-C5=180.06           
H59-C7-C6-H58=359.74          N9-C8-C7-C6=179.95            N9-C8-C7-H59=  0.32           C47-C8-C7-C6=359.89           
C47-C8-C7-H59=180.27          C10-N9-C8-C7=120.50           C10-N9-C8-C47=300.56          C45-N9-C8-C7=300.04           
C45-N9-C8-C47=120.09          O11-C10-N9-C8=357.24          O11-C10-N9-C45=177.74         C12-C10-N9-C8=178.89          
C12-C10-N9-C45=359.40         
           -------------------------------------------------
          |                Final Singlepoint                |
           -------------------------------------------------
repulsion energy          2.1210101764602E+00 Eh
dispersion energy         1.4981022402717E-03 Eh
interaction energy        0.0000000000000E+00 Eh
number of electrons       2.3400000000000E+02 e
integral cutoff           1.7347787504999E+01 bohr

------------------------------------------------------------
  cycle        total energy    energy error   density error
------------------------------------------------------------
      1     -127.5298307094  -1.2965234E+02   1.7056635E-05
      2     -127.5298305502   1.5921373E-07   2.9982747E-05
      3     -127.5298307736  -2.2336906E-07   4.5417321E-06
------------------------------------------------------------

electronic energy        -1.2965233905229E+02 Eh
total energy             -1.2752983077359E+02 Eh

 total:                                   0.060 sec
 - repulsion                              0.000 sec (  0%)
 - dispersion                             0.002 sec (  3%)
 - coulomb                                0.004 sec (  6%)
 - hamiltonian                            0.008 sec ( 14%)
 - scc                                    0.045 sec ( 75%)

           ------------------------------------------------- 
          |                Numerical Hessian                |
           ------------------------------------------------- 
step length          :   0.00500
SCC accuracy         :   0.30000
Hessian scale factor :   1.00000
frozen atoms in %    :   0.00000    0
RMS gradient         :   0.00008
estimated CPU  time     27.51 min
estimated wall time      0.69 min

writing file <hessian>.

 projected vibrational frequencies (cm⁻¹)
eigval :       -0.00    -0.00    -0.00    -0.00     0.00     0.00
eigval :        8.81    13.98    17.66    25.63    27.85    32.04
eigval :       42.45    49.98    55.22    68.90    88.41    90.08
eigval :      102.98   105.49   118.86   122.07   127.71   130.31
eigval :      140.34   168.79   172.37   183.23   188.40   189.95
eigval :      197.20   217.47   227.20   231.66   244.40   252.60
eigval :      258.53   273.11   293.56   296.22   309.39   311.79
eigval :      315.32   317.62   328.95   345.95   350.23   361.79
eigval :      368.05   379.99   385.57   387.28   392.82   398.57
eigval :      400.18   421.48   430.21   436.29   454.62   459.92
eigval :      466.01   480.37   488.64   490.28   496.17   514.87
eigval :      520.10   525.77   533.14   541.82   544.40   552.71
eigval :      559.12   569.82   577.76   600.38   606.47   610.90
eigval :      627.80   632.66   652.68   659.17   668.80   686.94
eigval :      689.15   697.74   703.98   706.97   712.47   716.98
eigval :      719.82   757.46   771.56   777.66   778.58   788.43
eigval :      804.50   808.79   811.96   825.65   834.75   841.64
eigval :      847.09   854.35   859.11   872.81   873.76   888.55
eigval :      895.47   904.13   905.40   907.04   908.35   911.16
eigval :      917.07   922.32   924.88   925.61   933.24   941.51
eigval :      958.06   960.72   962.78   963.08   989.61  1005.13
eigval :     1013.43  1025.11  1035.17  1035.46  1059.64  1068.57
eigval :     1096.02  1098.78  1108.11  1115.78  1126.93  1130.78
eigval :     1141.28  1144.76  1149.17  1150.90  1151.37  1167.33
eigval :     1175.88  1180.07  1183.30  1187.49  1194.54  1196.30
eigval :     1202.47  1210.70  1217.51  1227.12  1233.35  1238.77
eigval :     1244.19  1250.10  1254.68  1266.30  1279.82  1283.24
eigval :     1292.21  1294.80  1304.08  1319.11  1323.84  1327.16
eigval :     1333.06  1349.30  1360.45  1369.17  1372.72  1387.50
eigval :     1394.61  1399.30  1402.52  1404.79  1408.90  1410.67
eigval :     1416.12  1419.79  1422.39  1427.41  1434.70  1442.47
eigval :     1467.10  1470.43  1480.79  1484.37  1485.64  1486.57
eigval :     1490.65  1494.19  1496.95  1498.98  1500.29  1501.70
eigval :     1504.81  1513.92  1519.43  1548.44  1556.03  1560.86
eigval :     1567.41  1569.37  1584.06  1584.55  1585.74  1592.26
eigval :     1609.42  1623.37  3020.79  3022.20  3029.25  3029.81
eigval :     3032.13  3033.89  3034.20  3037.92  3039.51  3047.92
eigval :     3049.60  3051.33  3052.99  3056.07  3061.63  3069.16
eigval :     3073.81  3082.84  3083.59  3087.09  3089.31  3093.16
eigval :     3094.98  3095.53  3098.16  3099.17  3102.18  3104.21
eigval :     3110.21  3110.74  3111.36  3113.74  3113.93  3114.55
           -------------------------------------------------
          |                Property Printout                |
           -------------------------------------------------
           -------------------------------------------------
          |                Geometry Summary                 |
           -------------------------------------------------

      molecular mass/u    :      626.7432504
   center of mass at/Å    :        0.0005381      -0.0011791      -0.0049244
  moments of inertia/u·Å² :        0.3858737E+04   0.1499571E+05   0.1725384E+05
rotational constants/cm⁻¹ :        0.4368692E-02   0.1124164E-02   0.9770365E-03

 * 84 selected distances

     #   Z          #   Z                                           value/Å
     1   6 C        2   6 C                                       1.5353714
     2   6 C        3   6 C                                       1.5310911
     2   6 C        4   6 C                                       1.5353161
     5   6 C        6   6 C                                       1.3899390
     6   6 C        7   6 C                                       1.3831966
     7   6 C        8   6 C                                       1.3845758
     8   6 C        9   7 N                                       1.4265232
     9   7 N       10   6 C                                       1.3912899
    10   6 C       11   8 O                                       1.2249591
    12   6 C       13   6 C                                       1.4128321
    13   6 C       14   6 C                                       1.3699626
    14   6 C       15   6 C                                       1.3987436
    15   6 C       16   6 C                                       1.4001618
    16   6 C       17   6 C                                       1.4196860
    17   6 C       18   7 N                                       1.4096868
    18   7 N       19   6 C                                       1.3829480
    19   6 C       20   6 C                                       1.4024243
    20   6 C       21   6 C                                       1.3762582
    21   6 C       22   6 C                                       1.3860833
    22   6 C       23   6 C                                       1.3826328
    19   6 C       24   6 C                                       1.4021883
    23   6 C       24   6 C                                       1.3885099
    25   6 C       27   6 C                                       1.5408189 (max)
    28   6 C       29   6 C                                       1.3945123
    29   6 C       30   6 C                                       1.3792439
    30   6 C       31   6 C                                       1.3884521
    31   6 C       32   6 C                                       1.4051356
    32   6 C       33   8 O                                       1.3577651
    33   8 O       34   6 C                                       1.3576490
    34   6 C       35   6 C                                       1.3837199
    35   6 C       36   6 C                                       1.3825732
    36   6 C       37   6 C                                       1.3941039
    37   6 C       38   6 C                                       1.3807544
    31   6 C       39   6 C                                       1.4379497
    34   6 C       39   6 C                                       1.4075062
    38   6 C       39   6 C                                       1.3890904
    18   7 N       40   6 C                                       1.3799833
    28   6 C       40   6 C                                       1.4046605
    32   6 C       40   6 C                                       1.4064132
    17   6 C       41   6 C                                       1.4124188
    41   6 C       42   6 C                                       1.3632140
    42   6 C       43   6 C                                       1.4188792
    12   6 C       44   6 C                                       1.4051308
    16   6 C       44   6 C                                       1.4241535
    43   6 C       44   6 C                                       1.4089198
     9   7 N       45   6 C                                       1.3929965
    45   6 C       46   8 O                                       1.2262204
     8   6 C       47   6 C                                       1.3867914
     5   6 C       48   6 C                                       1.3935858
    47   6 C       48   6 C                                       1.3797158
     1   6 C       49   1 H                                       1.0862778
     1   6 C       50   1 H                                       1.0882121
     1   6 C       51   1 H                                       1.0879193
     3   6 C       52   1 H                                       1.0884157
     3   6 C       53   1 H                                       1.0873977
     3   6 C       54   1 H                                       1.0874872
     4   6 C       55   1 H                                       1.0861693
     4   6 C       56   1 H                                       1.0878918
     4   6 C       57   1 H                                       1.0882355
     6   6 C       58   1 H                                       1.0776674 (min)
     7   6 C       59   1 H                                       1.0792881
    13   6 C       60   1 H                                       1.0782920
    14   6 C       61   1 H                                       1.0801974
    15   6 C       62   1 H                                       1.0807098
    20   6 C       63   1 H                                       1.0779377
    21   6 C       64   1 H                                       1.0789092
    22   6 C       65   1 H                                       1.0788921
    23   6 C       66   1 H                                       1.0789688
    26   6 C       67   1 H                                       1.0881907
    26   6 C       68   1 H                                       1.0860559
    26   6 C       69   1 H                                       1.0860211
    27   6 C       70   1 H                                       1.0881089
    27   6 C       71   1 H                                       1.0856615
    27   6 C       72   1 H                                       1.0858008
    29   6 C       73   1 H                                       1.0783811
    30   6 C       74   1 H                                       1.0778802
    35   6 C       75   1 H                                       1.0777762
    36   6 C       76   1 H                                       1.0791389
    37   6 C       77   1 H                                       1.0795335
    38   6 C       78   1 H                                       1.0790340
    41   6 C       79   1 H                                       1.0807645
    42   6 C       80   1 H                                       1.0781269
    47   6 C       81   1 H                                       1.0792597
    48   6 C       82   1 H                                       1.0794895

 * 4 distinct bonds (by element types)

   Z      Z             #   av. dist./Å        max./Å        min./Å
   1 H    6 C          34     1.0825910     1.0884157     1.0776674
   6 C    6 C          40     1.4096679     1.5408189     1.3632140
   6 C    7 N           6     1.3972380     1.4265232     1.3799833
   6 C    8 O           4     1.2916484     1.3577651     1.2249591

           -------------------------------------------------
          |               Frequency Printout                |
           -------------------------------------------------
 projected vibrational frequencies (cm⁻¹)
eigval :       -0.00    -0.00    -0.00    -0.00     0.00     0.00
eigval :        8.81    13.98    17.66    25.63    27.85    32.04
eigval :       42.45    49.98    55.22    68.90    88.41    90.08
eigval :      102.98   105.49   118.86   122.07   127.71   130.31
eigval :      140.34   168.79   172.37   183.23   188.40   189.95
eigval :      197.20   217.47   227.20   231.66   244.40   252.60
eigval :      258.53   273.11   293.56   296.22   309.39   311.79
eigval :      315.32   317.62   328.95   345.95   350.23   361.79
eigval :      368.05   379.99   385.57   387.28   392.82   398.57
eigval :      400.18   421.48   430.21   436.29   454.62   459.92
eigval :      466.01   480.37   488.64   490.28   496.17   514.87
eigval :      520.10   525.77   533.14   541.82   544.40   552.71
eigval :      559.12   569.82   577.76   600.38   606.47   610.90
eigval :      627.80   632.66   652.68   659.17   668.80   686.94
eigval :      689.15   697.74   703.98   706.97   712.47   716.98
eigval :      719.82   757.46   771.56   777.66   778.58   788.43
eigval :      804.50   808.79   811.96   825.65   834.75   841.64
eigval :      847.09   854.35   859.11   872.81   873.76   888.55
eigval :      895.47   904.13   905.40   907.04   908.35   911.16
eigval :      917.07   922.32   924.88   925.61   933.24   941.51
eigval :      958.06   960.72   962.78   963.08   989.61  1005.13
eigval :     1013.43  1025.11  1035.17  1035.46  1059.64  1068.57
eigval :     1096.02  1098.78  1108.11  1115.78  1126.93  1130.78
eigval :     1141.28  1144.76  1149.17  1150.90  1151.37  1167.33
eigval :     1175.88  1180.07  1183.30  1187.49  1194.54  1196.30
eigval :     1202.47  1210.70  1217.51  1227.12  1233.35  1238.77
eigval :     1244.19  1250.10  1254.68  1266.30  1279.82  1283.24
eigval :     1292.21  1294.80  1304.08  1319.11  1323.84  1327.16
eigval :     1333.06  1349.30  1360.45  1369.17  1372.72  1387.50
eigval :     1394.61  1399.30  1402.52  1404.79  1408.90  1410.67
eigval :     1416.12  1419.79  1422.39  1427.41  1434.70  1442.47
eigval :     1467.10  1470.43  1480.79  1484.37  1485.64  1486.57
eigval :     1490.65  1494.19  1496.95  1498.98  1500.29  1501.70
eigval :     1504.81  1513.92  1519.43  1548.44  1556.03  1560.86
eigval :     1567.41  1569.37  1584.06  1584.55  1585.74  1592.26
eigval :     1609.42  1623.37  3020.79  3022.20  3029.25  3029.81
eigval :     3032.13  3033.89  3034.20  3037.92  3039.51  3047.92
eigval :     3049.60  3051.33  3052.99  3056.07  3061.63  3069.16
eigval :     3073.81  3082.84  3083.59  3087.09  3089.31  3093.16
eigval :     3094.98  3095.53  3098.16  3099.17  3102.18  3104.21
eigval :     3110.21  3110.74  3111.36  3113.74  3113.93  3114.55
 reduced masses (amu)
   1: 11.30   2: 11.39   3: 11.63   4: 11.48   5: 11.30   6: 11.60   7: 10.98   8: 10.47
   9:  9.84  10: 11.51  11: 11.16  12: 11.95  13: 10.61  14: 11.04  15:  9.98  16: 12.54
  17: 11.14  18: 10.27  19: 10.90  20: 10.93  21:  9.39  22:  8.13  23:  9.07  24: 10.25
  25: 11.39  26: 10.26  27:  3.88  28:  9.42  29:  1.90  30:  9.68  31: 11.32  32:  3.34
  33:  9.68  34:  8.58  35:  9.92  36: 10.49  37: 10.00  38: 10.86  39: 12.24  40: 10.50
  41: 11.33  42:  9.45  43:  1.91  44:  9.98  45: 10.63  46: 11.49  47: 10.52  48:  8.60
  49: 10.62  50:  8.83  51: 12.35  52: 10.91  53: 10.78  54: 10.68  55: 10.71  56: 11.41
  57: 10.07  58: 10.15  59:  9.75  60:  9.90  61: 11.07  62: 11.03  63: 10.87  64: 10.93
  65: 11.24  66: 11.04  67: 11.58  68: 10.24  69: 11.14  70: 11.26  71:  9.77  72: 11.01
  73: 11.41  74: 10.65  75: 11.28  76: 11.57  77: 11.29  78: 11.20  79: 11.44  80: 11.92
  81: 11.46  82: 11.50  83: 11.61  84: 11.48  85: 11.60  86: 11.54  87: 11.51  88: 10.99
  89: 11.72  90: 11.31  91: 11.29  92:  4.53  93: 11.00  94:  3.48  95:  3.73  96: 10.54
  97:  5.90  98:  6.84  99:  8.24 100:  3.93 101: 11.15 102:  4.27 103: 10.90 104: 12.68
 105:  3.40 106:  3.51 107:  3.37 108:  8.71 109:  3.26 110:  3.49 111:  3.76 112:  3.58
 113:  2.98 114:  9.77 115:  3.89 116:  3.98 117:  3.26 118:  3.24 119: 11.21 120: 11.02
 121:  4.56 122:  5.08 123:  5.07 124:  3.22 125:  9.14 126: 10.10 127:  3.23 128: 10.41
 129:  4.14 130:  4.05 131:  5.63 132:  9.33 133:  8.73 134:  8.04 135:  6.87 136:  6.36
 137:  5.57 138:  6.94 139:  7.32 140:  8.30 141:  4.67 142:  9.66 143:  4.47 144:  5.00
 145:  3.52 146:  5.21 147:  4.83 148:  4.13 149:  7.28 150:  6.99 151:  3.51 152:  9.25
 153:  7.11 154:  9.18 155:  8.67 156:  8.36 157:  6.07 158:  6.25 159:  8.60 160:  7.42
 161:  3.30 162:  8.99 163:  8.82 164: 10.04 165: 10.49 166: 11.23 167: 11.80 168: 11.41
 169: 11.44 170: 11.79 171: 11.12 172: 10.40 173: 11.70 174:  9.00 175: 10.40 176:  5.88
 177:  2.90 178:  3.05 179:  9.29 180:  7.88 181:  9.28 182:  4.53 183:  8.37 184:  2.97
 185: 11.89 186: 10.39 187:  9.96 188: 10.96 189: 10.41 190:  8.09 191:  1.63 192:  1.62
 193:  1.62 194:  1.58 195:  1.56 196:  3.85 197:  9.27 198:  2.08 199:  2.39 200:  1.58
 201:  1.64 202: 11.69 203: 11.46 204: 11.65 205: 11.74 206: 11.70 207: 11.52 208: 11.66
 209: 13.08 210: 11.66 211: 11.73 212: 13.05 213:  1.90 214:  1.86 215:  1.86 216:  1.89
 217:  1.84 218:  1.70 219:  1.77 220:  1.84 221:  1.31 222:  1.95 223:  1.49 224:  1.94
 225:  1.56 226:  1.36 227:  1.43 228:  1.77 229:  1.81 230:  1.84 231:  1.78 232:  1.76
 233:  1.76 234:  1.81 235:  1.82 236:  1.81 237:  1.87 238:  1.78 239:  1.88 240:  1.88
 241:  1.85 242:  1.85 243:  1.88 244:  1.88 245:  1.87 246:  1.85
 IR intensities (km·mol⁻¹)
   1:  0.97   2:  0.30   3:  0.55   4:  2.24   5:  0.48   6:  1.92   7:  3.86   8:  0.35
   9:  1.48  10:  1.12  11:  3.75  12:  0.67  13:  7.40  14:  0.59  15:  0.17  16:  3.20
  17:  3.28  18:  0.70  19:  0.66  20: 11.81  21:  0.87  22:  1.48  23:  2.68  24:  3.82
  25:  5.27  26:  0.95  27:  0.37  28:  3.07  29:  0.57  30:  5.51  31:  8.80  32:  0.60
  33:  1.71  34:  1.39  35:  0.18  36:  0.33  37:  1.49  38:  0.17  39:  0.99  40:  0.83
  41:  0.94  42:  9.35  43:  0.47  44:  5.55  45: 12.68  46:  8.33  47:  3.22  48:  3.27
  49:  5.82  50:  2.28  51:  5.09  52:  2.93  53:  1.31  54:  2.52  55:  2.80  56:  2.40
  57:  3.22  58:  8.15  59:  2.27  60:  4.74  61:  4.30  62:  7.38  63:  2.87  64:  0.51
  65: 18.37  66:  0.21  67:  2.02  68:  0.19  69:  0.41  70:  9.04  71:  1.70  72:  6.98
  73:  2.99  74:  1.56  75:  2.37  76:  6.57  77:  1.69  78:  5.78  79:  5.92  80:  7.06
  81:  4.47  82: 17.01  83: 16.03  84:  4.91  85:  3.87  86:  2.72  87: 13.98  88: 17.61
  89:  3.20  90: 27.17  91: 18.78  92:  9.17  93: 11.44  94: 16.58  95: 38.51  96: 11.27
  97: 10.16  98: 18.57  99: 10.17 100: 10.81 101: 18.23 102:  0.20 103: 18.46 104: 11.81
 105: 75.40 106:  2.84 107:  0.17 108:  3.59 109:  5.02 110: 11.76 111:  1.53 112:  2.05
 113:  1.84 114:  6.28 115:  0.36 116:  4.16 117:  1.19 118:  0.05 119: 10.97 120:  2.86
 121: 14.37 122:  1.49 123:  2.65 124:  0.48 125: 16.81 126:  3.46 127:  4.13 128: 18.24
 129:  2.89 130:  0.94 131: 12.22 132: 27.80 133:  2.02 134:  3.17 135:109.81 136:  2.50
 137:  2.05 138: 64.41 139:196.91 140:  2.33 141: 12.52 142: 19.84 143:  1.17 144:  4.95
 145:  6.72 146:106.09 147: 54.87 148:183.03 149: 18.21 150: 57.37 151: 96.07 152: 18.00
 153: 75.04 154: 11.72 155: 27.46 156: 31.37 157: 17.08 158: 45.82 159: 81.27 160: 11.73
 161:  6.21 162: 53.77 163: 44.24 164: 20.49 165:  5.05 166:  7.49 167: 17.60 168: 31.73
 169: 12.90 170:  9.86 171: 14.69 172: 29.82 173: 11.17 174: 10.10 175: 13.32 176:  2.30
 177:  7.76 178:  3.54 179: 11.17 180:  4.49 181: 72.01 182: 42.96 183: 79.27 184:  0.08
 185:  2.80 186: 24.32 187: 10.57 188:  3.92 189: 14.46 190:  9.15 191:  0.05 192:  2.17
 193:  0.08 194:  0.16 195: 32.47 196: 15.42 197: 46.88 198:  1.58 199: 21.21 200:  2.68
 201:  4.05 202:109.51 203: 13.04 204:  3.79 205: 26.27 206:  4.18 207:288.45 208:503.16
 209:354.26 210: 12.60 211:  0.67 212: 50.95 213:  2.68 214:  0.90 215:235.60 216: 16.93
 217:128.34 218:  6.82 219: 28.04 220: 66.77 221: 33.18 222: 16.22 223: 12.17 224: 24.12
 225: 43.14 226: 15.75 227:141.72 228: 11.35 229: 61.65 230: 91.83 231: 20.70 232: 11.15
 233: 34.11 234:  6.62 235: 12.64 236: 75.84 237: 44.94 238: 56.62 239: 47.14 240: 88.17
 241: 14.45 242:  8.00 243: 80.32 244:  0.37 245: 35.41 246: 37.82
 Raman intensities (Ä⁴*amu⁻¹)
   1:  0.00   2:  0.00   3:  0.00   4:  0.00   5:  0.00   6:  0.00   7:  0.00   8:  0.00
   9:  0.00  10:  0.00  11:  0.00  12:  0.00  13:  0.00  14:  0.00  15:  0.00  16:  0.00
  17:  0.00  18:  0.00  19:  0.00  20:  0.00  21:  0.00  22:  0.00  23:  0.00  24:  0.00
  25:  0.00  26:  0.00  27:  0.00  28:  0.00  29:  0.00  30:  0.00  31:  0.00  32:  0.00
  33:  0.00  34:  0.00  35:  0.00  36:  0.00  37:  0.00  38:  0.00  39:  0.00  40:  0.00
  41:  0.00  42:  0.00  43:  0.00  44:  0.00  45:  0.00  46:  0.00  47:  0.00  48:  0.00
  49:  0.00  50:  0.00  51:  0.00  52:  0.00  53:  0.00  54:  0.00  55:  0.00  56:  0.00
  57:  0.00  58:  0.00  59:  0.00  60:  0.00  61:  0.00  62:  0.00  63:  0.00  64:  0.00
  65:  0.00  66:  0.00  67:  0.00  68:  0.00  69:  0.00  70:  0.00  71:  0.00  72:  0.00
  73:  0.00  74:  0.00  75:  0.00  76:  0.00  77:  0.00  78:  0.00  79:  0.00  80:  0.00
  81:  0.00  82:  0.00  83:  0.00  84:  0.00  85:  0.00  86:  0.00  87:  0.00  88:  0.00
  89:  0.00  90:  0.00  91:  0.00  92:  0.00  93:  0.00  94:  0.00  95:  0.00  96:  0.00
  97:  0.00  98:  0.00  99:  0.00 100:  0.00 101:  0.00 102:  0.00 103:  0.00 104:  0.00
 105:  0.00 106:  0.00 107:  0.00 108:  0.00 109:  0.00 110:  0.00 111:  0.00 112:  0.00
 113:  0.00 114:  0.00 115:  0.00 116:  0.00 117:  0.00 118:  0.00 119:  0.00 120:  0.00
 121:  0.00 122:  0.00 123:  0.00 124:  0.00 125:  0.00 126:  0.00 127:  0.00 128:  0.00
 129:  0.00 130:  0.00 131:  0.00 132:  0.00 133:  0.00 134:  0.00 135:  0.00 136:  0.00
 137:  0.00 138:  0.00 139:  0.00 140:  0.00 141:  0.00 142:  0.00 143:  0.00 144:  0.00
 145:  0.00 146:  0.00 147:  0.00 148:  0.00 149:  0.00 150:  0.00 151:  0.00 152:  0.00
 153:  0.00 154:  0.00 155:  0.00 156:  0.00 157:  0.00 158:  0.00 159:  0.00 160:  0.00
 161:  0.00 162:  0.00 163:  0.00 164:  0.00 165:  0.00 166:  0.00 167:  0.00 168:  0.00
 169:  0.00 170:  0.00 171:  0.00 172:  0.00 173:  0.00 174:  0.00 175:  0.00 176:  0.00
 177:  0.00 178:  0.00 179:  0.00 180:  0.00 181:  0.00 182:  0.00 183:  0.00 184:  0.00
 185:  0.00 186:  0.00 187:  0.00 188:  0.00 189:  0.00 190:  0.00 191:  0.00 192:  0.00
 193:  0.00 194:  0.00 195:  0.00 196:  0.00 197:  0.00 198:  0.00 199:  0.00 200:  0.00
 201:  0.00 202:  0.00 203:  0.00 204:  0.00 205:  0.00 206:  0.00 207:  0.00 208:  0.00
 209:  0.00 210:  0.00 211:  0.00 212:  0.00 213:  0.00 214:  0.00 215:  0.00 216:  0.00
 217:  0.00 218:  0.00 219:  0.00 220:  0.00 221:  0.00 222:  0.00 223:  0.00 224:  0.00
 225:  0.00 226:  0.00 227:  0.00 228:  0.00 229:  0.00 230:  0.00 231:  0.00 232:  0.00
 233:  0.00 234:  0.00 235:  0.00 236:  0.00 237:  0.00 238:  0.00 239:  0.00 240:  0.00
 241:  0.00 242:  0.00 243:  0.00 244:  0.00 245:  0.00 246:  0.00
 output can be read by thermo (or use thermo option).
 writing <g98.out> molden fake output.
 recommended (thermochemical) frequency scaling factor: 1.0
           -------------------------------------------------
          |             Thermodynamic Functions             |
           -------------------------------------------------

Molecule has no symmetry elements
It seems to be the C1 point group
c1  symmetry found (for desy threshold:  0.10E+00) used in thermo

          ...................................................
          :                      SETUP                      :
          :.................................................:
          :  # frequencies                         240      :
          :  # imaginary freq.                       0      :
          :  linear?                             false      :
          :  only rotor calc.                    false      :
          :  symmetry                               c1      :
          :  rotational number                       1      :
          :  scaling factor                  1.0000000      :
          :  rotor cutoff                   50.0000000 cm⁻¹ :
          :  imag. cutoff                  -20.0000000 cm⁻¹ :
          :.................................................:

    mode    ω/cm⁻¹     T·S(HO)/kcal·mol⁻¹    T·S(FR)/kcal·mol⁻¹   T·S(vib)
   ------------------------------------------------------------------------
       1      8.81    -2.46351 (  0.10%)    -1.57080 ( 99.90%)    -1.57166
       2     13.98    -2.18986 (  0.61%)    -1.43396 ( 99.39%)    -1.43856
       3     17.66    -2.05163 (  1.53%)    -1.36482 ( 98.47%)    -1.37535
       4     25.63    -1.83111 (  6.46%)    -1.25447 ( 93.54%)    -1.29173
       5     27.85    -1.78194 (  8.79%)    -1.22985 ( 91.21%)    -1.27835
       6     32.04    -1.69907 ( 14.43%)    -1.18834 ( 85.57%)    -1.26206
       7     42.45    -1.53293 ( 34.18%)    -1.10506 ( 65.82%)    -1.25132
       8     49.98    -1.43650 ( 49.97%)    -1.05664 ( 50.03%)    -1.24644
       9     55.22    -1.37778 ( 59.80%)    -1.02712 ( 40.20%)    -1.23682
      10     68.90    -1.24760 ( 78.29%)    -0.96155 ( 21.71%)    -1.18550
      11     88.41    -1.10167 ( 90.72%)    -0.88771 (  9.28%)    -1.08181
      12     90.08    -1.09073 ( 91.33%)    -0.88215 (  8.67%)    -1.07264
      13    102.98    -1.01283 ( 94.74%)    -0.84250 (  5.26%)    -1.00387
      14    105.49    -0.99888 ( 95.20%)    -0.83538 (  4.80%)    -0.99103
      15    118.86    -0.92985 ( 96.96%)    -0.80001 (  3.04%)    -0.92591
      16    122.07    -0.91453 ( 97.26%)    -0.79213 (  2.74%)    -0.91117
      17    127.71    -0.88857 ( 97.70%)    -0.77875 (  2.30%)    -0.88604
      18    130.31    -0.87701 ( 97.88%)    -0.77279 (  2.12%)    -0.87480
      19    140.34    -0.83459 ( 98.41%)    -0.75081 (  1.59%)    -0.83326
      20    168.79    -0.73013 ( 99.24%)    -0.69612 (  0.76%)    -0.72987
      21    172.37    -0.71840 ( 99.30%)    -0.68992 (  0.70%)    -0.71820
      22    183.23    -0.68432 ( 99.45%)    -0.67181 (  0.55%)    -0.68425
      23    188.40    -0.66891 ( 99.51%)    -0.66357 (  0.49%)    -0.66888
      24    189.95    -0.66436 ( 99.52%)    -0.66114 (  0.48%)    -0.66434
      25    197.20    -0.64372 ( 99.59%)    -0.65005 (  0.41%)    -0.64375
      26    217.47    -0.59035 ( 99.72%)    -0.62106 (  0.28%)    -0.59044
      27    227.20    -0.56677 ( 99.77%)    -0.60810 (  0.23%)    -0.56687
      28    231.66    -0.55635 ( 99.78%)    -0.60233 (  0.22%)    -0.55645
      29    244.40    -0.52790 ( 99.83%)    -0.58647 (  0.17%)    -0.52801
      30    252.60    -0.51054 ( 99.85%)    -0.57670 (  0.15%)    -0.51064
      31    258.53    -0.49841 ( 99.86%)    -0.56983 (  0.14%)    -0.49851
      32    273.11    -0.47001 ( 99.89%)    -0.55357 (  0.11%)    -0.47010
      33    293.56    -0.43331 ( 99.92%)    -0.53218 (  0.08%)    -0.43340
      34    296.22    -0.42878 ( 99.92%)    -0.52951 (  0.08%)    -0.42887
   ------------------------------------------------------------------------

   temp. (K)  partition function   enthalpy   heat capacity  entropy
                                   cal/mol     cal/K/mol   cal/K/mol   J/K/mol
 298.15  VIB  0.645E+18            23783.095    150.659    146.031
         ROT  0.763E+08              888.752      2.981     39.051
         INT  0.492E+26            24671.848    153.640    185.082
         TR   0.152E+29             1481.254      4.968     45.168
         TOT                       26153.1015   158.6085   230.2505   963.3680

       T/K    H(0)-H(T)+PV         H(T)/Eh          T*S/Eh         G(T)/Eh
   ------------------------------------------------------------------------
    298.15    0.416776E-01    0.681368E+00    0.109399E+00    0.571968E+00
   ------------------------------------------------------------------------

         :::::::::::::::::::::::::::::::::::::::::::::::::::::
         ::                  THERMODYNAMIC                  ::
         :::::::::::::::::::::::::::::::::::::::::::::::::::::
         :: total free energy        -126.957862661430 Eh   ::
         ::.................................................::
         :: total energy             -127.529830779120 Eh   ::
         :: zero point energy           0.639689926704 Eh   ::
         :: G(RRHO) w/o ZPVE           -0.067721809013 Eh   ::
         :: G(RRHO) contrib.            0.571968117691 Eh   ::
         :::::::::::::::::::::::::::::::::::::::::::::::::::::

optimized geometry written to: xtbopt.xyz


           -------------------------------------------------
          | TOTAL ENERGY             -127.529830779120 Eh   |
          | TOTAL ENTHALPY           -126.848463232355 Eh   |
          | TOTAL FREE ENERGY        -126.957862661430 Eh   |
          | GRADIENT NORM               0.000082632503 Eh/α |
           -------------------------------------------------

------------------------------------------------------------------------
 * finished run on 2025/09/08 at 00:27:59.667     
------------------------------------------------------------------------
 total:
 * wall-time:     0 d,  0 h,  0 min,  8.230 sec
 *  cpu-time:     0 d,  0 h,  4 min, 49.588 sec
 * ratio c/w:    35.188 speedup
 SCF:
 * wall-time:     0 d,  0 h,  0 min,  0.524 sec
 *  cpu-time:     0 d,  0 h,  0 min, 18.687 sec
 * ratio c/w:    35.665 speedup
 ANC optimizer:
 * wall-time:     0 d,  0 h,  0 min,  2.215 sec
 *  cpu-time:     0 d,  0 h,  1 min, 28.558 sec
 * ratio c/w:    39.984 speedup
 analytical hessian:
 * wall-time:     0 d,  0 h,  0 min,  5.438 sec
 *  cpu-time:     0 d,  0 h,  3 min,  1.279 sec
 * ratio c/w:    33.335 speedup

