$hessian                                                                        
        0.3045233732   0.0962869469  -0.3263427728  -0.2628595561  -0.0912423563
        0.2560849551  -0.0448760273   0.0100405616   0.0489514405   0.0020325444
        0.0055275433  -0.0008173731  -0.0046089092   0.0041207443  -0.0017045072
        0.0044096564  -0.0045773518  -0.0027257503  -0.0030067285   0.0030166044
        0.0022800055   0.0011387962   0.0008397091  -0.0006952133  -0.0001354252
        0.0003776173  -0.0003169088  -0.0005580044   0.0004618023   0.0004427167
        0.0006157590  -0.0006705839   0.0002559413  -0.0000949590   0.0001318318
       -0.0009947500   0.0006746707  -0.0010272241   0.0012893791  -0.0010029587
        0.0009866112   0.0007046204   0.0001495098   0.0001701580  -0.0018212564
        0.0004252981  -0.0004447872   0.0007908204   0.0003475386  -0.0002761214
       -0.0008562440  -0.0005264128   0.0005963835   0.0002086315  -0.0000894836
       -0.0000425765   0.0004627873  -0.0004226019  -0.0014669982   0.0001303271
       -0.0035644093   0.0000158198   0.0020826812   0.0012865655  -0.0093507943
        0.0017731922   0.0077069081  -0.0150451270   0.0209733610  -0.0014450570
        0.0034772661   0.0008553064  -0.0006787645  -0.0008061165   0.0003252008
        0.0000905156   0.0004827670  -0.0007547046  -0.0006005284  -0.0001292348
        0.0009787652   0.0018284339  -0.0020538892  -0.0011559675  -0.0013794735
       -0.0007375123  -0.0002987222   0.0006128467   0.0000330754   0.0001910675
        0.0001175523   0.0005089878  -0.0000386595  -0.0000083357  -0.0001498725
        0.0001823187   0.0001967245  -0.0001251840  -0.0000605920   0.0000322903
        0.0001351866   0.0003367946   0.0002177766  -0.0002934790  -0.0003255493
       -0.0000596539   0.0002699018   0.0000145985   0.0001570733  -0.0001067152
       -0.0001006953   0.0000060419  -0.0000137625  -0.0000484442  -0.0000166185
       -0.0000223700  -0.0000127098   0.0000444936  -0.0000623914   0.0000055608
       -0.0001247279   0.0000139354   0.0000203448   0.0001034328   0.0000336774
       -0.0000002593  -0.0000122113   0.0000026771   0.0000575532  -0.0000306742
       -0.0000116313  -0.0000524146  -0.0000045287  -0.0000663104   0.0000205511
        0.0000287665  -0.0000188140  -0.0000145946  -0.0000133214  -0.0000021154
       -0.0001283757   0.0000270480   0.0000849384   0.0001830437   0.0001144937
        0.0004110519  -0.0005578482  -0.0009580576   0.0001872552  -0.0006235578
        0.0006077106   0.0000590434   0.0009045837  -0.0005516586   0.0003295811
        0.0002579988  -0.0000439185   0.0000233771  -0.0001945711   0.0000010426
       -0.0000829288   0.0000973609  -0.0000167253   0.0000085024   0.0000988703
       -0.0000446589   0.0000687984   0.0000577207  -0.0000725436   0.0000518057
        0.0000324932  -0.0000562449   0.0000727553  -0.0000465354   0.0000070977
        0.0000632808  -0.0001039451   0.0000297489  -0.0000429572   0.0001213222
       -0.0001084606   0.0001607746   0.0000168098   0.0002052562   0.0007224775
       -0.0000810957   0.0001141251  -0.0002643371  -0.0007542134   0.0001312652
       -0.0001450131   0.0000334276   0.0000905247  -0.0000110862   0.0000075379
       -0.0001191939  -0.0003012047   0.0001569638   0.0000366275  -0.0000570829
       -0.0001400197  -0.0000320156  -0.0000454649  -0.0000323440  -0.0001717569
        0.0001166065   0.0000384638  -0.0000470636  -0.0000193588   0.0000252582
       -0.0000218263   0.0000082663   0.0000075153  -0.0000068158   0.0000193003
        0.0000100199  -0.0000023305   0.0000083645   0.0000145134   0.0000018694
        0.0000062130   0.0000139144   0.0000125620   0.0000025277   0.0000198634
        0.0000138123   0.0000058152   0.0000811274   0.0002118558   0.0001490237
        0.0000803257   0.0000210338  -0.0003768138   0.0001225401
        0.0962869469   0.1202150162  -0.1503365829  -0.0883394884  -0.1129934760
        0.1154602627   0.0084194927   0.0164393328  -0.0103343718   0.0042340979
       -0.0021408646  -0.0020051231   0.0001766666   0.0014831914  -0.0007485257
        0.0016314486  -0.0007284990  -0.0006577026  -0.0005930646   0.0006748684
        0.0002413920   0.0002141452   0.0001438452   0.0002811748  -0.0000733988
        0.0001735105  -0.0001976028  -0.0001710589   0.0001448652   0.0001784635
        0.0002032058  -0.0001992943   0.0000175492   0.0000123777   0.0000017021
       -0.0002778054   0.0002388818  -0.0003454523   0.0003451278  -0.0003087363
        0.0003201203   0.0001915037   0.0000788932   0.0000016709  -0.0005401496
        0.0001427243  -0.0001265262   0.0001752713   0.0001431292  -0.0001360673
       -0.0002558753  -0.0001841532   0.0002158869   0.0000363476  -0.0000137877
       -0.0000018034   0.0002529851  -0.0003397831  -0.0001117806  -0.0002375146
       -0.0011965604   0.0015199683   0.0016770887   0.0019899952  -0.0028591276
       -0.0009347258  -0.0233021688  -0.0188905070   0.0415758685  -0.0013935450
        0.0016167724   0.0023600811   0.0012693881   0.0010140621   0.0004068259
       -0.0000227521   0.0005801043   0.0001967270   0.0009932479  -0.0008712554
        0.0020808039   0.0013493674  -0.0048034528   0.0017286012  -0.0006761503
       -0.0028105221  -0.0014745933  -0.0002187968   0.0005549571   0.0008546091
        0.0003035440   0.0006768195   0.0000153079  -0.0000409173  -0.0001558419
       -0.0000901408   0.0001693930   0.0001219658  -0.0000256730  -0.0000844264
       -0.0000284398   0.0002319226   0.0001109117   0.0000991966  -0.0002293381
        0.0000458582  -0.0000391231   0.0000857427   0.0001416991  -0.0000343640
       -0.0001193824  -0.0000077534   0.0000388015  -0.0000761719  -0.0000893539
       -0.0000388716  -0.0000265186   0.0000252358  -0.0000485641   0.0000108663
        0.0000065587   0.0000541047   0.0000204524  -0.0000552020   0.0000722427
       -0.0000694931   0.0000312199  -0.0000968124   0.0000842527  -0.0000494831
       -0.0000003854  -0.0000362128  -0.0000138973  -0.0000312447   0.0000079256
        0.0000193848   0.0000047041  -0.0000024267  -0.0000422209   0.0000498897
       -0.0000752691   0.0001211966   0.0000657393   0.0001724333   0.0000862794
        0.0004822514  -0.0003377052  -0.0005077660  -0.0002741829  -0.0000086965
        0.0003092789  -0.0000182460   0.0001290511   0.0002870602  -0.0001099129
       -0.0000826563  -0.0000097594  -0.0000428669   0.0000624704   0.0000025350
       -0.0000326572   0.0000167389   0.0000013428  -0.0000032711   0.0000226479
       -0.0000107702   0.0000158405   0.0000055894  -0.0000139231   0.0000022379
        0.0000105124  -0.0000135693   0.0000149471  -0.0000127131  -0.0000118453
        0.0000254694  -0.0000284268  -0.0000463059   0.0000099831  -0.0000132692
       -0.0002284120   0.0001295504  -0.0000630987  -0.0000845939   0.0012426483
       -0.0003323328  -0.0005034580   0.0006214668  -0.0000337019  -0.0001111127
       -0.0000512497  -0.0000521806  -0.0003286535  -0.0000990709   0.0000225697
        0.0001206634  -0.0005542015   0.0004409544  -0.0000018919  -0.0000370068
        0.0000161704   0.0000222304  -0.0000086650   0.0000318446  -0.0000610273
        0.0000976693   0.0001209804  -0.0000251258   0.0000391548   0.0000020661
       -0.0000073273  -0.0000018736   0.0000080172  -0.0000082462  -0.0000015998
        0.0000067726   0.0000020071   0.0000047861   0.0000070044  -0.0000035919
       -0.0000018244   0.0000053327  -0.0000004876  -0.0000047595   0.0000029035
        0.0000217004  -0.0000244067   0.0000377266   0.0001052835  -0.0000046628
        0.0000455619  -0.0001228253  -0.0002066100   0.0000314793
       -0.3263427728  -0.1503365829   0.4208440062   0.2569076131   0.1161237181
       -0.3642892363   0.0477081853  -0.0073507451  -0.0216167521  -0.0009515701
       -0.0044859560   0.0035842649   0.0034455720  -0.0029669250  -0.0001928340
       -0.0040679498   0.0037349220   0.0021849474   0.0024751862  -0.0022432073
       -0.0013330664  -0.0008853645  -0.0006130522   0.0002295352   0.0001884893
       -0.0004372932   0.0003631200   0.0005047448  -0.0004272325  -0.0004185642
       -0.0005513778   0.0005956874  -0.0002035181   0.0000572111  -0.0001070032
        0.0009041667  -0.0007032229   0.0010202345  -0.0011161387   0.0009439496
       -0.0009481120  -0.0006167225  -0.0001879529  -0.0001027153   0.0016726922
       -0.0003839366   0.0004067137  -0.0006955385  -0.0003519092   0.0002896134
        0.0008288635   0.0005000190  -0.0005707340  -0.0001649091   0.0000962391
        0.0000527909  -0.0005344132   0.0004697487   0.0010505375   0.0000144351
        0.0022147980  -0.0002895504  -0.0029412030  -0.0019868198   0.0080608034
       -0.0011923910   0.0217626512   0.0388605495  -0.0317676479   0.0025975618
       -0.0051514335  -0.0034270915  -0.0014733077   0.0009524485  -0.0010524637
        0.0000435480  -0.0009584395   0.0006075531  -0.0020210511   0.0016504229
       -0.0010973720  -0.0013098880   0.0025334364   0.0019097316   0.0012436163
        0.0022538812   0.0017840901   0.0002101794  -0.0004122659  -0.0012670799
       -0.0005126410  -0.0005526835   0.0001081037  -0.0001604162   0.0001238357
       -0.0000057158  -0.0004015990   0.0000621528   0.0000629796   0.0004443441
        0.0005609314  -0.0003011019  -0.0004552393  -0.0003022927   0.0003351167
       -0.0000759122   0.0001012027  -0.0000725178  -0.0001272178   0.0000953357
        0.0001237089  -0.0000796567  -0.0000301692   0.0000628080   0.0001205298
        0.0000404244   0.0000536814  -0.0000964688   0.0001006917  -0.0000586145
        0.0002345722  -0.0000562374   0.0000543361  -0.0001500604  -0.0001625385
        0.0000367078  -0.0000909265   0.0001270357  -0.0001526067   0.0001181616
       -0.0000304627   0.0001035248  -0.0000069214   0.0001103440  -0.0000528391
       -0.0000646786  -0.0000465416   0.0000254753   0.0000205630  -0.0000300995
        0.0000875542   0.0002313658  -0.0000882900  -0.0001465926   0.0000508045
       -0.0003804757   0.0002252076   0.0002582003  -0.0003727958  -0.0009909961
       -0.0004891810   0.0000077140  -0.0005164203   0.0004288076  -0.0003352292
       -0.0005046179   0.0000111764   0.0000212797   0.0000729376  -0.0000151275
        0.0000820361  -0.0000721626   0.0000097595   0.0000007186  -0.0000792340
        0.0000396840  -0.0000570027  -0.0000457109   0.0000566086  -0.0000387617
       -0.0000269169   0.0000474642  -0.0000630935   0.0000363542   0.0000128938
       -0.0000834643   0.0000922835   0.0000064360   0.0000191468  -0.0001193581
        0.0001698838  -0.0001847809   0.0000718896  -0.0005600240  -0.0006783076
        0.0004076046   0.0001971738   0.0009895858   0.0008043281  -0.0000806950
        0.0003390414  -0.0000695735   0.0004580796   0.0000908709   0.0000563129
       -0.0000252803   0.0003491954  -0.0003068809   0.0000626663   0.0000499051
        0.0000783295   0.0000610148  -0.0000181184  -0.0000195903   0.0000491667
       -0.0000659269  -0.0001028949   0.0000636030  -0.0000259936  -0.0000165892
        0.0000178157  -0.0000312050  -0.0000008920   0.0000005368  -0.0000283788
       -0.0000078466  -0.0000135507  -0.0000163820  -0.0000160857  -0.0000125048
       -0.0000026586  -0.0000216355  -0.0000123790   0.0000142212  -0.0000218480
        0.0000252760   0.0000098649  -0.0000279066  -0.0000045583  -0.0000511765
       -0.0000188492   0.0000862604   0.0002530211  -0.0001237105
       -0.2628595561  -0.0883394884   0.2569076131   0.4656798420  -0.0076149687
       -0.2794035932  -0.1161846088   0.0486752571   0.0199389528  -0.0324896381
        0.0073500556   0.0189849815   0.0027967944  -0.0099690000   0.0051304202
       -0.0094620522   0.0074861146   0.0053141852   0.0062513542  -0.0058239444
       -0.0043203549  -0.0021996781  -0.0016428442   0.0016702400   0.0002643260
       -0.0005615769   0.0004224056   0.0009026352  -0.0007188990  -0.0006680457
       -0.0010490961   0.0011595482  -0.0004496050   0.0001866100  -0.0002191893
        0.0017258386  -0.0010412217   0.0016301444  -0.0022871060   0.0016679879
       -0.0016442702  -0.0011737549  -0.0001427203  -0.0003953547   0.0030555317
       -0.0007377446   0.0007656240  -0.0013411417  -0.0005541450   0.0004360581
        0.0014269486   0.0008404703  -0.0009306128  -0.0003967504   0.0002286801
        0.0000312629  -0.0006408143   0.0006341598   0.0028856207  -0.0004852012
        0.0090930470  -0.0023516020  -0.0044438304  -0.0038618341   0.0246311529
       -0.0032735794  -0.0680515396   0.0194778203  -0.0176620417   0.0012868950
        0.0046374936  -0.0012153839   0.0083956331   0.0024418825   0.0015261188
       -0.0003917254  -0.0001636575   0.0006543008   0.0073786867  -0.0000239090
        0.0005059547  -0.0003685093   0.0019221240   0.0028928887  -0.0000185173
       -0.0025431726  -0.0016514229  -0.0018841991   0.0009334333   0.0017593664
        0.0010675839  -0.0004778291  -0.0001403914  -0.0000475885  -0.0001585132
       -0.0003945891   0.0001762492   0.0002600628  -0.0000118156  -0.0003952135
       -0.0005687769  -0.0001628234   0.0000213898   0.0007885041   0.0003013366
        0.0001744661  -0.0005268550   0.0000045048  -0.0001794811   0.0001284390
        0.0001156448  -0.0000170783   0.0000711697   0.0000388586  -0.0000809475
       -0.0000021810  -0.0000104323  -0.0000101883   0.0000407129   0.0000471472
        0.0000688854   0.0000275851  -0.0000816859  -0.0000820958   0.0000365524
       -0.0000375384   0.0000877438  -0.0000823672   0.0000134399  -0.0000337925
        0.0000308677   0.0000018672   0.0000068745   0.0000281406   0.0000074523
        0.0000046080   0.0000570924   0.0000023215  -0.0000026170   0.0000225908
        0.0001401749  -0.0001995489  -0.0000498448  -0.0001768095  -0.0003925003
       -0.0003764317   0.0004505418   0.0003922046  -0.0001492522   0.0009488436
        0.0000688079   0.0010113816  -0.0023410425  -0.0002011299   0.0004042764
        0.0000444310   0.0000128042  -0.0000759489   0.0002705093  -0.0000016597
        0.0001311398  -0.0001847318   0.0000323738  -0.0000251777  -0.0001678005
        0.0000801144  -0.0001254998  -0.0000961025   0.0001285543  -0.0000973930
       -0.0000519581   0.0000949142  -0.0001280427   0.0000804059  -0.0000213753
       -0.0000995182   0.0001817369  -0.0000962668   0.0000762955  -0.0001899831
        0.0005249740  -0.0007454021  -0.0000417552   0.0002054396  -0.0022364499
        0.0001502501  -0.0028009420   0.0008284996   0.0001480680  -0.0002833747
        0.0002503009  -0.0001474302  -0.0019117186  -0.0002533153  -0.0002158289
        0.0002849438   0.0001955728   0.0001070880  -0.0001248052   0.0000277982
        0.0001958978   0.0000287741   0.0000542345   0.0000565724   0.0002490345
       -0.0001289588  -0.0000143133   0.0000718215   0.0000529231  -0.0000443329
        0.0000310102  -0.0000047613  -0.0000108964   0.0000152747  -0.0000215377
       -0.0000148560   0.0000107396  -0.0000050414  -0.0000143612   0.0000067150
       -0.0000102503  -0.0000143315  -0.0000104216  -0.0000157739  -0.0000191568
       -0.0000166538  -0.0000096438  -0.0001009499  -0.0002430370  -0.0001617024
       -0.0000907939  -0.0010042009   0.0004912263  -0.0010335032
       -0.0912423563  -0.1129934760   0.1161237181  -0.0076149687   0.4439695427
       -0.1411159047   0.0587265435  -0.1142306893  -0.0154594543   0.0011754963
        0.0095373545  -0.0044113198  -0.0047120363   0.0040334506   0.0017819200
        0.0027954428  -0.0047200653  -0.0020663537  -0.0032573804   0.0027717285
        0.0018293311   0.0010136987   0.0006713091  -0.0012979827   0.0000086996
        0.0000099026   0.0001962953  -0.0002156066   0.0002050871   0.0000580096
        0.0002495159  -0.0002875489   0.0001675092  -0.0000901935   0.0000650867
       -0.0004655250   0.0002018710  -0.0003892186   0.0007520001  -0.0004165049
        0.0004360353   0.0002556058  -0.0001961433   0.0003140049  -0.0007843845
        0.0002282327  -0.0002174461   0.0004646714   0.0001142048  -0.0000712364
       -0.0003715445  -0.0001703598   0.0002126117   0.0001730599  -0.0000626334
        0.0000562384  -0.0000834381   0.0000812223  -0.0017046792   0.0007443316
       -0.0029042652  -0.0058449085   0.0023138477   0.0222878091  -0.0318721372
       -0.0083465775   0.0198808050  -0.1500534580   0.0383865848   0.0092198473
       -0.0389600710   0.0005791625   0.0009624478  -0.0016021230  -0.0048126735
       -0.0000130988  -0.0021305309  -0.0000055720   0.0008683674   0.0045346812
       -0.0009708521  -0.0073265022  -0.0052946562   0.0150464110   0.0001267121
        0.0078143817   0.0025755109   0.0013945455  -0.0022092285  -0.0024783590
       -0.0008124126  -0.0017476905  -0.0007070850   0.0000263512   0.0003671601
        0.0005994928  -0.0003866584  -0.0004063155   0.0000197642   0.0002014990
        0.0003655222  -0.0001903239  -0.0002560292  -0.0004938484   0.0002217054
       -0.0000986021   0.0001849095  -0.0000026506  -0.0002166437   0.0000274031
        0.0001010625   0.0000240873  -0.0001465801   0.0001057694   0.0002173021
        0.0000999361   0.0000447068  -0.0000547796   0.0000848300  -0.0000815789
        0.0000727426  -0.0000855821   0.0000614542   0.0000186908  -0.0001634366
        0.0001002804  -0.0001007312   0.0002219054  -0.0001661615   0.0001388022
       -0.0000071333   0.0000845675   0.0000340159   0.0000844475  -0.0000468166
       -0.0000886513  -0.0000623202  -0.0000039140   0.0000809882  -0.0001317780
        0.0001005826  -0.0001398567  -0.0000793237  -0.0002605061  -0.0001311320
       -0.0012114883   0.0003172030   0.0005424234   0.0008059829   0.0000240764
       -0.0011083102  -0.0001006699   0.0013128461  -0.0008962479   0.0003768509
        0.0006653228  -0.0000467974   0.0001112110  -0.0002638435  -0.0000028676
       -0.0000164887   0.0000573956  -0.0000315096   0.0000179779   0.0000572482
       -0.0000321694   0.0000478788   0.0000321761  -0.0000491902   0.0000374135
        0.0000115693  -0.0000344084   0.0000322843  -0.0000346463   0.0000344608
        0.0000097583  -0.0000719889   0.0000844564  -0.0000955194   0.0000891957
        0.0009726509  -0.0007729291  -0.0003267906   0.0009444404  -0.0007209451
       -0.0006066875  -0.0007272405   0.0000677660   0.0009983956  -0.0000383867
       -0.0002059682   0.0003999875  -0.0001974327   0.0003324061  -0.0002645772
        0.0001768382   0.0007350141  -0.0008252068   0.0000816992   0.0000356669
       -0.0001200283  -0.0000840413  -0.0000379945  -0.0000796663   0.0000615623
       -0.0000887185  -0.0001343227   0.0000073569  -0.0000511630   0.0000051251
       -0.0000046745   0.0000041004  -0.0000055422  -0.0000054220   0.0000100901
       -0.0000081343  -0.0000064806  -0.0000023380  -0.0000058502   0.0000026239
        0.0000136889  -0.0000066060   0.0000103079   0.0000250479   0.0000003223
       -0.0000280161   0.0000679331  -0.0000378414  -0.0001055506   0.0000067415
       -0.0000357695   0.0008375306   0.0004043628   0.0000982610
        0.2560849551   0.1154602627  -0.3642892363  -0.2794035932  -0.1411159047
        0.5252985526   0.0117995866  -0.0162428172  -0.0671475348   0.0169974296
       -0.0028776678  -0.0121277511   0.0008586902   0.0057170199   0.0049119153
        0.0060388327  -0.0045711449  -0.0027024588  -0.0044049065   0.0030448720
        0.0003788022   0.0012931584   0.0006401135  -0.0004357368  -0.0002408892
        0.0005101065  -0.0003701969  -0.0005874439   0.0005222557   0.0004642649
        0.0006892567  -0.0007445896   0.0002936491  -0.0000564163   0.0001212307
       -0.0011362301   0.0009100820  -0.0012812098   0.0013507538  -0.0011835789
        0.0012377569   0.0007255095   0.0001273026   0.0002463177  -0.0020997819
        0.0004964312  -0.0005181935   0.0009422250   0.0004526455  -0.0003604281
       -0.0010701867  -0.0006129870   0.0007366464   0.0002020457  -0.0000612752
       -0.0000918932   0.0007139191  -0.0007389679  -0.0014547186   0.0002201343
       -0.0005068372   0.0020044989   0.0098935978   0.0011442864  -0.0110515400
        0.0024661839  -0.0048890750   0.0364492253  -0.0770476752  -0.0038603322
       -0.0030924056   0.0111541391   0.0011923890  -0.0053161136   0.0003550848
        0.0000349019   0.0008820065  -0.0016725053   0.0015356837  -0.0009636223
       -0.0044048326   0.0011093074   0.0229259857  -0.0206014101  -0.0012369024
       -0.0012108511  -0.0017259712  -0.0002141218   0.0005564513   0.0014738933
        0.0008939026   0.0010896402  -0.0007402551   0.0002443840  -0.0008902581
       -0.0000617701   0.0009106798  -0.0000142503  -0.0001111983  -0.0009285372
       -0.0008809240   0.0007033202   0.0008228078   0.0007327718  -0.0005514491
        0.0001990035  -0.0002293974   0.0000821999   0.0001844411  -0.0001402599
       -0.0001775028   0.0001308134   0.0001021506  -0.0000787692  -0.0002325518
       -0.0000727117  -0.0000906731   0.0001630780  -0.0001756057   0.0001395082
       -0.0003964875   0.0001128854  -0.0001351426   0.0002522785   0.0003330084
       -0.0001033128   0.0001818395  -0.0002895587   0.0003030306  -0.0002133167
        0.0000454767  -0.0001853389   0.0000058839  -0.0002100481   0.0001118787
        0.0001058373   0.0000983407  -0.0000511071  -0.0000552837   0.0000260980
       -0.0001209053  -0.0003473635   0.0001913177   0.0002615533  -0.0002759031
        0.0006563361  -0.0003596134  -0.0015939701   0.0001288450   0.0002984794
       -0.0008580265  -0.0002277105  -0.0012169486   0.0000456579  -0.0000694489
        0.0003983829  -0.0000227344  -0.0000102550  -0.0000307816   0.0000185032
       -0.0000915135   0.0001094486  -0.0000249520   0.0000052173   0.0001112211
       -0.0000583146   0.0000743663   0.0000572737  -0.0000874383   0.0000598848
        0.0000294155  -0.0000690150   0.0000799630  -0.0000480241  -0.0000089795
        0.0001041431  -0.0001205761   0.0000176581  -0.0000721723   0.0001155041
       -0.0004836481   0.0005299607   0.0001561584  -0.0013528608   0.0018982394
       -0.0026186675   0.0009483525  -0.0027463564  -0.0003270945   0.0003442157
       -0.0014583775   0.0003635987  -0.0001811000  -0.0002179772   0.0000575489
       -0.0000729352   0.0008165914  -0.0002872464  -0.0000533486   0.0000916520
       -0.0000987228  -0.0000231747   0.0000939167   0.0000023966  -0.0000902871
        0.0000897353   0.0001572580  -0.0000903784   0.0000317614   0.0000186981
       -0.0000229210   0.0000518888  -0.0000070445   0.0000040449   0.0000488113
        0.0000021743   0.0000277306   0.0000314261   0.0000175018   0.0000322483
        0.0000123207   0.0000272796   0.0000248195  -0.0000185878   0.0000279955
       -0.0000270761   0.0000026303   0.0000301341   0.0001804751   0.0001945999
        0.0000769545  -0.0009356632  -0.0000802152  -0.0001499331
       -0.0448760273   0.0084194927   0.0477081853  -0.1161846088   0.0587265435
        0.0117995866   0.5171053574   0.0134079976  -0.2025244945  -0.2239591594
       -0.0984676516   0.0813925739  -0.0540551617   0.0412259941   0.0247955220
       -0.0090007184  -0.0323728276  -0.0005161781  -0.0048399592   0.0050595132
        0.0025585291   0.0019502593   0.0010246226  -0.0004469787  -0.0004713187
        0.0006080903   0.0000977276  -0.0004938584   0.0006534209   0.0004352857
        0.0007174891  -0.0006813715   0.0002481565  -0.0000542589   0.0000073206
       -0.0010663995   0.0009736140  -0.0013230034   0.0014819129  -0.0010802287
        0.0012336718   0.0006640170  -0.0001216214   0.0004033476  -0.0020693890
        0.0006417371  -0.0005770596   0.0010723848   0.0005661942  -0.0004467322
       -0.0011062986  -0.0006040143   0.0009368503   0.0001938597   0.0000950700
       -0.0003229119   0.0007032830  -0.0006011859  -0.0026813236   0.0003630368
        0.0214587921   0.0158263633  -0.0065368173  -0.0764841811  -0.0040298706
        0.0215722924   0.0016272498   0.0159439362   0.0056591649   0.0003259992
        0.0010311454  -0.0021663627  -0.0008627675   0.0002296289   0.0003942940
        0.0000387830  -0.0004152895  -0.0000512310  -0.0004533708   0.0002669600
        0.0003726073  -0.0007553058  -0.0020542721   0.0007804535   0.0010845895
        0.0011790414   0.0017653412   0.0003334870  -0.0002826380  -0.0008913726
       -0.0013365724  -0.0009422048  -0.0014547471  -0.0003688655   0.0001125735
       -0.0005097472  -0.0001720020   0.0000939256   0.0000906936   0.0003218354
        0.0003846294   0.0000634950  -0.0002694609  -0.0004577482  -0.0001085196
       -0.0000965251   0.0002297424   0.0000898008   0.0001672839  -0.0000308049
       -0.0001815988  -0.0000409585  -0.0000706453  -0.0000448020   0.0000878229
        0.0000118597   0.0000308379  -0.0000321922   0.0000046265  -0.0000590045
        0.0001042559  -0.0000177790   0.0000891842  -0.0001088626  -0.0000688153
       -0.0000090496  -0.0000942570   0.0000522248  -0.0000392861   0.0000720248
       -0.0000330654   0.0000408968  -0.0000091982   0.0000396043  -0.0000332818
       -0.0000328754  -0.0000517568   0.0000082905  -0.0000116433  -0.0000239447
       -0.0000434427   0.0002853957  -0.0000050487   0.0000784106   0.0001252648
       -0.0001551552  -0.0000564207  -0.0005627673  -0.0002048659  -0.0010269627
       -0.0026082898  -0.0043872729   0.0045887431  -0.0009232521   0.0030774251
        0.0049838229  -0.0003872070   0.0001167293   0.0000866502  -0.0000219587
       -0.0000962581   0.0001453033  -0.0000637471  -0.0000188420   0.0001235685
       -0.0000771030   0.0000788121   0.0000495826  -0.0001071207   0.0000449621
        0.0000299379  -0.0000964749   0.0000478336  -0.0000923172   0.0000171218
        0.0000784101  -0.0001477363   0.0000388137  -0.0001029263   0.0000485847
       -0.0009189830   0.0031915996   0.0044598742  -0.0047859358  -0.0238712882
        0.0015156369  -0.0000061574  -0.0003916569   0.0001009280   0.0000634888
        0.0003304591  -0.0000238852   0.0001149633   0.0001009425  -0.0000238097
        0.0000084535  -0.0000279690  -0.0000556652  -0.0000810034   0.0001711451
        0.0001082614  -0.0000570772  -0.0000211890  -0.0000035556  -0.0001295974
        0.0001672498   0.0001493654  -0.0000631674  -0.0000101999   0.0000176788
       -0.0000239085  -0.0000259648   0.0000103572  -0.0000202888  -0.0000050982
        0.0000067608  -0.0000151748  -0.0000029414   0.0000072549  -0.0000138474
        0.0000072014   0.0000022625  -0.0000063700   0.0000176156   0.0000030998
        0.0000222149   0.0000093788   0.0000394244   0.0000512367   0.0000512335
        0.0000701529   0.0000417935   0.0000742685   0.0001922801
        0.0100405616   0.0164393328  -0.0073507451   0.0486752571  -0.1142306893
       -0.0162428172   0.0134079976   0.6114284717  -0.0456478473  -0.0511763120
       -0.1232678936   0.0279067679  -0.0063350964   0.0447820515   0.0055016067
       -0.0340781217  -0.0306298909   0.0159382561   0.0054551697  -0.0032215747
       -0.0023570535  -0.0017914697  -0.0011931615   0.0014798747  -0.0002140977
       -0.0003048589   0.0007938073   0.0007845486  -0.0002953251  -0.0005865052
       -0.0007565584   0.0009257126  -0.0001832120   0.0001330316  -0.0001182558
        0.0012213474  -0.0005127443   0.0008081787  -0.0015142044   0.0010536047
       -0.0008624656  -0.0007074603  -0.0002516480  -0.0000434839   0.0019643841
       -0.0004613140   0.0004131564  -0.0006213293  -0.0002211616   0.0002793089
        0.0007182000   0.0006242793  -0.0003482412  -0.0003046832   0.0005739272
       -0.0004972238  -0.0003587833   0.0007601049   0.0015986236   0.0003239399
        0.0647512132  -0.0484331646  -0.0337918767  -0.0513970017  -0.2921441583
        0.0392256573   0.0219295878  -0.0250172848   0.0021170638   0.0007556807
       -0.0017646918   0.0029216388  -0.0012272385  -0.0009051136  -0.0000568133
        0.0000452919   0.0005631919   0.0000780556  -0.0011556832  -0.0009685124
       -0.0000299605   0.0010288872  -0.0009549867  -0.0019779746   0.0011572240
       -0.0013935214  -0.0009958766  -0.0006969023   0.0005210244   0.0004047307
        0.0006836548   0.0010404253   0.0004592775  -0.0000386370  -0.0003044795
       -0.0005739464   0.0002893113  -0.0000264146  -0.0000236250  -0.0003414042
       -0.0004439180   0.0000458145   0.0001352951   0.0004489214  -0.0000094030
        0.0001224644  -0.0002326762  -0.0000140933  -0.0000403485   0.0000379248
        0.0000721443   0.0000467213   0.0001206170   0.0000206084  -0.0000781053
       -0.0000018060  -0.0000220261   0.0000216735  -0.0000156656   0.0000444120
       -0.0000014991   0.0000420765  -0.0000572427  -0.0000203472   0.0000832642
       -0.0000396738   0.0000817712  -0.0001033530   0.0000635845  -0.0000576619
        0.0000195645  -0.0000310816  -0.0000039325  -0.0000285711   0.0000211776
        0.0000384290   0.0000418259  -0.0000009269  -0.0000086606   0.0000327928
        0.0000188045  -0.0000860641   0.0000224632   0.0000063741  -0.0001135248
        0.0003027574   0.0000901745  -0.0001519670   0.0000396604   0.0003740939
       -0.0238616585  -0.0141143114   0.0108801154   0.0035748590  -0.0014605636
       -0.0012656254  -0.0001481635  -0.0000104689   0.0001791337  -0.0000034694
        0.0000807348  -0.0001039412  -0.0000445953  -0.0000516704  -0.0001287809
        0.0000287088  -0.0001023333  -0.0000594888   0.0000606023  -0.0000752886
       -0.0000386340   0.0000168204  -0.0001282054   0.0000530239  -0.0000008128
       -0.0000871397   0.0001340982   0.0001084492  -0.0003417460  -0.0001470602
        0.0029134341  -0.0012529052  -0.0015742264  -0.0047561022  -0.0140414931
        0.0036701142   0.0005109790   0.0003271244   0.0001179618  -0.0000885792
       -0.0003419290   0.0000203722   0.0003509333   0.0000142185   0.0000870022
       -0.0000401956  -0.0001685911   0.0001344905   0.0000496263  -0.0000800229
        0.0000108181   0.0000767503   0.0000221492   0.0000428910  -0.0000103717