 Entering Gaussian System
 *********************************************
 Gaussian 98:
 frequency output generated by the xtb code
 *********************************************
                         Standard orientation:
 --------------------------------------------------------------------
  Center     Atomic     Atomic              Coordinates (Angstroms)
  Number     Number      Type              X           Y           Z
 --------------------------------------------------------------------
    1          6             0       -0.041743   -6.785806   -0.620612
    2          6             0        1.163302   -6.104365   -0.550416
    3          6             0        1.174365   -4.728552   -0.428730
    4          6             0       -0.024136   -4.021037   -0.376048
    5          6             0       -0.015514   -2.564719   -0.254744
    6          7             0       -1.152255   -1.910500   -0.199582
    7          6             0       -1.201749   -0.547645   -0.099540
    8          6             0       -2.507969    0.055725   -0.029808
    9          6             0       -2.717007    1.440582   -0.085976
   10          6             0       -3.994998    1.972736   -0.021182
   11          6             0       -4.191225    3.427261   -0.103322
   12          6             0       -5.235363    3.975488   -0.847486
   13          6             0       -5.372501    5.352024   -0.894614
   14          7             0       -4.562163    6.184151   -0.264895
   15          6             0       -3.571441    5.673085    0.444256
   16          6             0       -3.340969    4.313048    0.557904
   17          6             0       -5.094657    1.126529    0.115451
   18          6             0       -4.910463   -0.254369    0.176155
   19          6             0       -6.065027   -1.151081    0.329721
   20          6             0       -6.144041   -2.355301   -0.369002
   21          6             0       -7.252248   -3.163666   -0.184737
   22          7             0       -8.248740   -2.854780    0.625951
   23          6             0       -8.181565   -1.716045    1.291978
   24          6             0       -7.121659   -0.832363    1.181673
   25          6             0       -3.632006   -0.776816    0.095426
   26          6             0       -0.000329    0.154840   -0.054507
   27          6             0        1.194597   -0.560337   -0.106041
   28          6             0        2.507752    0.027090   -0.048084
   29          6             0        2.731313    1.411037   -0.035376
   30          6             0        4.015729    1.926663    0.033159
   31          6             0        4.223959    3.381647    0.048939
   32          6             0        3.477657    4.231058   -0.767440
   33          6             0        3.714506    5.593525   -0.710170
   34          7             0        4.616996    6.140257    0.084930
   35          6             0        5.328950    5.342933    0.861458
   36          6             0        5.175907    3.967541    0.882710
   37          6             0        5.109945    1.064131    0.091082
   38          6             0        4.912783   -0.316357    0.064493
   39          6             0        6.061486   -1.231623    0.119605
   40          6             0        6.100874   -2.391654   -0.653369
   41          6             0        7.204998   -3.220828   -0.559184
   42          7             0        8.233641   -2.972294    0.231858
   43          6             0        8.204621   -1.875527    0.967470
   44          6             0        7.152201   -0.976542    0.949817
   45          6             0        3.626855   -0.821062   -0.006326
   46          7             0        1.127761   -1.922341   -0.210083
   47          6             0       -1.231535   -4.711732   -0.446529
   48          6             0       -1.238046   -6.087559   -0.568148
   49          1             0       -0.048562   -7.861487   -0.716424
   50          1             0        2.094606   -6.649773   -0.591013
   51          1             0        2.104703   -4.184136   -0.373051
   52          1             0       -1.883279    2.111866   -0.220909
   53          1             0       -5.914304    3.339005   -1.393969
   54          1             0       -6.167759    5.814411   -1.464664
   55          1             0       -2.935178    6.391024    0.945312
   56          1             0       -2.528098    3.945328    1.165413
   57          1             0       -6.089308    1.541888    0.171620
   58          1             0       -5.363537   -2.643996   -1.056016
   59          1             0       -7.351455   -4.104034   -0.711208
   60          1             0       -9.017928   -1.505314    1.945657
   61          1             0       -7.106574    0.077914    1.761218
   62          1             0       -3.472910   -1.842084    0.162187
   63          1             0        0.004747    1.226731    0.043708
   64          1             0        1.899665    2.097716   -0.058861
   65          1             0        2.741155    3.832544   -1.448418
   66          1             0        3.157675    6.283547   -1.330769
   67          1             0        6.054455    5.833901    1.496926
   68          1             0        5.771022    3.361625    1.548510
   69          1             0        6.111482    1.466433    0.104543
   70          1             0        5.292838   -2.630250   -1.327632
   71          1             0        7.273589   -4.128257   -1.144996
   72          1             0        9.066577   -1.713597    1.601541
   73          1             0        7.169466   -0.103531    1.583932
   74          1             0        3.458241   -1.886891    0.001358
   75          1             0       -2.154590   -4.153735   -0.405858
   76          1             0       -2.176163   -6.619923   -0.622719
 --------------------------------------------------------------------
     1 basis functions        1 primitive gaussians
     1 alpha electrons        1 beta electrons
 
 Harmonic frequencies (cm**-1), IR intensities (km*mol⁻¹),
 Raman scattering activities (A**4/amu), Raman depolarization ratios,
 reduced masses (AMU), force constants (mDyne/A) and normal coordinates:
                      1                      2                      3
                        a                      a                      a 
 Frequencies --     4.7279                 6.7038                19.4519
 Red. masses --    11.8736                11.6458                11.9121
 Frc consts  --     0.0000                 0.0000                 0.0000
 IR Inten    --     0.5761                 0.8738                 0.2216
 Raman Activ --     0.0000                 0.0000                 0.0000
 Depolar     --     0.0000                 0.0000                 0.0000
 Atom AN      X      Y      Z        X      Y      Z        X      Y      Z
   1   6    -0.01   0.00  -0.01     0.00   0.02  -0.28    -0.00   0.09   0.02
   2   6    -0.01   0.00  -0.03     0.00   0.02  -0.26    -0.00   0.08   0.03
   3   6    -0.00   0.00  -0.03     0.00   0.01  -0.20    -0.00   0.08   0.03
   4   6    -0.00   0.00  -0.01     0.00   0.01  -0.18    -0.00   0.09   0.01
   5   6    -0.00   0.00  -0.00    -0.00   0.00  -0.12     0.00   0.09   0.01
   6   7     0.00   0.00   0.00    -0.00   0.00  -0.11     0.00   0.10   0.00
   7   6     0.00   0.00   0.01    -0.00  -0.00  -0.06     0.00   0.09  -0.00
   8   6     0.00   0.00   0.02     0.00  -0.00  -0.03    -0.01   0.07  -0.00
   9   6     0.00   0.00   0.07    -0.00  -0.00  -0.04    -0.05   0.06  -0.00
  10   6     0.00   0.00   0.08     0.00  -0.00  -0.01    -0.07   0.02  -0.01
  11   6     0.00   0.01   0.15    -0.00  -0.00  -0.03    -0.13   0.01  -0.01
  12   6     0.01   0.04   0.16    -0.03  -0.02  -0.00    -0.15  -0.04  -0.02
  13   6     0.01   0.04   0.23    -0.04  -0.02  -0.03    -0.22  -0.05  -0.01
  14   7     0.01   0.02   0.30    -0.01  -0.01  -0.08    -0.29  -0.01  -0.00
  15   6    -0.00  -0.02   0.26     0.02   0.01  -0.10    -0.25   0.04  -0.00
  16   6    -0.00  -0.03   0.20     0.02   0.01  -0.08    -0.18   0.05  -0.00
  17   6    -0.00  -0.00   0.03     0.01  -0.00   0.05    -0.05  -0.02  -0.01
  18   6    -0.00  -0.01  -0.03     0.01   0.00   0.07    -0.00  -0.01  -0.01
  19   6    -0.00  -0.01  -0.08     0.02   0.00   0.13     0.03  -0.06  -0.01
  20   6     0.00   0.02  -0.13    -0.01  -0.01   0.16     0.09  -0.07  -0.00
  21   6     0.00   0.01  -0.19    -0.00  -0.01   0.22     0.13  -0.12   0.01
  22   7    -0.01  -0.02  -0.20     0.03   0.01   0.27     0.12  -0.17   0.00
  23   6    -0.02  -0.05  -0.14     0.06   0.02   0.23     0.06  -0.15  -0.00
  24   6    -0.02  -0.05  -0.08     0.05   0.02   0.17     0.02  -0.10  -0.01
  25   6    -0.00  -0.00  -0.03     0.01  -0.00   0.03     0.02   0.03  -0.00
  26   6     0.00   0.00   0.00    -0.00  -0.00  -0.04     0.00   0.09  -0.01
  27   6     0.00   0.00  -0.01    -0.00   0.00  -0.06    -0.00   0.09  -0.00
  28   6     0.00   0.00  -0.02    -0.00  -0.00  -0.03     0.01   0.07   0.00
  29   6     0.00   0.00  -0.08    -0.00  -0.00  -0.04     0.05   0.06   0.01
  30   6     0.00   0.00  -0.08    -0.00  -0.00  -0.00     0.07   0.02   0.01
  31   6     0.01   0.00  -0.15    -0.00  -0.00  -0.02     0.13   0.01   0.01
  32   6     0.02  -0.04  -0.20     0.03  -0.02  -0.07     0.17   0.04   0.00
  33   6     0.02  -0.03  -0.27     0.03  -0.02  -0.08     0.24   0.03  -0.01
  34   7     0.02   0.00  -0.31     0.00  -0.00  -0.07     0.29  -0.01  -0.01
  35   6     0.00   0.04  -0.23    -0.03   0.01  -0.02     0.23  -0.04  -0.01
  36   6    -0.00   0.04  -0.17    -0.03   0.01   0.00     0.16  -0.03   0.00
  37   6     0.00   0.00  -0.03    -0.01  -0.00   0.05     0.04  -0.02   0.00
  38   6    -0.00   0.00   0.03    -0.01  -0.00   0.07     0.00  -0.01  -0.00
  39   6    -0.00   0.00   0.09    -0.01  -0.00   0.13    -0.03  -0.06  -0.00
  40   6     0.01  -0.03   0.14     0.02  -0.02   0.15    -0.08  -0.06  -0.00
  41   6     0.00  -0.03   0.19     0.01  -0.02   0.21    -0.12  -0.11   0.00
  42   7    -0.01   0.00   0.21    -0.02  -0.01   0.27    -0.12  -0.17   0.00
  43   6    -0.02   0.03   0.15    -0.05   0.00   0.23    -0.06  -0.15  -0.00
  44   6    -0.01   0.04   0.09    -0.04   0.01   0.17    -0.02  -0.10  -0.01
  45   6    -0.00  -0.00   0.04    -0.00  -0.00   0.02    -0.02   0.03  -0.00
  46   7     0.00  -0.00  -0.01    -0.00   0.01  -0.11    -0.00   0.10   0.01
  47   6    -0.00   0.00   0.02     0.00   0.01  -0.20    -0.00   0.09   0.00
  48   6    -0.01   0.00   0.02     0.00   0.02  -0.25    -0.00   0.09   0.01
  49   1    -0.00   0.00  -0.00     0.00   0.01  -0.09    -0.00   0.02   0.01
  50   1    -0.00   0.00  -0.02     0.00   0.01  -0.08    -0.00   0.02   0.01
  51   1    -0.00   0.00  -0.02     0.00   0.00  -0.05    -0.00   0.02   0.01
  52   1     0.00   0.00   0.03    -0.00  -0.00  -0.03    -0.02   0.03   0.00
  53   1     0.01   0.02   0.04    -0.02  -0.01   0.01    -0.03  -0.02  -0.01
  54   1     0.01   0.02   0.07    -0.02  -0.01  -0.00    -0.07  -0.02  -0.00
  55   1    -0.00  -0.01   0.09     0.01   0.01  -0.04    -0.08   0.02   0.00
  56   1    -0.00  -0.02   0.06     0.01   0.01  -0.03    -0.05   0.02  -0.00
  57   1    -0.00  -0.00   0.01     0.00  -0.00   0.02    -0.02  -0.01  -0.00
  58   1     0.00   0.01  -0.04    -0.01  -0.01   0.04     0.03  -0.01   0.00
  59   1     0.00   0.01  -0.07    -0.01  -0.01   0.07     0.05  -0.04   0.00
  60   1    -0.01  -0.02  -0.04     0.02   0.01   0.08     0.01  -0.05  -0.00
  61   1    -0.01  -0.02  -0.01     0.02   0.01   0.04    -0.01  -0.03  -0.00
  62   1    -0.00  -0.00  -0.02     0.00   0.00   0.01     0.02   0.01   0.00
  63   1     0.00   0.00   0.00    -0.00  -0.00   0.00     0.00   0.03  -0.01
  64   1     0.00   0.00  -0.04     0.00  -0.00  -0.03     0.02   0.02   0.00
  65   1     0.01  -0.02  -0.06     0.02  -0.01  -0.03     0.04   0.02   0.00
  66   1     0.01  -0.02  -0.09     0.02  -0.01  -0.03     0.08   0.02  -0.00
  67   1    -0.00   0.02  -0.07    -0.01   0.01  -0.00     0.07  -0.02  -0.00
  68   1    -0.00   0.02  -0.04    -0.02   0.01   0.01     0.04  -0.02   0.00
  69   1     0.00   0.00  -0.01    -0.00  -0.00   0.02     0.02  -0.01   0.00
  70   1     0.00  -0.02   0.04     0.01  -0.01   0.03    -0.03  -0.01  -0.00
  71   1     0.00  -0.02   0.07     0.01  -0.01   0.07    -0.05  -0.03   0.00
  72   1    -0.01   0.02   0.04    -0.02   0.00   0.08    -0.02  -0.05  -0.00
  73   1    -0.01   0.02   0.02    -0.02   0.00   0.04     0.00  -0.03  -0.00
  74   1    -0.00   0.00   0.02    -0.00  -0.00   0.01    -0.01   0.01  -0.00
  75   1    -0.00  -0.00   0.01     0.00   0.00  -0.05    -0.00   0.03  -0.00
  76   1    -0.00  -0.00   0.01     0.00   0.01  -0.08    -0.00   0.03   0.00
                      4                      5                      6
                        a                      a                      a 
 Frequencies --    22.4052                22.9879                36.5573
 Red. masses --     9.7975                11.3526                11.2883
 Frc consts  --     0.0000                 0.0000                 0.0000
 IR Inten    --     0.0056                 0.1407                 0.3455
 Raman Activ --     0.0000                 0.0000                 0.0000
 Depolar     --     0.0000                 0.0000                 0.0000
 Atom AN      X      Y      Z        X      Y      Z        X      Y      Z
   1   6     0.00   0.01  -0.03     0.00  -0.04   0.28     0.38  -0.00   0.00
   2   6     0.01   0.05  -0.46     0.00  -0.02   0.15     0.32   0.10   0.01
   3   6     0.00   0.04  -0.44     0.00  -0.01   0.01     0.19   0.10   0.01
   4   6    -0.00   0.00   0.00     0.00  -0.01  -0.00     0.13  -0.00  -0.00
   5   6    -0.00   0.00   0.02     0.00  -0.00  -0.12     0.03  -0.00  -0.00
   6   7     0.00   0.00   0.07     0.00   0.00  -0.17     0.00  -0.05  -0.01
   7   6     0.00   0.00   0.06     0.00   0.01  -0.21    -0.03  -0.04  -0.01
   8   6     0.00   0.00   0.06     0.00   0.01  -0.18    -0.04  -0.06  -0.02
   9   6     0.00   0.00   0.04     0.00   0.01  -0.15    -0.03  -0.05  -0.02
  10   6    -0.00  -0.00   0.02     0.01   0.01  -0.07    -0.02  -0.04  -0.00
  11   6    -0.00  -0.00  -0.01     0.00   0.01  -0.00     0.00  -0.03   0.00
  12   6     0.02  -0.02  -0.04    -0.05   0.05   0.09    -0.01  -0.01   0.04
  13   6     0.02  -0.02  -0.07    -0.05   0.05   0.17     0.02  -0.01   0.04
  14   7     0.00  -0.01  -0.08    -0.01   0.02   0.17     0.07  -0.03   0.01
  15   6    -0.02   0.01  -0.04     0.04  -0.01   0.06     0.08  -0.05  -0.02
  16   6    -0.02   0.01  -0.01     0.05  -0.02  -0.02     0.05  -0.05  -0.03
  17   6    -0.00  -0.00   0.01     0.01   0.01  -0.03    -0.03  -0.02   0.02
  18   6    -0.00   0.00   0.02     0.01   0.01  -0.07    -0.04  -0.03   0.01
  19   6    -0.00  -0.00   0.00     0.02   0.00  -0.02    -0.07   0.01   0.02
  20   6     0.02  -0.01   0.01    -0.02   0.02  -0.04    -0.14   0.03  -0.01
  21   6     0.01  -0.01  -0.01    -0.01   0.01   0.03    -0.19   0.09  -0.02
  22   7    -0.01  -0.00  -0.05     0.06  -0.01   0.11    -0.18   0.14  -0.01
  23   6    -0.03   0.00  -0.05     0.10  -0.02   0.12    -0.10   0.11   0.02
  24   6    -0.03   0.00  -0.03     0.08  -0.02   0.06    -0.05   0.05   0.04
  25   6    -0.00   0.00   0.04     0.01   0.01  -0.15    -0.05  -0.05  -0.01
  26   6     0.00   0.00   0.03     0.00   0.01  -0.25    -0.06  -0.00  -0.00
  27   6     0.00   0.00  -0.00     0.00   0.01  -0.22    -0.03   0.04   0.01
  28   6     0.00   0.00  -0.01     0.00   0.01  -0.19    -0.04   0.06   0.01
  29   6     0.00   0.00  -0.00     0.00   0.01  -0.16    -0.03   0.05   0.02
  30   6     0.00   0.00   0.00    -0.00   0.00  -0.07    -0.02   0.04   0.00
  31   6     0.01  -0.00   0.01    -0.01   0.00  -0.00     0.00   0.03   0.00
  32   6     0.01   0.01   0.01     0.05   0.04  -0.01     0.00   0.05   0.02
  33   6     0.01   0.01   0.02     0.03   0.04   0.07     0.04   0.05   0.01
  34   7     0.01  -0.00   0.03    -0.04   0.00   0.18     0.08   0.03  -0.02
  35   6     0.00  -0.01   0.03    -0.08  -0.03   0.18     0.08   0.01  -0.03
  36   6     0.00  -0.01   0.02    -0.07  -0.03   0.10     0.04   0.01  -0.02
  37   6     0.00  -0.00   0.00    -0.01   0.00  -0.03    -0.03   0.03  -0.01
  38   6     0.00  -0.00   0.00    -0.01   0.00  -0.08    -0.04   0.03  -0.01
  39   6    -0.00  -0.00   0.00    -0.01  -0.00  -0.02    -0.07  -0.01  -0.02
  40   6     0.00   0.00  -0.00     0.04   0.02  -0.04    -0.14  -0.03   0.00
  41   6     0.00   0.00  -0.00     0.03   0.01   0.03    -0.19  -0.09   0.02
  42   7    -0.00  -0.01   0.01    -0.03  -0.02   0.12    -0.19  -0.14   0.02
  43   6    -0.01  -0.01   0.01    -0.08  -0.03   0.14    -0.11  -0.11  -0.01
  44   6    -0.01  -0.01   0.01    -0.07  -0.02   0.07    -0.06  -0.05  -0.03
  45   6    -0.00   0.00  -0.00    -0.00   0.00  -0.15    -0.05   0.05   0.00
  46   7    -0.00   0.01  -0.03     0.00   0.00  -0.18     0.01   0.04   0.01
  47   6    -0.00  -0.03   0.42     0.00  -0.02   0.12     0.19  -0.11  -0.01
  48   6    -0.00  -0.03   0.41     0.00  -0.04   0.26     0.32  -0.11  -0.01
  49   1     0.00   0.00  -0.01     0.00  -0.01   0.11     0.14  -0.00   0.00
  50   1     0.00   0.02  -0.23     0.00  -0.01   0.05     0.11   0.05   0.00
  51   1     0.00   0.02  -0.22     0.00  -0.00  -0.03     0.04   0.05   0.00
  52   1     0.00   0.00   0.02    -0.00   0.00  -0.05    -0.01  -0.02  -0.01
  53   1     0.01  -0.01  -0.01    -0.02   0.02   0.03    -0.01   0.00   0.02
  54   1     0.01  -0.01  -0.03    -0.03   0.02   0.07     0.00   0.00   0.02
  55   1    -0.01   0.01  -0.01     0.02  -0.01   0.02     0.03  -0.02  -0.01
  56   1    -0.01   0.01   0.01     0.03  -0.01  -0.03     0.02  -0.02  -0.01
  57   1    -0.00  -0.00  -0.00     0.00   0.00   0.01    -0.01  -0.00   0.01
  58   1     0.01  -0.00   0.01    -0.02   0.01  -0.03    -0.05   0.00  -0.01
  59   1     0.01  -0.00  -0.00    -0.01   0.01   0.00    -0.07   0.03  -0.01
  60   1    -0.01   0.00  -0.02     0.04  -0.01   0.05    -0.02   0.04   0.01
  61   1    -0.01   0.00  -0.01     0.04  -0.01   0.02     0.00   0.01   0.02
  62   1    -0.00   0.00   0.01     0.00   0.00  -0.05    -0.02  -0.01  -0.00
  63   1     0.00   0.00   0.01     0.00   0.00  -0.09    -0.02  -0.00   0.00
  64   1     0.00   0.00  -0.00     0.00   0.00  -0.05    -0.01   0.02   0.01
  65   1     0.00   0.00   0.00     0.03   0.02  -0.03    -0.01   0.02   0.01
  66   1     0.00   0.00   0.01     0.02   0.02   0.02     0.01   0.02   0.01
  67   1     0.00  -0.00   0.01    -0.04  -0.02   0.07     0.03  -0.00  -0.01
  68   1    -0.00  -0.00   0.00    -0.03  -0.02   0.03     0.01   0.00  -0.01
  69   1     0.00  -0.00   0.00    -0.00   0.00   0.01    -0.01   0.00  -0.01
  70   1     0.00   0.00  -0.00     0.03   0.01  -0.03    -0.04   0.00   0.00
  71   1     0.00   0.00  -0.00     0.02   0.01   0.00    -0.07  -0.03   0.01
  72   1    -0.00  -0.00   0.01    -0.04  -0.01   0.06    -0.03  -0.04  -0.01
  73   1    -0.00  -0.00   0.01    -0.03  -0.01   0.03    -0.00  -0.01  -0.01
  74   1    -0.00   0.00   0.00    -0.00   0.00  -0.05    -0.02   0.01   0.00
  75   1    -0.00  -0.02   0.22     0.00  -0.01   0.03     0.04  -0.06  -0.00
  76   1    -0.00  -0.02   0.21     0.00  -0.01   0.11     0.11  -0.06  -0.00
                      7                      8                      9
                        a                      a                      a 
 Frequencies --    41.6684                42.4729                43.4933
 Red. masses --    11.0834                10.0710                10.9692
 Frc consts  --     0.0000                 0.0000                 0.0000
 IR Inten    --     0.5563                 0.1902                 0.5059
 Raman Activ --     0.0000                 0.0000                 0.0000
 Depolar     --     0.0000                 0.0000                 0.0000
 Atom AN      X      Y      Z        X      Y      Z        X      Y      Z
   1   6    -0.01   0.02  -0.02     0.05  -0.01  -0.01     0.00   0.02   0.00
   2   6    -0.01   0.02   0.00     0.04   0.01   0.00     0.00   0.01   0.06
   3   6     0.00   0.02   0.01     0.02   0.01   0.01     0.01   0.01   0.06
   4   6     0.00   0.02   0.00     0.02  -0.01  -0.00     0.01   0.02   0.01
   5   6     0.01   0.02   0.01     0.00  -0.01  -0.00     0.01   0.02   0.01
   6   7     0.01   0.03   0.03    -0.00  -0.01  -0.00     0.01   0.01   0.11
   7   6     0.02   0.02   0.03    -0.01  -0.01  -0.01     0.01   0.01   0.11
   8   6     0.02   0.03   0.03    -0.01  -0.01  -0.03     0.01   0.01   0.17
   9   6     0.02   0.02   0.04     0.00  -0.00  -0.03     0.01   0.00   0.18
  10   6     0.01   0.02   0.02    -0.00  -0.01  -0.10     0.00  -0.00   0.17
  11   6     0.03   0.02   0.01     0.01  -0.00  -0.05     0.02  -0.01   0.09
  12   6     0.10   0.04  -0.07     0.16   0.05  -0.22     0.06  -0.04   0.01
  13   6     0.13   0.04  -0.08     0.15   0.05  -0.11     0.10  -0.04  -0.13
  14   7     0.11   0.03  -0.03    -0.01   0.00   0.17     0.12  -0.01  -0.19
  15   6     0.03   0.01   0.06    -0.15  -0.05   0.32     0.06   0.03  -0.08
  16   6    -0.01   0.00   0.08    -0.15  -0.06   0.22     0.01   0.03   0.05
  17   6     0.01   0.02  -0.01    -0.01  -0.00  -0.17     0.01  -0.01   0.16
  18   6     0.02   0.02  -0.00    -0.02  -0.00  -0.10     0.01  -0.01   0.16
  19   6     0.04  -0.01  -0.01    -0.02   0.01  -0.04     0.01  -0.02   0.08
  20   6     0.10  -0.04   0.04     0.06  -0.15   0.22     0.08  -0.00   0.03
  21   6     0.14  -0.09   0.05     0.07  -0.13   0.31     0.07  -0.01  -0.08
  22   7     0.12  -0.11   0.02    -0.01   0.02   0.16    -0.00  -0.05  -0.17
  23   6     0.04  -0.07  -0.03    -0.10   0.18  -0.10    -0.06  -0.07  -0.11
  24   6    -0.00  -0.02  -0.05    -0.10   0.17  -0.20    -0.06  -0.06   0.01
  25   6     0.02   0.02   0.02    -0.01   0.00  -0.03     0.02   0.00   0.18
  26   6     0.02   0.02  -0.00    -0.01  -0.01  -0.02     0.01   0.02   0.02
  27   6     0.01   0.02  -0.02    -0.01  -0.00  -0.02     0.01   0.02  -0.08
  28   6     0.01   0.02  -0.07    -0.01   0.00  -0.01     0.01   0.03  -0.13
  29   6     0.01   0.02  -0.07    -0.01   0.00  -0.01     0.01   0.03  -0.13
  30   6     0.02   0.02  -0.14    -0.01  -0.00   0.01     0.01   0.02  -0.08
  31   6    -0.02   0.02  -0.08    -0.00  -0.00   0.01    -0.00   0.02  -0.05
  32   6    -0.18   0.07   0.12     0.05  -0.01  -0.06     0.10   0.02  -0.15
  33   6    -0.27   0.08   0.24     0.06  -0.01  -0.07     0.07   0.02  -0.10
  34   7    -0.20   0.06   0.18     0.02  -0.01  -0.03    -0.08   0.03   0.05
  35   6    -0.02   0.01  -0.04    -0.04   0.01   0.04    -0.17   0.04   0.15
  36   6     0.07  -0.00  -0.16    -0.05   0.01   0.05    -0.14   0.03   0.10
  37   6     0.02   0.02  -0.19    -0.01   0.00   0.03     0.01   0.02  -0.04
  38   6     0.02   0.02  -0.14    -0.01   0.00   0.01     0.00   0.03  -0.09
  39   6    -0.01  -0.01  -0.08    -0.01   0.00   0.00    -0.02   0.00  -0.06
  40   6    -0.11  -0.15   0.11     0.02   0.05  -0.07     0.05   0.09  -0.19
  41   6    -0.17  -0.22   0.24     0.02   0.05  -0.08     0.01   0.04  -0.12
  42   7    -0.15  -0.18   0.20    -0.01   0.00  -0.03    -0.11  -0.10   0.07
  43   6    -0.04  -0.03  -0.02    -0.04  -0.04   0.04    -0.17  -0.17   0.18
  44   6     0.03   0.05  -0.15    -0.04  -0.04   0.06    -0.13  -0.12   0.12
  45   6     0.01   0.02  -0.08    -0.01   0.00  -0.01     0.01   0.03  -0.14
  46   7     0.01   0.02  -0.02    -0.00  -0.00  -0.01     0.01   0.03  -0.09
  47   6     0.00   0.03  -0.01     0.02  -0.02  -0.01     0.01   0.03  -0.05
  48   6    -0.01   0.03  -0.02     0.04  -0.02  -0.02     0.00   0.03  -0.05
  49   1    -0.00   0.01  -0.01     0.02  -0.00  -0.00     0.00   0.01   0.00
  50   1    -0.00   0.00   0.00     0.01   0.01   0.00     0.00   0.00   0.03
  51   1     0.00   0.00   0.01     0.00   0.01   0.00     0.00   0.00   0.03
  52   1     0.00   0.01   0.02     0.00   0.00   0.01     0.00   0.00   0.05
  53   1     0.04   0.01  -0.03     0.08   0.02  -0.12     0.02  -0.02   0.01
  54   1     0.05   0.02  -0.04     0.08   0.03  -0.07     0.04  -0.02  -0.06
  55   1     0.00  -0.00   0.03    -0.08  -0.03   0.15     0.02   0.02  -0.04
  56   1    -0.02  -0.00   0.04    -0.08  -0.03   0.10    -0.01   0.02   0.03
  57   1     0.00   0.00  -0.01    -0.00   0.00  -0.07     0.00  -0.00   0.04
  58   1     0.04  -0.01   0.02     0.04  -0.08   0.10     0.04   0.01   0.02
  59   1     0.06  -0.03   0.03     0.04  -0.07   0.15     0.03   0.00  -0.04
  60   1     0.00  -0.02  -0.02    -0.05   0.09  -0.07    -0.03  -0.03  -0.05
  61   1    -0.02   0.00  -0.03    -0.05   0.09  -0.11    -0.03  -0.02   0.01
  62   1     0.01   0.01   0.01    -0.00   0.00   0.01     0.01   0.00   0.05
  63   1     0.01   0.01  -0.00    -0.00  -0.00  -0.01     0.00   0.01   0.01
  64   1     0.00   0.00  -0.01    -0.00   0.00  -0.01     0.00   0.01  -0.05
  65   1    -0.07   0.03   0.05     0.03  -0.01  -0.03     0.06   0.00  -0.08
  66   1    -0.12   0.03   0.12     0.03  -0.01  -0.04     0.04   0.00  -0.05
  67   1     0.01  -0.00  -0.03    -0.02   0.00   0.02    -0.08   0.01   0.08
  68   1     0.06  -0.01  -0.09    -0.03   0.00   0.03    -0.07   0.01   0.05
  69   1     0.01   0.00  -0.07    -0.00   0.00   0.02     0.00   0.01   0.01
  70   1    -0.04  -0.06   0.05     0.01   0.02  -0.03     0.04   0.06  -0.09
  71   1    -0.07  -0.10   0.12     0.01   0.02  -0.04     0.02   0.03  -0.06
  72   1    -0.00   0.01  -0.02    -0.02  -0.02   0.02    -0.07  -0.08   0.10
  73   1     0.03   0.04  -0.09    -0.02  -0.02   0.03    -0.05  -0.06   0.06
  74   1     0.00   0.01  -0.01    -0.00   0.00  -0.01     0.00   0.01  -0.05
  75   1     0.00   0.01  -0.01     0.01  -0.01  -0.01     0.00   0.01  -0.03
  76   1    -0.00   0.01  -0.01     0.01  -0.01  -0.01     0.00   0.01  -0.03
                     10                     11                     12
                        a                      a                      a 
 Frequencies --    45.5263                46.6863                48.3653
 Red. masses --    11.6066                 9.7979                 9.9374
 Frc consts  --     0.0000                 0.0000                 0.0000
 IR Inten    --     0.0014                 0.6180                 0.1288
 Raman Activ --     0.0000                 0.0000                 0.0000
 Depolar     --     0.0000                 0.0000                 0.0000
 Atom AN      X      Y      Z        X      Y      Z        X      Y      Z
   1   6    -0.01  -0.02   0.00    -0.02  -0.01   0.01     0.00   0.01  -0.02
   2   6    -0.00  -0.04   0.03    -0.02  -0.01   0.01     0.00   0.01  -0.02
   3   6     0.01  -0.03   0.02    -0.01  -0.01   0.00     0.00   0.01  -0.00
   4   6     0.01  -0.02  -0.01    -0.01  -0.01  -0.01     0.00   0.01   0.01
   5   6     0.02  -0.02  -0.02    -0.00  -0.01  -0.01     0.01   0.01   0.02
   6   7     0.03  -0.02   0.04    -0.00  -0.01  -0.01     0.01   0.01   0.00
   7   6     0.03  -0.02   0.04    -0.00  -0.01  -0.00     0.01   0.01  -0.01
   8   6     0.03  -0.02   0.08    -0.00  -0.01  -0.00     0.01   0.01  -0.02
   9   6     0.03  -0.02   0.05    -0.00  -0.01  -0.00     0.01   0.01  -0.08
  10   6     0.02  -0.02   0.05    -0.00  -0.01  -0.00     0.01   0.02  -0.05
  11   6    -0.03  -0.03   0.01    -0.00  -0.01  -0.00     0.01   0.02  -0.03
  12   6    -0.09  -0.11   0.03     0.00  -0.01  -0.00    -0.17   0.04   0.25
  13   6    -0.19  -0.12   0.04     0.00  -0.01  -0.00    -0.17   0.04   0.30
  14   7    -0.25  -0.07   0.02     0.00  -0.01   0.00     0.01   0.03   0.09
  15   6    -0.17   0.01  -0.02    -0.00  -0.01   0.01     0.20   0.01  -0.19
  16   6    -0.07   0.03  -0.02    -0.00  -0.01   0.00     0.20   0.01  -0.25
  17   6     0.03  -0.03   0.07    -0.00  -0.01  -0.00     0.02   0.01  -0.02
  18   6     0.03  -0.02   0.11    -0.00  -0.01  -0.00     0.01   0.01   0.00
  19   6    -0.01   0.02   0.08    -0.01  -0.00   0.00     0.02  -0.00  -0.01
  20   6    -0.02  -0.01   0.13    -0.02  -0.00   0.00     0.17  -0.13   0.19
  21   6    -0.11   0.09   0.02    -0.02   0.00   0.00     0.18  -0.15   0.17
  22   7    -0.21   0.23  -0.14    -0.02   0.01   0.00     0.05  -0.05  -0.04
  23   6    -0.18   0.24  -0.17    -0.01   0.01   0.00    -0.11   0.08  -0.24
  24   6    -0.09   0.14  -0.06    -0.01   0.00   0.00    -0.13   0.10  -0.22
  25   6     0.03  -0.02   0.12    -0.00  -0.01  -0.00     0.02   0.02   0.03
  26   6     0.03  -0.02  -0.03    -0.00  -0.01  -0.00     0.01   0.01   0.01
  27   6     0.03  -0.02  -0.08    -0.00  -0.01  -0.01     0.01   0.00   0.03
  28   6     0.04  -0.03  -0.12    -0.00  -0.01  -0.01     0.01   0.00   0.04
  29   6     0.04  -0.02  -0.13    -0.00  -0.01   0.05     0.01  -0.00   0.04
  30   6     0.03  -0.02  -0.13    -0.01   0.01   0.02     0.01   0.00   0.03
  31   6     0.04  -0.02  -0.06     0.00   0.00   0.01    -0.01   0.00   0.01
  32   6     0.04   0.04   0.02    -0.20   0.03   0.23    -0.03  -0.03  -0.00
  33   6     0.05   0.03   0.11    -0.17   0.03   0.19    -0.07  -0.02  -0.03
  34   7     0.07  -0.03   0.15     0.07   0.00  -0.07    -0.09   0.02  -0.04
  35   6     0.07  -0.09   0.07     0.27  -0.02  -0.27    -0.06   0.05  -0.03
  36   6     0.06  -0.09  -0.03     0.24  -0.02  -0.23    -0.02   0.04  -0.00
  37   6     0.03  -0.02  -0.14    -0.01   0.00  -0.01     0.01   0.00   0.04
  38   6     0.04  -0.02  -0.12    -0.01   0.00  -0.04     0.01   0.00   0.03
  39   6     0.06   0.00  -0.05     0.00   0.01  -0.01    -0.00  -0.01   0.01
  40   6     0.10  -0.06   0.06     0.15   0.15  -0.20    -0.03   0.01  -0.03
  41   6     0.13  -0.02   0.14     0.16   0.16  -0.16    -0.05  -0.02  -0.05
  42   7     0.13   0.09   0.13     0.01   0.04   0.08    -0.05  -0.07  -0.03
  43   6     0.08   0.15   0.03    -0.15  -0.09   0.27    -0.02  -0.09   0.00
  44   6     0.05   0.11  -0.06    -0.15  -0.10   0.23    -0.00  -0.06   0.02
  45   6     0.04  -0.03  -0.12     0.00  -0.01  -0.06     0.01   0.00   0.04
  46   7     0.03  -0.03  -0.09    -0.00  -0.01  -0.02     0.01   0.00   0.04
  47   6     0.01  -0.01  -0.03    -0.01  -0.00  -0.00     0.00   0.01   0.01
  48   6    -0.00  -0.01  -0.03    -0.02  -0.00   0.01     0.00   0.01  -0.00
  49   1    -0.01  -0.01   0.00    -0.01  -0.00   0.01     0.00   0.00  -0.01
  50   1    -0.00  -0.01   0.01    -0.01  -0.01   0.00     0.00   0.00  -0.01
  51   1     0.00  -0.01   0.01    -0.00  -0.01  -0.00     0.00   0.00  -0.00
  52   1     0.01  -0.01   0.01    -0.00  -0.00  -0.00     0.00  -0.00  -0.04
  53   1    -0.02  -0.05   0.02     0.00  -0.00  -0.00    -0.09   0.02   0.12
  54   1    -0.07  -0.05   0.02     0.00  -0.00  -0.00    -0.09   0.02   0.15
  55   1    -0.06   0.02  -0.01    -0.00  -0.00   0.00     0.10   0.00  -0.11
  56   1    -0.01   0.03  -0.01    -0.00  -0.00   0.00     0.10   0.00  -0.13
  57   1     0.01  -0.01   0.02    -0.00  -0.00  -0.00     0.00   0.00  -0.01
  58   1     0.01  -0.03   0.07    -0.00  -0.00   0.00     0.08  -0.06   0.10
  59   1    -0.03   0.02   0.02    -0.01   0.00  -0.00     0.09  -0.07   0.10
  60   1    -0.07   0.10  -0.08    -0.00   0.00   0.00    -0.06   0.05  -0.12
  61   1    -0.03   0.05  -0.03     0.00   0.00   0.00    -0.07   0.06  -0.11
  62   1     0.01  -0.01   0.04    -0.00  -0.00  -0.00     0.01   0.01   0.02
  63   1     0.01  -0.01  -0.01    -0.00  -0.00  -0.00     0.00   0.00   0.00
  64   1     0.01  -0.01  -0.03    -0.00  -0.00   0.03     0.00  -0.00   0.01
  65   1     0.01   0.03   0.00    -0.11   0.02   0.12    -0.01  -0.02   0.00
  66   1     0.01   0.02   0.05    -0.10   0.01   0.10    -0.03  -0.01  -0.01
  67   1     0.02  -0.04   0.03     0.13  -0.01  -0.14    -0.02   0.02  -0.01
  68   1     0.02  -0.04  -0.02     0.12  -0.01  -0.11    -0.00   0.02   0.00
  69   1     0.01  -0.00  -0.04     0.00  -0.00  -0.00     0.00   0.00   0.01
  70   1     0.03  -0.04   0.02     0.08   0.07  -0.11    -0.01   0.01  -0.01
  71   1     0.05  -0.02   0.07     0.08   0.08  -0.09    -0.02  -0.00  -0.02
  72   1     0.02   0.07   0.00    -0.08  -0.06   0.13    -0.01  -0.04   0.00
  73   1     0.00   0.05  -0.04    -0.08  -0.06   0.11     0.00  -0.02   0.01
  74   1     0.01  -0.01  -0.03     0.00  -0.00  -0.03     0.00   0.00   0.01
  75   1     0.00  -0.00  -0.02    -0.00   0.00  -0.00     0.00   0.00   0.01
  76   1    -0.00  -0.00  -0.01    -0.01   0.00   0.00     0.00   0.00  -0.00
                     13                     14                     15
                        a                      a                      a 
 Frequencies --    50.6096                67.8217                70.3324
 Red. masses --    11.7033                11.4890                11.3405
 Frc consts  --     0.0000                 0.0000                 0.0000
 IR Inten    --     0.3366                 2.0427                 0.1747
 Raman Activ --     0.0000                 0.0000                 0.0000
 Depolar     --     0.0000                 0.0000                 0.0000
 Atom AN      X      Y      Z        X      Y      Z        X      Y      Z
   1   6    -0.04  -0.01   0.03    -0.05  -0.02   0.27     0.27   0.00   0.05
   2   6    -0.04  -0.01   0.03    -0.03  -0.03   0.12     0.19   0.13   0.04
   3   6    -0.04  -0.00   0.00    -0.00  -0.01  -0.12     0.03   0.14  -0.00
   4   6    -0.04  -0.00  -0.02     0.01   0.02  -0.22    -0.05   0.01  -0.04
   5   6    -0.05  -0.00  -0.04     0.02   0.03  -0.29    -0.12   0.01  -0.05
   6   7    -0.06  -0.02  -0.01     0.03   0.02  -0.30    -0.12   0.04  -0.05
   7   6    -0.07  -0.02  -0.01     0.02   0.01  -0.13    -0.06   0.04  -0.01
   8   6    -0.08  -0.04   0.02     0.02  -0.00  -0.01    -0.04   0.09   0.03
   9   6    -0.08  -0.04   0.03     0.02  -0.00   0.05    -0.03   0.10   0.06
  10   6    -0.07  -0.04   0.05     0.02  -0.02   0.13    -0.02   0.11   0.07
  11   6    -0.00  -0.03   0.05     0.00  -0.02   0.09    -0.03   0.11   0.05
  12   6     0.03   0.05   0.05     0.04  -0.07  -0.00    -0.02   0.08   0.01
  13   6     0.18   0.06  -0.01     0.05  -0.07  -0.10    -0.03   0.08  -0.05
  14   7     0.30   0.01  -0.08     0.02  -0.04  -0.11    -0.05   0.12  -0.07
  15   6     0.23  -0.06  -0.06    -0.03   0.01   0.00    -0.06   0.14  -0.02
  16   6     0.09  -0.08   0.01    -0.04   0.01   0.10    -0.05   0.15   0.03
  17   6    -0.08  -0.03   0.04     0.03  -0.02   0.17    -0.03   0.12   0.07
  18   6    -0.08  -0.03   0.02     0.03  -0.02   0.13    -0.05   0.12   0.04
  19   6    -0.07  -0.06   0.01     0.03  -0.02   0.09    -0.02   0.08   0.01
  20   6     0.01  -0.10   0.06     0.06  -0.03   0.10     0.08   0.07   0.00
  21   6     0.04  -0.14   0.06     0.02   0.00   0.00     0.16  -0.03  -0.00
  22   7    -0.01  -0.16   0.00    -0.06   0.05  -0.11     0.14  -0.12  -0.01
  23   6    -0.09  -0.10  -0.06    -0.08   0.04  -0.10     0.02  -0.09  -0.02
  24   6    -0.12  -0.06  -0.06    -0.04   0.01   0.00    -0.06   0.00  -0.02
  25   6    -0.08  -0.04   0.03     0.03  -0.01   0.04    -0.05   0.11   0.03
  26   6    -0.08  -0.00  -0.03     0.02   0.01  -0.04    -0.05   0.01  -0.00
  27   6    -0.07   0.02  -0.06     0.02   0.01  -0.11    -0.06  -0.03  -0.03
  28   6    -0.08   0.04  -0.05     0.01   0.01   0.03    -0.04  -0.09  -0.02
  29   6    -0.08   0.04  -0.04     0.01   0.01   0.08    -0.02  -0.09  -0.03
  30   6    -0.08   0.03  -0.02     0.01   0.02   0.15    -0.01  -0.12  -0.03
  31   6    -0.00   0.02   0.02    -0.01   0.02   0.10    -0.01  -0.12  -0.03
  32   6     0.08   0.11   0.04    -0.07  -0.03   0.09    -0.04  -0.12  -0.00
  33   6     0.24   0.08   0.04    -0.08  -0.03  -0.01    -0.08  -0.12   0.03
  34   7     0.34  -0.02   0.02    -0.03   0.03  -0.12    -0.08  -0.13   0.03
  35   6     0.23  -0.10   0.02     0.03   0.08  -0.11    -0.04  -0.12  -0.01
  36   6     0.07  -0.08   0.02     0.04   0.08   0.00    -0.00  -0.12  -0.04
  37   6    -0.08   0.03  -0.03     0.00   0.02   0.19    -0.03  -0.13   0.00
  38   6    -0.08   0.03  -0.03     0.01   0.01   0.14    -0.05  -0.13   0.03
  39   6    -0.06   0.06  -0.00    -0.00  -0.00   0.09    -0.02  -0.10   0.05
  40   6    -0.03   0.01   0.07    -0.09  -0.01   0.09     0.07  -0.09   0.04
  41   6     0.02   0.08   0.08    -0.10  -0.03  -0.00     0.16   0.03  -0.02
  42   7     0.04   0.20   0.03    -0.02  -0.05  -0.11     0.18   0.13  -0.06
  43   6     0.01   0.23  -0.04     0.06  -0.04  -0.10     0.06   0.09  -0.01
  44   6    -0.04   0.16  -0.05     0.08  -0.02  -0.01    -0.03  -0.02   0.04
  45   6    -0.08   0.03  -0.04     0.01   0.02   0.07    -0.06  -0.11   0.01
  46   7    -0.06   0.02  -0.07     0.03   0.03  -0.28    -0.12  -0.01  -0.06
  47   6    -0.04  -0.00  -0.02    -0.00   0.03  -0.11     0.03  -0.12  -0.04
  48   6    -0.04  -0.00   0.01    -0.03   0.01   0.13     0.19  -0.13   0.00
  49   1    -0.01  -0.00   0.02    -0.02  -0.01   0.14     0.11  -0.00   0.03
  50   1    -0.01  -0.00   0.01    -0.01  -0.02   0.06     0.07   0.07   0.02
  51   1    -0.01  -0.00   0.00     0.00  -0.01  -0.06    -0.01   0.07  -0.00
  52   1    -0.02  -0.01   0.00     0.00   0.00   0.00    -0.01   0.03   0.02
  53   1    -0.01   0.03   0.03     0.02  -0.03  -0.00    -0.00   0.02   0.00
  54   1     0.06   0.03  -0.00     0.03  -0.03  -0.05    -0.01   0.02  -0.02
  55   1     0.09  -0.03  -0.03    -0.02   0.01   0.00    -0.02   0.05  -0.01
  56   1     0.02  -0.04   0.00    -0.02   0.01   0.05    -0.02   0.05   0.02
  57   1    -0.02  -0.01   0.01     0.01  -0.01   0.06    -0.01   0.04   0.03
  58   1     0.01  -0.03   0.03     0.03  -0.02   0.05     0.03   0.04   0.00
  59   1     0.03  -0.05   0.03     0.01   0.00   0.00     0.07  -0.01   0.00
  60   1    -0.04  -0.03  -0.03    -0.04   0.02  -0.05    -0.00  -0.05  -0.01
  61   1    -0.06  -0.01  -0.03    -0.02   0.00   0.00    -0.04   0.00  -0.01
  62   1    -0.02  -0.01   0.01     0.01  -0.00   0.00    -0.02   0.03   0.00
  63   1    -0.03  -0.00  -0.01     0.00  -0.00   0.04    -0.01   0.00   0.01
  64   1    -0.02   0.01  -0.01     0.00   0.00   0.01    -0.00  -0.02  -0.02
  65   1     0.01   0.06   0.01    -0.03  -0.02   0.04    -0.01  -0.04  -0.00
  66   1     0.09   0.04   0.01    -0.04  -0.02  -0.01    -0.03  -0.03   0.02
  67   1     0.08  -0.05   0.00     0.02   0.04  -0.05    -0.01  -0.03  -0.00
  68   1    -0.00  -0.04   0.00     0.02   0.04   0.00     0.01  -0.04  -0.02
  69   1    -0.02   0.01  -0.01     0.00   0.00   0.07    -0.01  -0.04   0.00
  70   1    -0.01  -0.02   0.03    -0.04   0.00   0.04     0.02  -0.05   0.02
  71   1     0.01   0.01   0.04    -0.05  -0.01  -0.00     0.07   0.01  -0.01
  72   1     0.01   0.09  -0.02     0.04  -0.01  -0.05     0.02   0.05  -0.01
  73   1    -0.02   0.06  -0.03     0.04  -0.01  -0.00    -0.03  -0.01   0.02
  74   1    -0.02   0.01  -0.01     0.00   0.00   0.01    -0.02  -0.03   0.01
  75   1    -0.01  -0.00  -0.01     0.00   0.02  -0.06    -0.01  -0.07  -0.02
  76   1    -0.01  -0.00   0.00    -0.01   0.01   0.07     0.07  -0.07   0.00
                     16                     17                     18
                        a                      a                      a 
 Frequencies --    95.5079               101.0519               107.7184
 Red. masses --    11.5091                10.7681                10.8430
 Frc consts  --     0.0000                 0.0000                 0.0000
 IR Inten    --     0.1062                 0.1931                 0.1298
 Raman Activ --     0.0000                 0.0000                 0.0000
 Depolar     --     0.0000                 0.0000                 0.0000
 Atom AN      X      Y      Z        X      Y      Z        X      Y      Z
   1   6    -0.02   0.12  -0.02    -0.00   0.02   0.20    -0.01  -0.05  -0.08
   2   6    -0.01   0.10  -0.00     0.00   0.03   0.07    -0.01  -0.06  -0.03
   3   6     0.01   0.09   0.02     0.00   0.05  -0.13     0.00  -0.07   0.05
   4   6     0.01   0.10   0.03     0.00   0.05  -0.20     0.01  -0.06   0.07
   5   6     0.02   0.10   0.03     0.00   0.05  -0.17     0.01  -0.05   0.06
   6   7     0.02   0.10  -0.02     0.00   0.04  -0.10     0.01  -0.05  -0.04
   7   6    -0.00   0.09  -0.05    -0.00   0.02   0.16     0.01  -0.04  -0.08
   8   6    -0.04   0.01  -0.05    -0.02  -0.00   0.12     0.03  -0.01  -0.06
   9   6    -0.10  -0.00  -0.01    -0.02  -0.00   0.21     0.07   0.01   0.24
  10   6    -0.13  -0.06   0.01    -0.03  -0.01   0.04     0.08   0.03   0.26
  11   6    -0.11  -0.05   0.05    -0.03  -0.01   0.05     0.04   0.02   0.25
  12   6    -0.07   0.01   0.04    -0.05  -0.01   0.08     0.01  -0.12   0.18
  13   6     0.07   0.02  -0.01    -0.03  -0.01   0.03    -0.03  -0.14  -0.04
  14   7     0.17  -0.03  -0.07     0.03  -0.00  -0.05    -0.05  -0.01  -0.21
  15   6     0.09  -0.09  -0.01     0.04   0.00  -0.07    -0.04   0.13  -0.10
  16   6    -0.05  -0.11   0.05     0.01   0.00  -0.01     0.00   0.15   0.13
  17   6    -0.09  -0.10  -0.01    -0.04  -0.03  -0.16     0.06   0.02   0.08
  18   6    -0.04  -0.10  -0.03    -0.04  -0.03  -0.20     0.01   0.01  -0.18
  19   6    -0.04  -0.10   0.01    -0.06  -0.02  -0.19    -0.00   0.03  -0.19
  20   6    -0.10  -0.11   0.03    -0.13  -0.06  -0.11    -0.04  -0.03  -0.08
  21   6    -0.15  -0.04   0.02    -0.11  -0.05   0.07     0.00  -0.04   0.10
  22   7    -0.16   0.02   0.01    -0.02  -0.02   0.17     0.06   0.01   0.16
  23   6    -0.07   0.02   0.01     0.04   0.04   0.07     0.06   0.10  -0.00
  24   6    -0.02  -0.05   0.01     0.02   0.04  -0.11     0.04   0.10  -0.17
  25   6    -0.01  -0.04  -0.06    -0.03  -0.03  -0.09    -0.00  -0.01  -0.31
  26   6    -0.00   0.11  -0.07     0.00   0.01   0.37     0.01  -0.04  -0.11
  27   6     0.01   0.11  -0.01     0.01   0.02   0.16     0.00  -0.05  -0.02
  28   6     0.04   0.04  -0.00     0.02  -0.00   0.12    -0.01  -0.01  -0.02
  29   6     0.12   0.03  -0.16     0.03  -0.00   0.15    -0.03   0.00  -0.12
  30   6     0.15  -0.03  -0.15     0.04  -0.02  -0.00    -0.05   0.03  -0.07
  31   6     0.15  -0.03  -0.17     0.04  -0.02  -0.01    -0.04   0.03  -0.06
  32   6     0.08  -0.02  -0.10     0.05  -0.04  -0.04    -0.02   0.08  -0.02
  33   6    -0.09  -0.00   0.08     0.02  -0.03  -0.04     0.02   0.07   0.04
  34   7    -0.19   0.01   0.18    -0.04  -0.01   0.01     0.05   0.02   0.05
  35   6    -0.05  -0.00   0.03    -0.05   0.01   0.04     0.03  -0.03   0.00
  36   6     0.12  -0.02  -0.14    -0.00   0.00   0.02    -0.02  -0.03  -0.05
  37   6     0.10  -0.08  -0.00     0.05  -0.02  -0.15    -0.04   0.04   0.02
  38   6     0.02  -0.08   0.15     0.04  -0.02  -0.14    -0.02   0.04   0.09
  39   6     0.01  -0.10   0.16     0.04  -0.01  -0.13    -0.02   0.04   0.08
  40   6     0.02  -0.05   0.09     0.10  -0.03  -0.09    -0.07   0.06   0.04
  41   6     0.09   0.02  -0.07     0.09  -0.04   0.03    -0.08   0.04  -0.04
  42   7     0.15   0.03  -0.15     0.03  -0.02   0.12    -0.05   0.00  -0.07
  43   6     0.10  -0.05  -0.02    -0.02   0.01   0.06    -0.01  -0.03  -0.02
  44   6     0.04  -0.12   0.13    -0.01   0.02  -0.07     0.01  -0.01   0.05
  45   6    -0.00  -0.01   0.16     0.03  -0.01  -0.03    -0.01   0.01   0.10
  46   7     0.01   0.11   0.06     0.00   0.04  -0.09     0.02  -0.06   0.10
  47   6     0.00   0.12   0.03     0.00   0.05  -0.14     0.00  -0.05   0.05
  48   6    -0.02   0.13   0.00    -0.00   0.03   0.07    -0.00  -0.05  -0.03
  49   1    -0.01   0.03  -0.01    -0.00   0.00   0.12    -0.00  -0.01  -0.04
  50   1    -0.01   0.02  -0.00    -0.00   0.01   0.04    -0.00  -0.02  -0.02
  51   1     0.00   0.02   0.01     0.00   0.02  -0.06     0.00  -0.02   0.02
  52   1    -0.04   0.01   0.00     0.00   0.00   0.11     0.03   0.01   0.13
  53   1    -0.04   0.02   0.02    -0.03  -0.00   0.04     0.01  -0.06   0.08
  54   1     0.03   0.02  -0.01    -0.01  -0.01   0.02    -0.01  -0.07  -0.03
  55   1     0.04  -0.04  -0.01     0.03   0.00  -0.04    -0.02   0.07  -0.06
  56   1    -0.03  -0.05   0.02     0.01   0.00  -0.01     0.01   0.08   0.05
  57   1    -0.03  -0.04   0.00    -0.02  -0.01  -0.08     0.02   0.01   0.04
  58   1    -0.03  -0.05   0.01    -0.06  -0.03  -0.05    -0.02  -0.03  -0.03
  59   1    -0.06  -0.01   0.01    -0.04  -0.03   0.04    -0.00  -0.03   0.06
  60   1    -0.02   0.02   0.00     0.03   0.02   0.04     0.03   0.05   0.01
  61   1     0.01  -0.02   0.00     0.02   0.02  -0.05     0.02   0.04  -0.07
  62   1     0.01  -0.01  -0.02    -0.01  -0.01  -0.04    -0.01  -0.01  -0.16
  63   1    -0.00   0.03  -0.03     0.00  -0.00   0.19     0.00  -0.01  -0.06
  64   1     0.04   0.02  -0.08     0.01   0.00   0.08    -0.01  -0.00  -0.07
  65   1     0.04  -0.01  -0.04     0.02  -0.02  -0.02    -0.01   0.04  -0.01
  66   1    -0.05   0.00   0.05     0.01  -0.01  -0.02     0.01   0.03   0.02
  67   1    -0.03   0.00   0.03    -0.03   0.01   0.02     0.02  -0.02   0.00
  68   1     0.06  -0.01  -0.06    -0.00   0.00   0.01    -0.01  -0.02  -0.02
  69   1     0.03  -0.04   0.00     0.01  -0.00  -0.07    -0.01   0.01   0.01
  70   1    -0.00  -0.01   0.04     0.04  -0.02  -0.04    -0.03   0.03   0.02
  71   1     0.03   0.02  -0.05     0.04  -0.02   0.02    -0.03   0.02  -0.02
  72   1     0.04  -0.01  -0.02    -0.02   0.01   0.04     0.01  -0.02  -0.01
  73   1     0.01  -0.05   0.06    -0.02   0.01  -0.03     0.01  -0.01   0.02
  74   1    -0.02  -0.00   0.08     0.01  -0.00  -0.02     0.00   0.00   0.05
  75   1     0.00   0.04   0.01     0.00   0.02  -0.06     0.00  -0.02   0.02
  76   1    -0.01   0.04  -0.00    -0.00   0.01   0.04    -0.00  -0.01  -0.02
                     19                     20                     21
                        a                      a                      a 
 Frequencies --   108.6728               115.3663               160.3106
 Red. masses --    10.8640                11.7584                11.0237
 Frc consts  --     0.0000                 0.0000                 0.0000
 IR Inten    --     0.7703                 0.0188                 2.9053
 Raman Activ --     0.0000                 0.0000                 0.0000
 Depolar     --     0.0000                 0.0000                 0.0000
 Atom AN      X      Y      Z        X      Y      Z        X      Y      Z
   1   6    -0.02  -0.07   0.12     0.01   0.01  -0.03    -0.08   0.00  -0.01
   2   6    -0.01  -0.07   0.04     0.01   0.01   0.02    -0.02  -0.09  -0.01
   3   6     0.00  -0.06  -0.09     0.00   0.01   0.04     0.10  -0.09   0.00
   4   6     0.01  -0.04  -0.13    -0.00   0.01   0.03     0.16  -0.00   0.01
   5   6     0.01  -0.04  -0.10     0.00   0.01   0.02     0.12  -0.00   0.00
   6   7     0.01  -0.06  -0.00     0.01  -0.01   0.38     0.07  -0.09  -0.00
   7   6     0.00  -0.07   0.14     0.00  -0.00   0.22    -0.04  -0.09  -0.03
   8   6     0.02  -0.04   0.13     0.00  -0.01   0.20    -0.06  -0.12  -0.03
   9   6     0.06  -0.04   0.00     0.00  -0.01   0.18     0.04  -0.10  -0.04
  10   6     0.07   0.00  -0.10    -0.01  -0.01  -0.03     0.10  -0.00   0.04
  11   6     0.09   0.00  -0.14     0.00  -0.01  -0.04     0.17  -0.00  -0.02
  12   6     0.06   0.01  -0.09    -0.02   0.01   0.01     0.15  -0.09  -0.06
  13   6    -0.04   0.00   0.05    -0.03   0.01   0.05    -0.00  -0.10  -0.00
  14   7    -0.10  -0.00   0.13    -0.01   0.00   0.03    -0.12  -0.05   0.08
  15   6    -0.02  -0.00   0.03     0.03  -0.01  -0.03    -0.03   0.03   0.01
  16   6     0.07   0.00  -0.11     0.03  -0.01  -0.06     0.13   0.05  -0.05
  17   6     0.05   0.04  -0.10    -0.03  -0.01  -0.20     0.03   0.09   0.14
  18   6     0.01   0.04   0.03    -0.02  -0.01  -0.11    -0.09   0.07   0.04
  19   6     0.01   0.05   0.00    -0.04   0.01  -0.13    -0.15   0.13  -0.03
  20   6     0.03   0.07  -0.03    -0.08  -0.00  -0.10    -0.09   0.14  -0.06
  21   6     0.06   0.04  -0.04    -0.05  -0.01   0.01     0.03  -0.01   0.01
  22   7     0.08  -0.02  -0.00     0.02  -0.02   0.11     0.05  -0.15   0.09
  23   6     0.04  -0.03   0.02     0.04   0.01   0.06    -0.08  -0.08   0.01
  24   6     0.01   0.01   0.02     0.01   0.02  -0.07    -0.20   0.05  -0.06
  25   6     0.00  -0.00   0.16    -0.01  -0.01   0.09    -0.12  -0.03  -0.03
  26   6    -0.01  -0.06   0.23     0.01   0.01  -0.06    -0.08   0.00  -0.02
  27   6    -0.01  -0.04   0.06     0.01   0.02  -0.28    -0.04   0.09  -0.00
  28   6    -0.03   0.01   0.04     0.02   0.01  -0.25    -0.05   0.12   0.02
  29   6    -0.04   0.01  -0.22     0.02   0.01  -0.14     0.04   0.10   0.13
  30   6    -0.05   0.03  -0.21     0.02  -0.00   0.10     0.10   0.01   0.05
  31   6    -0.02   0.03  -0.21     0.01   0.00   0.11     0.17   0.00  -0.00
  32   6     0.01   0.14  -0.11    -0.04  -0.04   0.10     0.14  -0.06  -0.04
  33   6     0.03   0.14   0.08    -0.05  -0.04   0.01    -0.02  -0.04  -0.01
  34   7     0.03   0.02   0.17    -0.01   0.02  -0.08    -0.13   0.05   0.06
  35   6     0.03  -0.09   0.04     0.03   0.06  -0.07    -0.02   0.10   0.01
  36   6    -0.00  -0.09  -0.14     0.03   0.06   0.03     0.15   0.08  -0.03
  37   6    -0.05   0.04  -0.05    -0.00  -0.02   0.26     0.03  -0.08  -0.03
  38   6    -0.04   0.04   0.16    -0.00  -0.02   0.09    -0.08  -0.07  -0.05
  39   6    -0.05   0.03   0.16    -0.01  -0.03   0.10    -0.13  -0.12  -0.00
  40   6    -0.11   0.09   0.07    -0.04  -0.04   0.10    -0.06  -0.14   0.04
  41   6    -0.10   0.09  -0.08    -0.03  -0.02   0.02     0.04  -0.01   0.01
  42   7    -0.06   0.04  -0.14     0.04   0.00  -0.08     0.06   0.13  -0.06
  43   6    -0.02  -0.04  -0.02     0.07  -0.01  -0.06    -0.07   0.09  -0.01
  44   6    -0.02  -0.04   0.13     0.04  -0.03   0.03    -0.17  -0.04   0.03
  45   6    -0.04   0.02   0.25     0.00   0.00  -0.18    -0.11   0.04  -0.08
  46   7     0.01  -0.03  -0.11     0.01   0.03  -0.36     0.07   0.09  -0.01
  47   6     0.01  -0.04  -0.10     0.00   0.01   0.00     0.10   0.09   0.02
  48   6    -0.01  -0.05   0.02     0.01   0.01  -0.03    -0.02   0.09   0.01
  49   1    -0.01  -0.02   0.07     0.00   0.01  -0.02    -0.05   0.00  -0.01
  50   1    -0.00  -0.02   0.03     0.00   0.00   0.01    -0.02  -0.05  -0.01
  51   1     0.00  -0.02  -0.04    -0.00   0.00   0.02     0.04  -0.05   0.00
  52   1     0.02  -0.02  -0.01     0.01  -0.00   0.09     0.02  -0.04  -0.03
  53   1     0.02   0.01  -0.04    -0.01   0.01   0.00     0.07  -0.04  -0.02
  54   1    -0.02   0.00   0.03    -0.02   0.01   0.03    -0.01  -0.05   0.00
  55   1    -0.02  -0.00   0.02     0.01  -0.01  -0.01    -0.03   0.02   0.01
  56   1     0.03  -0.00  -0.05     0.01  -0.00  -0.02     0.05   0.03  -0.02
  57   1     0.01   0.02  -0.05    -0.01  -0.01  -0.11     0.02   0.05   0.07
  58   1     0.01   0.03  -0.01    -0.03  -0.00  -0.04    -0.03   0.06  -0.03
  59   1     0.02   0.01  -0.02    -0.02  -0.01   0.01     0.04  -0.01   0.01
  60   1     0.01  -0.02   0.01     0.03   0.00   0.04    -0.02  -0.05   0.01
  61   1    -0.00   0.00   0.01     0.01   0.01  -0.03    -0.09   0.02  -0.02
  62   1    -0.01   0.00   0.08    -0.01  -0.00   0.04    -0.06  -0.01  -0.02
  63   1    -0.00  -0.02   0.13     0.01   0.00  -0.03    -0.04   0.00  -0.01
  64   1    -0.01   0.00  -0.12     0.01   0.00  -0.07     0.02   0.05   0.07
  65   1    -0.00   0.07  -0.05    -0.02  -0.02   0.04     0.06  -0.04  -0.02
  66   1     0.01   0.07   0.05    -0.03  -0.02   0.00    -0.02  -0.03  -0.00
  67   1     0.01  -0.05   0.03     0.02   0.03  -0.04    -0.02   0.05   0.01
  68   1    -0.01  -0.05  -0.06     0.02   0.03   0.01     0.06   0.04  -0.01
  69   1    -0.01   0.01  -0.02    -0.00  -0.01   0.13     0.02  -0.04  -0.01
  70   1    -0.05   0.04   0.03    -0.02  -0.01   0.04    -0.02  -0.07   0.02
  71   1    -0.04   0.04  -0.05    -0.02  -0.01   0.00     0.04  -0.00   0.00
  72   1     0.01  -0.03  -0.02     0.03   0.00  -0.04    -0.02   0.05  -0.01
  73   1     0.00  -0.02   0.05     0.02  -0.01   0.01    -0.08  -0.01   0.01
  74   1    -0.01   0.00   0.13    -0.00   0.00  -0.09    -0.05   0.01  -0.05
  75   1     0.00  -0.01  -0.04     0.00   0.00  -0.00     0.04   0.05   0.01
  76   1    -0.00  -0.01   0.02     0.00   0.00  -0.02    -0.02   0.05   0.00
                     22                     23                     24
                        a                      a                      a 
 Frequencies --   167.7179               195.8760               202.2902
 Red. masses --    11.3898                11.4246                11.9670
 Frc consts  --     0.0000                 0.0000                 0.0000
 IR Inten    --     1.3350                 4.9860                 2.9836
 Raman Activ --     0.0000                 0.0000                 0.0000
 Depolar     --     0.0000                 0.0000                 0.0000
 Atom AN      X      Y      Z        X      Y      Z        X      Y      Z
   1   6     0.00  -0.08  -0.00     0.01   0.24  -0.02    -0.01   0.05   0.07
   2   6    -0.00  -0.07  -0.01     0.02   0.22   0.02     0.01   0.02   0.01
   3   6    -0.01  -0.07  -0.01     0.01   0.21   0.06     0.04   0.03  -0.06
   4   6    -0.01  -0.06  -0.01    -0.02   0.15   0.05     0.05   0.04  -0.05
   5   6    -0.01  -0.05  -0.01    -0.01   0.10  -0.01     0.04   0.02   0.02
   6   7    -0.02  -0.05  -0.03    -0.02   0.09  -0.16     0.04  -0.03   0.53
   7   6    -0.04  -0.04  -0.03     0.01   0.06  -0.04     0.00  -0.00   0.09
   8   6    -0.09  -0.03  -0.01    -0.01  -0.04   0.02    -0.01  -0.01  -0.15
   9   6    -0.08  -0.02  -0.04     0.06  -0.05   0.03    -0.01  -0.00  -0.22
  10   6    -0.06   0.04   0.01     0.08  -0.05   0.04     0.01  -0.00  -0.01
  11   6    -0.03   0.05  -0.01     0.17  -0.07  -0.06    -0.01  -0.00   0.04
  12   6    -0.02   0.08  -0.02     0.17  -0.15  -0.10    -0.01  -0.02   0.04
  13   6    -0.01   0.08  -0.01     0.02  -0.17   0.01     0.01  -0.02  -0.02
  14   7    -0.02   0.08   0.00    -0.10  -0.16   0.13     0.02  -0.01  -0.04
  15   6    -0.03   0.06   0.00     0.03  -0.08   0.01    -0.01  -0.00   0.02
  16   6    -0.03   0.05  -0.01     0.18  -0.06  -0.10    -0.02   0.00   0.05
  17   6    -0.10   0.09   0.07     0.05   0.01   0.09     0.02   0.02   0.17
  18   6    -0.16   0.07   0.05    -0.02  -0.00   0.03    -0.00   0.01  -0.01
  19   6    -0.21   0.09  -0.01    -0.07   0.04  -0.04    -0.01   0.01  -0.00
  20   6    -0.16   0.11  -0.04    -0.07   0.05  -0.05    -0.00   0.01  -0.00
  21   6    -0.05  -0.04   0.01    -0.02  -0.01   0.01     0.01  -0.00   0.01
  22   7    -0.04  -0.20   0.10     0.01  -0.08   0.07     0.01  -0.01   0.01
  23   6    -0.16  -0.14   0.03    -0.04  -0.03   0.00    -0.01   0.01  -0.01
  24   6    -0.27  -0.00  -0.03    -0.09   0.03  -0.06    -0.02   0.01  -0.01
  25   6    -0.16   0.03   0.02    -0.02  -0.03  -0.01    -0.02   0.00  -0.17
  26   6     0.00  -0.07  -0.04     0.00   0.06   0.04     0.00   0.02  -0.10
  27   6     0.04  -0.05  -0.01    -0.00   0.04   0.01     0.00   0.02  -0.09
  28   6     0.09  -0.05  -0.01     0.02  -0.04  -0.06     0.00  -0.02   0.16
  29   6     0.08  -0.03  -0.08    -0.04  -0.05  -0.17    -0.03  -0.03   0.19
  30   6     0.06   0.04  -0.02    -0.07  -0.04  -0.05    -0.03  -0.03  -0.01
  31   6     0.02   0.05  -0.01    -0.17  -0.05   0.03    -0.06  -0.04  -0.03
  32   6     0.03   0.07  -0.00    -0.19  -0.03   0.07    -0.06  -0.04  -0.02
  33   6     0.02   0.07   0.01    -0.03  -0.05   0.00    -0.00  -0.06  -0.01
  34   7     0.02   0.08   0.01     0.11  -0.14  -0.10     0.02  -0.11  -0.01
  35   6     0.02   0.07   0.00    -0.01  -0.15  -0.01    -0.02  -0.11   0.02
  36   6     0.02   0.07  -0.01    -0.18  -0.12   0.08    -0.06  -0.10   0.00
  37   6     0.10   0.08   0.05    -0.04   0.01   0.04     0.00   0.01  -0.20
  38   6     0.17   0.07   0.05     0.02  -0.00   0.02     0.01   0.01   0.04
  39   6     0.23   0.10  -0.01     0.06   0.03  -0.00     0.04   0.05  -0.01
  40   6     0.17   0.12  -0.05     0.06   0.04  -0.02     0.02   0.08  -0.04
  41   6     0.05  -0.04   0.01     0.02  -0.01  -0.00    -0.01   0.03  -0.02
  42   7     0.03  -0.22   0.09     0.01  -0.07   0.03    -0.05  -0.03   0.04
  43   6     0.16  -0.15   0.02     0.05  -0.04   0.00     0.00  -0.02   0.02
  44   6     0.29   0.00  -0.05     0.09   0.01  -0.02     0.05   0.05  -0.02
  45   6     0.16   0.02   0.05     0.03  -0.03   0.01     0.01  -0.01   0.27
  46   7     0.01  -0.06   0.01    -0.01   0.07   0.07     0.04   0.05  -0.39
  47   6    -0.00  -0.08  -0.01    -0.03   0.19   0.06     0.03   0.08  -0.07
  48   6     0.00  -0.08  -0.01    -0.01   0.20   0.02    -0.00   0.08  -0.01
  49   1     0.00  -0.02  -0.00     0.00   0.07  -0.02    -0.01   0.01   0.04
  50   1     0.00  -0.02  -0.00     0.00   0.06   0.00    -0.00  -0.00   0.01
  51   1    -0.00  -0.02  -0.00    -0.01   0.07   0.02     0.01   0.00  -0.02
  52   1    -0.02  -0.01  -0.03     0.02  -0.02  -0.00    -0.01  -0.00  -0.10
  53   1    -0.01   0.03  -0.01     0.07  -0.06  -0.04    -0.00  -0.01   0.02
  54   1    -0.00   0.02  -0.01    -0.01  -0.06   0.02     0.01  -0.01  -0.01
  55   1    -0.01   0.01   0.01    -0.01  -0.01   0.01    -0.01   0.00   0.00
  56   1    -0.01   0.01  -0.00     0.07  -0.01  -0.04    -0.01   0.00   0.02
  57   1    -0.02   0.04   0.03     0.02   0.02   0.04     0.01   0.02   0.11
  58   1    -0.05   0.05  -0.02    -0.03   0.02  -0.02    -0.00   0.00  -0.00
  59   1     0.02  -0.01   0.00     0.00  -0.01   0.01     0.01  -0.00   0.01
  60   1    -0.05  -0.07   0.02    -0.01  -0.02   0.01    -0.01   0.00  -0.01
  61   1    -0.11   0.00  -0.01    -0.04   0.01  -0.02    -0.01   0.00  -0.00
  62   1    -0.06   0.01   0.00    -0.01  -0.01  -0.02    -0.00  -0.00  -0.07
  63   1     0.00  -0.02  -0.01     0.00   0.01   0.04    -0.00   0.01  -0.07
  64   1     0.02  -0.02  -0.05    -0.02  -0.02  -0.08    -0.01  -0.01   0.08
  65   1     0.01   0.02  -0.00    -0.07   0.00   0.03    -0.02  -0.01  -0.00
  66   1     0.00   0.02   0.01     0.01  -0.00  -0.00     0.01  -0.01  -0.00
  67   1     0.01   0.02   0.00     0.01  -0.05  -0.02    -0.01  -0.04   0.01
  68   1     0.01   0.02  -0.00    -0.07  -0.05   0.03    -0.03  -0.04  -0.00
  69   1     0.02   0.04   0.02    -0.02   0.02   0.03    -0.00   0.01  -0.13
  70   1     0.05   0.06  -0.02     0.02   0.02  -0.01     0.01   0.03  -0.01
  71   1    -0.02  -0.01   0.00    -0.00  -0.00  -0.00    -0.01   0.01  -0.01
  72   1     0.05  -0.07   0.01     0.01  -0.02   0.00    -0.00  -0.02   0.01
  73   1     0.12   0.00  -0.02     0.04   0.00  -0.01     0.02   0.02  -0.01
  74   1     0.07   0.00   0.02     0.01  -0.01   0.02     0.01  -0.00   0.12
  75   1    -0.00  -0.03  -0.00    -0.01   0.06   0.02     0.02   0.03  -0.03
  76   1     0.00  -0.02  -0.00     0.00   0.05   0.00    -0.00   0.03  -0.00
                     25                     26                     27
                        a                      a                      a 
 Frequencies --   205.2560               209.3173               212.6365
 Red. masses --    10.7774                11.2634                10.5136
 Frc consts  --     0.0000                 0.0000                 0.0000
 IR Inten    --     1.6645                 2.8709                 0.6721
 Raman Activ --     0.0000                 0.0000                 0.0000
 Depolar     --     0.0000                 0.0000                 0.0000
 Atom AN      X      Y      Z        X      Y      Z        X      Y      Z
   1   6    -0.01  -0.01   0.30     0.09  -0.00   0.05     0.00  -0.01   0.10
   2   6     0.00  -0.00  -0.02    -0.01   0.17   0.01    -0.00   0.00  -0.01
   3   6     0.03   0.02  -0.32    -0.23   0.17  -0.04    -0.01   0.01  -0.10
   4   6     0.04   0.03  -0.23    -0.32   0.01  -0.04    -0.01   0.00  -0.07
   5   6     0.03  -0.00   0.12    -0.23   0.00   0.02    -0.01  -0.01   0.07
   6   7     0.03  -0.02   0.21    -0.18   0.05   0.14    -0.01  -0.01   0.19
   7   6     0.01  -0.00   0.02    -0.03   0.04   0.01    -0.00  -0.01   0.17
   8   6     0.00  -0.01   0.05    -0.00   0.01  -0.02    -0.01   0.00  -0.18
   9   6     0.00  -0.01   0.08     0.05  -0.01   0.01    -0.01   0.00  -0.29
  10   6    -0.00  -0.00   0.01     0.06  -0.04   0.03     0.01   0.01  -0.03
  11   6     0.01  -0.00   0.00     0.12  -0.07  -0.03    -0.01   0.01   0.02
  12   6     0.01  -0.00  -0.00     0.13  -0.14  -0.07    -0.02   0.00   0.02
  13   6    -0.00  -0.00   0.01     0.02  -0.16   0.01     0.01   0.00  -0.02
  14   7    -0.01  -0.00   0.01    -0.06  -0.17   0.10     0.02   0.00  -0.03
  15   6     0.00   0.00  -0.01     0.04  -0.09   0.01    -0.02   0.00   0.02
  16   6     0.01   0.00  -0.01     0.15  -0.07  -0.06    -0.02   0.00   0.03
  17   6    -0.01  -0.00  -0.08     0.05  -0.01   0.08     0.03   0.03   0.26
  18   6    -0.00   0.00   0.01     0.02  -0.01  -0.01    -0.00   0.01  -0.03
  19   6    -0.02   0.01  -0.01     0.02  -0.01  -0.02     0.02  -0.01   0.02
  20   6    -0.02   0.02  -0.02     0.02  -0.01  -0.01     0.03  -0.03   0.04
  21   6    -0.00   0.01  -0.01     0.01  -0.00   0.00     0.02  -0.01   0.02
  22   7     0.01  -0.02   0.02     0.02   0.02   0.00    -0.02   0.02  -0.04
  23   6    -0.00  -0.01   0.01     0.02   0.02  -0.01    -0.01   0.01  -0.02
  24   6    -0.02   0.01  -0.01     0.03   0.01  -0.01     0.03  -0.02   0.03
  25   6     0.00  -0.00   0.10     0.01  -0.01  -0.07    -0.02   0.00  -0.31
  26   6     0.00   0.02  -0.36     0.00   0.01  -0.10    -0.00  -0.02   0.38
  27   6     0.01   0.00   0.07    -0.03  -0.04  -0.02    -0.00  -0.01   0.16
  28   6     0.00   0.00  -0.05    -0.01  -0.01   0.05     0.01   0.00  -0.15
  29   6    -0.00  -0.00  -0.05     0.04   0.01   0.11     0.01   0.00  -0.24
  30   6    -0.01  -0.01  -0.01     0.05   0.03   0.05    -0.01   0.02  -0.03
  31   6    -0.04  -0.01   0.03     0.15   0.05  -0.03    -0.03   0.03   0.01
  32   6    -0.05  -0.01   0.04     0.18   0.04  -0.08    -0.03   0.06   0.03
  33   6    -0.01  -0.01  -0.00     0.04   0.07  -0.00    -0.01   0.06   0.02
  34   7     0.03  -0.02  -0.05    -0.10   0.14   0.11     0.04   0.06  -0.03
  35   6    -0.00  -0.02  -0.00     0.02   0.14   0.01     0.01   0.04  -0.02
  36   6    -0.05  -0.01   0.04     0.16   0.11  -0.08    -0.04   0.05   0.02
  37   6    -0.00  -0.00  -0.01     0.03   0.01   0.02    -0.02  -0.01   0.21
  38   6    -0.00  -0.00  -0.01     0.01   0.01   0.02     0.00  -0.01  -0.04
  39   6    -0.01  -0.02   0.01     0.02   0.03  -0.02    -0.02  -0.05   0.02
  40   6    -0.01  -0.02   0.02     0.02   0.04  -0.03    -0.00  -0.08   0.05
  41   6     0.00  -0.01  -0.00    -0.00   0.01   0.00     0.03  -0.04   0.02
  42   7     0.01   0.01  -0.02    -0.02  -0.02   0.04     0.07   0.00  -0.05
  43   6    -0.00  -0.00  -0.00     0.01   0.00  -0.00     0.03  -0.02  -0.02
  44   6    -0.01  -0.02   0.02     0.03   0.03  -0.03    -0.02  -0.07   0.04
  45   6    -0.00  -0.00  -0.03     0.00   0.01   0.02     0.01  -0.00  -0.27
  46   7     0.03  -0.03   0.48    -0.18  -0.05  -0.01    -0.01  -0.01   0.11
  47   6     0.03   0.06  -0.31    -0.23  -0.15  -0.07    -0.01   0.00  -0.11
  48   6     0.00   0.04  -0.01    -0.01  -0.16  -0.02    -0.00  -0.01  -0.01
  49   1    -0.01  -0.01   0.20     0.07  -0.00   0.03     0.00  -0.01   0.07
  50   1    -0.00  -0.01   0.01     0.02   0.09   0.01     0.00   0.00   0.00
  51   1     0.01   0.01  -0.13    -0.09   0.09  -0.01    -0.00   0.01  -0.04
  52   1     0.00   0.00   0.04     0.02  -0.00  -0.00    -0.01  -0.00  -0.13
  53   1     0.00  -0.00  -0.00     0.06  -0.06  -0.03    -0.01  -0.00   0.01
  54   1    -0.00  -0.00   0.00    -0.00  -0.05   0.01     0.01   0.00  -0.02
  55   1     0.00   0.00  -0.00    -0.00  -0.02   0.00    -0.01   0.00   0.01
  56   1     0.00   0.00  -0.00     0.05  -0.02  -0.03    -0.01  -0.00   0.01
  57   1    -0.01  -0.00  -0.05     0.02   0.01   0.04     0.02   0.02   0.17
  58   1    -0.00   0.01  -0.01     0.00  -0.01  -0.00     0.01  -0.01   0.01
  59   1     0.00   0.00  -0.00    -0.00  -0.00   0.00     0.01  -0.01   0.01
  60   1     0.00  -0.01   0.01     0.01   0.01  -0.00    -0.01   0.01  -0.02
  61   1    -0.01   0.01  -0.01     0.01   0.00  -0.00     0.01  -0.01   0.02
  62   1    -0.00   0.00   0.04     0.01  -0.00  -0.04    -0.00  -0.00  -0.13
  63   1     0.00   0.02  -0.28     0.01   0.01  -0.07    -0.00  -0.01   0.15
  64   1    -0.00  -0.00  -0.01     0.01   0.01   0.04    -0.00  -0.00  -0.11
  65   1    -0.02  -0.00   0.02     0.06   0.00  -0.03    -0.01   0.02   0.01
  66   1     0.00  -0.00  -0.00    -0.00   0.01   0.00    -0.00   0.02   0.01
  67   1     0.00  -0.00  -0.01    -0.01   0.05   0.01     0.01   0.01  -0.01
  68   1    -0.02  -0.00   0.02     0.07   0.04  -0.03    -0.01   0.02   0.01
  69   1    -0.00   0.00   0.01     0.01  -0.00  -0.00    -0.01  -0.00   0.14
  70   1    -0.00  -0.01   0.01     0.01   0.01  -0.01     0.00  -0.03   0.02
  71   1     0.00  -0.00  -0.00    -0.00  -0.00   0.00     0.01  -0.01   0.01
  72   1     0.00   0.00  -0.00     0.00  -0.00   0.00     0.01   0.01  -0.01
  73   1    -0.01  -0.01   0.01     0.01   0.01  -0.01    -0.01  -0.03   0.02
  74   1    -0.00   0.00  -0.00     0.01   0.00  -0.01    -0.00   0.00  -0.11
  75   1     0.01   0.03  -0.13    -0.09  -0.09  -0.03    -0.00  -0.00  -0.04
  76   1    -0.00   0.01   0.02     0.02  -0.09  -0.01     0.00  -0.00   0.00
                     28                     29                     30
                        a                      a                      a 
 Frequencies --   223.1317               224.8723               258.7631
 Red. masses --    11.2832                11.3311                11.0508
 Frc consts  --     0.0000                 0.0000                 0.0000
 IR Inten    --    28.3112                 9.4306                14.1681
 Raman Activ --     0.0000                 0.0000                 0.0000
 Depolar     --     0.0000                 0.0000                 0.0000
 Atom AN      X      Y      Z        X      Y      Z        X      Y      Z
   1   6    -0.01  -0.00   0.01    -0.02   0.02   0.03    -0.03   0.01  -0.00
   2   6     0.00  -0.02  -0.00     0.00  -0.01  -0.01    -0.00  -0.04   0.00
   3   6     0.02  -0.02  -0.01     0.05  -0.01  -0.03     0.06  -0.03  -0.00
   4   6     0.03  -0.00  -0.01     0.06   0.01  -0.01     0.08   0.00   0.00
   5   6     0.02  -0.00   0.01     0.03   0.00   0.02     0.00   0.00  -0.00
   6   7     0.02  -0.01   0.05     0.02  -0.01  -0.01    -0.05  -0.07   0.04
   7   6    -0.01  -0.00   0.01    -0.00  -0.01   0.01    -0.09  -0.06  -0.01
   8   6    -0.01  -0.00  -0.01    -0.00  -0.01  -0.01    -0.07  -0.04  -0.03
   9   6     0.01   0.02   0.23    -0.00  -0.01  -0.04    -0.03  -0.03   0.13
  10   6     0.01   0.05   0.07    -0.00  -0.00  -0.01    -0.02  -0.01  -0.02
  11   6     0.14   0.11  -0.09    -0.02  -0.01   0.01     0.00  -0.03   0.01
  12   6     0.20   0.13  -0.16    -0.03  -0.00   0.03    -0.01  -0.06   0.02
  13   6     0.02   0.13  -0.01    -0.00  -0.00  -0.00    -0.02  -0.07   0.02
  14   7    -0.17   0.19   0.17     0.02  -0.01  -0.03     0.02  -0.08  -0.02
  15   6    -0.01   0.19  -0.03    -0.00  -0.01   0.00     0.02  -0.06  -0.01
  16   6     0.15   0.20  -0.19    -0.03  -0.01   0.03     0.00  -0.05   0.03
  17   6    -0.00   0.00  -0.00     0.00   0.00   0.00    -0.07   0.04  -0.16
  18   6    -0.04  -0.04  -0.07     0.01   0.01   0.00    -0.05   0.07  -0.07
  19   6     0.03  -0.18   0.09     0.01   0.02  -0.00     0.02   0.07   0.09
  20   6    -0.00  -0.25   0.19     0.01   0.02  -0.01     0.15   0.06   0.10
  21   6    -0.13  -0.12   0.03     0.02   0.02  -0.00     0.14   0.07  -0.01
  22   7    -0.26  -0.01  -0.16     0.03   0.01   0.01     0.07   0.11  -0.12
  23   6    -0.07  -0.11   0.01     0.02   0.02  -0.00     0.04   0.03   0.00
  24   6     0.06  -0.24   0.16     0.01   0.02  -0.01     0.06   0.03   0.14
  25   6    -0.03  -0.01  -0.26     0.00  -0.00   0.01    -0.09   0.00  -0.12
  26   6    -0.00  -0.00  -0.02    -0.02   0.00   0.03    -0.12   0.00  -0.03
  27   6    -0.00   0.00  -0.01    -0.01   0.01   0.02    -0.09   0.06  -0.01
  28   6    -0.00   0.00   0.01    -0.02   0.00  -0.02    -0.08   0.03   0.07
  29   6    -0.00  -0.00   0.01    -0.02  -0.01  -0.09    -0.03   0.03  -0.20
  30   6    -0.00  -0.01   0.01    -0.02  -0.05   0.10    -0.03   0.01   0.02
  31   6     0.01  -0.02  -0.01     0.13  -0.12  -0.06    -0.01   0.04   0.02
  32   6     0.01  -0.03  -0.01     0.15  -0.20  -0.15     0.00   0.09   0.05
  33   6    -0.00  -0.03  -0.00    -0.03  -0.18   0.01     0.01   0.10   0.02
  34   7    -0.02  -0.03   0.01    -0.18  -0.18   0.16     0.03   0.14  -0.03
  35   6     0.00  -0.02  -0.00     0.04  -0.14  -0.02    -0.00   0.11  -0.01
  36   6     0.02  -0.02  -0.01     0.20  -0.15  -0.13    -0.03   0.11   0.02
  37   6    -0.00  -0.00   0.01    -0.04  -0.02   0.36    -0.10  -0.10   0.15
  38   6    -0.00   0.00   0.01    -0.05   0.02   0.10    -0.09  -0.12   0.08
  39   6     0.01   0.02  -0.01     0.03   0.17  -0.09    -0.00  -0.10  -0.16
  40   6     0.00   0.03  -0.02     0.01   0.24  -0.18     0.17  -0.10  -0.18
  41   6    -0.01   0.01  -0.00    -0.13   0.10   0.00     0.19  -0.09  -0.01
  42   7    -0.03  -0.01   0.02    -0.24  -0.01   0.18     0.08  -0.13   0.17
  43   6    -0.00   0.01  -0.00    -0.06   0.12  -0.02     0.02  -0.02  -0.01
  44   6     0.01   0.03  -0.02     0.06   0.24  -0.16     0.02  -0.01  -0.22
  45   6    -0.00   0.00   0.02    -0.02  -0.00  -0.05    -0.13  -0.05   0.29
  46   7     0.01   0.01  -0.02     0.02   0.01   0.08    -0.05   0.07  -0.05
  47   6     0.02   0.01  -0.01     0.04   0.05  -0.02     0.06   0.04   0.00
  48   6     0.00   0.01  -0.00     0.00   0.05   0.00    -0.00   0.05   0.00
  49   1    -0.01  -0.00   0.01    -0.01   0.00   0.02    -0.02   0.00  -0.00
  50   1    -0.00  -0.01   0.00    -0.00  -0.01  -0.00    -0.01  -0.02  -0.00
  51   1     0.01  -0.01  -0.00     0.02  -0.01  -0.01     0.02  -0.02  -0.00
  52   1     0.01   0.00   0.13    -0.00  -0.00  -0.02    -0.00  -0.01   0.09
  53   1     0.07   0.04  -0.07    -0.01  -0.00   0.01     0.00  -0.02   0.00
  54   1    -0.01   0.02   0.01     0.00   0.00  -0.00    -0.01  -0.02   0.01
  55   1    -0.02   0.06   0.01     0.00  -0.00  -0.00     0.01  -0.01  -0.01
  56   1     0.07   0.08  -0.07    -0.01  -0.01   0.01    -0.00  -0.02   0.01
  57   1    -0.00   0.00   0.00     0.00  -0.00   0.00    -0.02   0.01  -0.06
  58   1     0.00  -0.10   0.07     0.00   0.01  -0.00     0.06   0.03   0.04
  59   1    -0.05  -0.03  -0.01     0.01   0.00   0.00     0.05   0.02  -0.01
  60   1    -0.02  -0.01  -0.01     0.00   0.00  -0.00    -0.00  -0.00  -0.01
  61   1     0.03  -0.08   0.07     0.00   0.01  -0.00     0.02   0.00   0.05
  62   1    -0.01  -0.01  -0.13    -0.00  -0.00   0.01    -0.04  -0.00  -0.04
  63   1     0.00   0.00  -0.02    -0.01   0.00   0.01    -0.05   0.00  -0.01
  64   1    -0.00   0.00  -0.00    -0.00   0.00  -0.08    -0.01   0.01  -0.15
  65   1     0.01  -0.01  -0.01     0.07  -0.07  -0.06    -0.00   0.04   0.01
  66   1    -0.00  -0.01   0.00    -0.03  -0.05   0.02    -0.00   0.02   0.00
  67   1    -0.00  -0.01  -0.00     0.00  -0.03  -0.01     0.01   0.03  -0.01
  68   1     0.01  -0.01  -0.00     0.07  -0.04  -0.05    -0.01   0.04   0.01
  69   1    -0.00   0.00   0.00    -0.02  -0.00   0.15    -0.02  -0.04   0.05
  70   1     0.00   0.01  -0.01     0.01   0.10  -0.07     0.07  -0.05  -0.07
  71   1    -0.01   0.00   0.00    -0.05   0.01   0.02     0.07  -0.03   0.01
  72   1    -0.00  -0.00   0.00    -0.02   0.02  -0.00    -0.02   0.02   0.02
  73   1     0.01   0.01  -0.01     0.03   0.08  -0.06    -0.00   0.01  -0.08
  74   1    -0.00   0.00   0.01    -0.00  -0.00  -0.06    -0.06  -0.01   0.12
  75   1     0.01   0.01  -0.00     0.02   0.02  -0.01     0.02   0.02   0.00
  76   1    -0.00   0.01  -0.00    -0.00   0.02   0.00    -0.01   0.02  -0.00
                     31                     32                     33
                        a                      a                      a 
 Frequencies --   263.7334               269.4807               273.9022
 Red. masses --    10.5425                10.8026                11.0825
 Frc consts  --     0.0000                 0.0000                 0.0000
 IR Inten    --     9.4393                 1.0829                 9.8668
 Raman Activ --     0.0000                 0.0000                 0.0000
 Depolar     --     0.0000                 0.0000                 0.0000
 Atom AN      X      Y      Z        X      Y      Z        X      Y      Z
   1   6    -0.01   0.06   0.00    -0.00  -0.08  -0.01    -0.01  -0.05  -0.01
   2   6     0.01   0.02   0.00    -0.01  -0.07  -0.00    -0.00  -0.07  -0.00
   3   6     0.05   0.02   0.00    -0.01  -0.06  -0.01     0.04  -0.06  -0.00
   4   6     0.05   0.02  -0.00     0.01  -0.03  -0.00     0.06  -0.02  -0.00
   5   6     0.01   0.01  -0.00     0.01  -0.00   0.00     0.02  -0.00  -0.01
   6   7    -0.03  -0.05   0.01     0.02   0.03  -0.02     0.02   0.02  -0.01
   7   6    -0.05  -0.05  -0.02    -0.00   0.03   0.03     0.01   0.03  -0.01
   8   6    -0.05  -0.03  -0.04    -0.03   0.03   0.02     0.02   0.04   0.12
   9   6    -0.02  -0.02   0.13    -0.09   0.03   0.29    -0.09   0.03   0.12
  10   6    -0.02  -0.01  -0.03    -0.13  -0.02   0.05    -0.12  -0.01   0.15
  11   6    -0.00  -0.03   0.01    -0.13  -0.07  -0.14    -0.13  -0.01  -0.15
  12   6    -0.02  -0.05   0.01    -0.09  -0.01  -0.16    -0.04   0.11  -0.21
  13   6    -0.02  -0.06   0.02    -0.02   0.01   0.00     0.02   0.14  -0.04
  14   7     0.02  -0.08  -0.02     0.03  -0.12   0.11    -0.04   0.06   0.16
  15   6     0.02  -0.06  -0.01     0.06  -0.19  -0.01     0.02  -0.06  -0.00
  16   6    -0.01  -0.06   0.03    -0.04  -0.20  -0.12    -0.02  -0.07  -0.21
  17   6    -0.07   0.05  -0.16    -0.13   0.04   0.12    -0.02  -0.07   0.42
  18   6    -0.06   0.07  -0.06    -0.05   0.07   0.01     0.08  -0.07   0.13
  19   6    -0.01   0.08   0.10    -0.01   0.11   0.08     0.07  -0.07  -0.14
  20   6     0.10   0.08   0.10     0.09   0.14   0.03    -0.03  -0.03  -0.19
  21   6     0.12   0.06  -0.01     0.15   0.08   0.00    -0.01  -0.01   0.01
  22   7     0.05   0.07  -0.11     0.12   0.07  -0.05     0.10   0.04   0.13
  23   6     0.00   0.00   0.01     0.01   0.05  -0.02     0.09   0.13  -0.04
  24   6     0.00   0.02   0.13    -0.01   0.08   0.08     0.10   0.07  -0.18
  25   6    -0.08   0.02  -0.13    -0.07   0.05  -0.31     0.07  -0.03   0.03
  26   6    -0.06  -0.03  -0.02     0.02   0.02   0.04    -0.01   0.04  -0.08
  27   6    -0.03  -0.00   0.01     0.02   0.02  -0.01    -0.03   0.02  -0.02
  28   6    -0.03   0.00   0.02     0.05   0.01  -0.08    -0.04   0.00   0.07
  29   6    -0.13   0.01   0.35     0.10   0.00  -0.09    -0.09   0.01   0.11
  30   6    -0.13   0.02   0.04     0.11  -0.01  -0.06    -0.10   0.01   0.05
  31   6    -0.10   0.01  -0.17     0.07  -0.04   0.10    -0.08   0.03  -0.09
  32   6    -0.01   0.08  -0.19    -0.01  -0.13   0.10    -0.01   0.10  -0.09
  33   6     0.04   0.08  -0.02    -0.04  -0.13   0.00     0.03   0.10  -0.01
  34   7    -0.03  -0.03   0.14     0.00  -0.10  -0.08    -0.00   0.06   0.07
  35   6    -0.01  -0.12   0.00     0.00  -0.01   0.01    -0.01  -0.02  -0.01
  36   6    -0.03  -0.11  -0.19     0.03  -0.01   0.12    -0.04  -0.02  -0.11
  37   6    -0.08   0.06   0.07     0.13   0.03  -0.19    -0.11  -0.02   0.14
  38   6     0.04   0.05  -0.00     0.05   0.06  -0.05    -0.04  -0.05   0.05
  39   6     0.07   0.04   0.12     0.01   0.07   0.06    -0.00  -0.05  -0.04
  40   6     0.05   0.02   0.13    -0.09   0.08   0.05     0.08  -0.06  -0.04
  41   6     0.02  -0.02   0.02    -0.11   0.07  -0.01     0.09  -0.06   0.00
  42   7     0.12  -0.09  -0.07    -0.09   0.08  -0.05     0.08  -0.07   0.04
  43   6     0.13  -0.12  -0.00    -0.03   0.03   0.01     0.03  -0.04  -0.01
  44   6     0.13  -0.09   0.11    -0.01   0.05   0.08     0.02  -0.05  -0.06
  45   6     0.04   0.05  -0.34     0.06   0.04   0.01    -0.05  -0.02  -0.01
  46   7    -0.01   0.01  -0.01     0.02   0.00   0.03    -0.00   0.03  -0.00
  47   6     0.03   0.07   0.01     0.02  -0.05  -0.00     0.06  -0.01   0.00
  48   6    -0.00   0.07   0.01     0.01  -0.06  -0.01     0.01  -0.01   0.00
  49   1    -0.01   0.02   0.00    -0.00  -0.02  -0.00    -0.01  -0.01  -0.00
  50   1    -0.00  -0.00  -0.00    -0.00  -0.02   0.00    -0.00  -0.03  -0.00
  51   1     0.02   0.00   0.00     0.00  -0.02  -0.00     0.02  -0.03  -0.00
  52   1     0.00  -0.00   0.10    -0.03   0.02   0.14    -0.04   0.02  -0.02
  53   1    -0.00  -0.02   0.00    -0.03   0.02  -0.06    -0.02   0.06  -0.07
  54   1    -0.01  -0.01   0.01    -0.00   0.04   0.02     0.01   0.07  -0.00
  55   1     0.01  -0.01  -0.01     0.03  -0.07   0.01     0.01  -0.04   0.03
  56   1    -0.01  -0.02   0.02    -0.02  -0.09  -0.04    -0.00  -0.05  -0.08
  57   1    -0.02   0.02  -0.06    -0.04   0.01   0.05    -0.01  -0.04   0.14
  58   1     0.04   0.04   0.04     0.03   0.07   0.01    -0.03  -0.02  -0.07
  59   1     0.04   0.02  -0.01     0.06   0.02   0.00    -0.02  -0.02   0.03
  60   1    -0.01  -0.02  -0.01    -0.02  -0.00  -0.02     0.03   0.06  -0.01
  61   1    -0.01  -0.00   0.05    -0.01   0.02   0.03     0.05   0.03  -0.07
  62   1    -0.04   0.00  -0.04    -0.03   0.01  -0.18     0.03  -0.01  -0.06
  63   1    -0.02  -0.01  -0.02     0.01   0.01   0.01    -0.01   0.01  -0.04
  64   1    -0.04   0.00   0.18     0.03   0.01  -0.01    -0.03  -0.00   0.03
  65   1    -0.01   0.05  -0.07     0.00  -0.06   0.04    -0.01   0.05  -0.03
  66   1     0.02   0.05   0.01    -0.02  -0.05  -0.01     0.01   0.04   0.01
  67   1    -0.00  -0.06   0.02    -0.00   0.02  -0.01     0.00  -0.03   0.01
  68   1    -0.02  -0.06  -0.07     0.01   0.01   0.04    -0.02  -0.02  -0.04
  69   1    -0.03   0.04   0.03     0.04   0.01  -0.07    -0.03  -0.00   0.05
  70   1     0.01   0.01   0.04    -0.04   0.04   0.02     0.03  -0.03  -0.02
  71   1    -0.02   0.00  -0.01    -0.04   0.02  -0.01     0.03  -0.02   0.00
  72   1     0.05  -0.04  -0.01     0.00  -0.01  -0.01     0.00   0.00   0.00
  73   1     0.06  -0.04   0.05     0.00   0.01   0.03     0.01  -0.01  -0.02
  74   1     0.01   0.01  -0.20     0.02   0.01   0.05    -0.02  -0.01  -0.04
  75   1     0.02   0.03   0.00     0.00  -0.02   0.00     0.02   0.00   0.00
  76   1    -0.00   0.03   0.00     0.00  -0.01  -0.00    -0.00   0.01   0.00
                     34                     35                     36
                        a                      a                      a 
 Frequencies --   303.9825               317.3184               335.9764
 Red. masses --    11.2338                11.5032                 8.7520
 Frc consts  --     0.0000                 0.0000                 0.0000
 IR Inten    --     3.6988                 1.1844                 0.9373
 Raman Activ --     0.0000                 0.0000                 0.0000
 Depolar     --     0.0000                 0.0000                 0.0000
 Atom AN      X      Y      Z        X      Y      Z        X      Y      Z
   1   6    -0.02  -0.06  -0.00    -0.00   0.28   0.03    -0.01  -0.02   0.00
   2   6    -0.02  -0.06  -0.01     0.04   0.20   0.02     0.00  -0.04  -0.00
   3   6     0.01  -0.05  -0.01     0.06   0.18   0.01     0.05  -0.04  -0.00
   4   6     0.03  -0.01   0.00     0.00   0.04   0.00     0.06  -0.00   0.00
   5   6    -0.06   0.01   0.01    -0.01  -0.07  -0.01    -0.01   0.01   0.00
   6   7    -0.15  -0.09  -0.04    -0.09  -0.23  -0.04    -0.03   0.01  -0.00
   7   6    -0.14  -0.08   0.02    -0.07  -0.23  -0.00    -0.02   0.02   0.00
   8   6    -0.13  -0.09   0.03    -0.06  -0.20   0.03    -0.01   0.05   0.00
[...]
  74   1     0.01   0.08  -0.00     0.02   0.13  -0.00     0.04   0.26  -0.00
  75   1    -0.11   0.06   0.00    -0.03   0.02   0.00     0.12  -0.07  -0.01
  76   1     0.06   0.04   0.00     0.05   0.03   0.00    -0.07  -0.04  -0.00
                    214                    215                    216
                        a                      a                      a 
 Frequencies --  3093.2951              3093.4705              3093.5777
 Red. masses --     1.8309                 1.8301                 1.8323
 Frc consts  --     0.0000                 0.0000                 0.0000
 IR Inten    --    74.0122                60.8068                57.2572
 Raman Activ --     0.0000                 0.0000                 0.0000
 Depolar     --     0.0000                 0.0000                 0.0000
 Atom AN      X      Y      Z        X      Y      Z        X      Y      Z
   1   6     0.00  -0.01  -0.00    -0.00  -0.00  -0.00     0.00   0.01   0.00
   2   6    -0.00   0.00   0.00     0.01  -0.00  -0.00    -0.01   0.00   0.00
   3   6    -0.00  -0.00  -0.00     0.01   0.00   0.00    -0.00  -0.00  -0.00
   4   6    -0.00  -0.00  -0.00    -0.00   0.00   0.00    -0.00   0.00   0.00
   5   6    -0.00   0.00  -0.00     0.00   0.00  -0.00    -0.00   0.00   0.00
   6   7    -0.00   0.00   0.00    -0.00   0.00   0.00    -0.00  -0.00   0.00
   7   6     0.00  -0.00  -0.00     0.00  -0.00  -0.00     0.00  -0.00  -0.00
   8   6     0.00   0.00  -0.00     0.00  -0.00  -0.00     0.00  -0.00  -0.00
   9   6     0.09   0.07  -0.01     0.09   0.07  -0.01     0.09   0.07  -0.01
  10   6     0.00  -0.00  -0.00     0.00   0.01  -0.00    -0.00   0.01  -0.00
  11   6     0.00   0.00   0.00     0.00  -0.00   0.00     0.00  -0.00   0.00
  12   6     0.09   0.08   0.07    -0.01  -0.01  -0.01    -0.02  -0.02  -0.02
  13   6     0.02  -0.01   0.01    -0.00   0.00  -0.00    -0.00   0.00  -0.00
  14   7    -0.00  -0.00  -0.00    -0.00  -0.00  -0.00    -0.00  -0.00  -0.00
  15   6     0.01   0.01   0.00     0.00   0.00   0.00     0.00   0.00   0.00
  16   6     0.05  -0.02   0.04     0.03  -0.01   0.02     0.02  -0.01   0.02
  17   6     0.12  -0.05  -0.01    -0.06   0.02   0.00    -0.07   0.03   0.00
  18   6     0.01   0.00  -0.00    -0.00  -0.00   0.00    -0.00  -0.00   0.00
  19   6    -0.00  -0.00  -0.00    -0.00   0.00   0.00     0.00   0.00   0.00
  20   6     0.01  -0.00  -0.01    -0.04   0.01   0.03    -0.04   0.01   0.03
  21   6    -0.00  -0.00  -0.00     0.00   0.01   0.00     0.00   0.01   0.00
  22   7    -0.00   0.00   0.00     0.00  -0.00  -0.00     0.00  -0.00  -0.00
  23   6     0.01  -0.00  -0.01    -0.01   0.00   0.01    -0.01   0.00   0.01
  24   6    -0.00  -0.10  -0.06     0.00   0.05   0.03     0.00   0.06   0.04
  25   6    -0.01   0.04  -0.00    -0.00   0.01  -0.00    -0.00   0.02  -0.00
  26   6     0.00  -0.03  -0.00    -0.00  -0.04  -0.00     0.00  -0.04  -0.00
  27   6    -0.00  -0.00  -0.00    -0.00  -0.00  -0.00    -0.00  -0.00  -0.00
  28   6    -0.00  -0.00  -0.00    -0.00   0.00  -0.00    -0.00  -0.00  -0.00
  29   6    -0.03   0.03  -0.00    -0.07   0.06  -0.00    -0.04   0.03  -0.00
  30   6    -0.00   0.00   0.00    -0.00   0.00  -0.00     0.00   0.01   0.00
  31   6    -0.00  -0.00  -0.00    -0.00   0.00  -0.00    -0.00  -0.00   0.00
  32   6    -0.01  -0.01  -0.01    -0.04  -0.02  -0.04    -0.00  -0.00  -0.00
  33   6    -0.00   0.00  -0.00    -0.00   0.01  -0.01    -0.00   0.00  -0.00
  34   7     0.00   0.00   0.00     0.00  -0.00   0.00    -0.00   0.00  -0.00
  35   6     0.00   0.00   0.00    -0.01  -0.01  -0.01     0.01   0.01   0.01
  36   6     0.00  -0.00   0.00    -0.06   0.06  -0.07     0.05  -0.05   0.06
  37   6     0.02   0.01   0.00    -0.09  -0.04  -0.00     0.10   0.04   0.00
  38   6     0.00  -0.00   0.00    -0.00   0.00  -0.00     0.00  -0.00   0.00
  39   6     0.00  -0.00   0.00     0.00  -0.00  -0.00    -0.00   0.00   0.00
  40   6     0.02   0.00   0.01    -0.01  -0.00  -0.01     0.04   0.01   0.03
  41   6    -0.00   0.00   0.00     0.00  -0.00  -0.00    -0.00   0.01   0.00
  42   7    -0.00  -0.00  -0.00     0.00   0.00   0.00    -0.00  -0.00  -0.00
  43   6     0.00   0.00   0.00    -0.01  -0.00  -0.01     0.02   0.00   0.01
  44   6     0.00   0.01   0.01    -0.00  -0.08  -0.06     0.00   0.10   0.07
  45   6     0.00   0.00  -0.00     0.01   0.04  -0.00    -0.00  -0.01   0.00
  46   7     0.00   0.00   0.00     0.00   0.00   0.00     0.00  -0.00  -0.00
  47   6    -0.00   0.00   0.00     0.00  -0.00  -0.00    -0.01   0.00   0.00
  48   6    -0.01  -0.00  -0.00    -0.00  -0.00  -0.00     0.00   0.00   0.00
  49   1     0.00   0.02   0.00     0.00   0.01   0.00    -0.00  -0.02  -0.00
  50   1     0.00  -0.00  -0.00    -0.02   0.01   0.00     0.02  -0.01  -0.00
  51   1     0.02   0.01   0.00    -0.02  -0.01  -0.00     0.01   0.00   0.00
  52   1    -0.31  -0.24   0.05    -0.33  -0.26   0.05    -0.32  -0.26   0.05
  53   1    -0.30  -0.28  -0.24     0.04   0.04   0.03     0.08   0.07   0.06
  54   1    -0.05   0.03  -0.03     0.01  -0.00   0.00     0.01  -0.01   0.01
  55   1    -0.02  -0.02  -0.01    -0.01  -0.01  -0.01    -0.01  -0.01  -0.01
  56   1    -0.17   0.08  -0.13    -0.10   0.04  -0.07    -0.09   0.04  -0.07
  57   1    -0.44   0.18   0.02     0.20  -0.09  -0.01     0.26  -0.11  -0.01
  58   1    -0.05   0.02   0.04     0.14  -0.05  -0.12     0.13  -0.05  -0.12
  59   1     0.00   0.01   0.00    -0.00  -0.02  -0.01    -0.00  -0.02  -0.01
  60   1    -0.04   0.01   0.03     0.02  -0.00  -0.01     0.03  -0.01  -0.02
  61   1     0.00   0.35   0.22    -0.00  -0.16  -0.10    -0.00  -0.22  -0.14
  62   1     0.02  -0.16   0.01     0.01  -0.05   0.00     0.01  -0.06   0.00
  63   1     0.00   0.10   0.01     0.00   0.14   0.01     0.00   0.12   0.01
  64   1     0.12  -0.09   0.00     0.24  -0.20   0.01     0.15  -0.12   0.00
  65   1     0.04   0.02   0.04     0.14   0.08   0.13     0.02   0.01   0.01
  66   1     0.00  -0.00   0.00     0.01  -0.02   0.02     0.00  -0.00   0.00
  67   1    -0.00  -0.00  -0.00     0.03   0.02   0.03    -0.03  -0.02  -0.03
  68   1    -0.01   0.01  -0.01     0.22  -0.22   0.24    -0.18   0.18  -0.20
  69   1    -0.06  -0.02  -0.00     0.33   0.13   0.01    -0.37  -0.15  -0.01
  70   1    -0.06  -0.02  -0.05     0.04   0.01   0.03    -0.15  -0.04  -0.12
  71   1     0.00  -0.01  -0.01    -0.00   0.01   0.00     0.00  -0.02  -0.01
  72   1    -0.01  -0.00  -0.00     0.04   0.01   0.03    -0.04  -0.01  -0.03
  73   1    -0.00  -0.05  -0.03     0.01   0.29   0.21    -0.01  -0.34  -0.25
  74   1    -0.00  -0.00  -0.00    -0.02  -0.15   0.00     0.01   0.04  -0.00
  75   1     0.01  -0.01  -0.00    -0.00   0.00   0.00     0.02  -0.01  -0.00
  76   1     0.02   0.01   0.00     0.00   0.00   0.00    -0.00  -0.00  -0.00
                    217                    218                    219
                        a                      a                      a 
 Frequencies --  3094.5986              3095.7848              3096.2391
 Red. masses --     1.8193                 1.8410                 1.8357
 Frc consts  --     0.0000                 0.0000                 0.0000
 IR Inten    --    12.7856                 6.2804                 9.8668
 Raman Activ --     0.0000                 0.0000                 0.0000
 Depolar     --     0.0000                 0.0000                 0.0000
 Atom AN      X      Y      Z        X      Y      Z        X      Y      Z
   1   6     0.00   0.00   0.00    -0.00   0.01   0.00    -0.00  -0.06  -0.01
   2   6    -0.02   0.01   0.00     0.05  -0.03  -0.00     0.06  -0.03  -0.00
   3   6    -0.03  -0.02  -0.00     0.10   0.06   0.01     0.06   0.03   0.00
   4   6    -0.00  -0.00   0.00     0.00  -0.00  -0.00     0.00   0.00   0.00
   5   6     0.00  -0.00  -0.00     0.00  -0.00   0.00     0.00   0.00  -0.00
   6   7    -0.00  -0.00   0.00    -0.00   0.00  -0.00    -0.00  -0.00  -0.00
   7   6    -0.00   0.00   0.00    -0.00   0.00   0.00    -0.00   0.00   0.00
   8   6     0.00   0.00  -0.00     0.01  -0.00  -0.00    -0.01   0.00   0.00
   9   6     0.08   0.07  -0.01     0.06   0.05  -0.01    -0.03  -0.02   0.00
  10   6     0.00   0.00  -0.00     0.00   0.00  -0.00     0.00  -0.00   0.00
  11   6     0.00  -0.00   0.00     0.00  -0.00   0.00     0.00  -0.00  -0.00
  12   6     0.00   0.00   0.00     0.00   0.00   0.00    -0.00  -0.00  -0.00
  13   6     0.00  -0.00   0.00     0.00  -0.00   0.00    -0.00   0.00  -0.00
  14   7    -0.00   0.00  -0.00    -0.00   0.00  -0.00     0.00  -0.00   0.00
  15   6     0.00   0.00   0.00     0.00   0.00   0.00    -0.00  -0.00  -0.00
  16   6     0.02  -0.01   0.02     0.01  -0.01   0.01    -0.00   0.00  -0.00
  17   6    -0.02   0.01   0.00    -0.01   0.01   0.00     0.01  -0.01  -0.00
  18   6     0.00   0.00  -0.00    -0.00  -0.00   0.00     0.00   0.00  -0.00
  19   6    -0.00  -0.00   0.00     0.00   0.00  -0.00    -0.00  -0.00   0.00
  20   6    -0.03   0.01   0.03     0.03  -0.01  -0.03    -0.04   0.01   0.03
  21   6     0.00   0.01   0.00    -0.00  -0.01  -0.00     0.00   0.01   0.00
  22   7     0.00  -0.00  -0.00    -0.00   0.00   0.00     0.00  -0.00  -0.00
  23   6    -0.00   0.00   0.00     0.00  -0.00  -0.00    -0.00   0.00   0.00
  24   6     0.00   0.01   0.01    -0.00  -0.01  -0.01     0.00   0.01   0.01
  25   6    -0.01   0.06  -0.00     0.02  -0.14   0.01    -0.02   0.15  -0.01
  26   6     0.00   0.02   0.00    -0.00   0.00   0.00     0.00   0.02   0.00
  27   6     0.00   0.00   0.00     0.00  -0.00  -0.00     0.00   0.00   0.00
  28   6     0.00  -0.00   0.00     0.00   0.00   0.00     0.01   0.00   0.00
  29   6     0.15  -0.12   0.00     0.06  -0.05   0.00     0.04  -0.04   0.00
  30   6     0.00  -0.01   0.00     0.00  -0.00   0.00     0.00  -0.00  -0.00
  31   6     0.00   0.00   0.00     0.00   0.00   0.00     0.00  -0.00   0.00
  32   6     0.04   0.02   0.04     0.01   0.01   0.01     0.01   0.00   0.01
  33   6     0.00  -0.01   0.00     0.00  -0.00   0.00     0.00  -0.00   0.00
  34   7    -0.00   0.00  -0.00    -0.00  -0.00  -0.00    -0.00  -0.00  -0.00
  35   6     0.00   0.00   0.00     0.00   0.00   0.00     0.00   0.00   0.00
  36   6     0.01  -0.01   0.01     0.00  -0.00   0.00     0.00  -0.00   0.00
  37   6    -0.03  -0.01  -0.00    -0.01  -0.00  -0.00    -0.01  -0.01  -0.00
  38   6     0.00  -0.00  -0.00    -0.00   0.00  -0.00    -0.00   0.00  -0.00
  39   6    -0.00   0.00  -0.00     0.00  -0.00   0.00     0.00  -0.00   0.00
  40   6    -0.05  -0.01  -0.04     0.02   0.01   0.02     0.04   0.01   0.04
  41   6     0.00  -0.01  -0.01    -0.00   0.00   0.00    -0.00   0.01   0.00
  42   7     0.00   0.00   0.00    -0.00  -0.00  -0.00    -0.00  -0.00  -0.00
  43   6    -0.00  -0.00  -0.00     0.00   0.00   0.00     0.00   0.00   0.00
  44   6     0.00  -0.02  -0.02     0.00   0.01   0.01     0.00   0.01   0.01
  45   6    -0.01  -0.08   0.00     0.01   0.07  -0.00     0.02   0.16  -0.00
  46   7    -0.00   0.00   0.00    -0.00   0.00   0.00     0.00  -0.00  -0.00
  47   6    -0.03   0.02   0.00     0.10  -0.06  -0.00    -0.00   0.00   0.00
  48   6    -0.01  -0.01  -0.00     0.06   0.03   0.00    -0.03  -0.02  -0.00
  49   1    -0.00  -0.01  -0.00     0.00  -0.03  -0.00     0.00   0.20   0.02
  50   1     0.05  -0.03  -0.00    -0.15   0.09   0.01    -0.19   0.11   0.01
  51   1     0.09   0.05   0.01    -0.34  -0.20  -0.02    -0.19  -0.11  -0.01
  52   1    -0.30  -0.24   0.05    -0.22  -0.17   0.03     0.09   0.07  -0.01
  53   1    -0.01  -0.01  -0.01    -0.01  -0.01  -0.01     0.01   0.01   0.01
  54   1    -0.00   0.00  -0.00    -0.00   0.00  -0.00     0.00  -0.00   0.00
  55   1    -0.01  -0.01  -0.00    -0.00  -0.00  -0.00     0.00   0.00   0.00
  56   1    -0.08   0.03  -0.06    -0.04   0.02  -0.03     0.01  -0.00   0.01
  57   1     0.06  -0.03  -0.00     0.05  -0.02  -0.00    -0.04   0.02   0.00
  58   1     0.11  -0.04  -0.09    -0.12   0.05   0.11     0.14  -0.05  -0.12
  59   1    -0.00  -0.01  -0.01     0.00   0.01   0.01    -0.00  -0.02  -0.01
  60   1     0.01  -0.00  -0.00    -0.01   0.00   0.00     0.01  -0.00  -0.00
  61   1    -0.00  -0.05  -0.03     0.00   0.04   0.03    -0.00  -0.04  -0.03
  62   1     0.03  -0.20   0.01    -0.07   0.48  -0.03     0.08  -0.54   0.03
  63   1     0.00  -0.06  -0.01     0.00  -0.01  -0.00    -0.00  -0.06  -0.01
  64   1    -0.52   0.42  -0.02    -0.23   0.19  -0.01    -0.16   0.13  -0.00
  65   1    -0.14  -0.08  -0.13    -0.05  -0.03  -0.04    -0.03  -0.01  -0.02
  66   1    -0.01   0.01  -0.01    -0.00   0.00  -0.00    -0.00   0.00  -0.00
  67   1    -0.00  -0.00  -0.00    -0.00  -0.00  -0.00    -0.00  -0.00  -0.00
  68   1    -0.02   0.02  -0.02    -0.01   0.02  -0.02    -0.02   0.02  -0.02
  69   1     0.09   0.04   0.00     0.04   0.02   0.00     0.04   0.02   0.00
  70   1     0.18   0.05   0.15    -0.08  -0.02  -0.06    -0.16  -0.05  -0.13
  71   1    -0.00   0.02   0.01     0.00  -0.01  -0.01     0.00  -0.02  -0.01
  72   1     0.01   0.00   0.01    -0.00  -0.00  -0.00    -0.01  -0.00  -0.00
  73   1     0.00   0.08   0.06    -0.00  -0.03  -0.02    -0.00  -0.05  -0.04
  74   1     0.05   0.29  -0.00    -0.04  -0.27   0.00    -0.09  -0.56   0.00
  75   1     0.09  -0.05  -0.00    -0.34   0.20   0.01     0.00  -0.00   0.00
  76   1     0.04   0.02   0.00    -0.19  -0.11  -0.01     0.10   0.06   0.01
                    220                    221                    222
                        a                      a                      a 
 Frequencies --  3097.2137              3098.9585              3117.6750
 Red. masses --     1.8424                 1.8918                 1.8134
 Frc consts  --     0.0000                 0.0000                 0.0000
 IR Inten    --    42.8353                45.4199                41.9305
 Raman Activ --     0.0000                 0.0000                 0.0000
 Depolar     --     0.0000                 0.0000                 0.0000
 Atom AN      X      Y      Z        X      Y      Z        X      Y      Z
   1   6     0.00  -0.02  -0.00    -0.00  -0.11  -0.01     0.00   0.00   0.00
   2   6    -0.04   0.02   0.00     0.09  -0.05  -0.00    -0.00   0.00   0.00
   3   6    -0.09  -0.06  -0.01     0.13   0.07   0.01     0.00   0.00   0.00
   4   6    -0.00   0.00   0.00     0.00   0.01   0.00     0.00   0.00  -0.00
   5   6     0.00   0.00   0.00    -0.00   0.00   0.00    -0.00   0.00   0.00
   6   7     0.00   0.00   0.00     0.00  -0.00  -0.00    -0.00   0.00   0.00
   7   6    -0.00  -0.00   0.00     0.00   0.00   0.00     0.01  -0.01  -0.00
   8   6     0.00  -0.00  -0.00     0.00  -0.00  -0.00    -0.00  -0.00   0.00
   9   6     0.02   0.02  -0.00     0.01   0.00  -0.00    -0.04  -0.03   0.01
  10   6    -0.00   0.00  -0.00    -0.00   0.00  -0.00    -0.00  -0.00   0.00
  11   6    -0.00   0.00   0.00    -0.00   0.00   0.00    -0.00   0.00  -0.00
  12   6     0.00   0.00   0.00    -0.00  -0.00  -0.00     0.00   0.00   0.00
  13   6     0.00  -0.00   0.00    -0.00   0.00  -0.00     0.00  -0.00   0.00
  14   7    -0.00   0.00  -0.00     0.00  -0.00   0.00     0.00   0.00   0.00
  15   6     0.00   0.00   0.00     0.00   0.00   0.00    -0.00  -0.00  -0.00
  16   6     0.00  -0.00   0.00     0.00  -0.00   0.00    -0.00   0.00  -0.00
  17   6    -0.01   0.00   0.00    -0.00   0.00   0.00     0.00   0.00  -0.00
  18   6    -0.00  -0.00   0.00    -0.00  -0.00   0.00     0.00  -0.00  -0.00
  19   6     0.00   0.00  -0.00     0.00   0.00  -0.00    -0.00  -0.00   0.00
  20   6     0.02  -0.01  -0.02     0.01  -0.00  -0.01    -0.00   0.00   0.00
  21   6    -0.00  -0.00  -0.00    -0.00  -0.00  -0.00    -0.00   0.00   0.00
  22   7    -0.00   0.00   0.00     0.00   0.00   0.00     0.00   0.00   0.00
  23   6     0.00  -0.00  -0.00     0.00  -0.00  -0.00     0.00  -0.00  -0.00
  24   6    -0.00  -0.01  -0.00     0.00  -0.00  -0.00     0.00  -0.00  -0.00
  25   6     0.02  -0.11   0.01     0.01  -0.05   0.00     0.00  -0.00   0.00
  26   6    -0.00   0.00   0.00    -0.00  -0.00  -0.00    -0.00  -0.26  -0.02
  27   6    -0.00   0.00  -0.00     0.00   0.00   0.00    -0.01  -0.01  -0.00
  28   6     0.00   0.00   0.00    -0.00  -0.00  -0.00     0.00  -0.00   0.00
  29   6     0.03  -0.03   0.00    -0.02   0.01  -0.00     0.04  -0.03   0.00
  30   6    -0.00  -0.00  -0.00     0.00   0.00   0.00     0.00  -0.00   0.00
  31   6     0.00  -0.00   0.00     0.00   0.00  -0.00    -0.00   0.00   0.00
  32   6     0.00   0.00   0.00    -0.00  -0.00  -0.00     0.00   0.00   0.00
  33   6     0.00  -0.00   0.00    -0.00   0.00  -0.00     0.00  -0.00   0.00
  34   7    -0.00  -0.00  -0.00     0.00   0.00   0.00    -0.00   0.00  -0.00
  35   6     0.00   0.00   0.00    -0.00   0.00  -0.00    -0.00  -0.00  -0.00
  36   6     0.00  -0.00   0.00    -0.00   0.00  -0.00    -0.00   0.00  -0.00
  37   6    -0.01  -0.01  -0.00     0.00   0.00   0.00    -0.00   0.00  -0.00
  38   6    -0.00   0.00  -0.00     0.00  -0.00   0.00    -0.00  -0.00  -0.00
  39   6     0.00  -0.00   0.00    -0.00   0.00  -0.00     0.00  -0.00   0.00
  40   6     0.03   0.01   0.02    -0.01  -0.00  -0.01     0.00   0.00   0.00
  41   6    -0.00   0.00   0.00     0.00  -0.00  -0.00     0.00   0.00   0.00
  42   7    -0.00  -0.00  -0.00     0.00   0.00   0.00     0.00   0.00   0.00
  43   6     0.00   0.00   0.00    -0.00  -0.00  -0.00    -0.00  -0.00  -0.00
  44   6     0.00   0.01   0.01    -0.00  -0.00  -0.00    -0.00  -0.00  -0.00
  45   6     0.02   0.13  -0.00    -0.01  -0.08   0.00    -0.00  -0.00   0.00
  46   7     0.00  -0.00  -0.00    -0.00  -0.00  -0.00     0.00   0.00   0.00
  47   6    -0.12   0.08   0.01    -0.11   0.07   0.00    -0.00   0.00   0.00
  48   6    -0.07  -0.04  -0.00    -0.09  -0.05  -0.00     0.00   0.00   0.00
  49   1    -0.00   0.06   0.01     0.00   0.35   0.03    -0.00  -0.00  -0.00
  50   1     0.12  -0.07  -0.01    -0.30   0.17   0.01     0.00  -0.00  -0.00
  51   1     0.33   0.19   0.02    -0.44  -0.25  -0.03    -0.00  -0.00  -0.00
  52   1    -0.08  -0.07   0.01    -0.02  -0.02   0.00     0.13   0.10  -0.02
  53   1    -0.00  -0.00  -0.00     0.00   0.00   0.00    -0.00  -0.00  -0.00
  54   1    -0.00   0.00  -0.00     0.00  -0.00   0.00    -0.00   0.00  -0.00
  55   1    -0.00  -0.00  -0.00    -0.00  -0.00  -0.00     0.00   0.00   0.00
  56   1    -0.01   0.01  -0.01    -0.00   0.00  -0.00     0.01  -0.00   0.01
  57   1     0.03  -0.01  -0.00     0.01  -0.00  -0.00    -0.00   0.00   0.00
  58   1    -0.08   0.03   0.07    -0.03   0.01   0.02     0.00  -0.00  -0.00
  59   1     0.00   0.01   0.01     0.00   0.00   0.00    -0.00  -0.00  -0.00
  60   1    -0.00   0.00   0.00    -0.00   0.00   0.00    -0.00   0.00   0.00
  61   1     0.00   0.02   0.02     0.00   0.01   0.00     0.00   0.00   0.00
  62   1    -0.06   0.39  -0.02    -0.03   0.17  -0.01    -0.00   0.01  -0.00
  63   1    -0.00  -0.01  -0.00     0.00   0.01   0.00     0.00   0.93   0.08
  64   1    -0.12   0.10  -0.00     0.06  -0.05   0.00    -0.14   0.12  -0.00
  65   1    -0.02  -0.01  -0.02     0.01   0.00   0.01    -0.01  -0.00  -0.01
  66   1    -0.00   0.00  -0.00     0.00  -0.00   0.00    -0.00   0.00  -0.00
  67   1    -0.00  -0.00  -0.00    -0.00  -0.00  -0.00     0.00   0.00   0.00
  68   1    -0.01   0.01  -0.01     0.00  -0.00   0.00     0.00  -0.00   0.00
  69   1     0.03   0.01   0.00    -0.02  -0.01  -0.00     0.00   0.00   0.00
  70   1    -0.10  -0.03  -0.08     0.04   0.01   0.04    -0.00  -0.00  -0.00
  71   1     0.00  -0.01  -0.01    -0.00   0.01   0.00     0.00  -0.00  -0.00
  72   1    -0.00  -0.00  -0.00     0.00   0.00   0.00     0.00   0.00   0.00
  73   1    -0.00  -0.03  -0.02     0.00   0.01   0.01     0.00   0.00   0.00
  74   1    -0.07  -0.45   0.00     0.05   0.29  -0.00     0.00   0.01  -0.00
  75   1     0.44  -0.26  -0.02     0.37  -0.22  -0.02     0.00  -0.00  -0.00
  76   1     0.21   0.12   0.01     0.28   0.16   0.02    -0.00  -0.00  -0.00
