$hessian                                                                        
        0.5194894292  -0.0158971348  -0.0127393750  -0.0789878724  -0.0304528102
       -0.0309194870  -0.0051753950  -0.0101368038  -0.0047857004  -0.0029428349
        0.0016384306  -0.0015506817  -0.0009771341  -0.0005584662  -0.0000998200
       -0.0001645536   0.0001529803   0.0000778186  -0.0000065521   0.0000632053
        0.0000084265   0.0000780383  -0.0000668890  -0.0000617611  -0.0002828080
        0.0000659716   0.0000657583   0.0004821653  -0.0001838104   0.0005147746
       -0.0005467908   0.0005787890  -0.0004930563   0.0003302450  -0.0001565381
       -0.0000125497  -0.0001718709  -0.0000019890  -0.0002161708   0.0002133193
        0.0001278942   0.0000432508  -0.0000489925   0.0000383634   0.0000936013
       -0.0004341971   0.0000743718   0.0005469484   0.0002295469  -0.0000237574
       -0.0002114257  -0.0000630671  -0.0000389712   0.0000363900   0.0000846217
        0.0000011101  -0.0000775813  -0.0000205706  -0.0000118721  -0.0000015833
       -0.0000198107   0.0000068049  -0.0000053541  -0.0000368253  -0.0000056330
       -0.0001225572  -0.0000751158  -0.0000247931   0.0000607687  -0.0010785381
        0.0000228800   0.0017502345  -0.0000730063  -0.0000051025  -0.0000409855
        0.0004170251   0.0000242794  -0.0000645547  -0.0002351586  -0.0000866076
       -0.0001466417  -0.0010475646   0.0005690240   0.0018195155  -0.0013240300
        0.0010889682   0.0012016121   0.0003271915   0.0002473174   0.0000522403
        0.0002850610  -0.0000715636  -0.0001102936  -0.0010260595   0.0007342410
        0.0004833196   0.0002611101  -0.0002240094   0.0001851279  -0.0003334835
        0.0002704216   0.0002947392   0.0003852300  -0.0000557942   0.0000217194
       -0.0182971250  -0.0107501289  -0.0213780388   0.0035711950   0.0092251668
        0.0114390964  -0.1738483398   0.0776308426  -0.0919893282  -0.0710254188
       -0.0675396626   0.0369387554  -0.1682359049   0.0468774262   0.1094256732
        0.0002390709  -0.0005621887  -0.0007485775  -0.0002416850  -0.0021084535
        0.0005903975   0.0004947360   0.0007980619   0.0000018025  -0.0000136596
       -0.0000234660  -0.0000302865  -0.0001276050  -0.0000548842  -0.0000328486
       -0.0000111572  -0.0000286279  -0.0000074900  -0.0000326371  -0.0000250601
       -0.0000008920   0.0000299593   0.0000307066  -0.0000853177   0.0000031359
        0.0000427373   0.0000507628  -0.0000320415   0.0000304622   0.0000488409
       -0.0000074056   0.0000555016  -0.0000060979  -0.0000393385  -0.0000078478
        0.0000230163  -0.0000194614   0.0000090053   0.0000362468   0.0000030857
        0.0000064680   0.0000315731   0.0000274477   0.0000070935   0.0000248906
       -0.0000072984   0.0000311141   0.0000327971  -0.0000338557  -0.0000017394
       -0.0000014114  -0.0000274581   0.0000467758   0.0000119669  -0.0002572883
        0.0002004172   0.0005168136  -0.0000193964   0.0000270041   0.0000186539
        0.0002180280  -0.0000381492  -0.0000335503   0.0000314059   0.0000458172
       -0.0000383283  -0.0001110439  -0.0001386277  -0.0001371160   0.0002593041
       -0.0014882716  -0.0002986703
       -0.0158971348   0.4946228036  -0.0435799964  -0.0315940497  -0.1095704961
       -0.0468273185  -0.0154700881  -0.0261166231  -0.0131889824   0.0016220372
       -0.0001804444   0.0011774893   0.0004279974   0.0004297021   0.0000643848
       -0.0000690680  -0.0001581626  -0.0000653261   0.0000908635  -0.0000484610
        0.0000017517  -0.0000761856   0.0000979438   0.0000453779   0.0001990399
       -0.0002303241  -0.0000608876  -0.0001436211   0.0002160760  -0.0000604491
        0.0000929414  -0.0001139515   0.0000980997  -0.0001089370   0.0000248769
        0.0000207060   0.0000431580  -0.0000082944   0.0000529573  -0.0000833451
       -0.0000332730   0.0000149362   0.0001815142   0.0000185510   0.0000821665
       -0.0001393584  -0.0004607445   0.0001772776   0.0001186840   0.0001503920
       -0.0002167717   0.0000239848  -0.0000227126  -0.0000303172   0.0000374834
        0.0000182102  -0.0000011775  -0.0000152161  -0.0000169522  -0.0000013495
       -0.0000152247  -0.0000040451   0.0000185808  -0.0000244402  -0.0000005929
       -0.0000250677  -0.0000161485  -0.0000194051   0.0000401581   0.0005034429
       -0.0000493871  -0.0008651836   0.0000896680  -0.0000557314   0.0000534543
        0.0000777334   0.0000763835  -0.0000191112  -0.0002185941   0.0000672978
       -0.0000230260  -0.0002590813  -0.0004128023  -0.0012919273   0.0000106444
       -0.0000295513  -0.0001125060  -0.0000566640  -0.0001305658  -0.0002328771
        0.0002731370  -0.0000413251   0.0003512219   0.0003108053  -0.0003202562
        0.0001389956  -0.0001568749   0.0000039858  -0.0001437973   0.0003002803
       -0.0002376560  -0.0001811549  -0.0000841875  -0.0003657963   0.0002735699
        0.0023129148   0.0040737424   0.0037559658   0.0017547437  -0.0047521027
       -0.0080274012   0.0777450965  -0.0893453881   0.0554589180  -0.0684195839
       -0.2041576065   0.0911942439   0.0466721812  -0.0599993101  -0.0388562724
        0.0003369680   0.0002333065  -0.0012340460  -0.0020667539  -0.0053219666
        0.0019548043  -0.0004907508   0.0006196588  -0.0010975168   0.0000092430
        0.0000252027  -0.0000232967   0.0000951413   0.0000386495   0.0000227005
        0.0000234240   0.0000506907   0.0000153320   0.0000302263   0.0000852925
        0.0000236174  -0.0000522954  -0.0000366752   0.0000373850   0.0000154344
       -0.0000027332   0.0000053385   0.0000202857   0.0000019203  -0.0000179598
       -0.0000063414  -0.0000164882  -0.0000119909  -0.0000035311   0.0000051565
       -0.0000026893   0.0000017569   0.0000143405   0.0000126178   0.0000108168
        0.0000096432   0.0000079957   0.0000072645   0.0000121968   0.0000011790
       -0.0000062994   0.0000083651  -0.0000212370  -0.0000204195   0.0000100233
        0.0000191709   0.0000012836   0.0000109916  -0.0000091936   0.0002081558
        0.0000916570  -0.0000783521  -0.0000517007  -0.0000195397  -0.0000000721
       -0.0000396093   0.0000255334   0.0000399809   0.0000382964   0.0000807697
       -0.0000512659   0.0001455537   0.0001338335  -0.0000058321   0.0017533025
        0.0010221670   0.0012039758
       -0.0127393750  -0.0435799964   0.4819958840  -0.0335900158  -0.0503733442
       -0.1123555455   0.0038182984   0.0059042322   0.0053356121  -0.0019849321
        0.0009185879  -0.0010150415  -0.0005564338  -0.0002007079  -0.0001849413
       -0.0001428146   0.0000496012   0.0000501990   0.0000243340  -0.0000087818
        0.0000119270   0.0000661751  -0.0000460029   0.0000564849   0.0002332097
       -0.0000393457  -0.0000634288  -0.0000953557   0.0000967815  -0.0000506585
        0.0000638182  -0.0005016811  -0.0000509414  -0.0002208883  -0.0000237893
        0.0000742130   0.0000234042  -0.0000580548   0.0000212201  -0.0001549099
       -0.0000603879   0.0000609826   0.0001889325   0.0000024836   0.0000802412
       -0.0001417854   0.0007231214  -0.0003635550   0.0000573784  -0.0002382736
        0.0003404096   0.0000713843  -0.0000003576  -0.0000493873  -0.0000184573
        0.0000010650   0.0000061687  -0.0000024036   0.0000021383   0.0000057438
        0.0000087848   0.0000045280   0.0000124158  -0.0000100765   0.0000077782
       -0.0000045604   0.0000788505   0.0000126142  -0.0000258259   0.0011378641
        0.0001901371  -0.0017858731   0.0000589834   0.0000495733   0.0000179538
       -0.0000936677  -0.0001066035  -0.0000622081   0.0007838701  -0.0002961605
       -0.0007646743   0.0003569916  -0.0012273906  -0.0007998439   0.0004169868
       -0.0006949712  -0.0007643000  -0.0000863366  -0.0003046403  -0.0001258586
        0.0000262506   0.0000491247   0.0001914491   0.0011197852  -0.0005243388
       -0.0005459994  -0.0004293902   0.0002416186  -0.0002178918  -0.0000859802
       -0.0000747330  -0.0000852504   0.0002932986  -0.0001841900  -0.0000358087
       -0.0141244661  -0.0067406391  -0.0133998198  -0.0002528867  -0.0132672884
       -0.0165200766  -0.0923539644   0.0556958647  -0.1084584509   0.0371117262
        0.0911597088  -0.0931727623   0.1099806922  -0.0393071204  -0.1381180152
        0.0002083080   0.0010550834   0.0006469409   0.0010090535   0.0029521038
       -0.0003975636   0.0005441889   0.0006401768   0.0004576887  -0.0000306219
       -0.0000440577   0.0000343927  -0.0000570430  -0.0000316050  -0.0000127012
       -0.0000155980   0.0000017882  -0.0000078161  -0.0000171777   0.0000044521
        0.0000349461  -0.0000306323  -0.0000717284   0.0000123038   0.0000296633
       -0.0000317689  -0.0000158922   0.0000529044  -0.0000046948  -0.0000200301
        0.0000173237  -0.0000190409   0.0000157689   0.0000227467   0.0000056185
       -0.0000087843   0.0000148748   0.0000020475  -0.0000063505   0.0000016756
       -0.0000014055   0.0000034604   0.0000042046   0.0000183383   0.0000143509
       -0.0000110979   0.0000276431   0.0000052679   0.0000468935  -0.0000059995
        0.0000367115   0.0000340049  -0.0000348977  -0.0000013883  -0.0002067816
       -0.0002148569  -0.0000309751   0.0000179488   0.0000084715  -0.0000247785
       -0.0001346299   0.0000216979   0.0001034860  -0.0000720058  -0.0000211856
       -0.0000311573  -0.0000515129   0.0000767027  -0.0000114379  -0.0002135685
       -0.0015830431  -0.0000366283
       -0.0789878724  -0.0315940497  -0.0335900158   0.3921998517   0.0253218557
        0.0359719914  -0.0705571704  -0.0257571647   0.0142001946  -0.0120721400
        0.0004694254  -0.0031391008  -0.0036596988  -0.0005177967  -0.0015194735
       -0.0008293012   0.0005128630  -0.0003677558   0.0000909153  -0.0000817687
        0.0000087062  -0.0001323190  -0.0001112033   0.0004541694   0.0006760075
       -0.0002162961  -0.0000183791  -0.0007228094   0.0001853328  -0.0002046790
       -0.0005198682  -0.0014961970   0.0001034142  -0.0004266342   0.0007747709
       -0.0003413929   0.0002777486  -0.0001016161   0.0003700685  -0.0000639446
       -0.0000582672  -0.0000922648   0.0006515558  -0.0001170598   0.0011077098
       -0.0001611801   0.0006542088  -0.0009536930   0.0000099537  -0.0002040165
        0.0005571169   0.0001271140  -0.0004072412  -0.0001743869  -0.0001179876
        0.0000042028   0.0000051762  -0.0000160974  -0.0000186731  -0.0000250613
        0.0000497566   0.0000242893   0.0000106729  -0.0000062218   0.0000384065
        0.0001388128   0.0001410932   0.0000504621   0.0000331531  -0.0026061022
        0.0111539932   0.0041572530   0.0001811613   0.0003409544   0.0001464574
       -0.0002402340   0.0002457539   0.0000646323   0.0005023041  -0.0006869082
        0.0000449395  -0.0271716379  -0.0052835729   0.0146195585  -0.0013577659
        0.0033296658  -0.0018746514   0.0001281472  -0.0013529243  -0.0010674749
        0.0006640219   0.0003121311   0.0009990832   0.0068314789  -0.0048006679
        0.0067540005  -0.0039190647   0.0013353026  -0.0005585303   0.0004419423
       -0.0013963435  -0.0002832397  -0.0201781244   0.0050109902  -0.0090752125
       -0.1119655117   0.0386479163  -0.0210337244  -0.0524817590   0.0033532486
        0.0003258397  -0.0110140632  -0.0134352637  -0.0171475648  -0.0049141903
       -0.0084767649  -0.0066065997   0.0061554255   0.0121226283   0.0130926200
       -0.0065573870  -0.0145525063   0.0119994376  -0.0050239254  -0.0130186576
        0.0063907812   0.0052224540   0.0192291810  -0.0125319606  -0.0001410331
       -0.0000318073   0.0000373090  -0.0001144617  -0.0001832861  -0.0000169143
        0.0000598842   0.0000208009   0.0000224450   0.0000990979   0.0000956179
        0.0000555390  -0.0000443420  -0.0000923505  -0.0000460334  -0.0000081908
       -0.0000860297  -0.0001113512   0.0000098201  -0.0000954433  -0.0000371927
        0.0000799727  -0.0000880600   0.0000199489   0.0000467950   0.0000400898
       -0.0000183184   0.0000309055  -0.0000085429  -0.0000342668  -0.0000008178
       -0.0000141304  -0.0000379725  -0.0000025573   0.0000208808   0.0000033246
       -0.0000256551   0.0000362576  -0.0000112698   0.0001003815   0.0000472380
        0.0001897883   0.0000670874  -0.0000435609  -0.0000127573   0.0001444503
       -0.0000927929  -0.0000724783  -0.0001179151  -0.0000808094  -0.0000687976
       -0.0006861180   0.0001672568   0.0000214854  -0.0001156796  -0.0001109224
        0.0000207491   0.0012636960   0.0003420300   0.0003071198   0.0007067591
        0.0007249406  -0.0011609841
       -0.0304528102  -0.1095704961  -0.0503733442   0.0253218557   0.4618173434
       -0.0201190255  -0.0270880423  -0.1439673229   0.0526843286  -0.0065181702
        0.0061998660  -0.0013884591  -0.0022150505  -0.0011056326  -0.0003027320
       -0.0005725937   0.0002814066   0.0000783781  -0.0000352773   0.0001597986
        0.0000144444   0.0001671160  -0.0000876969   0.0000317712  -0.0002323386
       -0.0002861061  -0.0000885925  -0.0001307341   0.0003744082  -0.0005659558
        0.0015466263  -0.0013016313   0.0004248200  -0.0010007042  -0.0004313391
        0.0007275276   0.0002862278   0.0001592746   0.0003157660  -0.0008093412
       -0.0011085418   0.0005753065  -0.0013933661   0.0002323802  -0.0008838188
        0.0007157629   0.0005569154   0.0001106145  -0.0000738654  -0.0000749550
       -0.0000838662   0.0000166071  -0.0000740621  -0.0000472657   0.0000211846
        0.0000108451   0.0000026160  -0.0000022744  -0.0000261094  -0.0000150512
        0.0000073532   0.0000128011  -0.0000011811  -0.0000123809   0.0000092928
       -0.0000237284   0.0000149811   0.0000128711   0.0000476274   0.0142841378
       -0.0113441881  -0.0148843591   0.0000736964   0.0000613489   0.0000572305
        0.0000232358  -0.0000034378  -0.0001276665   0.0000036278  -0.0001016774
       -0.0001506610  -0.0024912044   0.0036280942   0.0042659432  -0.0007142412
       -0.0012202262  -0.0002833651   0.0001592229  -0.0006181289  -0.0005503729
        0.0000563321  -0.0011653994   0.0002105465  -0.0050854311   0.0051460188
        0.0054412842   0.0008774405  -0.0002701685   0.0001894820  -0.0004649425
        0.0010725798   0.0002954808   0.0034497793   0.0020886646  -0.0011921233
        0.0316929669  -0.0861076060   0.0151538997  -0.0008550048  -0.0516389272
        0.0012714637   0.0032296999   0.0065590505   0.0068683386  -0.0104217838
       -0.0201225817  -0.0146031681  -0.0020838760  -0.0077305089  -0.0088895946
       -0.0000416806   0.0034520593  -0.0005430345  -0.0077875987  -0.0201944904
        0.0083472784  -0.0009714852  -0.0146918898   0.0096595656  -0.0002262403
        0.0000097863  -0.0000548945  -0.0002640973  -0.0000709269  -0.0000563712
       -0.0000047551  -0.0000227768   0.0000055056  -0.0000080104   0.0000196638
       -0.0000335323   0.0000240621   0.0000515830   0.0000400701   0.0000761101
        0.0000137149  -0.0000785558   0.0002508580   0.0000977174  -0.0001590505
       -0.0000767873  -0.0000148905   0.0000088605  -0.0000074418  -0.0000051347
        0.0000006985  -0.0000062168   0.0000016081   0.0000066505   0.0000026230
        0.0000002433   0.0000118106  -0.0000122407   0.0000004194  -0.0000001262
        0.0000181010  -0.0000190727  -0.0000012722   0.0000135900  -0.0000079667
        0.0001049135  -0.0000060057  -0.0000120694   0.0000081211  -0.0001699666
        0.0000764047   0.0000983733  -0.0001581739  -0.0001182054  -0.0000044507
        0.0006618382  -0.0003826534  -0.0003100555  -0.0000705338  -0.0000702479
        0.0000059355  -0.0006685741  -0.0002421175   0.0002501555   0.0201382051
       -0.0178969747   0.0085008665
       -0.0309194870  -0.0468273185  -0.1123555455   0.0359719914  -0.0201190255
        0.4038374520   0.0140296228   0.0479641809  -0.0909364005  -0.0161911269
        0.0083904932  -0.0049211832  -0.0001726412  -0.0000516502  -0.0010075766
       -0.0004389481   0.0001803618   0.0008219685   0.0000018085   0.0001033033
        0.0000226047   0.0001978149   0.0002975181   0.0002152456   0.0006139194
       -0.0005351143  -0.0001444324   0.0002954271  -0.0005855547  -0.0000403038
        0.0003734169   0.0010973067   0.0001499504   0.0003351945  -0.0009136569
        0.0004631384  -0.0004753480   0.0000311960  -0.0005227949  -0.0000049809
        0.0002232695   0.0001315767   0.0000582620   0.0005405633  -0.0017084280
       -0.0000475330   0.0004510925   0.0014051325  -0.0002507528   0.0001869501
       -0.0012156954  -0.0000516048   0.0000032788  -0.0000408172   0.0001584553
        0.0000873591  -0.0000490532  -0.0000004264  -0.0000447429  -0.0000235953
       -0.0000176169   0.0000213049  -0.0000375750  -0.0000678372   0.0000213089
       -0.0001479370   0.0000005602  -0.0000160502   0.0001509006   0.0050869874
       -0.0117037364  -0.0035653109  -0.0001884393  -0.0000751878  -0.0000703740
        0.0004687326  -0.0002300993  -0.0002240736  -0.0001520135  -0.0004460075
       -0.0001536237   0.0070230901   0.0059445804   0.0040376046  -0.0005868721
       -0.0026463358  -0.0002314794   0.0006244578   0.0000791388  -0.0000518410
        0.0001339128   0.0003601297  -0.0006460208   0.0083962009   0.0019970992
       -0.0310878890   0.0026137760   0.0014725205   0.0003315260   0.0000279293
        0.0007343642  -0.0001592154   0.0093237913  -0.0075519257   0.0051860313
       -0.0296544808   0.0201784890  -0.0705168437   0.0045670093  -0.0028184961
       -0.0581041604  -0.0086768479  -0.0092622224  -0.0129811190   0.0039034706
        0.0067629136   0.0082168351  -0.0051126422  -0.0153379837  -0.0175162571
        0.0086522424   0.0180362819  -0.0155961663  -0.0040991147  -0.0132123776
        0.0084999467   0.0008100565   0.0118075058  -0.0080262939   0.0000032478
       -0.0000224216   0.0001027503  -0.0000209799  -0.0001048248  -0.0000444571
        0.0000754017   0.0000317669  -0.0000638783   0.0001174024   0.0001421413
       -0.0000126206  -0.0000196760  -0.0000648630   0.0000550720   0.0000298345
        0.0001010139   0.0000727134   0.0000105904   0.0001031505  -0.0000191508
       -0.0001181994   0.0001031202  -0.0000371596  -0.0000526727  -0.0000538866
        0.0000124257  -0.0000375023   0.0000054310   0.0000524265   0.0000210931
        0.0000044008   0.0000492575   0.0000237897  -0.0000031433   0.0000201489
        0.0000126670   0.0000615630   0.0000022501  -0.0001202104  -0.0000478431
        0.0000074826  -0.0000459216   0.0000159292  -0.0000195109  -0.0002545177
        0.0000824079  -0.0000252862  -0.0001893344  -0.0002217579   0.0001077816
       -0.0012054294   0.0010416602   0.0012277644   0.0000982807   0.0000858706
        0.0000389937   0.0003174744  -0.0003687940  -0.0006945347  -0.0052047540
        0.0045140540  -0.0022203756
       -0.0051753950  -0.0154700881   0.0038182984  -0.0705571704  -0.0270880423
        0.0140296228   0.5189506014  -0.0185495185   0.0171906584   0.0003648343
        0.0004354013   0.0000857081  -0.0000426793   0.0001484703   0.0000021441
        0.0002471166   0.0001016130   0.0000940802   0.0000650374  -0.0000016676
        0.0000051849   0.0003069821  -0.0000115654   0.0001513511  -0.0004977056
        0.0001798915  -0.0000099099   0.0003604426  -0.0002511480   0.0003890169
       -0.0008043908  -0.0002415446  -0.0002709068   0.0000155626  -0.0002477956
        0.0000673741  -0.0000127094   0.0000339136  -0.0000137867   0.0000083869
       -0.0005016021   0.0001177797  -0.0016956466   0.0003418557   0.0014539133
       -0.0006491542   0.0002337156   0.0003063570   0.0005137685  -0.0000209512
        0.0002110736  -0.0000026096   0.0000080341  -0.0000136229   0.0000103952
        0.0000006976  -0.0000221493  -0.0000090838  -0.0000009446  -0.0000015047
        0.0000136478   0.0000261435  -0.0000194017   0.0000016710  -0.0000054370
       -0.0000617035   0.0000320467   0.0000022606   0.0000066888  -0.0006566122
        0.0001382674   0.0013643779  -0.0000226179   0.0000113282  -0.0000099264
        0.0000090336  -0.0001383513   0.0000331015  -0.0000165221   0.0002382357
       -0.0000458699  -0.0004074325   0.0004561496   0.0011184474  -0.0003303298
       -0.0002286313  -0.0002622693   0.0001273937  -0.0001198984  -0.0000939047
        0.0001252402  -0.0001678616   0.0001069571  -0.0015950046   0.0006092246
        0.0009821970   0.0002131259  -0.0000141384   0.0003067251  -0.0004756762
        0.0004971940   0.0001125066  -0.0015394654   0.0006515411  -0.0001021184
        0.0024213494   0.0180764473  -0.0105098796  -0.0076154081  -0.0105037496
        0.0123206036   0.0004379456  -0.0007983711   0.0007592000  -0.0009856183
       -0.0026906798  -0.0015383807   0.0001965599   0.0004751076   0.0003295119
       -0.1270595548   0.0372061180   0.1082589590  -0.0962244833  -0.0741857455
       -0.0673627150  -0.2034373544   0.0863366681  -0.0791312894  -0.0000613169
        0.0000960320  -0.0003260428  -0.0000592331   0.0000131867  -0.0000057274
       -0.0000423428  -0.0000290410  -0.0000234458  -0.0000502434  -0.0000056539
       -0.0000888568   0.0000435087   0.0000004461  -0.0001438585   0.0000381171
        0.0000441448  -0.0000316742   0.0000310295   0.0000348000   0.0000098077
       -0.0000302014   0.0000488167   0.0000181952  -0.0000185263  -0.0000067364
        0.0000073959  -0.0000157944  -0.0000036840   0.0000091691  -0.0000082109
       -0.0000014021   0.0000096083   0.0000054085  -0.0000121671   0.0000113356
       -0.0000094236   0.0000008077   0.0000365352  -0.0000064061  -0.0000093809
        0.0000223993  -0.0000136896   0.0000011170   0.0000053549  -0.0000117165
       -0.0000169425   0.0000675133  -0.0000477167  -0.0000341528   0.0000036974
        0.0002279560  -0.0000486053  -0.0001222625  -0.0000828422   0.0001499929
       -0.0000994560  -0.0016285861   0.0017196546  -0.0015111930  -0.0028682868
        0.0030882212  -0.0020009946
       -0.0101368038  -0.0261166231   0.0059042322  -0.0257571647  -0.1439673229
        0.0479641809  -0.0185495185   0.4806650858   0.0389447943  -0.0004320017
       -0.0000389557  -0.0000608334   0.0000603804  -0.0000895541  -0.0001430941
       -0.0000327327  -0.0000395624  -0.0000554988   0.0000423484  -0.0000604216
        0.0000122654   0.0002543023  -0.0001633881   0.0002621136   0.0003336368
       -0.0001334122  -0.0000451099  -0.0003581830   0.0000742458  -0.0000376066
        0.0007625193   0.0002140810   0.0000132695   0.0000410508  -0.0000450123
        0.0001954638  -0.0001223057   0.0000115728  -0.0001498762  -0.0000643946
        0.0006468548   0.0001865312   0.0014333931  -0.0004513944  -0.0009927790
        0.0002249716  -0.0004019356  -0.0005782377  -0.0005677610   0.0002486742
        0.0001422502  -0.0000130398  -0.0000093471   0.0000174846  -0.0000064372
       -0.0000035496  -0.0000040902  -0.0000141800   0.0000053060  -0.0000084316
       -0.0000127459  -0.0000108511   0.0000184544  -0.0000216709  -0.0000080461
        0.0000276925  -0.0000199029  -0.0000103421   0.0000176728   0.0008396268
       -0.0008094000  -0.0010418476   0.0000138162  -0.0000199377  -0.0000107895
       -0.0000671159   0.0000356092  -0.0000069863   0.0001161361  -0.0000168600
       -0.0000920527   0.0001511690  -0.0000671599  -0.0005322935   0.0001959638
       -0.0000965317   0.0002205249  -0.0000328877   0.0000376554   0.0000437960
       -0.0000883005   0.0002781812  -0.0001634296   0.0004392464  -0.0003266563
       -0.0000823260  -0.0000786767   0.0000439621  -0.0000412766  -0.0002135000
       -0.0000447149  -0.0003426824   0.0001010422  -0.0003985842   0.0002305339
        0.0027090846  -0.0158725881   0.0095856668  -0.0007455637   0.0036222316
        0.0007291708   0.0006285789   0.0006016817   0.0010500887  -0.0018910569
       -0.0035942503  -0.0024090699  -0.0002910386   0.0001228083   0.0010016885
        0.0370449137  -0.0586855162  -0.0496249920  -0.0740671184  -0.1448058775
       -0.0936139720   0.0858329098  -0.0888296826   0.0413010148  -0.0000206998
        0.0000398346   0.0000875059  -0.0000088977   0.0000273868   0.0000315033
       -0.0000015376   0.0000290450   0.0000001654   0.0000033123   0.0000418232
        0.0000197237  -0.0000111951  -0.0000120891  -0.0000429955   0.0000054684
        0.0000041832  -0.0000411804   0.0000132641  -0.0000084819  -0.0000202228
        0.0000006767   0.0000109117  -0.0000371979   0.0000116006   0.0000172270
        0.0000008312   0.0000106167   0.0000078695   0.0000014905   0.0000104001
        0.0000025060  -0.0000070490   0.0000122840   0.0000174929   0.0000075731
        0.0000080870   0.0000042717  -0.0000289351   0.0000088406   0.0000276539
       -0.0000069121   0.0000084838   0.0000207403   0.0000027727   0.0000429731
        0.0000519731   0.0000267468   0.0000410396   0.0000753224  -0.0000137054
       -0.0001373786   0.0000481619   0.0000252264  -0.0002846132  -0.0001099545
       -0.0000300794   0.0007806876  -0.0004478943   0.0007206732   0.0018655980
       -0.0013384552   0.0014724511
       -0.0047857004  -0.0131889824   0.0053356121   0.0142001946   0.0526843286
       -0.0909364005   0.0171906584   0.0389447943   0.5054365972   0.0001527763
       -0.0000602444   0.0001831693   0.0002080512   0.0003674971  -0.0001556032
        0.0000777505  -0.0000481212   0.0000781435  -0.0000507822  -0.0000279615
        0.0000382169   0.0004128119   0.0001047644   0.0000869587   0.0000235990
        0.0001370800  -0.0001310872  -0.0002469557  -0.0000883400   0.0001936537
        0.0005060770   0.0007136847   0.0000496327   0.0001732620  -0.0002104264
       -0.0000127572  -0.0002307862  -0.0001168621  -0.0002617261   0.0001923907
        0.0005823160  -0.0000628982   0.0014772331  -0.0005480805  -0.0010279550
       -0.0002286771  -0.0000927991  -0.0009355341  -0.0000637923  -0.0000616189
        0.0004806684  -0.0000222271   0.0000063573   0.0000376486  -0.0000031282
       -0.0000168956  -0.0000032076   0.0000018684   0.0000099959  -0.0000018638
       -0.0000118844  -0.0000149635   0.0000150798  -0.0000091328   0.0000032581
       -0.0000028248  -0.0000198506   0.0000070624  -0.0000516641   0.0019138784
        0.0006062953  -0.0019863475   0.0000254520   0.0000197319   0.0000062225
       -0.0000169976  -0.0000134653   0.0000078119  -0.0000576328  -0.0000534531
        0.0000810778   0.0001142899  -0.0006086982  -0.0011996572   0.0003623969
        0.0004476135   0.0000006560  -0.0001029183   0.0001243770   0.0001167205
       -0.0000553396   0.0003321582  -0.0000836465   0.0018745977  -0.0008444795
       -0.0017293705  -0.0001510752   0.0001069430  -0.0003925346  -0.0002184102
        0.0003182299  -0.0009063168  -0.0006874868   0.0002378829  -0.0004800959
       -0.0005623671   0.0138090372  -0.0069872153   0.0111170593   0.0116942914
       -0.0147214546  -0.0000133794  -0.0009393513   0.0005824955  -0.0015574311
       -0.0034319795  -0.0015637680  -0.0006375135  -0.0007284876   0.0005735419
        0.1084789509  -0.0497333577  -0.1823616235  -0.0673583646  -0.0936981374
       -0.1270962914  -0.0796982101   0.0418246675  -0.0798111066  -0.0000558355
        0.0000059779  -0.0000583472   0.0000084503  -0.0000006964   0.0000060778
       -0.0000532346   0.0000150672  -0.0000032479  -0.0000480903   0.0000169134
        0.0000428782   0.0000087730  -0.0000595419  -0.0001245150   0.0000254571
       -0.0000461637  -0.0000009296  -0.0000060002  -0.0000357180   0.0000115929
        0.0000270669  -0.0000521028  -0.0000057879   0.0000084599   0.0000060388
       -0.0000055797   0.0000098714   0.0000102389  -0.0000087787   0.0000029718
        0.0000091979  -0.0000016778   0.0000064379   0.0000242928   0.0000140689
       -0.0000274094   0.0000089120  -0.0000036897   0.0000128604  -0.0000008345
       -0.0000198662   0.0000227506  -0.0000001703  -0.0000051033   0.0001033881
        0.0000316695   0.0000020640   0.0000626893   0.0000404606  -0.0000096162
       -0.0001643124   0.0001075624   0.0001707797  -0.0001765188  -0.0000884262
       -0.0000256715   0.0002174127   0.0003496654   0.0001015895  -0.0016984431
        0.0011019953  -0.0004771971
       -0.0029428349   0.0016220372  -0.0019849321  -0.0120721400  -0.0065181702
       -0.0161911269   0.0003648343  -0.0004320017   0.0001527763   0.4234935739
       -0.0361352079  -0.0097660557  -0.1652517553   0.0838052814   0.0155169536
       -0.0342662190   0.0012762351   0.0106821397   0.0016591216   0.0028960526
       -0.0007408002  -0.0005139685  -0.0204397023  -0.0039994404  -0.0164013699
        0.0219497681   0.0217148627  -0.0039272056   0.0041848293   0.0052837515
        0.0016500733  -0.0002567044   0.0013627641  -0.0004378754   0.0005506615
       -0.0002349006   0.0002409054  -0.0000474176   0.0002624344  -0.0001347195
       -0.0000254332  -0.0001849451   0.0000775714  -0.0002638132   0.0000527947
        0.0000368625   0.0000564057   0.0001817503   0.0000032391   0.0000147213
       -0.0001361825   0.0000009270   0.0000380429   0.0000043482   0.0000011556
       -0.0000057850  -0.0000025639  -0.0000028300  -0.0000022180  -0.0000026967
       -0.0000089189  -0.0000043845  -0.0000005714  -0.0000025641  -0.0000069369
       -0.0000101992  -0.0000089783  -0.0000251939  -0.0000082330  -0.0000702180
        0.0003657098  -0.0004313651   0.0000768664  -0.0000349993   0.0000230890
       -0.0000000070   0.0000065054  -0.0000032455   0.0000256300   0.0000324087
        0.0000522362   0.0000964991  -0.0001449614  -0.0001941890   0.0002977949
       -0.0001440690   0.0002756784  -0.0000637399  -0.0000024748  -0.0000093023
       -0.0009576946  -0.0006363153  -0.0000179398  -0.0027942339  -0.0000485119
        0.0008066110  -0.0015262357   0.0016863686  -0.0003856506  -0.0456939765
        0.0065058056  -0.0039229107  -0.0023274249  -0.0079856524   0.0543093860
       -0.1191450810  -0.0489188829  -0.0737695789   0.0019448806  -0.0010347626
        0.0004852058  -0.0004898968  -0.0006626999  -0.0007345427   0.0000749396