82
 energy: -136.805608017505 gnorm: 0.000100171489 xtb: 6.7.1 (edcfbbe)
F           -1.79357727720132       -5.80522714824289       -0.19070612180927
C           -3.01709543290864       -5.40353830357694       -0.62784581139392
F           -3.89996953737694       -6.17552784381978        0.02897644482343
F           -3.06663623480570       -5.80159263874898       -1.91908439247550
C           -3.24385665936559       -3.94217506893067       -0.45559945983154
C           -4.07886324570866       -3.45981366299083        0.55508638478062
C           -4.25961685827621       -2.10553945463092        0.70765944236731
C           -3.59734288447494       -1.20260381260353       -0.13845385907008
N           -3.78443790122196        0.16600757454085        0.00072300055237
C           -2.79260045934048        1.16596224593512       -0.01115879004631
C           -1.40055397743306        1.00533856271999        0.05343621245423
C           -0.58532751907761        2.14800143320371       -0.20615566771147
C            0.77162771273760        2.07570519356055       -0.17802302114142
C            1.44925733212246        0.86323466243461        0.12117170657523
C            2.88166479129302        0.77244811919287        0.11451777186436
C            3.54024869648741       -0.46121976572600       -0.08435784819361
C            4.90870723463903       -0.55360124082807       -0.09599182436884
C            5.70061344930863        0.58593328336958        0.09165380764547
N            7.09113560911586        0.49481222431630        0.07984738344989
C            7.94998951129351        1.32194721319292       -0.61994143950611
C            7.65990368917083        2.35759336041194       -1.49826843257877
C            8.72021482319516        3.01186285277163       -2.09811532674434
C           10.03915976747965        2.64309765571364       -1.84422243747497
C           10.33327026561521        1.59140710310924       -0.99547565469810
C            9.28550104271224        0.92007337497451       -0.38214616507999
C            9.22001608662848       -0.20564659502530        0.51171711426353
C           10.18275468959181       -1.00425818699341        1.11166652143101
C            9.76964868325345       -2.01092933240069        1.96540684009656
C            8.41815753850737       -2.21116497813237        2.23638087661713
C            7.44100025359160       -1.42736550951916        1.65065620160644
C            7.84765480724863       -0.43549246343694        0.76801326883458
C            5.06835873530099        1.81940685749672        0.29128747366102
C            3.69968350259743        1.90842181746178        0.30134207395641
C            0.63615720546953       -0.25214751566666        0.44715026180396
C           -0.72441790202838       -0.19193623563297        0.42491837085711
N           -3.37099419486688        2.37954157369504        0.01930750579375
C           -4.68381487221033        2.20213168326897        0.11756214757977
C           -5.58741293974706        3.34041205018803        0.13952896101933
C           -5.15795342065963        4.52924472396647        0.73362208545711
C           -5.98214646334906        5.63685742858397        0.75917764526973
C           -7.24204231108558        5.58020735635563        0.18250636421845
C           -7.66654867053818        4.41231103567238       -0.43184065823081
C           -6.84876811194581        3.29855370649069       -0.45707144340338
C           -4.99524981960369        0.81454740475271        0.12191447446208
C           -6.28392869879971        0.17394509460094        0.17415887191381
C           -6.61084657597346       -0.90122176209115       -0.66503347651911
C           -7.86044135374617       -1.48239742256799       -0.60130439015646
C           -8.80790050850485       -1.01771848754002        0.29975987146883
C           -8.49876216029142        0.04958835873645        1.13195853859500
C           -7.25579971206334        0.64333847489083        1.07125563771021
C           -2.75526630951313       -1.69678473535147       -1.14978010238552
C           -2.58090980752508       -3.05005450775492       -1.30521551193440
H           -4.57743470853267       -4.15242690413498        1.21523488845468
H           -4.89485530817721       -1.73110845989774        1.49461374859165
H           -1.09013670044124        3.06772659892419       -0.45669367579951
H            1.34638071444662        2.95252716834273       -0.43328125259008
H            2.95801731938378       -1.34814556092544       -0.27997212466728
H            5.38646417755719       -1.50240192540873       -0.29084524807584
H            6.64129792959366        2.63650396793428       -1.71961971840051
H            8.52045353940237        3.82348607183065       -2.78206301062010
H           10.84076998339075        3.18039526759213       -2.32901743794818
H           11.35531267221547        1.29342493998812       -0.81670401689767
H           11.23173067702694       -0.83729730948425        0.91918361521409
H           10.50345916175552       -2.64534622205568        2.44012494929272
H            8.12653459845363       -2.99234075030823        2.92287084596798
H            6.39847183417798       -1.57658965465652        1.88566598573909
H            5.67021686241220        2.69661360998841        0.47715901787058
H            3.24322956299593        2.86417747476045        0.50487946726992
H            1.10580376006588       -1.16770056707155        0.77411363602968
H           -1.29374029924583       -1.04809025575231        0.74997296792881
H           -4.17371073221064        4.55825008859678        1.17574608806714
H           -5.64324185939472        6.54829743653038        1.22974785712688
H           -7.88747990199156        6.44596017856722        0.20383950078939
H           -8.63966202520550        4.36989415489086       -0.89916333103856
H           -7.17721814743042        2.40102169875868       -0.95911118117676
H           -5.89215201774883       -1.25221810183080       -1.39057187237441
H           -8.09965226501767       -2.30260338322707       -1.26239027133167
H           -9.78150101593807       -1.48136898210367        0.35001853606259
H           -9.23196340865877        0.41619238239515        1.83523819224900
H           -7.01183779516241        1.46451091513409        1.72890571235565
H           -2.25600800325071       -1.00349928070816       -1.80876652744399
H           -1.94498965492324       -3.43285976952720       -2.08877392041579
