$hessian                                                                        
        0.5280301487   0.0051143858   0.2540649209  -0.2011011389  -0.1346011095
       -0.0806345830  -0.0488801816   0.0137420170  -0.0305364484  -0.0073846074
       -0.0217140795   0.0036518936  -0.0016308272   0.0005543169  -0.0007801713
        0.0009693890   0.0001201239   0.0001399108  -0.0001604730   0.0002883615
       -0.0000532618   0.0000076524   0.0000180841  -0.0000294787   0.0001310825
        0.0000203551  -0.0000571850  -0.0001225881  -0.0000152651   0.0000146738
       -0.0000119880  -0.0000021303   0.0000346377  -0.0000044009  -0.0000040797
        0.0000033329  -0.0000365586  -0.0000135207   0.0000010614   0.0000097491
        0.0000090354   0.0000164774   0.0000079110  -0.0000046484  -0.0000057561
        0.0000214741   0.0000488251   0.0000302752  -0.0000476833  -0.0000057394
        0.0000054634   0.0000466692  -0.0000519462  -0.0000403135   0.0000020246
        0.0000110617   0.0000126789   0.0000148068  -0.0000057720  -0.0000058583
       -0.0000180569   0.0000016021  -0.0000020651   0.0000065818   0.0000118862
       -0.0000000205  -0.0000240095  -0.0000034170  -0.0000380690  -0.0000190037
       -0.0000748298  -0.0000185018  -0.0000255403   0.0000965527  -0.0000351740
       -0.0000289019  -0.0001714629   0.0001098498  -0.0000233284   0.0002332656
       -0.0002857852  -0.0000250602  -0.0005388855   0.0004192135  -0.0000018866
       -0.0000146601   0.0001415567   0.0000855722  -0.0000286250  -0.0000345512
       -0.0000469580   0.0000370803   0.0000106215   0.0000814917  -0.0000504234
       -0.0000274353  -0.0000251945   0.0001937573  -0.0000245405   0.0000645834
       -0.0000244327   0.0000154397   0.0094624075   0.0335434828  -0.0089746334
       -0.0830483234   0.0454831222  -0.0224868323  -0.1980225250   0.0769794857
       -0.1076206299   0.0015335173  -0.0013302279  -0.0008737418  -0.0006530633
        0.0018378661  -0.0062462427   0.0000163564   0.0000108065   0.0000189694
        0.0000178739  -0.0000043244  -0.0000072509   0.0000008744   0.0000015839
        0.0000127973  -0.0000008231  -0.0000021035   0.0000112694  -0.0000020908
       -0.0000021798   0.0000057382  -0.0000048557   0.0000020037  -0.0000009832
       -0.0000006976   0.0000002946  -0.0000032629   0.0000035625   0.0000072279
       -0.0000017569   0.0000227076   0.0000079055   0.0000051193  -0.0000256339
        0.0000247343   0.0000200474  -0.0000095676  -0.0000290988  -0.0000185966
        0.0000176690   0.0000194715  -0.0000094464   0.0000333015   0.0000206471
       -0.0000107371   0.0000643724  -0.0000149353  -0.0000500706   0.0007341886
       -0.0197314459   0.0001674352
        0.0051143858   0.6316839352  -0.0416571340  -0.0680674881  -0.1810560331
       -0.0293936703  -0.0319628059   0.0579704180  -0.0244765947  -0.0307247047
       -0.0541378894  -0.0138034848   0.0008397354  -0.0006363190   0.0006244544
       -0.0010783273   0.0000435886  -0.0003198737   0.0004358897  -0.0002506061
       -0.0000348243  -0.0003076417   0.0001724566  -0.0001271877   0.0004652308
        0.0000761634  -0.0000457859  -0.0003856101  -0.0000436011   0.0000816652
        0.0001162782  -0.0001375755  -0.0000287072  -0.0000194790  -0.0000371174
        0.0000000515  -0.0000686165  -0.0000183233  -0.0000053310   0.0000542442
        0.0000493888   0.0000368101   0.0000280813  -0.0000564374  -0.0000574600
        0.0000343519   0.0001091099   0.0000626126  -0.0001427785   0.0000033978
        0.0000197488   0.0000920516  -0.0001195101  -0.0000927529   0.0000111718
        0.0000728207   0.0000563042   0.0000661418  -0.0000279263  -0.0000315674
       -0.0000616997  -0.0000151749   0.0000067548  -0.0000042501   0.0000287347
       -0.0000038877   0.0000366854   0.0001481987  -0.0000006836  -0.0001509528
       -0.0002235365  -0.0000138181   0.0001851482   0.0000818063  -0.0000064268
       -0.0002976851  -0.0000727781   0.0000788074   0.0002475696   0.0003984417
       -0.0003468110  -0.0005208627   0.0001520356   0.0002630862  -0.0000858045
        0.0000178344  -0.0001054519   0.0002431737   0.0002201663  -0.0001065306
       -0.0001469044   0.0000647927   0.0000597923  -0.0000435500  -0.0001919607
       -0.0000395640   0.0001314655   0.0000084469   0.0000012246   0.0001358201
        0.0000929258   0.0005364354   0.0929397679  -0.0283007718   0.0598718855
       -0.0229243440  -0.3038748079   0.0055944569   0.0764053809  -0.0798117097
        0.0507079259  -0.0209628789  -0.0210721195  -0.0108250129   0.0025186481
        0.0002379596   0.0021331147   0.0000303787   0.0000141210   0.0000283222
        0.0000132476  -0.0000154115  -0.0000158386  -0.0000007354   0.0000194655
        0.0000073217  -0.0000109182   0.0000126232   0.0000034597  -0.0000128032
        0.0000017806  -0.0000005352  -0.0000171256  -0.0000015373  -0.0000020793
       -0.0000067234  -0.0000074318  -0.0000070452   0.0000057032  -0.0000060518
       -0.0000013392   0.0000094951   0.0000129723   0.0000111281  -0.0000181814
        0.0000164471   0.0000043473  -0.0000324620   0.0000205675   0.0000023801
        0.0000038362   0.0000299985   0.0000094239   0.0000024820   0.0000148880
       -0.0000280206  -0.0000431521   0.0000260557   0.0000298825  -0.0020678794
       -0.0216869110   0.0013460225
        0.2540649209  -0.0416571340   0.2704328984  -0.0864257299  -0.0701275060
       -0.0952136631  -0.0264031561   0.0033760588  -0.0173163216   0.0030336380
       -0.0090640340  -0.0064583114  -0.0008166736   0.0000175876  -0.0003581745
        0.0003525504   0.0000975703   0.0000520550   0.0000203786   0.0000847423
       -0.0000165690  -0.0000329635   0.0000047136  -0.0000299627  -0.0000057002
       -0.0000009403   0.0000057859  -0.0000333422  -0.0000082494  -0.0000055648
        0.0000189912  -0.0000186705  -0.0000162278  -0.0000018221  -0.0000057633
        0.0000017473  -0.0000049985  -0.0000089630  -0.0000083430   0.0000025609
        0.0000062712   0.0000094500   0.0000006544  -0.0000022353  -0.0000087121
        0.0000099738   0.0000119117   0.0000110171  -0.0000048452  -0.0000069381
        0.0000025409   0.0000142886  -0.0000096316  -0.0000036729   0.0000006078
        0.0000022146   0.0000116686  -0.0000067361  -0.0000025867  -0.0000051042
       -0.0000010956   0.0000072604   0.0000070239  -0.0000039439   0.0000028580
       -0.0000024503   0.0000097777   0.0000369875   0.0000137682   0.0000351193
       -0.0000060631   0.0000103686  -0.0000651501   0.0000525655  -0.0000449275
        0.0000613492  -0.0000601883   0.0000293077  -0.0000950151   0.0001349933
       -0.0001324810  -0.0000737164  -0.0003839751   0.0002534249  -0.0001260163
        0.0001210477   0.0000887837   0.0000912757   0.0000464081  -0.0000304481
       -0.0000404749   0.0000361535   0.0000033596   0.0000308186  -0.0000650049
       -0.0000234767   0.0001523445   0.0000639451  -0.0000747477   0.0000892054
       -0.0000618116   0.0002341737  -0.0132947039   0.0248848799   0.0080629607
       -0.0168236931   0.0484702115  -0.0674244394  -0.1074688578   0.0509353155
       -0.1036397410   0.0011603149   0.0014831379   0.0033321702  -0.0061401048
        0.0020514404   0.0051538646   0.0000127887   0.0000025101   0.0000027406
        0.0000155160  -0.0000057211  -0.0000026371  -0.0000004941   0.0000047164
        0.0000047260  -0.0000017584   0.0000033214   0.0000043203  -0.0000028200
        0.0000015005   0.0000037819  -0.0000045211  -0.0000009527   0.0000014153
       -0.0000017932  -0.0000020645   0.0000030982   0.0000007524  -0.0000008800
        0.0000007973   0.0000148736   0.0000019874   0.0000039221  -0.0000106084
        0.0000115252  -0.0000002234  -0.0000148619  -0.0000468228  -0.0000123105
        0.0000013264   0.0000027530  -0.0000059380   0.0000100702  -0.0000101713
        0.0000048406   0.0000227798  -0.0000163296   0.0000008980  -0.0013212808
       -0.0103839508   0.0030875386
       -0.2011011389  -0.0680674881  -0.0864257299   0.4989615499   0.0181178355
        0.2292653774  -0.2209502934   0.0421658873  -0.1088904868   0.0173958131
        0.0752427443   0.0018969919   0.0053845922  -0.0009020111  -0.0015911468
       -0.0005645669  -0.0009763734   0.0001307673   0.0003735926  -0.0002364263
        0.0004285559   0.0001519082  -0.0002196391   0.0001959893  -0.0005383056
       -0.0000907757   0.0000739777   0.0003887534   0.0001173055  -0.0000523914
       -0.0000105907   0.0000479403  -0.0000691342   0.0000231569   0.0000381613
        0.0000124462   0.0000973465   0.0000187229  -0.0000055145  -0.0000525762
       -0.0000434823  -0.0000329658  -0.0000322712   0.0000462944   0.0000473427
       -0.0000738892  -0.0001772424  -0.0000961103   0.0001398385   0.0000514463
        0.0000069376  -0.0000809215   0.0001343177   0.0000921000  -0.0000151052
       -0.0000642345  -0.0000559232  -0.0000686663   0.0000350164   0.0000285646
        0.0000794951   0.0000263026  -0.0000052519   0.0000320369  -0.0000297555
       -0.0000122335  -0.0000248458  -0.0001367088   0.0000439682   0.0000633029
        0.0002593597   0.0000241128  -0.0000462281  -0.0001107091  -0.0000266697
        0.0001645870   0.0003875080  -0.0002122794  -0.0000855975  -0.0001905461
        0.0002897833  -0.0001746073   0.0011962524  -0.0003527212  -0.0000442780
       -0.0000529364  -0.0001373443  -0.0002440169  -0.0001130867   0.0000876358
        0.0001735391  -0.0000687433  -0.0000560839  -0.0000215807   0.0001825199
        0.0000427992  -0.0000773249  -0.0002247220   0.0000200601  -0.0000333910
       -0.0000848831  -0.0002927352  -0.0542770750  -0.0050391094  -0.0280876495
        0.0302640926  -0.0679466953   0.0234459614  -0.0181308145  -0.0129164584
       -0.0103568028  -0.0419924249   0.0114289802  -0.0040748127  -0.0181091440
        0.0076757173  -0.0121424980   0.0000138387   0.0000075576  -0.0000435113
       -0.0000223169   0.0000106045   0.0000189800  -0.0000043915  -0.0000062995
       -0.0000081050   0.0000042122  -0.0000018876  -0.0000070461   0.0000075806
        0.0000052320  -0.0000026288   0.0000082830  -0.0000015839   0.0000038508
        0.0000012625   0.0000066837   0.0000081657  -0.0000090445   0.0000069507
        0.0000103921  -0.0000332212  -0.0000309406  -0.0000029225   0.0000323277
       -0.0000151311  -0.0000171280   0.0000360979  -0.0000044583   0.0000047702
       -0.0000091907  -0.0000325441   0.0000005027  -0.0000288978  -0.0000273119
        0.0000107488   0.0000161465   0.0000174012   0.0000019891   0.0030433627
        0.0005854423  -0.0031349438
       -0.1346011095  -0.1810560331  -0.0701275060   0.0181178355   0.6795211785
       -0.0399494462   0.1072808605  -0.1382535559   0.0736571644   0.0256119758
       -0.0244187627   0.0172175688  -0.0006727496  -0.0059772395   0.0014103638
       -0.0001354428   0.0002832643  -0.0005680017  -0.0000073240   0.0003467011
        0.0002535903  -0.0000608112   0.0001269799  -0.0000238853   0.0003294654
        0.0000636810  -0.0001723485  -0.0002220233  -0.0000516864   0.0000597562
        0.0000060845  -0.0000308236   0.0000404873  -0.0000054706  -0.0000266624
        0.0000030127  -0.0000486677   0.0000046302   0.0000163586   0.0000391202
        0.0000187940   0.0000217795   0.0000193687  -0.0000341353  -0.0000300776
        0.0000281309   0.0000817945   0.0000438331  -0.0000936504  -0.0000175643
        0.0000078415   0.0000387069  -0.0000632978  -0.0000534622   0.0000063701
        0.0000423346   0.0000371387   0.0000518786  -0.0000167060  -0.0000202085
       -0.0000608759  -0.0000328593   0.0000029240   0.0000016751   0.0000281833
       -0.0000013064   0.0000087075   0.0000293448  -0.0000349152  -0.0001305894
       -0.0001921253  -0.0000359628   0.0001554438  -0.0000193390  -0.0000384230
       -0.0003322200  -0.0001000633   0.0001857135   0.0004030695  -0.0002763337
        0.0000615807   0.0006037677  -0.0002781836   0.0009634815   0.0001870062
       -0.0001801538  -0.0000134722   0.0000111222   0.0000007980   0.0000417802
       -0.0000072231   0.0000075709   0.0000016210   0.0000023422   0.0000353565
        0.0000165166  -0.0001318964  -0.0001150826   0.0000201212   0.0000414718
        0.0002454409  -0.0003005001  -0.0068352882   0.0077200232  -0.0060036131
       -0.0160005667  -0.0474472680  -0.0051295996   0.0070455332   0.0063804488
        0.0036865135   0.0113935333  -0.2970725014   0.0314181647  -0.0120798380
        0.0065982465  -0.0079882754   0.0000232922   0.0000298026   0.0000646584
       -0.0000149034  -0.0000104860  -0.0000030996  -0.0000006997   0.0000002186
       -0.0000045327  -0.0000027333   0.0000027193  -0.0000025826  -0.0000015763
       -0.0000019826  -0.0000009873  -0.0000028195  -0.0000005464  -0.0000009049
       -0.0000032591   0.0000012012  -0.0000054662   0.0000050746   0.0000029619
        0.0000006189  -0.0000015683   0.0000017421   0.0000073687   0.0000058088
        0.0000151378   0.0000473582   0.0000022702   0.0000638586   0.0000069934
        0.0000092879   0.0000223035  -0.0000094320   0.0000068266   0.0000194625
       -0.0000008654  -0.0000415117   0.0000328007   0.0000365021   0.0000587883
       -0.0060535878   0.0011880629
       -0.0806345830  -0.0293936703  -0.0952136631   0.2292653774  -0.0399494462
        0.2639356960  -0.1155953716   0.0333283188  -0.1210700866   0.0083168381
        0.0502817137   0.0015799560  -0.0012341309  -0.0003856909   0.0068682588
       -0.0016078882   0.0008098369  -0.0004986865   0.0000545331  -0.0008567747
       -0.0003395178   0.0000369752  -0.0000906430   0.0000459606  -0.0003041753
        0.0000358306   0.0001479492   0.0002235814   0.0000709541  -0.0000293823
       -0.0000204529   0.0000290894  -0.0000360771   0.0000219978   0.0000258415
        0.0000226433   0.0000549147   0.0000078773  -0.0000022169  -0.0000281712
       -0.0000392639  -0.0000177084  -0.0000168025   0.0000347702   0.0000268414
       -0.0000476166  -0.0001027112  -0.0000496959   0.0000775205   0.0000274484
        0.0000066357  -0.0000464883   0.0000801469   0.0000537339  -0.0000030212
       -0.0000478028  -0.0000358989  -0.0000481998   0.0000307162   0.0000092148
        0.0000470843   0.0000220854  -0.0000005971   0.0000216277  -0.0000230091
       -0.0000215054  -0.0000158527  -0.0000830103   0.0000216510  -0.0000340751
        0.0001671284   0.0000236015   0.0000492599  -0.0000643610   0.0001227414
       -0.0001202372   0.0003620001  -0.0002531290   0.0002401713  -0.0010958983
        0.0006890014   0.0006956911   0.0006248334  -0.0006110179  -0.0000414783
       -0.0000116548  -0.0000388705  -0.0001636947  -0.0000727845   0.0000358719
        0.0001001887  -0.0000439461  -0.0000342621  -0.0000000457   0.0001173114
        0.0000147967  -0.0000797280  -0.0001488158   0.0000147454   0.0000105118
       -0.0000615472  -0.0001670731  -0.0281882159  -0.0048219914  -0.0241112641
        0.0188748631  -0.0371409568   0.0171907110  -0.0121010123  -0.0083546127
       -0.0059336186  -0.0042923713   0.0313214876  -0.0422409612  -0.0105027519
        0.0040376864  -0.0057923392   0.0000041966  -0.0000053981  -0.0000903980
       -0.0000157348  -0.0000045265   0.0000153785  -0.0000027855  -0.0000084032
       -0.0000019390   0.0000008711  -0.0000029831  -0.0000009279   0.0000049600
       -0.0000003630  -0.0000011143   0.0000051324   0.0000001020  -0.0000016457
        0.0000011206   0.0000069265  -0.0000008602  -0.0000053043   0.0000056884
        0.0000008507  -0.0000245728  -0.0000139561  -0.0000014400   0.0000283622
       -0.0000400809  -0.0000482853   0.0000270649  -0.0000016130   0.0000062681
       -0.0000034065  -0.0000207939   0.0000089454  -0.0000139827  -0.0000138343
        0.0000164900   0.0000192436   0.0000091366  -0.0000022139  -0.0029899363
        0.0014636127   0.0057884536
       -0.0488801816  -0.0319628059  -0.0264031561  -0.2209502934   0.1072808605
       -0.1155953716   0.5310066611   0.0378793462   0.2517384663  -0.0802740985
       -0.0263431575  -0.0118083863  -0.0014383102   0.0218331646  -0.0058894411
       -0.0006177547   0.0012237459  -0.0000717298   0.0005358706  -0.0003184500
       -0.0005805597  -0.0003747887   0.0003222888  -0.0002274873   0.0009497328
        0.0001562244  -0.0000305764  -0.0007667223  -0.0002088163   0.0001621383
        0.0001220564  -0.0001853842   0.0000270655  -0.0000229593  -0.0000823623
       -0.0000166413  -0.0001380431  -0.0000306253   0.0000102701   0.0001033297
        0.0000970455   0.0000687551   0.0000585661  -0.0001233847  -0.0000990314
        0.0001023499   0.0002836515   0.0001499985  -0.0002736188  -0.0000697191
       -0.0000025769   0.0001361328  -0.0002203747  -0.0001671496   0.0000183446
        0.0001417893   0.0001124522   0.0001583193  -0.0000820152  -0.0000677540
       -0.0001397509  -0.0000426463   0.0000254928  -0.0000113877   0.0000372314
        0.0000352837   0.0000769753   0.0003257243  -0.0000303902  -0.0002272858
       -0.0004218979  -0.0000258554   0.0002676937   0.0001261601   0.0001247566
       -0.0004415108  -0.0003569496   0.0002445035   0.0001278524   0.0017238130
       -0.0014315862  -0.0026980833   0.0004252580  -0.0014492695  -0.0003573552
       -0.0001388082   0.0003159151   0.0002793226   0.0001133441  -0.0000573607
       -0.0001795291   0.0000326221   0.0000788566   0.0000265108  -0.0001730298
       -0.0000340587  -0.0000173308   0.0001567758   0.0000183072   0.0000190154
       -0.0001929260  -0.0000195612   0.0213365761  -0.0289825005   0.0047221974
       -0.0150977586   0.0252480446  -0.0060526678  -0.0003648700  -0.0032890333
       -0.0052551209  -0.0009869668   0.0030139818  -0.0027555741  -0.1813691354
       -0.1079455182  -0.0799572011  -0.0000740525  -0.0000276991   0.0000219909
        0.0000091786  -0.0000119446  -0.0000273834   0.0000021282   0.0000223084
        0.0000092918  -0.0000150035   0.0000121582   0.0000074733  -0.0000211450
        0.0000005064   0.0000048856  -0.0000216115  -0.0000021757  -0.0000058858
       -0.0000193555  -0.0000133339  -0.0000157233  -0.0000074163  -0.0000263274
       -0.0000232286  -0.0000078064   0.0000697632   0.0000055104  -0.0000516699
       -0.0000075135  -0.0000100115  -0.0000298572  -0.0000131317  -0.0000035857
        0.0000374407   0.0000452315  -0.0000158865   0.0000401842   0.0000289410
       -0.0000310775   0.0000407516  -0.0000136252   0.0000001282   0.0004206598
        0.0006861755   0.0002775504
        0.0137420170   0.0579704180   0.0033760588   0.0421658873  -0.1382535559
        0.0333283188   0.0378793462   0.6269962529  -0.0281384747   0.0272807034
       -0.2889599872   0.0416392590   0.0167428767  -0.0235955084   0.0133173029
       -0.0056287116  -0.0021635534  -0.0017549216   0.0006539117  -0.0004517048
        0.0006853485  -0.0001142151   0.0000101079   0.0000622873  -0.0000333357
        0.0000697099   0.0000216262   0.0000488398   0.0000044193  -0.0000049495
       -0.0000068972   0.0000166901  -0.0000146221  -0.0000069769   0.0000129502
        0.0000018349   0.0000221929   0.0000017313  -0.0000180298  -0.0000092627
       -0.0000126669  -0.0000169867   0.0000013044   0.0000221569   0.0000019252
       -0.0000189726  -0.0000213964  -0.0000139561   0.0000339776   0.0000083121
       -0.0000033266  -0.0000071050   0.0000173719   0.0000118430   0.0000090458
       -0.0000264037  -0.0000082937  -0.0000098151   0.0000080903   0.0000089374
        0.0000315547   0.0000123678   0.0000107326  -0.0000144113  -0.0000282303
        0.0000071558  -0.0000080447  -0.0000031199   0.0000011983  -0.0003642721
       -0.0000401527   0.0000655117   0.0005417219  -0.0002376663   0.0000613875
       -0.0009187756   0.0006645352  -0.0002298060   0.0015852414  -0.0017472873
        0.0014011010   0.0010632996   0.0033105229  -0.0013757180  -0.0002091395
       -0.0005601647  -0.0004179173  -0.0002561446  -0.0001234124   0.0000294581
        0.0001962594  -0.0000616340  -0.0000681843   0.0000491164   0.0002681494
        0.0000728563  -0.0003154226  -0.0004703412   0.0001572774   0.0001169783
        0.0004198578  -0.0005651540  -0.0777947392  -0.0529745126  -0.0419375222
        0.0314262133  -0.0411237743   0.0221959615  -0.0036541024  -0.0012172286
       -0.0012427093   0.0225471327  -0.0152959815   0.0156561173  -0.1073304847
       -0.1229712840  -0.0566625250  -0.0000399663   0.0000171108  -0.0000237172
        0.0000006004   0.0000120527   0.0000058258  -0.0000010727   0.0000030200
       -0.0000073553   0.0000049577   0.0000040176  -0.0000087079   0.0000044319
        0.0000052400  -0.0000038941   0.0000023771   0.0000000647   0.0000047065
        0.0000023242  -0.0000012427   0.0000110487  -0.0000132392  -0.0000124322
        0.0000025993  -0.0000241047   0.0000030798  -0.0000105362   0.0000053386
       -0.0000193586  -0.0000170737   0.0000175321   0.0000552289   0.0000032475
       -0.0000244474  -0.0000015610  -0.0000056459  -0.0000086465   0.0000049056
       -0.0000025004  -0.0000350393   0.0000568136  -0.0000071703   0.0006721622
        0.0003989829   0.0004187706
       -0.0305364484  -0.0244765947  -0.0173163216  -0.1088904868   0.0736571644
       -0.1210700866   0.2517384663  -0.0281384747   0.2676224965  -0.0152161615
        0.0077400022  -0.0624633073  -0.0075986913   0.0161768313  -0.0029293903
        0.0021191484   0.0013337890   0.0004471847  -0.0007141684   0.0001019996
       -0.0010313727   0.0000984658   0.0001914770  -0.0001895050   0.0002766226
        0.0001317048  -0.0000180016  -0.0002390837  -0.0000758415   0.0000777501
        0.0000008015  -0.0000294827   0.0000294367  -0.0000047222  -0.0000326809
       -0.0000063534  -0.0000545829  -0.0000028448   0.0000004784   0.0000396074
        0.0000327778   0.0000201899   0.0000203741  -0.0000345347  -0.0000418528
        0.0000444275   0.0001112353   0.0000532691  -0.0001076132  -0.0000283279
        0.0000042233   0.0000571198  -0.0000777887  -0.0000627020   0.0000072301
        0.0000406854   0.0000481677   0.0000548484  -0.0000311585  -0.0000227934
       -0.0000507912  -0.0000302564   0.0000166671  -0.0000006696   0.0000121992
        0.0000220631   0.0000072453   0.0000777972  -0.0000352847   0.0000407810
       -0.0001544256  -0.0000343506  -0.0001337314   0.0001008216   0.0001363912
        0.0001485507  -0.0003168960   0.0001551315  -0.0003947297   0.0004327934
       -0.0007937886  -0.0019293211   0.0007916275  -0.0003469328  -0.0002357212
        0.0000208305   0.0000551608   0.0001309476   0.0000376482   0.0000001568
       -0.0001144564   0.0000597271   0.0000226897   0.0000284038  -0.0001368420
       -0.0000249915   0.0000967757   0.0001167707  -0.0001028252  -0.0000374771
        0.0003411305   0.0002507156   0.0079205644  -0.0113797275   0.0236529084
       -0.0063926085   0.0174817693  -0.0145485366  -0.0053487276  -0.0010889986
        0.0058700799  -0.0044171683   0.0034961813  -0.0003594378  -0.0804753207
       -0.0568050956  -0.0772199707  -0.0000812741  -0.0000166245  -0.0000048854
        0.0000012942  -0.0000046218  -0.0000153281  -0.0000001641   0.0000096396
       -0.0000100729  -0.0000044028   0.0000093989  -0.0000093861  -0.0000046995
        0.0000027708  -0.0000045909  -0.0000065702  -0.0000009946   0.0000009603
       -0.0000063571  -0.0000060565   0.0000015191  -0.0000030376  -0.0000117643
       -0.0000023787  -0.0000029896   0.0000247050  -0.0000056372  -0.0000147423
       -0.0000252602  -0.0000191109  -0.0000152863  -0.0000033611  -0.0000074646
        0.0000149168   0.0000165445  -0.0000141797   0.0000245233   0.0000095447
       -0.0000015040  -0.0000165203  -0.0000233811   0.0000374081   0.0001776101
        0.0003724682   0.0001872958
       -0.0073846074  -0.0307247047   0.0030336380   0.0173958131   0.0256119758
        0.0083168381  -0.0802740985   0.0272807034  -0.0152161615   0.5007002211
        0.0334156182   0.2031571291  -0.1310327867   0.0517125530  -0.0517838239
       -0.0501674535   0.0109729085  -0.0156458239  -0.0017635466  -0.0061545821
       -0.0000814573  -0.0015525256   0.0008865350  -0.0004041385  -0.0005472429
        0.0001025038   0.0005989276   0.0002548968   0.0001945370  -0.0001441675
       -0.0000080010   0.0000112141  -0.0000787479   0.0000307071   0.0000803799
        0.0000312995   0.0000834682   0.0000262693  -0.0000119474  -0.0000762950
       -0.0000623961  -0.0000524511  -0.0000383143   0.0000656844   0.0000470430
       -0.0001047970  -0.0001705575  -0.0000862111   0.0001911460   0.0000373003
       -0.0000121500  -0.0001160139   0.0001345079   0.0001005654  -0.0000133018
       -0.0000933120  -0.0000711786  -0.0001022024   0.0000415796   0.0000366682
        0.0000734438   0.0000252124  -0.0000094190   0.0000346757  -0.0000679050
       -0.0000677794   0.0000143487  -0.0000754249   0.0000620807  -0.0007772232
        0.0000732549   0.0001914664   0.0013839951  -0.0004841263   0.0006011054
       -0.0021864454   0.0014662058  -0.0006195562   0.0040249224  -0.0058718771
        0.0035421723   0.0035269161   0.0119845277  -0.0062711565   0.0000635180
       -0.0025685794   0.0010159859  -0.0002598898   0.0002659337   0.0002059859
       -0.0000900868  -0.0002083325   0.0000290016   0.0000716380   0.0001774092
        0.0001529633  -0.0004831713  -0.0000767962   0.0004014484  -0.0001661564
       -0.0003121959  -0.0004915301  -0.1782550409  -0.1165603784  -0.0696764283
       -0.0693544259   0.0152748231  -0.0468514284   0.0005571353  -0.0009880272
        0.0005994532  -0.0010483481   0.0026403691  -0.0067326156  -0.0005492700
       -0.0202704914  -0.0000078068   0.0001659630   0.0000467083  -0.0003636587
       -0.0000181223  -0.0000137035   0.0000039870   0.0000005479  -0.0000170071
       -0.0000159455   0.0000092036  -0.0000064725  -0.0000120816   0.0000105041
        0.0000023143  -0.0000098228   0.0000140460  -0.0000001529  -0.0000052173
        0.0000105706   0.0000072665   0.0000050516  -0.0000005753   0.0000135284
        0.0000093939  -0.0000159267  -0.0000021852   0.0000332616   0.0000651191
       -0.0001063720  -0.0002085280   0.0000725626   0.0001166651   0.0000434324
       -0.0000773850  -0.0000061439  -0.0000313525   0.0000014045   0.0000392345
       -0.0000049986  -0.0001512653   0.0000654079  -0.0000488906  -0.0021422478
        0.0020685925  -0.0072024240
       -0.0217140795  -0.0541378894  -0.0090640340   0.0752427443  -0.0244187627
        0.0502817137  -0.0263431575  -0.2889599872   0.0077400022   0.0334156182
        0.6265796376  -0.0413686914   0.0512458275  -0.0971360555   0.0372406981
        0.0064978096   0.0039372952  -0.0067086242  -0.0045212912   0.0081838290
        0.0063747528  -0.0002519882   0.0006463652  -0.0000871359   0.0006105812
       -0.0006624691  -0.0013630485  -0.0007500504  -0.0001624931   0.0001557854
       -0.0000288009  -0.0000242116   0.0001186285  -0.0000480711  -0.0000905006
       -0.0000381089  -0.0001717930  -0.0000383778   0.0000258301   0.0001057584
        0.0000883659   0.0000834589   0.0000659641  -0.0000934036  -0.0000831158
        0.0001361613   0.0003056431   0.0001575574  -0.0003063411  -0.0000557311
        0.0000247574   0.0002129054  -0.0002496915  -0.0001963024   0.0000181543
        0.0001228938   0.0001109651   0.0001576722  -0.0000669176  -0.0000673957
       -0.0001362733  -0.0000570458   0.0000049939  -0.0000173018   0.0000952206
        0.0000644437  -0.0000309067   0.0000814558  -0.0001408073   0.0005425305
       -0.0004191976  -0.0002552546  -0.0010701021   0.0000798072  -0.0015962579
        0.0010437951  -0.0010234897   0.0014043624  -0.0011452840  -0.0014073615
        0.0022619340   0.0125180557  -0.0168408320   0.0193136123   0.0020055508
       -0.0013777836   0.0002232532   0.0001626946  -0.0005811970   0.0000513521
        0.0000092706  -0.0000570829   0.0000149716   0.0000362910  -0.0000789712
        0.0000630329  -0.0002175057   0.0005671879   0.0002025174  -0.0006799670
        0.0001694713   0.0002853816  -0.0911701765  -0.1972099388  -0.0440418432
       -0.0367320955   0.0585292344  -0.0249686453  -0.0000006736  -0.0003365479
       -0.0006447833   0.0019726956   0.0009175413   0.0015105024  -0.0024507313
       -0.0158659409   0.0004734915  -0.0000478214   0.0002571080   0.0006905371
        0.0000512807   0.0000064095  -0.0000117626   0.0000082281   0.0000206972
        0.0000298542  -0.0000102497   0.0000118366   0.0000229835  -0.0000198611
       -0.0000020923   0.0000112636  -0.0000277548   0.0000095407  -0.0000043718
       -0.0000161164  -0.0000055265  -0.0000175534   0.0000035002   0.0000030614
       -0.0000146743   0.0000663119   0.0000372251  -0.0000083318  -0.0001079397
        0.0003369606   0.0005481368   0.0000229382   0.0000704199  -0.0000202843
        0.0000993224   0.0001218921  -0.0000581115   0.0001743643   0.0001241589
       -0.0000612389   0.0002242002  -0.0000333514  -0.0001535746   0.0013661074
        0.0000895916   0.0014831774
        0.0036518936  -0.0138034848  -0.0064583114   0.0018969919   0.0172175688
        0.0015799560  -0.0118083863   0.0416392590  -0.0624633073   0.2031571291
       -0.0413686914   0.2751549049  -0.0522627800   0.0454492987  -0.0951508864
       -0.0084344524  -0.0108947014   0.0006034485   0.0025657457   0.0048661740
        0.0062820560   0.0005109237  -0.0001635052   0.0006742242  -0.0004261922
       -0.0005401307  -0.0006910653   0.0004872380   0.0000369471  -0.0001165609
       -0.0000217990   0.0000901440  -0.0000783721   0.0000257701   0.0000614057
        0.0000346431   0.0001017087   0.0000157164   0.0000088502  -0.0000787568
       -0.0000707626  -0.0000353279  -0.0000371626   0.0000660988   0.0000685445
       -0.0000826208  -0.0001946436  -0.0001038434   0.0002181593   0.0000291313
       -0.0000073194  -0.0001347306   0.0001678966   0.0001245079  -0.0000186603
       -0.0000844000  -0.0000725527  -0.0001057201   0.0000497652   0.0000277856