$hessian                                                                        
        0.4628361753  -0.0399769664  -0.0140075054  -0.1345778757  -0.0533417339
       -0.0169984327   0.0011355598  -0.0020179691  -0.0003240675  -0.0257638358
       -0.0093455050   0.0075167418  -0.0007801634  -0.0003441081  -0.0014314065
       -0.0001712717   0.0007842699   0.0002069318   0.0000231715   0.0001605785
       -0.0000119480  -0.0002500574   0.0010367087   0.0003827308  -0.0001832256
       -0.0016014706   0.0023141099  -0.0000753711   0.0000693018  -0.0004212690
        0.0001785386   0.0000586075   0.0000242731   0.0000081180  -0.0000342826
       -0.0000017132   0.0000115153  -0.0000033213  -0.0000000561   0.0000607245
       -0.0000099013  -0.0000006639  -0.0000159050  -0.0000058164  -0.0000065237
        0.0000063673  -0.0000183958  -0.0000031462   0.0000105493  -0.0000051430
       -0.0000010252  -0.0000098016  -0.0000086998  -0.0000000637  -0.0000210132
       -0.0000339126  -0.0000031103   0.0000248806   0.0000421515   0.0000050626
        0.0000001408  -0.0000131883  -0.0000344892  -0.0000006596  -0.0000072502
        0.0000103615  -0.0000004589  -0.0000083206  -0.0000067377   0.0000024098
        0.0000009365   0.0000027347   0.0000008409  -0.0000006107  -0.0000012432
        0.0000013336   0.0000036122   0.0000065638  -0.0000013831  -0.0000018129
        0.0000005370   0.0000021819   0.0000000152   0.0000014395   0.0000031270
       -0.0000021714   0.0000022310   0.0000038266   0.0000030142  -0.0000033272
        0.0000013587   0.0000002794   0.0000025227   0.0000026681   0.0000020372
       -0.0000002107  -0.0000041919  -0.0000069049   0.0000066713   0.0000026058
       -0.0000081011  -0.0000081861  -0.0000192878  -0.0000080321   0.0000315598
        0.0000077979   0.0000157958  -0.0000016546   0.0000058632  -0.0000089490
       -0.0000002576  -0.0000296430  -0.0000073509   0.0000068499  -0.0000811041
        0.0000370897  -0.0000066083   0.0000654309   0.0000328419   0.0000038485
       -0.0000050682  -0.0000181017  -0.0000090723   0.0000166090   0.0000000441
       -0.0000049857  -0.0000274865  -0.0000071909  -0.0000019653  -0.0000058796
        0.0000142790   0.0000112771  -0.0000200244   0.0000022080   0.0000038486
        0.0000456224  -0.0000349760  -0.0000369548  -0.0000079426   0.0000250305
        0.0000109380  -0.0000189865  -0.0000028588   0.0000173034  -0.0000077780
       -0.0000035449  -0.0000011133   0.0000011928  -0.0000051754  -0.0000035743
        0.0000021035   0.0000015987   0.0000014614   0.0000011450  -0.0000034706
       -0.0000037244   0.0000006684   0.0000023634   0.0000018285  -0.0000047081
        0.0000042168   0.0000056125   0.0000617470   0.0000127731   0.0000077800
       -0.0000163485  -0.0000069891  -0.0000150213  -0.0000206847  -0.0000075404
        0.0000080239   0.0001057593  -0.0007864345  -0.0015463867  -0.0001966044
        0.0008318189  -0.0002638082   0.0000240900   0.0001523393   0.0001202479
       -0.0001537493   0.0006968604  -0.0002235942  -0.0010371653  -0.0006237949
        0.0013533968  -0.0175090186  -0.0038404416  -0.0138276723  -0.0894630045
        0.0373342023  -0.0890278444  -0.0567445111   0.0559661821   0.0075061627
       -0.1383481334   0.0132084708   0.1181073104   0.0004576668   0.0006093282
        0.0001683246   0.0005942930   0.0006820372   0.0001360064   0.0005336694
        0.0012215697   0.0001838797  -0.0003276854  -0.0002561245  -0.0002239144
       -0.0000020912  -0.0000249438  -0.0000420151  -0.0000485555  -0.0001512986
       -0.0000401146  -0.0001270753  -0.0000863596   0.0001050714   0.0000182863
        0.0000334361   0.0000036873  -0.0000154566  -0.0000000636  -0.0000034872
       -0.0000199445   0.0000032297  -0.0000022442   0.0000004850   0.0000007791
       -0.0000006874   0.0000007228   0.0000017359  -0.0000021116  -0.0000002215
       -0.0000008589   0.0000023528   0.0000002214   0.0000029672   0.0000044840
        0.0000014929   0.0000056509   0.0000028451   0.0000005074   0.0000025446
        0.0000029442   0.0000017691   0.0000031850  -0.0000013286  -0.0000018157
       -0.0000012090   0.0000009419  -0.0000012251   0.0000025167   0.0000027655
        0.0000011264  -0.0000004666   0.0000012542  -0.0000001441   0.0000029377
       -0.0000015017   0.0000019598   0.0000067700  -0.0000003329   0.0000023352
        0.0000048607  -0.0000033892   0.0000004028   0.0000011137  -0.0000012917
        0.0000011773   0.0000031746   0.0000019387  -0.0000049904   0.0000074232
       -0.0000001551  -0.0000077420   0.0000024994  -0.0000009937   0.0000078773
       -0.0000039568  -0.0000004423   0.0000001647  -0.0000028605  -0.0000025941
        0.0000006511   0.0000012619   0.0000025695   0.0000010479  -0.0000001784
        0.0000009611  -0.0000007110  -0.0000002336  -0.0000007832  -0.0000004468
        0.0000002497  -0.0000006899   0.0000010473  -0.0000013675  -0.0000017077
       -0.0000502600  -0.0000606891  -0.0001084767  -0.0000180235  -0.0001188892
       -0.0000004628  -0.0000181349  -0.0000523812   0.0000265975  -0.0000641605
       -0.0001765810   0.0003511022
       -0.0399769664   0.4922563658  -0.0101881682  -0.0462930376  -0.0897361438
       -0.0098655929  -0.0231050838  -0.0239815716  -0.0066577932  -0.0022034470
        0.0016188778   0.0022491154   0.0004579577   0.0002673710  -0.0000113741
       -0.0000243063  -0.0000079668  -0.0000950949  -0.0001515721   0.0000432635
       -0.0000135179  -0.0000787942  -0.0000767941   0.0002236432   0.0007389962
       -0.0005288443  -0.0005048918   0.0000858460  -0.0001584017  -0.0004851714
       -0.0001562727   0.0001413151  -0.0000098267   0.0000161884  -0.0000786730
       -0.0000034679   0.0000085885  -0.0000148249  -0.0000016055  -0.0000887103
        0.0000229869   0.0000034091  -0.0000034241   0.0000401908   0.0000044167
       -0.0000039282   0.0000042225  -0.0000051659   0.0000113628  -0.0000015300
        0.0000001007  -0.0000068626   0.0000088065  -0.0000014628   0.0000099308
        0.0000041190   0.0000020444  -0.0000146015   0.0000039651  -0.0000102212
        0.0000061964  -0.0000010192   0.0000072514  -0.0000016903   0.0000005366
       -0.0000000429  -0.0000005648  -0.0000001405  -0.0000005155   0.0000006019
       -0.0000010117  -0.0000007100  -0.0000026584   0.0000014954   0.0000031105
       -0.0000003808  -0.0000036739  -0.0000002480  -0.0000068821   0.0000019524
       -0.0000016859  -0.0000058336   0.0000078170  -0.0000014820  -0.0000038660
        0.0000057783  -0.0000011936   0.0000018920  -0.0000012445  -0.0000004554
       -0.0000011523  -0.0000000900  -0.0000026765  -0.0000002442   0.0000000159
       -0.0000001185  -0.0000009362   0.0000001076   0.0000009409  -0.0000022235
        0.0000012265  -0.0000023140   0.0000055830  -0.0000061124   0.0000030349
       -0.0000119154  -0.0000085248  -0.0000004273  -0.0000049669   0.0000138417
       -0.0000013961  -0.0000034237  -0.0000299940  -0.0000094723   0.0001146577
        0.0000097775   0.0000048806  -0.0000802270  -0.0000360157  -0.0000053887
        0.0000185496   0.0000160989   0.0000053753  -0.0000139102  -0.0000011323
        0.0000001902   0.0000173186   0.0000071914   0.0000015259  -0.0000104226
       -0.0000125042  -0.0000069101   0.0000278028  -0.0000018617  -0.0000025899
       -0.0000139883  -0.0000028027   0.0000123501   0.0000046929   0.0000036267
       -0.0000009406   0.0000036860   0.0000051973  -0.0000062032   0.0000017692
       -0.0000026117  -0.0000020650   0.0000021856  -0.0000003313   0.0000006591
        0.0000000744  -0.0000004166  -0.0000000519   0.0000008974  -0.0000017206
       -0.0000013096   0.0000007523  -0.0000023254   0.0000013845   0.0000040570
        0.0000026106  -0.0000000192  -0.0000241491  -0.0000294001  -0.0000015420
        0.0000042592   0.0000091693   0.0000084929   0.0000052442   0.0000106479
       -0.0000083393   0.0003905266  -0.0006705104   0.0018297662   0.0000101565
       -0.0003346664  -0.0004232287  -0.0001668757   0.0000492210   0.0000879353
       -0.0000391351  -0.0001813036  -0.0001471651   0.0005361176   0.0003358182
        0.0004816210   0.0048380786   0.0048399636   0.0001253676   0.0377880316
       -0.0711369958   0.0682728479   0.0556624700  -0.2632227960  -0.0286815460
        0.0137179127  -0.0448879207  -0.0154847208  -0.0009048068   0.0009673853
       -0.0003544469  -0.0008502792   0.0009970462   0.0004030173   0.0000538992
       -0.0066244366  -0.0010584402  -0.0005184312  -0.0001355896   0.0002451995
       -0.0000222027   0.0000036903  -0.0000449765   0.0000073431   0.0000202107
       -0.0000408549   0.0000945257   0.0000471032  -0.0000145693   0.0000046336
        0.0000174429  -0.0000011628   0.0000172778   0.0000055569   0.0000010033
        0.0000387235  -0.0000027035   0.0000101918   0.0000112070  -0.0000047995
        0.0000019830   0.0000035033   0.0000010650  -0.0000010384   0.0000022994
        0.0000005822  -0.0000029978   0.0000014277  -0.0000013242  -0.0000024010
        0.0000008261  -0.0000015536  -0.0000009238   0.0000006408  -0.0000019545
       -0.0000007180   0.0000013562  -0.0000011010   0.0000005696   0.0000049004
       -0.0000040155   0.0000010668   0.0000010097  -0.0000029611  -0.0000015149
        0.0000050754  -0.0000016838   0.0000016160   0.0000003305  -0.0000017450
        0.0000016723  -0.0000005036  -0.0000014685   0.0000011317   0.0000002022
       -0.0000003005   0.0000017851  -0.0000001399   0.0000020831   0.0000023157
        0.0000028501   0.0000021370   0.0000015910   0.0000052398  -0.0000005172
        0.0000001584   0.0000057713   0.0000004235   0.0000003741   0.0000012291
       -0.0000035768  -0.0000027370   0.0000017095  -0.0000025699  -0.0000009823
       -0.0000001982   0.0000013148   0.0000027266   0.0000000509   0.0000001124
        0.0000009575   0.0000001685   0.0000000821   0.0000003366  -0.0000001436
        0.0000005695   0.0000004183  -0.0000001383  -0.0000003286  -0.0000010496
        0.0001390022   0.0000389025   0.0001105848   0.0000378721   0.0000447767
        0.0000617303  -0.0000368344  -0.0000324224   0.0000372416  -0.0000993284
        0.0001028661  -0.0000402095
       -0.0140075054  -0.0101881682   0.5240164928  -0.0159355830  -0.0106964075
       -0.0657481006  -0.0034743073  -0.0040614250  -0.0000332708   0.0198502375
        0.0088630015   0.0018476054   0.0006680965   0.0007386571  -0.0011447232
       -0.0001878944  -0.0006076103   0.0006300199   0.0000580115   0.0001148846
       -0.0002925300  -0.0000495952  -0.0011219978   0.0003216943   0.0002503177
        0.0012245041  -0.0043127042  -0.0003213342  -0.0005045588   0.0030964225
       -0.0000317943   0.0000404900   0.0000343763   0.0000251669  -0.0000029177
        0.0000199137  -0.0000063642   0.0000013470   0.0000005474  -0.0000096698
       -0.0000033420  -0.0000102277   0.0000064075   0.0000010178  -0.0000023400
        0.0000088922  -0.0000069159   0.0000253281   0.0000038787   0.0000013480
       -0.0000025308  -0.0000003187   0.0000006886   0.0000043424  -0.0000005742
       -0.0000026548  -0.0000008659  -0.0000065306   0.0000047797   0.0000276431
        0.0000012177  -0.0000130238  -0.0000202561  -0.0000008480  -0.0000009975
        0.0000055054   0.0000014463  -0.0000009473  -0.0000033049  -0.0000012366
       -0.0000004099   0.0000025493   0.0000012921  -0.0000020794  -0.0000028538
        0.0000025675   0.0000054115   0.0000030954  -0.0000004526  -0.0000001590
       -0.0000010967  -0.0000001011   0.0000012029   0.0000002647   0.0000000845
        0.0000007768   0.0000009528  -0.0000028654  -0.0000056868   0.0000029560
        0.0000018672   0.0000003392  -0.0000062696  -0.0000005920   0.0000012608
        0.0000030080   0.0000004029  -0.0000002743  -0.0000022414  -0.0000044661
        0.0000019626   0.0000012744   0.0000090383   0.0000102129  -0.0000179680
        0.0000016944   0.0000001770   0.0000027851  -0.0000017258   0.0000019067
        0.0000026586  -0.0000024324   0.0000000859  -0.0000035224   0.0000083856
       -0.0000024865   0.0000098163  -0.0000058515  -0.0000031745  -0.0000077966
        0.0000041233  -0.0000007211  -0.0000022031  -0.0000009792   0.0000000137
       -0.0000001746  -0.0000008409   0.0000026078   0.0000036990  -0.0000043070
       -0.0000018379  -0.0000005092   0.0000040550   0.0000002488   0.0000010115
        0.0000026462  -0.0000030018  -0.0000136212   0.0000001559   0.0000027158
        0.0000050678   0.0000016690  -0.0000007295   0.0000062100  -0.0000010754
        0.0000006746   0.0000012934  -0.0000007575   0.0000003450   0.0000002568
        0.0000003627  -0.0000012434  -0.0000004951  -0.0000010086  -0.0000007907
        0.0000011131   0.0000006708   0.0000009226   0.0000006231  -0.0000015324
       -0.0000019486  -0.0000011606   0.0000038099  -0.0000026430  -0.0000147303
       -0.0000018829   0.0000039105   0.0000061370  -0.0000021623  -0.0000020343
        0.0000050924   0.0008517126  -0.0002942169  -0.0045439452  -0.0001369945
        0.0011696349   0.0004473146  -0.0000136861   0.0000166276  -0.0002714264
       -0.0000588680   0.0005642478   0.0007541756  -0.0004040878  -0.0004591342
       -0.0010154262  -0.0236921151  -0.0085168828  -0.0093274790  -0.0890283232
        0.0678475627  -0.2087800021   0.0074743176  -0.0286056824  -0.0482883331
        0.1182210091  -0.0151548649  -0.1859695680   0.0004340527   0.0004853803
        0.0002810296  -0.0006345189  -0.0001125714   0.0001901164  -0.0000038467
       -0.0009449881   0.0003968740   0.0012978911   0.0007147519  -0.0006804166
       -0.0000178717  -0.0000787403  -0.0000350466   0.0001566181   0.0001147684
       -0.0000068402   0.0002257376   0.0000069760  -0.0001525175  -0.0000046665
        0.0000019778  -0.0000202627  -0.0000010909   0.0000009337  -0.0000026135
        0.0000054359  -0.0000051210  -0.0000167727   0.0000016997  -0.0000023555
       -0.0000045704  -0.0000006792   0.0000000227  -0.0000004209  -0.0000008027
       -0.0000001864   0.0000025322  -0.0000002052   0.0000001835   0.0000026313
        0.0000002313   0.0000000909   0.0000023016   0.0000006347   0.0000011484
        0.0000025080  -0.0000018347  -0.0000005207   0.0000031610   0.0000009065
       -0.0000008569  -0.0000013696  -0.0000008744   0.0000012031   0.0000009261
       -0.0000001290  -0.0000002198   0.0000020173   0.0000000833  -0.0000010812
        0.0000019821   0.0000005392   0.0000017653   0.0000013193  -0.0000004915
        0.0000013391   0.0000011608  -0.0000003762   0.0000007657   0.0000041874
        0.0000006837   0.0000012672  -0.0000026171  -0.0000003254   0.0000010591
        0.0000002278  -0.0000003337   0.0000003893  -0.0000005521  -0.0000000157
        0.0000006735  -0.0000011680   0.0000014681  -0.0000004259  -0.0000017262
       -0.0000008078   0.0000014290   0.0000005581   0.0000004516  -0.0000000276
        0.0000003726  -0.0000002582   0.0000003139  -0.0000000546   0.0000011051
        0.0000007218  -0.0000005532   0.0000004198   0.0000000369  -0.0000009369
       -0.0001651238   0.0000214649  -0.0002035626  -0.0001474590  -0.0001327576
       -0.0000565056   0.0000122485   0.0000702262   0.0000123205  -0.0012213689
       -0.0005016338  -0.0011672888
       -0.1345778757  -0.0462930376  -0.0159355830   0.4529745567  -0.0108010842
       -0.0068037678  -0.0623144345   0.0189790388   0.0028626371  -0.1089504387
        0.0110157128   0.0581318137   0.0061680238  -0.0029709474   0.0006326075
        0.0005963827   0.0028668355  -0.0018160306  -0.0001262558  -0.0001548609
        0.0010275694  -0.0024579202   0.0040669229  -0.0018721182  -0.0206764578
        0.0053912651   0.0198110938   0.0026956315  -0.0025657211   0.0002873788
       -0.0001955955   0.0001179021   0.0000042686   0.0001908982  -0.0000163103
        0.0000131221   0.0000389878  -0.0000326479  -0.0000056232  -0.0001252691
        0.0000380960  -0.0000000992   0.0000630562  -0.0000096405   0.0000006177
        0.0001905674  -0.0001310280   0.0000122189   0.0000133480  -0.0000104420
       -0.0000009014   0.0000182302   0.0000005415   0.0000013027   0.0000162984
        0.0000089135   0.0000017623  -0.0000065614  -0.0000064942  -0.0000020256
        0.0000028774   0.0000011545   0.0000071890   0.0000021765  -0.0000059235
       -0.0000014443   0.0000015200  -0.0000069749  -0.0000005103   0.0000030095
       -0.0000043696   0.0000017969   0.0000020347   0.0000000455   0.0000030645
        0.0000016096  -0.0000053735  -0.0000021681  -0.0000019885  -0.0000004738
       -0.0000006824  -0.0000028329  -0.0000007122  -0.0000011308   0.0000000010
       -0.0000012221   0.0000010505  -0.0000000250  -0.0000048737   0.0000022539
        0.0000013019   0.0000014380  -0.0000038321  -0.0000006029  -0.0000012390
       -0.0000015475  -0.0000020110  -0.0000039229  -0.0000011799  -0.0000017314
       -0.0000037385   0.0000012239   0.0000078273   0.0000005209  -0.0000078961
       -0.0000144180   0.0000004076   0.0000003712  -0.0000114170  -0.0000005273
       -0.0000013132   0.0000187322  -0.0000110714  -0.0000115308   0.0001668426
       -0.0000571973   0.0000077930  -0.0000741369  -0.0000337728  -0.0000054092
        0.0000236214   0.0000165647   0.0000078417  -0.0000108720  -0.0000041680
       -0.0000033657   0.0000143869   0.0000012062   0.0000005323  -0.0000089071
       -0.0000114661  -0.0000023309   0.0000339985  -0.0000016893  -0.0000052036
       -0.0000206222   0.0000119719   0.0000171526   0.0000068088  -0.0000078465
       -0.0000031237   0.0000048160  -0.0000024385  -0.0000059019   0.0000054402
       -0.0000062833  -0.0000016528   0.0000063105  -0.0000036104   0.0000039410
        0.0000013475   0.0000014041   0.0000043462   0.0000001024  -0.0000023455
       -0.0000000426   0.0000031578  -0.0000037438   0.0000031537   0.0000074014
        0.0000028680   0.0000043163  -0.0000349692  -0.0000091382  -0.0000006241
        0.0000061769   0.0000003961   0.0000020750   0.0000073834   0.0000017846
       -0.0000044365  -0.0137746075   0.0105892483  -0.0221159284  -0.0032530664
        0.0035874833   0.0021208191   0.0002336309   0.0000958825  -0.0010103904
       -0.0008388950   0.0025375181   0.0031299915   0.0077480801  -0.0048929946
        0.0078367807  -0.0838285334   0.0201906841  -0.0407128150  -0.0147764477
       -0.0065415899  -0.0059319140   0.0032319210   0.0000958283   0.0003948540
       -0.0203818200  -0.0103328299  -0.0003505355  -0.0037193295   0.0128348007
       -0.0003130375  -0.0058464887   0.0183650247   0.0043895955   0.0039597761
       -0.0230709310  -0.0030037413  -0.0006334970  -0.0007123300  -0.0009852883
        0.0002434656   0.0001237951  -0.0007909111  -0.0000849986  -0.0005378234
       -0.0003047376  -0.0007269353  -0.0000618451   0.0008403118  -0.0000741690
        0.0000121949  -0.0000075047   0.0000170377  -0.0000002673  -0.0000040812
       -0.0000335040  -0.0000091947  -0.0000126240  -0.0000019614  -0.0000008525
       -0.0000034079   0.0000045216   0.0000003579   0.0000011500   0.0000053700
       -0.0000011309  -0.0000004828   0.0000053032  -0.0000015966   0.0000005632
        0.0000042118  -0.0000011741   0.0000007752   0.0000044415  -0.0000014941
        0.0000002472   0.0000040572  -0.0000008949  -0.0000000931   0.0000055851
       -0.0000021305  -0.0000004143   0.0000030541  -0.0000011657   0.0000013190
        0.0000034695  -0.0000017018   0.0000019031   0.0000021993  -0.0000002346
        0.0000013203   0.0000014092   0.0000007662   0.0000004934   0.0000010797
        0.0000021962   0.0000002876   0.0000003685   0.0000028680   0.0000012740
        0.0000036509   0.0000020180  -0.0000027085   0.0000043616  -0.0000008385
        0.0000005731   0.0000044883   0.0000026845   0.0000004549   0.0000022029
       -0.0000002063  -0.0000077729  -0.0000021611  -0.0000025689  -0.0000023645
        0.0000000017   0.0000006797   0.0000035033   0.0000011720  -0.0000000112
        0.0000028955   0.0000007417  -0.0000003321   0.0000030650   0.0000000474
        0.0000008158   0.0000030839  -0.0000011068   0.0000003859  -0.0000000036
       -0.0005946532   0.0001930952  -0.0010250332  -0.0001598633  -0.0005799758
        0.0000621913   0.0001220687  -0.0001866651   0.0010518741  -0.0005652020
       -0.0010342017   0.0003834448
       -0.0533417339  -0.0897361438  -0.0106964075  -0.0108010842   0.4303474700
       -0.0106749644   0.0259600912  -0.1641433938  -0.0120276304   0.0102671954
       -0.0572067437  -0.0070608329  -0.0055837254   0.0006355678   0.0057765783
        0.0031149228   0.0049220737   0.0025283279  -0.0000622714   0.0001097037
       -0.0004515558   0.0039145560   0.0044407058   0.0019288326   0.0082043622
       -0.0001082029  -0.0084934111  -0.0025759352  -0.0023074838  -0.0003166645
        0.0001451653   0.0000900543   0.0000603831  -0.0001016233   0.0000588356
       -0.0000083442  -0.0000294121  -0.0000128524  -0.0000076974   0.0000482149
       -0.0000251409   0.0000005356  -0.0000141506  -0.0000285556  -0.0000097869
       -0.0000336514   0.0000741214  -0.0000047099  -0.0000045772   0.0000092122
       -0.0000028713  -0.0000093911  -0.0000011351   0.0000002135  -0.0000047378
       -0.0000131480   0.0000004388  -0.0000121187   0.0000174550  -0.0000065965
        0.0000073253  -0.0000080949  -0.0000064288  -0.0000036340   0.0000040022
        0.0000025983  -0.0000014094   0.0000019952  -0.0000038509  -0.0000017859
       -0.0000000920  -0.0000018222  -0.0000042991   0.0000001836  -0.0000001851
       -0.0000015618  -0.0000002910   0.0000029751  -0.0000039797   0.0000001790
       -0.0000007772  -0.0000043522   0.0000047323  -0.0000003909  -0.0000043149
        0.0000067396  -0.0000015243   0.0000018788  -0.0000004477  -0.0000038091
       -0.0000032872  -0.0000024643   0.0000003968  -0.0000018713   0.0000000874
        0.0000018003  -0.0000029964   0.0000015150   0.0000051558  -0.0000029091
        0.0000062045  -0.0000034212   0.0000015247  -0.0000098768   0.0000131248
        0.0000029066   0.0000003224  -0.0000006165   0.0000049561   0.0000012837
        0.0000007306  -0.0000034101   0.0000034690   0.0000065612  -0.0000710679
        0.0000219132  -0.0000023291   0.0000238436   0.0000131067  -0.0000002507
       -0.0000116703  -0.0000104133   0.0000022104   0.0000058253   0.0000017694
        0.0000013059  -0.0000043335  -0.0000013945  -0.0000000099   0.0000019627
        0.0000006611   0.0000000050  -0.0000151878   0.0000009886   0.0000049256
        0.0000036859   0.0000077640  -0.0000084593  -0.0000017015   0.0000031255
        0.0000007953  -0.0000019221  -0.0000031739   0.0000045886  -0.0000027433
       -0.0000026126  -0.0000014667   0.0000009191  -0.0000002173  -0.0000003589
       -0.0000008866   0.0000001551  -0.0000015048   0.0000004675  -0.0000013386
       -0.0000020944   0.0000001510  -0.0000003216   0.0000014615   0.0000006849
        0.0000016525   0.0000005593  -0.0000008984   0.0000117045   0.0000047814
        0.0000013260  -0.0000038132   0.0000000854  -0.0000000549  -0.0000024516
       -0.0000015845   0.0079002474  -0.0034203826   0.0094415615   0.0037245474
        0.0048704517   0.0001768356   0.0000177393  -0.0000983222   0.0004283699
        0.0022842899   0.0056900580   0.0002881635  -0.0023206594  -0.0001704881
        0.0028534470   0.0208599641  -0.0701049900   0.0361129478   0.0061083411
        0.0042794131   0.0012078944  -0.0238838397  -0.0190031411  -0.0058491701
       -0.0004743949   0.0003914127   0.0007770884   0.0049422675  -0.0147247338
        0.0015057583   0.0037993043  -0.0069181762  -0.0030915203   0.0008505752
       -0.0197921965  -0.0028989604  -0.0010545569  -0.0023626457  -0.0002893240
       -0.0001558679   0.0001263462   0.0005516105  -0.0005914147  -0.0012648808
       -0.0001935741   0.0001547098  -0.0005120881  -0.0004780154  -0.0000342078
       -0.0000341456  -0.0000016295  -0.0000144386   0.0000028336  -0.0000012007
        0.0000380029  -0.0000596170   0.0000042751   0.0000046617  -0.0000104902
        0.0000010035   0.0000035857   0.0000030060  -0.0000016816   0.0000009404
        0.0000021800  -0.0000026641  -0.0000002599  -0.0000000898  -0.0000024710
       -0.0000005563  -0.0000012425  -0.0000009754  -0.0000006763  -0.0000015761
       -0.0000008740   0.0000001241  -0.0000021590   0.0000012240   0.0000005800
       -0.0000001264  -0.0000001386   0.0000002564  -0.0000025145  -0.0000021677
        0.0000035604  -0.0000011200   0.0000004739  -0.0000001547  -0.0000022778
        0.0000013283  -0.0000004290  -0.0000029326   0.0000003812   0.0000005404
       -0.0000023833   0.0000022586   0.0000014657   0.0000002964   0.0000029535
        0.0000047551   0.0000016789   0.0000028981   0.0000010175   0.0000000152
       -0.0000000369  -0.0000004055   0.0000013540  -0.0000000040   0.0000002871
        0.0000032052   0.0000022422  -0.0000014995  -0.0000006764  -0.0000003428
        0.0000017142   0.0000000839  -0.0000021433  -0.0000009846   0.0000003792
       -0.0000006237   0.0000000146   0.0000003121  -0.0000008518  -0.0000003440
        0.0000011683  -0.0000001187  -0.0000010451   0.0000005711  -0.0000008023
       -0.0000138718  -0.0005666521   0.0003069974  -0.0005424350  -0.0012578164
       -0.0003426744   0.0000921721   0.0001772618  -0.0002259399  -0.0006908987
       -0.0024031137  -0.0008288216
       -0.0169984327  -0.0098655929  -0.0657481006  -0.0068037678  -0.0106749644
        0.4954313999   0.0038893295  -0.0129384716  -0.0636547854   0.0602080828
       -0.0080445443  -0.1389287651   0.0141049018   0.0001295907  -0.0308799434
       -0.0024355173   0.0029182628  -0.0026102563   0.0003493576  -0.0001108430
       -0.0002162920  -0.0007726932   0.0015013687   0.0006851997   0.0073064977
       -0.0034071268   0.0034946174   0.0003222674  -0.0002256889  -0.0032784847
        0.0000194257   0.0000644599  -0.0001297371   0.0000135774   0.0000081491
       -0.0000714062   0.0000112908  -0.0000098029  -0.0000000218  -0.0000073560
        0.0000116580   0.0000136980  -0.0000058249   0.0000001172   0.0000059854
        0.0000250722   0.0000001691  -0.0000725594   0.0000013229  -0.0000016234
       -0.0000019531   0.0000025366   0.0000015650  -0.0000071602   0.0000019942
       -0.0000014667   0.0000009278  -0.0000060257   0.0000024888   0.0000176450
        0.0000023104  -0.0000086849  -0.0000113212  -0.0000014716   0.0000026179
        0.0000008650   0.0000006761  -0.0000005803  -0.0000039851  -0.0000000128
        0.0000008907  -0.0000006206   0.0000011003  -0.0000020335  -0.0000030228
        0.0000016191   0.0000024497   0.0000016675  -0.0000004309   0.0000000590
       -0.0000028270  -0.0000008297   0.0000007165  -0.0000017193  -0.0000004003
        0.0000006878  -0.0000005601  -0.0000024190  -0.0000039675   0.0000021194
        0.0000016154   0.0000005565  -0.0000076684  -0.0000013610  -0.0000019831
       -0.0000009695   0.0000010566  -0.0000013501  -0.0000020717  -0.0000018570
       -0.0000033522  -0.0000015116   0.0000057749   0.0000059331  -0.0000121903
        0.0000004341  -0.0000007767  -0.0000000891  -0.0000014570   0.0000017188
       -0.0000009115  -0.0000003039   0.0000004076   0.0000038376   0.0000128413
       -0.0000013524  -0.0000117361  -0.0000051707  -0.0000046103   0.0000021699
        0.0000048872   0.0000017293  -0.0000036650   0.0000005000   0.0000011904
       -0.0000012978   0.0000005845  -0.0000001480  -0.0000001903  -0.0000041578
       -0.0000019593  -0.0000008424   0.0000014251  -0.0000002956  -0.0000028774
        0.0000063160  -0.0000024804  -0.0000111535   0.0000011049   0.0000049193
        0.0000023606   0.0000019456  -0.0000043438   0.0000062439  -0.0000019354
        0.0000004607   0.0000011494  -0.0000004552   0.0000006115   0.0000014772
       -0.0000006149  -0.0000009216   0.0000000550  -0.0000015854  -0.0000009437
        0.0000009588   0.0000005297   0.0000009447   0.0000007880  -0.0000004206
       -0.0000020287  -0.0000015607   0.0000003920   0.0000046459  -0.0000025922
       -0.0000001893   0.0000008764   0.0000022258  -0.0000003094  -0.0000031289
        0.0000032226  -0.0095587843   0.0042959617  -0.0000627022   0.0010465134
        0.0006726886   0.0010477622  -0.0002684765   0.0001821445  -0.0003925634
        0.0038716957   0.0001549581  -0.0019508408  -0.0056832758   0.0083878523
       -0.0316698406  -0.0429071709   0.0367768103  -0.1511293492  -0.0217712317
       -0.0120437830  -0.0069568060  -0.0034304421  -0.0030042527  -0.0008683346
        0.0189586608   0.0114457774   0.0025496438  -0.0057560601   0.0237318849
        0.0010199342   0.0063679964  -0.0222623513  -0.0047018724   0.0006647001
       -0.0060811460  -0.0008282619   0.0006476778  -0.0009846841   0.0006791682
        0.0006499159  -0.0000627482  -0.0009888043  -0.0001984293  -0.0002537829
        0.0001183643  -0.0004265316   0.0000674661   0.0001501054  -0.0000066219
       -0.0000112893   0.0000194324  -0.0000006239  -0.0000009682   0.0000048768
       -0.0000090307  -0.0000101415   0.0000194638  -0.0000014629  -0.0000015354
        0.0000021637   0.0000007451  -0.0000021636   0.0000024000   0.0000011705
       -0.0000015532   0.0000012127   0.0000009714  -0.0000015943   0.0000008975
        0.0000008483  -0.0000008586   0.0000016022   0.0000014444  -0.0000007869
        0.0000002036  -0.0000010399   0.0000004794   0.0000010938   0.0000011950
       -0.0000004964  -0.0000002427  -0.0000001986  -0.0000001115  -0.0000007440
        0.0000000824  -0.0000002623   0.0000019069   0.0000002112  -0.0000005205
        0.0000011279   0.0000001116   0.0000015774   0.0000008251  -0.0000006160
        0.0000029006  -0.0000001219  -0.0000010363   0.0000041107   0.0000021024
       -0.0000015379   0.0000048437  -0.0000002364   0.0000001388   0.0000003242
        0.0000007965   0.0000000990   0.0000006872   0.0000011443  -0.0000049481
        0.0000006356   0.0000002644  -0.0000013152  -0.0000001914  -0.0000012434