 Entering Gaussian System
 *********************************************
 Gaussian 98:
 frequency output generated by the xtb code
 *********************************************
                         Standard orientation:
 --------------------------------------------------------------------
  Center     Atomic     Atomic              Coordinates (Angstroms)
  Number     Number      Type              X           Y           Z
 --------------------------------------------------------------------
    1          7             0      -11.907092    0.096904   -0.020133
    2          6             0      -10.756746    0.079070   -0.015918
    3          6             0       -9.350880    0.057738   -0.011214
    4          6             0       -8.636472    0.383965   -1.171350
    5          6             0       -7.261475    0.372962   -1.158458
    6          6             0       -6.548655    0.017957   -0.001966
    7          6             0       -5.094407   -0.001331    0.001698
    8          6             0       -4.364571    1.151996   -0.421243
    9          6             0       -5.008882    2.350939   -0.751464
   10          6             0       -4.309170    3.433447   -1.269560
   11          6             0       -2.947837    3.330738   -1.481532
   12          6             0       -2.273259    2.178399   -1.095252
   13          6             0       -2.940203    1.105098   -0.493836
   14          6             0       -2.236206   -0.039704   -0.000321
   15          6             0       -0.788158   -0.057947   -0.001652
   16          6             0       -0.048262    1.007423    0.542629
   17          6             0        1.324661    0.989408    0.551574
   18          6             0        2.024412   -0.086639   -0.012060
   19          6             0        3.457658   -0.112120   -0.030134
   20          7             0        4.205110   -1.074111   -0.508063
   21          6             0        5.489380   -0.660711   -0.314020
   22          6             0        6.721225   -1.298652   -0.635916
   23          6             0        6.755654   -2.555680   -1.248202
   24          6             0        7.957455   -3.150138   -1.546405
   25          6             0        9.143641   -2.489452   -1.233050
   26          6             0        9.122419   -1.252080   -0.631596
   27          6             0        7.916206   -0.609817   -0.310534
   28          6             0        7.873217    0.697017    0.324764
   29          6             0        9.029746    1.417281    0.657786
   30          6             0        8.965365    2.653719    1.258940
   31          6             0        7.735786    3.237265    1.561530
   32          6             0        6.577992    2.568683    1.252972
   33          6             0        6.630561    1.309268    0.638947
   34          6             0        5.465987    0.584593    0.297625
   35          8             0        4.169848    0.935266    0.479586
   36          6             0        1.298121   -1.150033   -0.567927
   37          6             0       -0.073857   -1.140293   -0.548990
   38          6             0       -2.969860   -1.165542    0.493708
   39          6             0       -2.330304   -2.257485    1.091218
   40          6             0       -3.035176   -3.390883    1.479542
   41          6             0       -4.399720   -3.455528    1.273209
   42          6             0       -5.071214   -2.354072    0.757748
   43          6             0       -4.395269   -1.173400    0.424870
   44          6             0       -7.278710   -0.317044    1.149649
   45          6             0       -8.653604   -0.288688    1.153436
   46          1             0       -9.175855    0.638717   -2.072348
   47          1             0       -6.716175    0.602368   -2.062059
   48          1             0       -6.072981    2.442044   -0.597845
   49          1             0       -4.837322    4.341280   -1.520128
   50          1             0       -2.399484    4.144744   -1.931627
   51          1             0       -1.211116    2.111028   -1.271921
   52          1             0       -0.575667    1.827463    1.007613
   53          1             0        1.878275    1.801578    0.999142
   54          1             0        5.815331   -3.034949   -1.474452
   55          1             0        7.986465   -4.120647   -2.018922
   56          1             0       10.091358   -2.953330   -1.464942
   57          1             0       10.064037   -0.777659   -0.407025
   58          1             0       10.002073    1.004863    0.442709
   59          1             0        9.878370    3.178153    1.499873
   60          1             0        7.697617    4.207468    2.033915
   61          1             0        5.609896    2.994075    1.473759
   62          1             0        1.844957   -1.965737   -1.014165
   63          1             0       -0.621808   -1.949189   -1.009176
   64          1             0       -1.265787   -2.220554    1.262157
   65          1             0       -2.507645   -4.220250    1.926292
   66          1             0       -4.951912   -4.348448    1.525450
   67          1             0       -6.137957   -2.415785    0.608144
   68          1             0       -6.746253   -0.561216    2.057032
   69          1             0       -9.205947   -0.527815    2.050877
 --------------------------------------------------------------------
     1 basis functions        1 primitive gaussians
     1 alpha electrons        1 beta electrons
 
 Harmonic frequencies (cm**-1), IR intensities (km*mol⁻¹),
 Raman scattering activities (A**4/amu), Raman depolarization ratios,
 reduced masses (AMU), force constants (mDyne/A) and normal coordinates:
                      1                      2                      3
                        a                      a                      a 
 Frequencies --    11.4997                13.5796                17.1489
 Red. masses --    11.7980                11.7193                10.9292
 Frc consts  --     0.0000                 0.0000                 0.0000
 IR Inten    --     0.5192                 0.4829                 0.0122
 Raman Activ --     0.0000                 0.0000                 0.0000
 Depolar     --     0.0000                 0.0000                 0.0000
 Atom AN      X      Y      Z        X      Y      Z        X      Y      Z
   1   7     0.00  -0.05  -0.41    -0.01  -0.38  -0.07    -0.00  -0.01   0.03
   2   6     0.00  -0.04  -0.30    -0.01  -0.27  -0.05    -0.00  -0.01   0.02
   3   6     0.00  -0.03  -0.21    -0.00  -0.18  -0.03    -0.00  -0.00   0.01
   4   6     0.07  -0.02  -0.17    -0.01  -0.13  -0.02    -0.01  -0.07  -0.01
   5   6     0.07  -0.01  -0.08    -0.01  -0.05   0.00    -0.01  -0.07  -0.02
   6   6     0.00  -0.00  -0.04    -0.00  -0.02   0.01     0.00   0.00   0.00
   7   6     0.00   0.01   0.05    -0.00   0.04   0.02    -0.00   0.00  -0.00
   8   6     0.01   0.01   0.08    -0.04   0.07   0.03    -0.00  -0.03  -0.08
   9   6     0.02   0.01   0.07    -0.09   0.05   0.03    -0.00  -0.05  -0.16
  10   6     0.04   0.01   0.10    -0.12   0.08   0.04    -0.00  -0.08  -0.23
  11   6     0.05   0.02   0.14    -0.12   0.13   0.04    -0.00  -0.09  -0.22
  12   6     0.03   0.02   0.16    -0.08   0.15   0.03    -0.00  -0.07  -0.15
  13   6     0.02   0.01   0.13    -0.04   0.12   0.02    -0.00  -0.03  -0.08
  14   6     0.00   0.01   0.15    -0.00   0.13   0.01    -0.00   0.00  -0.01
  15   6     0.00  -0.01   0.16    -0.00   0.15  -0.03     0.00   0.00  -0.01
  16   6     0.01  -0.02   0.16     0.01   0.15  -0.05    -0.00   0.02  -0.05
  17   6     0.01  -0.03   0.14     0.01   0.14  -0.07    -0.00   0.02  -0.04
  18   6    -0.00  -0.03   0.12    -0.00   0.13  -0.07    -0.00   0.00  -0.01
  19   6    -0.00  -0.02   0.08    -0.00   0.09  -0.06    -0.00   0.00  -0.01
  20   7    -0.01  -0.02   0.05    -0.03   0.07  -0.05    -0.00   0.04  -0.07
  21   6    -0.01  -0.01  -0.01    -0.02   0.01  -0.03    -0.00   0.02  -0.04
  22   6    -0.02   0.01  -0.06    -0.04  -0.05   0.00    -0.00   0.05  -0.10
  23   6    -0.03   0.01  -0.07    -0.09  -0.05   0.00    -0.00   0.10  -0.20
  24   6    -0.04   0.02  -0.13    -0.11  -0.11   0.03    -0.00   0.13  -0.26
  25   6    -0.03   0.03  -0.18    -0.08  -0.16   0.06    -0.00   0.11  -0.22
  26   6    -0.02   0.03  -0.17    -0.04  -0.16   0.06    -0.00   0.06  -0.11
  27   6    -0.01   0.01  -0.11    -0.02  -0.10   0.03    -0.00   0.02  -0.05
  28   6     0.01   0.01  -0.10     0.03  -0.10   0.03    -0.00  -0.03   0.07
  29   6     0.02   0.02  -0.14     0.05  -0.15   0.05     0.00  -0.06   0.14
  30   6     0.03   0.01  -0.13     0.09  -0.15   0.05     0.00  -0.12   0.24
  31   6     0.04   0.00  -0.08     0.11  -0.09   0.02     0.00  -0.14   0.28
  32   6     0.03  -0.00  -0.04     0.09  -0.04  -0.00     0.00  -0.10   0.21
  33   6     0.02  -0.00  -0.04     0.05  -0.04  -0.00    -0.00  -0.05   0.11
  34   6     0.01  -0.01   0.00     0.02   0.01  -0.03    -0.00  -0.02   0.04
  35   8     0.01  -0.02   0.06     0.04   0.07  -0.06    -0.00  -0.04   0.07
  36   6    -0.01  -0.03   0.14    -0.02   0.14  -0.07    -0.00  -0.01   0.02
  37   6    -0.01  -0.02   0.16    -0.02   0.15  -0.05    -0.00  -0.01   0.02
  38   6    -0.02   0.02   0.14     0.04   0.12   0.02     0.00   0.03   0.06
  39   6    -0.03   0.02   0.17     0.08   0.14   0.03     0.01   0.07   0.12
  40   6    -0.04   0.03   0.16     0.12   0.12   0.04     0.01   0.10   0.20
  41   6    -0.04   0.02   0.12     0.12   0.07   0.04     0.01   0.09   0.22
  42   6    -0.02   0.01   0.08     0.08   0.04   0.03     0.01   0.05   0.15
  43   6    -0.01   0.01   0.09     0.04   0.07   0.02     0.00   0.03   0.07
  44   6    -0.07  -0.00  -0.08     0.00  -0.06   0.00     0.01   0.07   0.02
  45   6    -0.07  -0.01  -0.17    -0.00  -0.13  -0.02     0.01   0.07   0.03
  46   1     0.04  -0.01  -0.06    -0.00  -0.05  -0.01    -0.00  -0.04  -0.01
  47   1     0.04  -0.00  -0.01    -0.00  -0.01   0.00    -0.00  -0.03  -0.01
  48   1     0.00   0.00   0.01    -0.03   0.00   0.01    -0.00  -0.01  -0.05
  49   1     0.01   0.00   0.02    -0.05   0.02   0.01    -0.00  -0.03  -0.09
  50   1     0.02   0.01   0.05    -0.04   0.04   0.01    -0.00  -0.03  -0.08
  51   1     0.01   0.01   0.06    -0.02   0.05   0.01     0.00  -0.02  -0.04
  52   1     0.01  -0.00   0.05     0.01   0.04  -0.01    -0.00   0.01  -0.02
  53   1     0.01  -0.01   0.04     0.01   0.04  -0.02    -0.00   0.01  -0.02
  54   1    -0.01   0.00  -0.01    -0.03  -0.00  -0.01    -0.00   0.03  -0.07
  55   1    -0.01   0.01  -0.04    -0.04  -0.03   0.01    -0.00   0.05  -0.10
  56   1    -0.01   0.01  -0.06    -0.03  -0.06   0.03    -0.00   0.04  -0.08
  57   1    -0.00   0.01  -0.06    -0.01  -0.06   0.02    -0.00   0.01  -0.02
  58   1     0.00   0.01  -0.05     0.01  -0.06   0.02     0.00  -0.01   0.03
  59   1     0.01   0.01  -0.05     0.03  -0.05   0.02     0.00  -0.04   0.09
  60   1     0.01   0.00  -0.02     0.04  -0.03   0.01     0.00  -0.05   0.11
  61   1     0.01  -0.00   0.00     0.03   0.00  -0.01     0.00  -0.03   0.07
  62   1    -0.01  -0.01   0.04    -0.01   0.04  -0.02    -0.00  -0.01   0.01
  63   1    -0.01  -0.00   0.05    -0.01   0.04  -0.01    -0.00  -0.01   0.02
  64   1    -0.01   0.01   0.06     0.02   0.05   0.01     0.00   0.02   0.03
  65   1    -0.02   0.01   0.05     0.04   0.04   0.01     0.00   0.04   0.07
  66   1    -0.01   0.01   0.03     0.04   0.01   0.01     0.00   0.03   0.08
  67   1    -0.00   0.00   0.01     0.02   0.00   0.01     0.00   0.01   0.05
  68   1    -0.04   0.00  -0.01     0.00  -0.01   0.00     0.00   0.04   0.01
  69   1    -0.04  -0.00  -0.06     0.00  -0.05  -0.01     0.00   0.03   0.01
                      4                      5                      6
                        a                      a                      a 
 Frequencies --    31.9466                38.0788                53.6368
 Red. masses --    11.6585                12.1968                11.4704
 Frc consts  --     0.0000                 0.0000                 0.0000
 IR Inten    --     1.2190                 3.0315                 0.2889
 Raman Activ --     0.0000                 0.0000                 0.0000
 Depolar     --     0.0000                 0.0000                 0.0000
 Atom AN      X      Y      Z        X      Y      Z        X      Y      Z
   1   7     0.00   0.15  -0.25    -0.01  -0.54  -0.02     0.00   0.20   0.11
   2   6     0.00   0.10  -0.15    -0.00  -0.28   0.00     0.00   0.08   0.04
   3   6     0.00   0.05  -0.07     0.00  -0.05   0.04     0.00  -0.03  -0.02
   4   6     0.07   0.03  -0.03    -0.02   0.03   0.05    -0.02  -0.05  -0.03
   5   6     0.07  -0.00   0.05    -0.02   0.15   0.05    -0.02  -0.08  -0.06
   6   6     0.00  -0.01   0.09     0.00   0.18   0.05     0.00  -0.09  -0.08
   7   6     0.00  -0.02   0.14     0.00   0.15   0.02     0.00  -0.03  -0.08
   8   6    -0.01  -0.01   0.13     0.05   0.12   0.01    -0.05   0.02  -0.04
   9   6    -0.01   0.00   0.20     0.09   0.14   0.01    -0.11  -0.01  -0.00
  10   6    -0.03   0.01   0.19     0.13   0.11  -0.00    -0.16   0.06   0.06
  11   6    -0.05  -0.00   0.10     0.12   0.06  -0.01    -0.15   0.14   0.09
  12   6    -0.04  -0.02   0.02     0.08   0.03  -0.03    -0.09   0.16   0.04
  13   6    -0.01  -0.03   0.04     0.04   0.05  -0.02    -0.04   0.09  -0.03
  14   6     0.00  -0.04  -0.01     0.00   0.02  -0.03     0.00   0.11  -0.06
  15   6     0.00  -0.05  -0.09     0.00  -0.03  -0.04     0.00   0.09  -0.10
  16   6     0.02  -0.04  -0.12     0.03  -0.06  -0.03     0.05   0.05  -0.10
  17   6     0.02  -0.04  -0.18     0.03  -0.11  -0.02     0.05  -0.05  -0.04
  18   6     0.00  -0.04  -0.21     0.00  -0.13  -0.02     0.00  -0.11   0.01
  19   6     0.00  -0.02  -0.21     0.00  -0.14  -0.00     0.00  -0.17   0.08
  20   7     0.03  -0.02  -0.20     0.03  -0.13   0.00     0.02  -0.18   0.11
  21   6     0.02  -0.00  -0.12     0.02  -0.09   0.01     0.01  -0.15   0.12
  22   6     0.05   0.01  -0.04     0.05  -0.04   0.01     0.04  -0.09   0.08
  23   6     0.10   0.01  -0.04     0.10  -0.03   0.01     0.09  -0.09   0.08
  24   6     0.12   0.01   0.05     0.13   0.02   0.00     0.11   0.00  -0.01
  25   6     0.10   0.01   0.14     0.10   0.08  -0.01     0.09   0.10  -0.11
  26   6     0.05   0.01   0.14     0.05   0.08  -0.01     0.04   0.09  -0.10
  27   6     0.02   0.01   0.05     0.02   0.02   0.00     0.01   0.00  -0.01
  28   6    -0.03   0.01   0.05    -0.03   0.02  -0.00    -0.02  -0.00  -0.01
  29   6    -0.05   0.01   0.14    -0.06   0.07  -0.01    -0.05   0.09  -0.10
  30   6    -0.10   0.01   0.14    -0.11   0.07  -0.01    -0.10   0.09  -0.10
  31   6    -0.13   0.00   0.05    -0.14   0.02  -0.00    -0.12  -0.00  -0.01
  32   6    -0.10   0.00  -0.04    -0.11  -0.04   0.00    -0.10  -0.09   0.07
  33   6    -0.05   0.00  -0.04    -0.05  -0.04   0.01    -0.04  -0.08   0.07
  34   6    -0.02  -0.00  -0.12    -0.02  -0.09   0.01    -0.02  -0.15   0.11
  35   8    -0.04  -0.02  -0.21    -0.03  -0.14   0.00    -0.02  -0.19   0.12
  36   6    -0.02  -0.03  -0.19    -0.03  -0.11  -0.02    -0.04  -0.06  -0.03
  37   6    -0.02  -0.04  -0.13    -0.03  -0.06  -0.04    -0.05   0.04  -0.08
  38   6     0.01  -0.03   0.05    -0.04   0.05  -0.02     0.05   0.09  -0.02
  39   6     0.04  -0.02   0.02    -0.07   0.03  -0.03     0.10   0.16   0.05
  40   6     0.05  -0.00   0.10    -0.11   0.05  -0.02     0.16   0.14   0.10
  41   6     0.04   0.01   0.20    -0.12   0.11  -0.00     0.17   0.05   0.06
  42   6     0.02   0.01   0.21    -0.08   0.14   0.01     0.11  -0.02  -0.02
  43   6     0.01  -0.01   0.13    -0.04   0.12   0.01     0.05   0.01  -0.04
  44   6    -0.07   0.01   0.05     0.03   0.16   0.06     0.02  -0.11  -0.07
  45   6    -0.07   0.04  -0.03     0.02   0.04   0.05     0.02  -0.08  -0.04
  46   1     0.04   0.01  -0.02    -0.01  -0.01   0.01    -0.01  -0.01  -0.01
  47   1     0.04  -0.00   0.02    -0.01   0.06   0.02    -0.01  -0.02  -0.02
  48   1    -0.00   0.00   0.08     0.03   0.05   0.01    -0.03  -0.02  -0.01
  49   1    -0.01   0.01   0.07     0.05   0.04   0.00    -0.06   0.01   0.03
  50   1    -0.02  -0.00   0.02     0.04   0.01  -0.01    -0.05   0.06   0.04
  51   1    -0.02  -0.01  -0.02     0.02  -0.00  -0.01    -0.02   0.06   0.02
  52   1     0.01  -0.01  -0.03     0.02  -0.01  -0.01     0.03   0.02  -0.03
  53   1     0.01  -0.01  -0.06     0.02  -0.04  -0.00     0.02  -0.02  -0.01
  54   1     0.03   0.00  -0.03     0.04  -0.02   0.01     0.03  -0.05   0.04
  55   1     0.05   0.00   0.02     0.05   0.01   0.00     0.04   0.00  -0.00
  56   1     0.03   0.00   0.06     0.03   0.03  -0.01     0.03   0.05  -0.05
  57   1     0.01   0.00   0.06     0.01   0.03  -0.01     0.01   0.05  -0.05
  58   1    -0.01   0.00   0.06    -0.01   0.03  -0.00    -0.01   0.05  -0.05
  59   1    -0.04   0.00   0.06    -0.04   0.03  -0.01    -0.04   0.05  -0.05
  60   1    -0.05  -0.00   0.02    -0.05   0.00  -0.00    -0.05  -0.00  -0.00
  61   1    -0.03  -0.00  -0.03    -0.04  -0.02   0.00    -0.03  -0.05   0.04
  62   1    -0.01  -0.01  -0.06    -0.02  -0.04  -0.01    -0.02  -0.03  -0.00
  63   1    -0.01  -0.01  -0.03    -0.02  -0.01  -0.01    -0.02   0.02  -0.03
  64   1     0.02  -0.01  -0.02    -0.02  -0.01  -0.01     0.03   0.07   0.02
  65   1     0.02   0.00   0.03    -0.04   0.01  -0.01     0.06   0.06   0.05
  66   1     0.01   0.01   0.08    -0.04   0.04   0.00     0.06   0.01   0.02
  67   1     0.00   0.00   0.08    -0.02   0.05   0.01     0.04  -0.03  -0.01
  68   1    -0.04   0.00   0.02     0.01   0.06   0.02     0.01  -0.04  -0.02
  69   1    -0.04   0.02  -0.02     0.01   0.00   0.01     0.01  -0.02  -0.01
                      7                      8                      9
                        a                      a                      a 
 Frequencies --    58.6329                60.4532                78.4533
 Red. masses --    11.1226                 9.8385                10.6127
 Frc consts  --     0.0000                 0.0000                 0.0000
 IR Inten    --     0.1123                 0.4061                 0.8296
 Raman Activ --     0.0000                 0.0000                 0.0000
 Depolar     --     0.0000                 0.0000                 0.0000
 Atom AN      X      Y      Z        X      Y      Z        X      Y      Z
   1   7    -0.00  -0.03  -0.26    -0.01  -0.02  -0.04    -0.00  -0.00  -0.00
   2   6    -0.00  -0.00  -0.11    -0.01  -0.01  -0.02    -0.00  -0.00  -0.00
   3   6     0.00   0.03   0.01    -0.01   0.01   0.00    -0.00   0.00   0.00
   4   6     0.06   0.01   0.03     0.00   0.31   0.09     0.00   0.16   0.05
   5   6     0.06   0.01   0.11     0.00   0.30   0.10     0.00   0.15   0.05
   6   6    -0.00   0.04   0.15     0.00   0.01   0.02     0.01   0.00   0.00
   7   6    -0.00   0.02   0.15    -0.01   0.01   0.02    -0.00   0.00   0.00
   8   6    -0.02  -0.00   0.08     0.00   0.01   0.05     0.01  -0.00  -0.02
   9   6    -0.02   0.02   0.16     0.04   0.07   0.18     0.03   0.00  -0.03
  10   6    -0.05  -0.01   0.05     0.03   0.02   0.09     0.04  -0.02  -0.07
  11   6    -0.08  -0.07  -0.13    -0.01  -0.08  -0.15     0.04  -0.04  -0.08
  12   6    -0.07  -0.08  -0.19    -0.02  -0.11  -0.21     0.02  -0.03  -0.04
  13   6    -0.03  -0.04  -0.09    -0.01  -0.04  -0.07     0.01  -0.01  -0.03
  14   6    -0.00  -0.05  -0.15     0.00  -0.01  -0.02    -0.00  -0.00   0.00
  15   6    -0.00  -0.00  -0.16    -0.00  -0.01  -0.02     0.00  -0.00  -0.00
  16   6    -0.06   0.01  -0.13    -0.01   0.09  -0.20    -0.01  -0.05   0.10
  17   6    -0.06   0.04  -0.02    -0.01   0.10  -0.19    -0.01  -0.06   0.11
  18   6    -0.00   0.04   0.04     0.00   0.01   0.00    -0.01   0.00  -0.00
  19   6     0.00   0.02   0.14     0.00   0.01   0.01    -0.01   0.01  -0.01
  20   7    -0.01   0.01   0.17     0.00  -0.02   0.07    -0.02   0.11  -0.22
  21   6    -0.01  -0.02   0.16     0.00  -0.01   0.04    -0.01   0.06  -0.12
  22   6    -0.03  -0.02   0.10    -0.00  -0.01   0.03    -0.02   0.07  -0.13
  23   6    -0.07  -0.02   0.11    -0.01  -0.01   0.04    -0.02   0.10  -0.20
  24   6    -0.08  -0.00  -0.00    -0.01   0.00  -0.01    -0.02   0.01  -0.02
  25   6    -0.07   0.02  -0.12    -0.01   0.03  -0.06    -0.01  -0.12   0.25
  26   6    -0.03   0.02  -0.12    -0.00   0.02  -0.06    -0.01  -0.12   0.25
  27   6    -0.01   0.00  -0.01    -0.00   0.00  -0.01    -0.01  -0.01   0.02
  28   6     0.02   0.00  -0.01     0.00  -0.00   0.00    -0.01   0.01  -0.02
  29   6     0.04   0.03  -0.13     0.01  -0.02   0.04    -0.02   0.12  -0.25
  30   6     0.07   0.03  -0.13     0.01  -0.03   0.05    -0.02   0.12  -0.26
  31   6     0.09   0.00  -0.01     0.01  -0.00   0.01    -0.01  -0.01   0.01
  32   6     0.07  -0.02   0.11     0.01   0.02  -0.02    -0.01  -0.10   0.20
  33   6     0.03  -0.02   0.10     0.01   0.01  -0.02    -0.01  -0.07   0.13
  34   6     0.01  -0.02   0.17     0.00   0.02  -0.02    -0.01  -0.06   0.12
  35   8     0.02   0.00   0.19     0.00   0.04  -0.04    -0.01  -0.11   0.23
  36   6     0.05   0.05  -0.06     0.01  -0.09   0.18    -0.01   0.06  -0.12
  37   6     0.05   0.03  -0.16     0.01  -0.10   0.17    -0.01   0.05  -0.10
  38   6     0.02  -0.05  -0.10    -0.00   0.02   0.05     0.01   0.01   0.03
  39   6     0.06  -0.10  -0.23    -0.02   0.07   0.16     0.02   0.03   0.04
  40   6     0.07  -0.08  -0.16    -0.01   0.05   0.11     0.04   0.04   0.07
  41   6     0.04  -0.01   0.06     0.02  -0.03  -0.07     0.04   0.02   0.07
  42   6     0.01   0.03   0.19     0.02  -0.06  -0.13     0.03  -0.00   0.03
  43   6     0.01   0.00   0.09    -0.00  -0.01  -0.03     0.01   0.01   0.02
  44   6    -0.06   0.09   0.13    -0.02  -0.27  -0.07    -0.00  -0.15  -0.04
  45   6    -0.06   0.08   0.06    -0.02  -0.29  -0.08    -0.00  -0.16  -0.05
  46   1     0.03  -0.01   0.00     0.00   0.16   0.04     0.00   0.08   0.02
  47   1     0.03  -0.00   0.04     0.00   0.14   0.04    -0.00   0.07   0.02
  48   1     0.00   0.02   0.09     0.02   0.04   0.10     0.01   0.01   0.00
  49   1    -0.01   0.00   0.03     0.02   0.02   0.05     0.01  -0.01  -0.03
  50   1    -0.03  -0.03  -0.06    -0.01  -0.04  -0.07     0.01  -0.02  -0.03
  51   1    -0.03  -0.04  -0.09    -0.02  -0.05  -0.10     0.01  -0.01  -0.00
  52   1    -0.03   0.00  -0.05    -0.00   0.05  -0.10    -0.00  -0.03   0.05
  53   1    -0.03   0.01   0.00    -0.00   0.05  -0.10    -0.00  -0.03   0.06
  54   1    -0.02  -0.01   0.06    -0.00  -0.01   0.02    -0.01   0.05  -0.10
  55   1    -0.03  -0.00  -0.00    -0.00   0.00  -0.00    -0.00   0.01  -0.02
  56   1    -0.02   0.01  -0.06    -0.00   0.01  -0.03    -0.00  -0.06   0.13
  57   1    -0.00   0.01  -0.06    -0.00   0.01  -0.03    -0.00  -0.07   0.14
  58   1     0.01   0.01  -0.06     0.00  -0.01   0.02    -0.01   0.07  -0.14
  59   1     0.03   0.02  -0.07     0.00  -0.01   0.02    -0.01   0.06  -0.13
  60   1     0.03   0.00  -0.00     0.01  -0.00   0.00    -0.00  -0.01   0.01
  61   1     0.03  -0.01   0.06     0.00   0.01  -0.01    -0.00  -0.05   0.11
  62   1     0.03   0.02  -0.01     0.00  -0.05   0.09    -0.00   0.03  -0.06
  63   1     0.03   0.01  -0.07     0.00  -0.05   0.09    -0.00   0.03  -0.05
  64   1     0.03  -0.05  -0.11    -0.01   0.04   0.08     0.01   0.01   0.00
  65   1     0.03  -0.04  -0.08    -0.01   0.03   0.06     0.01   0.02   0.03
  66   1     0.01   0.00   0.04     0.01  -0.02  -0.04     0.01   0.01   0.02
  67   1    -0.01   0.02   0.10     0.01  -0.03  -0.08     0.01  -0.01   0.00
  68   1    -0.03   0.03   0.05    -0.01  -0.14  -0.03    -0.00  -0.07  -0.02
  69   1    -0.03   0.03   0.01    -0.01  -0.15  -0.04    -0.00  -0.08  -0.02
                     10                     11                     12
                        a                      a                      a 
 Frequencies --    85.3725                89.5825                90.3031
 Red. masses --    11.0034                10.1585                10.2360
 Frc consts  --     0.0000                 0.0000                 0.0000
 IR Inten    --     0.3772                 2.6387                 0.3611
 Raman Activ --     0.0000                 0.0000                 0.0000
 Depolar     --     0.0000                 0.0000                 0.0000
 Atom AN      X      Y      Z        X      Y      Z        X      Y      Z
   1   7    -0.01  -0.09   0.24     0.01  -0.01   0.00     0.00   0.00  -0.01
   2   6    -0.01  -0.02   0.05     0.01  -0.00   0.00     0.00   0.00  -0.00
   3   6    -0.00   0.01  -0.06     0.01   0.00  -0.00     0.00  -0.00   0.00
   4   6    -0.04   0.02  -0.08     0.02   0.20   0.06     0.00   0.02   0.01
   5   6    -0.04   0.01  -0.13     0.01   0.18   0.05     0.00   0.02   0.01
   6   6    -0.00  -0.02  -0.16     0.02  -0.00  -0.00     0.00  -0.00   0.00
   7   6    -0.00  -0.06  -0.18     0.01  -0.00  -0.00     0.00  -0.00  -0.00
   8   6     0.02  -0.05  -0.11     0.02  -0.01  -0.06    -0.00   0.00  -0.01
   9   6     0.05   0.01   0.08     0.05  -0.02  -0.11    -0.01   0.01   0.01
  10   6     0.09   0.10   0.30     0.08  -0.04  -0.14    -0.02   0.01   0.01
  11   6     0.08   0.08   0.25     0.09  -0.03  -0.05    -0.02   0.02  -0.01
  12   6     0.04  -0.02   0.00     0.07  -0.01   0.03    -0.01   0.01  -0.03
  13   6     0.02  -0.09  -0.13     0.02  -0.01  -0.01    -0.01   0.00  -0.04
  14   6    -0.00  -0.13  -0.20    -0.00  -0.00   0.00     0.00   0.00  -0.06
  15   6    -0.00  -0.11  -0.14     0.01  -0.00   0.00     0.00   0.00  -0.04
  16   6    -0.07  -0.08  -0.10    -0.02  -0.13   0.25    -0.01  -0.02   0.01
  17   6    -0.07  -0.02  -0.04    -0.02  -0.13   0.25    -0.01  -0.04   0.07
  18   6     0.00   0.02  -0.02    -0.03   0.01  -0.01    -0.00  -0.04   0.08
  19   6     0.00   0.06   0.02    -0.03   0.01  -0.01    -0.00  -0.05   0.10
  20   7     0.00   0.07   0.03    -0.04  -0.04   0.09    -0.00  -0.05   0.11
  21   6    -0.00   0.06   0.04    -0.03  -0.02   0.06    -0.00  -0.04   0.09
  22   6    -0.02   0.04   0.02    -0.04  -0.04   0.08    -0.01  -0.02   0.03
  23   6    -0.06   0.03   0.03    -0.05  -0.08   0.17    -0.01   0.12  -0.26
  24   6    -0.08   0.00   0.01    -0.05  -0.04   0.08    -0.01   0.16  -0.34
  25   6    -0.06  -0.02  -0.01    -0.05   0.05  -0.12    -0.01   0.02  -0.05
  26   6    -0.03  -0.01  -0.02    -0.04   0.07  -0.17    -0.00  -0.11   0.22
  27   6    -0.01   0.01   0.00    -0.04   0.01  -0.03    -0.00  -0.10   0.21
  28   6     0.02   0.02  -0.00    -0.04   0.01  -0.01    -0.00  -0.10   0.21
  29   6     0.04  -0.01  -0.03    -0.04  -0.05   0.11    -0.00  -0.12   0.25
  30   6     0.08  -0.01  -0.02    -0.04  -0.06   0.13    -0.01   0.01  -0.02
  31   6     0.10   0.01   0.02    -0.04   0.01  -0.01    -0.01   0.17  -0.35
  32   6     0.08   0.03   0.04    -0.04   0.05  -0.11    -0.01   0.14  -0.29
  33   6     0.03   0.03   0.03    -0.04   0.04  -0.08    -0.01  -0.01   0.01
  34   6     0.01   0.06   0.04    -0.03   0.04  -0.06    -0.01  -0.04   0.08
  35   8     0.00   0.07   0.04    -0.04   0.06  -0.11    -0.01  -0.05   0.10
  36   6     0.07  -0.02  -0.04    -0.01   0.13  -0.26     0.01  -0.02   0.02
  37   6     0.07  -0.09  -0.10    -0.01   0.12  -0.25     0.01   0.01  -0.04
  38   6    -0.03  -0.09  -0.13     0.02   0.00   0.01     0.01   0.00  -0.04
  39   6    -0.05  -0.03  -0.00     0.06   0.00  -0.03     0.03   0.01  -0.04
  40   6    -0.09   0.08   0.25     0.08   0.02   0.05     0.04   0.02   0.00
  41   6    -0.09   0.10   0.30     0.07   0.04   0.14     0.04   0.02   0.04
  42   6    -0.06   0.01   0.08     0.04   0.01   0.11     0.02   0.01   0.04
  43   6    -0.03  -0.05  -0.11     0.02   0.01   0.06     0.01   0.00  -0.00
  44   6     0.03   0.01  -0.13     0.01  -0.17  -0.05     0.00  -0.02  -0.00
  45   6     0.04   0.03  -0.08     0.01  -0.19  -0.06     0.00  -0.02  -0.00
  46   1    -0.02   0.01  -0.02     0.01   0.10   0.03     0.00   0.01   0.00
  47   1    -0.02   0.01  -0.04     0.00   0.08   0.02     0.00   0.01   0.00
  48   1     0.02   0.00   0.02     0.01   0.01  -0.04    -0.00   0.00   0.01
  49   1     0.04   0.05   0.14     0.02  -0.02  -0.06    -0.01   0.00   0.01
  50   1     0.03   0.04   0.12     0.03  -0.01  -0.01    -0.01   0.01  -0.00
  51   1     0.01  -0.01  -0.02     0.03  -0.00   0.04    -0.00   0.00  -0.01
  52   1    -0.04  -0.03  -0.03    -0.01  -0.07   0.12    -0.00  -0.01   0.00
  53   1    -0.04   0.00  -0.00    -0.00  -0.07   0.13    -0.00  -0.02   0.03
  54   1    -0.02   0.02   0.02    -0.01  -0.04   0.08    -0.00   0.06  -0.12
  55   1    -0.03  -0.00   0.01    -0.02  -0.02   0.04    -0.00   0.08  -0.17
  56   1    -0.02  -0.01  -0.01    -0.02   0.03  -0.07    -0.00   0.01  -0.02
  57   1    -0.00  -0.01  -0.01    -0.01   0.04  -0.10    -0.00  -0.06   0.12
  58   1     0.01  -0.01  -0.02    -0.01  -0.03   0.06    -0.00  -0.07   0.14
  59   1     0.03  -0.01  -0.01    -0.01  -0.03   0.07    -0.00   0.00  -0.00
  60   1     0.04   0.00   0.01    -0.01   0.00  -0.00    -0.00   0.09  -0.18
  61   1     0.03   0.02   0.02    -0.01   0.03  -0.05    -0.00   0.07  -0.14
  62   1     0.04   0.00  -0.00    -0.00   0.07  -0.13     0.00  -0.00   0.01
  63   1     0.04  -0.04  -0.03    -0.01   0.06  -0.12     0.00   0.01  -0.02
  64   1    -0.01  -0.01  -0.02     0.02  -0.00  -0.04     0.01   0.00  -0.02
  65   1    -0.03   0.04   0.12     0.03   0.01   0.01     0.02   0.01  -0.00
  66   1    -0.04   0.05   0.14     0.02   0.02   0.06     0.01   0.01   0.02
  67   1    -0.02   0.00   0.02     0.01  -0.01   0.04     0.01   0.00   0.02
  68   1     0.02   0.01  -0.04     0.00  -0.08  -0.02     0.00  -0.01  -0.00
  69   1     0.02   0.01  -0.02     0.00  -0.10  -0.03     0.00  -0.01  -0.00
                     13                     14                     15
                        a                      a                      a 
 Frequencies --   103.3004               121.3740               126.2962
 Red. masses --    11.5574                11.2288                11.6735
 Frc consts  --     0.0000                 0.0000                 0.0000
 IR Inten    --     0.1463                 1.4277                 4.8422
 Raman Activ --     0.0000                 0.0000                 0.0000
 Depolar     --     0.0000                 0.0000                 0.0000
 Atom AN      X      Y      Z        X      Y      Z        X      Y      Z
   1   7     0.21  -0.00   0.01     0.00   0.05   0.18    -0.00  -0.30  -0.37
   2   6     0.19  -0.00   0.00     0.00  -0.02  -0.01     0.00   0.09   0.03
   3   6     0.19  -0.00  -0.00     0.00  -0.07  -0.08     0.01   0.30   0.20
   4   6     0.17  -0.08  -0.03     0.02  -0.07  -0.07    -0.04   0.26   0.16
   5   6     0.17  -0.07  -0.03     0.02  -0.02  -0.04    -0.05   0.07   0.04
   6   6     0.15  -0.00  -0.00     0.00   0.01  -0.02     0.00  -0.05  -0.02
   7   6     0.14  -0.00  -0.00     0.00   0.03   0.05    -0.00  -0.14  -0.13
   8   6     0.10   0.02   0.01     0.03   0.02   0.07    -0.02  -0.12  -0.10
   9   6     0.11   0.04   0.06     0.07   0.01  -0.02    -0.06  -0.14  -0.13
  10   6     0.13   0.03   0.08     0.11  -0.03  -0.04    -0.07  -0.08  -0.02
  11   6     0.11   0.00   0.00     0.11  -0.06   0.01    -0.05   0.02   0.13
  12   6     0.10  -0.02  -0.06     0.07  -0.06   0.09    -0.02   0.03   0.13
  13   6     0.09   0.00  -0.02     0.03  -0.01   0.13    -0.02  -0.04   0.00
  14   6     0.05  -0.00  -0.01    -0.00  -0.02   0.17    -0.00  -0.03   0.02
  15   6     0.02   0.00  -0.00    -0.00  -0.00   0.08    -0.00  -0.01   0.02
  16   6    -0.03   0.05  -0.04     0.01   0.05  -0.04     0.00   0.00  -0.01
  17   6    -0.04   0.05  -0.03     0.01   0.14  -0.23     0.00   0.03  -0.07
  18   6    -0.08   0.01   0.01    -0.00   0.15  -0.28    -0.00   0.05  -0.09
  19   6    -0.11   0.01   0.00    -0.00   0.10  -0.18    -0.00   0.04  -0.07
  20   7    -0.13   0.01  -0.01    -0.00   0.04  -0.06     0.00   0.02  -0.03
  21   6    -0.13   0.01  -0.01    -0.00  -0.07   0.17    -0.00  -0.02   0.05
  22   6    -0.15   0.01  -0.01    -0.00  -0.09   0.20    -0.00  -0.03   0.07
  23   6    -0.19   0.01  -0.01    -0.01  -0.05   0.11    -0.00  -0.02   0.04
  24   6    -0.20  -0.02  -0.01    -0.01   0.05  -0.10    -0.01   0.02  -0.03
  25   6    -0.20  -0.03   0.00    -0.01   0.09  -0.18    -0.01   0.03  -0.06
  26   6    -0.17  -0.03  -0.00    -0.00   0.01  -0.02    -0.00   0.00  -0.01
  27   6    -0.15  -0.00  -0.01    -0.00  -0.07   0.16    -0.00  -0.02   0.05
  28   6    -0.15   0.00  -0.00     0.00  -0.07   0.16     0.00  -0.02   0.05
  29   6    -0.16   0.02  -0.01    -0.00   0.00  -0.01     0.00   0.00  -0.00
  30   6    -0.18   0.01   0.00     0.00   0.08  -0.17     0.00   0.03  -0.06
  31   6    -0.18   0.00   0.02     0.00   0.06  -0.11     0.00   0.02  -0.03
  32   6    -0.17  -0.00   0.02     0.00  -0.04   0.10     0.00  -0.01   0.04
  33   6    -0.15   0.00   0.00     0.00  -0.09   0.19     0.00  -0.03   0.06
  34   6    -0.13   0.00   0.00     0.00  -0.08   0.17    -0.00  -0.02   0.05
  35   8    -0.14   0.01   0.01    -0.00   0.03  -0.05    -0.00   0.02  -0.03
  36   6    -0.03  -0.04   0.04    -0.02   0.14  -0.23    -0.00   0.03  -0.07
  37   6    -0.02  -0.04   0.04    -0.02   0.05  -0.04    -0.00   0.00  -0.01
  38   6     0.09  -0.01   0.01    -0.03  -0.01   0.13     0.02  -0.04   0.00
  39   6     0.11   0.02   0.05    -0.07  -0.05   0.10     0.02   0.03   0.13
  40   6     0.12  -0.00   0.00    -0.11  -0.06   0.01     0.05   0.02   0.13
  41   6     0.13  -0.03  -0.06    -0.11  -0.03  -0.05     0.07  -0.08  -0.02
  42   6     0.11  -0.04  -0.06    -0.06   0.01  -0.02     0.05  -0.14  -0.13
  43   6     0.10  -0.02  -0.02    -0.03   0.01   0.07     0.02  -0.12  -0.11
  44   6     0.17   0.07   0.03    -0.02  -0.02  -0.04     0.05   0.08   0.04
  45   6     0.17   0.08   0.03    -0.01  -0.06  -0.07     0.05   0.27   0.16
  46   1     0.05  -0.04  -0.01     0.01  -0.02  -0.03    -0.02   0.09   0.06
  47   1     0.05  -0.03  -0.01     0.01  -0.00  -0.01    -0.03  -0.00  -0.00
  48   1     0.03   0.01   0.02     0.02   0.01  -0.02    -0.02  -0.05  -0.06
  49   1     0.04   0.02   0.04     0.04  -0.01  -0.03    -0.03  -0.03  -0.01
  50   1     0.03  -0.00  -0.00     0.04  -0.03  -0.01    -0.01   0.02   0.07
  51   1     0.03  -0.02  -0.04     0.02  -0.03   0.03    -0.00   0.03   0.06
  52   1    -0.02   0.01  -0.02     0.01   0.01   0.01     0.00  -0.01   0.01
  53   1    -0.00   0.02  -0.02     0.01   0.05  -0.09     0.00   0.01  -0.02
  54   1    -0.06   0.01  -0.00    -0.00  -0.02   0.04    -0.00  -0.01   0.02
  55   1    -0.06  -0.01  -0.00    -0.00   0.03  -0.06    -0.00   0.01  -0.02
  56   1    -0.06  -0.01   0.00    -0.00   0.05  -0.10    -0.00   0.02  -0.03
  57   1    -0.05  -0.01   0.00    -0.00   0.01  -0.02    -0.00   0.00  -0.01
  58   1    -0.05   0.01  -0.00    -0.00   0.01  -0.01    -0.00   0.00  -0.01
  59   1    -0.05   0.01   0.00    -0.00   0.05  -0.10     0.00   0.02  -0.03
  60   1    -0.05  -0.00   0.01     0.00   0.03  -0.07     0.00   0.01  -0.02
  61   1    -0.05  -0.01   0.00     0.00  -0.02   0.04     0.00  -0.01   0.02
  62   1     0.00  -0.01   0.03    -0.01   0.05  -0.09    -0.00   0.01  -0.02
  63   1    -0.01  -0.01   0.02    -0.01   0.01   0.01    -0.00  -0.01   0.01
  64   1     0.03   0.01   0.03    -0.02  -0.02   0.03     0.00   0.03   0.06
  65   1     0.03   0.00   0.01    -0.04  -0.03  -0.00     0.01   0.02   0.07
  66   1     0.04  -0.02  -0.03    -0.04  -0.01  -0.04     0.03  -0.03  -0.01
  67   1     0.03  -0.01  -0.02    -0.02   0.01  -0.02     0.02  -0.05  -0.06
  68   1     0.05   0.03   0.01    -0.01  -0.00  -0.01     0.03   0.00  -0.00
  69   1     0.05   0.04   0.01    -0.01  -0.02  -0.02     0.03   0.10   0.06
                     16                     17                     18
                        a                      a                      a 
 Frequencies --   131.3978               146.3024               172.5161
 Red. masses --    12.0667                10.0503                11.0785
 Frc consts  --     0.0000                 0.0000                 0.0000
 IR Inten    --     7.7081                 1.4830                 1.0975
 Raman Activ --     0.0000                 0.0000                 0.0000
 Depolar     --     0.0000                 0.0000                 0.0000
 Atom AN      X      Y      Z        X      Y      Z        X      Y      Z
   1   7    -0.01  -0.35   0.47    -0.00   0.00   0.00     0.01  -0.02   0.09
   2   6     0.00   0.08  -0.05    -0.00  -0.00  -0.00     0.01   0.01  -0.04
   3   6     0.00   0.27  -0.23    -0.00  -0.00  -0.00     0.01   0.02  -0.06
   4   6     0.08   0.23  -0.19    -0.01  -0.15  -0.05     0.05   0.01  -0.03
   5   6     0.08   0.08  -0.12    -0.00  -0.11  -0.03     0.05   0.02   0.03
   6   6    -0.00  -0.01  -0.09    -0.02   0.00   0.00     0.00   0.04   0.07
   7   6    -0.00  -0.06   0.04    -0.01   0.00   0.00     0.00   0.06   0.11
   8   6    -0.02  -0.04   0.08    -0.02   0.03   0.09     0.01   0.05   0.08
   9   6    -0.06  -0.05   0.11     0.00   0.09   0.29    -0.03  -0.01  -0.07
  10   6    -0.10  -0.07   0.00    -0.00   0.04   0.16    -0.07  -0.03  -0.16
  11   6    -0.12  -0.08  -0.08    -0.07  -0.11  -0.19    -0.03   0.04   0.02
  12   6    -0.07  -0.03  -0.02    -0.06  -0.13  -0.26    -0.00   0.10   0.15
  13   6    -0.02  -0.01   0.06    -0.03  -0.04  -0.08     0.01   0.06   0.10
  14   6     0.00   0.01   0.07    -0.03   0.00  -0.00    -0.00   0.00  -0.00
  15   6     0.00   0.04   0.06    -0.01  -0.00  -0.00    -0.00  -0.15  -0.15
  16   6     0.01   0.04   0.04    -0.02  -0.09   0.16     0.03  -0.18  -0.15
  17   6     0.01   0.02   0.03    -0.01  -0.12   0.21     0.01  -0.24  -0.12
  18   6     0.00   0.01   0.03    -0.01  -0.01   0.00    -0.00  -0.25  -0.10
  19   6     0.00  -0.01   0.01     0.01  -0.00   0.00    -0.00  -0.11  -0.00
  20   7    -0.01  -0.02   0.00     0.01   0.01  -0.02     0.11  -0.03   0.04
  21   6    -0.00  -0.02  -0.02     0.02   0.01  -0.01     0.04   0.12   0.06
  22   6     0.00  -0.01  -0.02     0.02   0.00  -0.00    -0.00   0.11   0.03
  23   6     0.02  -0.01  -0.02     0.04  -0.01   0.02    -0.13   0.12   0.03
  24   6     0.03  -0.01   0.00     0.04  -0.01   0.03    -0.18   0.04   0.02
  25   6     0.02  -0.00   0.01     0.04   0.02  -0.01    -0.14  -0.02   0.02
  26   6     0.01   0.00   0.00     0.03   0.02  -0.02    -0.04  -0.01   0.00
  27   6     0.00  -0.00  -0.01     0.02   0.01  -0.01     0.01   0.07   0.01
  28   6    -0.00  -0.00  -0.01     0.02  -0.00   0.00    -0.01   0.07   0.01
  29   6    -0.01   0.00   0.00     0.03  -0.02   0.02     0.05  -0.00  -0.01
  30   6    -0.02  -0.00   0.01     0.04  -0.02   0.01     0.16  -0.01   0.01
  31   6    -0.03  -0.01   0.00     0.04   0.01  -0.03     0.19   0.04   0.03
  32   6    -0.02  -0.01  -0.02     0.04   0.01  -0.03     0.13   0.12   0.04
  33   6    -0.00  -0.01  -0.02     0.02   0.00  -0.00    -0.00   0.12   0.03
  34   6     0.00  -0.02  -0.02     0.02  -0.00   0.01    -0.04   0.12   0.05
  35   8     0.01  -0.02   0.00     0.01  -0.02   0.03    -0.12  -0.02   0.02
  36   6    -0.01   0.02   0.03    -0.01   0.11  -0.20    -0.02  -0.24  -0.11
  37   6    -0.01   0.04   0.04    -0.02   0.08  -0.16    -0.03  -0.18  -0.14
  38   6     0.02  -0.01   0.06    -0.02   0.04   0.07    -0.01   0.06   0.10
  39   6     0.07  -0.03  -0.02    -0.05   0.13   0.26     0.00   0.10   0.15
  40   6     0.12  -0.08  -0.09    -0.06   0.11   0.18     0.03   0.04   0.02
  41   6     0.10  -0.08   0.00     0.00  -0.04  -0.17     0.05  -0.03  -0.15
  42   6     0.05  -0.05   0.11     0.00  -0.09  -0.29     0.02  -0.01  -0.06
  43   6     0.02  -0.04   0.08    -0.02  -0.02  -0.09    -0.00   0.05   0.08
  44   6    -0.08   0.08  -0.12    -0.00   0.11   0.03    -0.04   0.01   0.03
  45   6    -0.07   0.23  -0.20    -0.00   0.15   0.04    -0.04   0.01  -0.03
  46   1     0.05   0.08  -0.07    -0.00  -0.08  -0.02     0.03  -0.00  -0.02
  47   1     0.04   0.01  -0.02     0.00  -0.04  -0.01     0.03  -0.00   0.02
  48   1    -0.01  -0.01   0.05     0.01   0.04   0.14    -0.01  -0.01  -0.04
  49   1    -0.04  -0.03  -0.00     0.01   0.03   0.09    -0.03  -0.03  -0.09
  50   1    -0.05  -0.03  -0.05    -0.03  -0.05  -0.10    -0.01   0.01   0.00
  51   1    -0.02  -0.00  -0.01    -0.02  -0.06  -0.11     0.00   0.05   0.07
  52   1     0.01   0.01   0.01    -0.01  -0.04   0.06     0.01  -0.05  -0.03
  53   1     0.01   0.01   0.01    -0.01  -0.06   0.11     0.01  -0.08  -0.03
  54   1     0.01  -0.01  -0.01     0.01  -0.01   0.01    -0.05   0.06   0.02
  55   1     0.01  -0.00   0.00     0.01  -0.01   0.02    -0.07   0.01   0.01
  56   1     0.01  -0.00   0.01     0.01   0.01  -0.01    -0.05  -0.02   0.00
  57   1     0.00   0.00   0.00     0.01   0.01  -0.01     0.00  -0.02  -0.01
  58   1    -0.00   0.00   0.00     0.01  -0.01   0.01     0.00  -0.02  -0.01
  59   1    -0.01  -0.00   0.01     0.01  -0.01   0.01     0.06  -0.02   0.00
  60   1    -0.01  -0.00   0.00     0.01   0.01  -0.01     0.07   0.01   0.01
  61   1    -0.01  -0.01  -0.01     0.01   0.01  -0.01     0.05   0.06   0.02
  62   1    -0.01   0.00   0.01    -0.01   0.05  -0.10    -0.01  -0.08  -0.03
  63   1    -0.01   0.01   0.01    -0.01   0.04  -0.06    -0.02  -0.05  -0.03
  64   1     0.02  -0.01  -0.02    -0.02   0.06   0.11    -0.00   0.04   0.07
  65   1     0.05  -0.03  -0.05    -0.03   0.05   0.10     0.01   0.01   0.01
  66   1     0.04  -0.03  -0.00     0.01  -0.03  -0.09     0.03  -0.03  -0.09
  67   1     0.01  -0.01   0.06     0.01  -0.04  -0.14     0.01  -0.01  -0.04
  68   1    -0.04   0.01  -0.03     0.00   0.04   0.01    -0.02  -0.00   0.01
  69   1    -0.04   0.08  -0.07    -0.00   0.08   0.02    -0.02  -0.00  -0.02
                     19                     20                     21
                        a                      a                      a 
 Frequencies --   179.8404               182.0958               203.0996
 Red. masses --    10.9705                12.1142                11.5382
 Frc consts  --     0.0000                 0.0000                 0.0000
 IR Inten    --     2.5522                 0.7583                 0.7287
 Raman Activ --     0.0000                 0.0000                 0.0000
 Depolar     --     0.0000                 0.0000                 0.0000
 Atom AN      X      Y      Z        X      Y      Z        X      Y      Z
   1   7     0.26  -0.00  -0.00    -0.03  -0.00   0.00    -0.00   0.03  -0.02
   2   6     0.24  -0.00   0.00    -0.03   0.00  -0.00    -0.00  -0.02   0.01
   3   6     0.23  -0.00   0.00    -0.03   0.00  -0.00    -0.00  -0.03   0.01
   4   6     0.18   0.07  -0.00    -0.02   0.00   0.00    -0.02  -0.01   0.00
   5   6     0.17   0.04  -0.01    -0.02  -0.00   0.00    -0.02   0.03  -0.02
   6   6     0.11  -0.00  -0.00    -0.01  -0.00   0.00     0.00   0.03  -0.03
   7   6     0.07  -0.00  -0.00    -0.01  -0.00   0.00     0.00   0.02  -0.04
   8   6    -0.00   0.04   0.10     0.00  -0.01  -0.01    -0.00   0.02  -0.03
   9   6    -0.13  -0.03   0.10     0.02  -0.01  -0.04    -0.03   0.04   0.08
  10   6    -0.27  -0.06  -0.12     0.03   0.00   0.00    -0.08   0.04   0.03
  11   6    -0.26   0.00  -0.11     0.04   0.01   0.04    -0.10   0.03  -0.09
  12   6    -0.12   0.14   0.08     0.02  -0.01   0.01    -0.05   0.05  -0.10
  13   6    -0.01   0.08   0.10     0.01  -0.01   0.00    -0.00   0.03  -0.09
  14   6    -0.01  -0.00   0.00     0.01  -0.00   0.01     0.00   0.03  -0.08
  15   6    -0.02   0.00   0.00     0.01   0.00  -0.01    -0.00  -0.06   0.08
  16   6    -0.02  -0.00   0.01     0.01   0.03  -0.06     0.02  -0.15   0.20
  17   6    -0.02  -0.01   0.02     0.01   0.03  -0.06     0.02  -0.17   0.18
  18   6    -0.01   0.00   0.00     0.01   0.01  -0.01    -0.00  -0.09   0.01
  19   6    -0.00   0.00   0.00     0.00  -0.00   0.00    -0.00   0.08  -0.26
  20   7    -0.00   0.02  -0.05     0.00   0.18  -0.37     0.03   0.13  -0.30
  21   6     0.00   0.01  -0.02     0.00   0.09  -0.17     0.01   0.06  -0.07
  22   6     0.01   0.01  -0.02    -0.00   0.08  -0.15     0.01  -0.03   0.11
  23   6     0.02  -0.01   0.01    -0.01  -0.03   0.06    -0.02  -0.05   0.16
  24   6     0.03  -0.01   0.03    -0.01  -0.13   0.25    -0.04   0.01   0.01
  25   6     0.02   0.01  -0.00    -0.01   0.00  -0.03    -0.03   0.07  -0.15
  26   6     0.01   0.02  -0.03    -0.00   0.11  -0.24    -0.01   0.00  -0.00
  27   6     0.01   0.01  -0.01     0.00   0.05  -0.11     0.01  -0.06   0.15
  28   6     0.01  -0.01   0.01     0.00  -0.03   0.06    -0.00  -0.07   0.18
  29   6     0.01  -0.02   0.03     0.00  -0.10   0.23     0.01  -0.03   0.05
  30   6     0.02  -0.01   0.01    -0.01  -0.03   0.08     0.03   0.07  -0.15
  31   6     0.02   0.01  -0.03    -0.01   0.12  -0.24     0.04   0.04  -0.06
  32   6     0.01   0.01  -0.02    -0.01   0.05  -0.11     0.03  -0.05   0.16
  33   6     0.01  -0.01   0.01     0.00  -0.05   0.11    -0.00  -0.05   0.16
  34   6     0.00  -0.01   0.02     0.00  -0.09   0.19    -0.01   0.04  -0.02
  35   8     0.00  -0.03   0.05     0.01  -0.21   0.44    -0.04   0.09  -0.24
  36   6    -0.02   0.02  -0.02     0.01  -0.01   0.01    -0.02  -0.17   0.19
  37   6    -0.01   0.01  -0.01     0.01  -0.01   0.02    -0.02  -0.15   0.22
  38   6    -0.01  -0.08  -0.10     0.00   0.01   0.02     0.00   0.03  -0.09
  39   6    -0.13  -0.14  -0.09     0.01   0.01   0.01     0.05   0.05  -0.10
  40   6    -0.26   0.00   0.11     0.02  -0.01  -0.02     0.10   0.03  -0.09
  41   6    -0.27   0.07   0.13     0.02  -0.01  -0.02     0.08   0.04   0.03
  42   6    -0.14   0.03  -0.09     0.01   0.00   0.02     0.04   0.04   0.08
  43   6    -0.00  -0.04  -0.10     0.00   0.01   0.02     0.01   0.02  -0.03
  44   6     0.17  -0.05   0.01    -0.02  -0.00  -0.00     0.02   0.03  -0.02
  45   6     0.18  -0.07   0.00    -0.02   0.00  -0.00     0.02  -0.01   0.00
  46   1     0.04   0.03   0.01    -0.00   0.00   0.00    -0.01  -0.00   0.00
  47   1     0.06   0.02   0.00    -0.01  -0.00   0.00    -0.01   0.02  -0.01
  48   1    -0.04  -0.03   0.06     0.00  -0.00  -0.02    -0.01   0.01   0.05
  49   1    -0.10  -0.04  -0.08     0.01   0.00   0.00    -0.03   0.01   0.03
  50   1    -0.10  -0.01  -0.07     0.02   0.00   0.02    -0.04   0.01  -0.04
  51   1    -0.03   0.08   0.03     0.00  -0.01   0.00    -0.01   0.02  -0.02
  52   1    -0.00  -0.00   0.01     0.00   0.01  -0.03     0.01  -0.04   0.07
  53   1    -0.01  -0.00   0.01     0.00   0.01  -0.03     0.01  -0.06   0.06
  54   1     0.01  -0.01   0.00    -0.00  -0.02   0.04    -0.01  -0.02   0.07
  55   1     0.01  -0.01   0.02    -0.00  -0.08   0.15    -0.01   0.01  -0.01
  56   1     0.01   0.01  -0.00    -0.00   0.00  -0.01    -0.01   0.04  -0.10
  57   1     0.00   0.01  -0.01    -0.00   0.06  -0.13     0.00   0.00  -0.02
  58   1     0.00  -0.01   0.01     0.00  -0.06   0.13    -0.00  -0.01   0.01
  59   1     0.01  -0.01   0.00    -0.00  -0.02   0.05     0.01   0.04  -0.10
  60   1     0.01   0.01  -0.02    -0.01   0.07  -0.14     0.01   0.03  -0.05
  61   1     0.01   0.01  -0.01    -0.00   0.03  -0.06     0.01  -0.02   0.07
  62   1    -0.01   0.01  -0.01     0.00  -0.01   0.01    -0.01  -0.06   0.06
  63   1    -0.00   0.00  -0.01     0.00  -0.01   0.02    -0.01  -0.05   0.07
  64   1    -0.03  -0.08  -0.04     0.00   0.00   0.01     0.01   0.02  -0.02
  65   1    -0.10   0.01   0.07     0.01  -0.01  -0.01     0.04   0.01  -0.04
  66   1    -0.10   0.05   0.08     0.01  -0.01  -0.01     0.03   0.01   0.03
  67   1    -0.04   0.03  -0.05     0.00  -0.00   0.01     0.01   0.01   0.06
  68   1     0.06  -0.02  -0.00    -0.01  -0.00   0.00     0.01   0.02  -0.01
  69   1     0.04  -0.03  -0.01    -0.01   0.00  -0.00     0.01  -0.00   0.00
                     22                     23                     24
                        a                      a                      a 
 Frequencies --   217.9650               220.8246               237.2639
 Red. masses --    10.9037                10.7955                10.7863
 Frc consts  --     0.0000                 0.0000                 0.0000
 IR Inten    --     2.7557                 0.6634                 2.4692
 Raman Activ --     0.0000                 0.0000                 0.0000
 Depolar     --     0.0000                 0.0000                 0.0000
 Atom AN      X      Y      Z        X      Y      Z        X      Y      Z
   1   7    -0.16   0.00   0.02    -0.02  -0.01  -0.17     0.09  -0.00  -0.00
   2   6    -0.15  -0.00  -0.01    -0.02   0.01   0.15     0.08  -0.00   0.00
   3   6    -0.14  -0.00  -0.01    -0.01   0.02   0.15     0.07   0.00   0.00
   4   6    -0.08  -0.03   0.01    -0.17   0.01   0.04     0.05   0.04  -0.00
   5   6    -0.07  -0.01   0.04    -0.16  -0.04  -0.20     0.04   0.02  -0.02
   6   6    -0.04   0.01   0.03    -0.00  -0.07  -0.30     0.02  -0.00  -0.01
   7   6     0.01   0.00   0.02     0.00  -0.04  -0.17    -0.02   0.00  -0.00
   8   6     0.06   0.03   0.18     0.01   0.02   0.06    -0.03  -0.08  -0.20
   9   6     0.05   0.01   0.14     0.02   0.06   0.18    -0.09  -0.09  -0.13
  10   6    -0.02  -0.07  -0.11     0.02   0.02   0.10    -0.11   0.04   0.13
  11   6    -0.02  -0.06  -0.11    -0.02  -0.10  -0.15    -0.11   0.07   0.11
  12   6     0.04   0.05   0.13    -0.00  -0.06  -0.06    -0.09  -0.02  -0.17
  13   6     0.08   0.05   0.16     0.02   0.03   0.12    -0.03  -0.08  -0.20
  14   6     0.13  -0.01  -0.02     0.01   0.08   0.20    -0.01  -0.00  -0.00
  15   6     0.13  -0.01  -0.01     0.01   0.08   0.14     0.03  -0.01  -0.00
  16   6     0.13  -0.01  -0.00     0.12   0.06   0.02     0.05  -0.03   0.01
  17   6     0.13   0.01   0.01     0.12  -0.05  -0.11     0.06  -0.04   0.04
  18   6     0.13   0.01   0.01     0.01  -0.13  -0.09     0.08  -0.00   0.00
  19   6     0.10   0.01  -0.00     0.01  -0.14  -0.01     0.10   0.00   0.00
  20   7     0.09   0.00   0.00     0.09  -0.09   0.04     0.11   0.00   0.01
  21   6     0.07   0.01   0.00     0.04   0.03   0.05     0.10   0.01   0.01
  22   6     0.04   0.01   0.01     0.02   0.06   0.01     0.09   0.03   0.02
  23   6    -0.13   0.02   0.01    -0.07   0.07  -0.01    -0.09   0.03   0.01
  24   6    -0.20  -0.09  -0.04    -0.11   0.01   0.01    -0.18  -0.09  -0.05
  25   6    -0.16  -0.15  -0.07    -0.09  -0.03   0.03    -0.12  -0.17  -0.08
  26   6    -0.01  -0.13  -0.06    -0.01  -0.01  -0.01     0.04  -0.15  -0.07
  27   6     0.06  -0.01  -0.00     0.02   0.06  -0.02     0.13  -0.01  -0.00
  28   6     0.06   0.01   0.01    -0.01   0.06  -0.02     0.13   0.02   0.01
  29   6    -0.02   0.13   0.06     0.01   0.02  -0.01     0.03   0.15   0.07
  30   6    -0.17   0.14   0.06     0.06  -0.00   0.04    -0.13   0.16   0.07
  31   6    -0.22   0.07   0.04     0.07   0.03   0.03    -0.18   0.08   0.04
  32   6    -0.13  -0.03  -0.00     0.05   0.07  -0.01    -0.09  -0.04  -0.01
  33   6     0.04  -0.02  -0.01    -0.02   0.06  -0.00     0.09  -0.02  -0.02
  34   6     0.07  -0.00  -0.01    -0.03   0.03   0.04     0.09  -0.00  -0.01
  35   8     0.10   0.02  -0.01    -0.08  -0.09   0.03     0.12   0.01  -0.01
  36   6     0.15  -0.01   0.01    -0.10  -0.05  -0.10     0.07   0.04  -0.04
  37   6     0.16  -0.01  -0.00    -0.09   0.07   0.02     0.05   0.02  -0.01
  38   6     0.08  -0.05  -0.17    -0.00   0.03   0.09    -0.03   0.09   0.20
  39   6     0.04  -0.04  -0.11     0.01  -0.07  -0.08    -0.09   0.03   0.18
  40   6    -0.02   0.07   0.13     0.02  -0.08  -0.13    -0.11  -0.06  -0.11
  41   6    -0.01   0.07   0.09    -0.02   0.03   0.11    -0.11  -0.03  -0.13
  42   6     0.05  -0.03  -0.17    -0.01   0.05   0.15    -0.09   0.10   0.14
  43   6     0.06  -0.03  -0.18    -0.00   0.01   0.03    -0.03   0.08   0.21
  44   6    -0.10   0.03  -0.00     0.14  -0.03  -0.20     0.04  -0.02   0.01
  45   6    -0.11   0.03  -0.02     0.15   0.01   0.04     0.05  -0.04   0.00
  46   1    -0.01  -0.01  -0.01    -0.09   0.01   0.04     0.01   0.02   0.01
  47   1    -0.02   0.00   0.01    -0.09   0.00  -0.08     0.01  -0.00  -0.00
  48   1     0.01   0.00   0.05     0.01   0.02   0.07    -0.03  -0.04  -0.03
  49   1    -0.02  -0.04  -0.08     0.01   0.01   0.04    -0.03   0.03   0.10
  50   1    -0.02  -0.04  -0.08    -0.02  -0.05  -0.10    -0.03   0.05   0.08
  51   1     0.01   0.03   0.05    -0.01  -0.03  -0.04    -0.03   0.01  -0.06
  52   1     0.04  -0.00   0.00     0.07   0.04   0.00     0.02  -0.00  -0.00
  53   1     0.04   0.00   0.00     0.06  -0.02  -0.05     0.01  -0.02   0.03
  54   1    -0.06   0.04   0.02    -0.03   0.04   0.00    -0.05   0.05   0.02
  55   1    -0.08  -0.02  -0.01    -0.04   0.00   0.00    -0.08  -0.03  -0.02
  56   1    -0.06  -0.06  -0.03    -0.03  -0.02   0.02    -0.05  -0.07  -0.03
  57   1     0.01  -0.06  -0.03     0.00  -0.02  -0.01     0.03  -0.07  -0.03
  58   1     0.01   0.06   0.03    -0.00  -0.00  -0.01     0.02   0.07   0.03
  59   1    -0.06   0.06   0.03     0.02  -0.01   0.02    -0.05   0.07   0.03
  60   1    -0.09   0.02   0.01     0.03   0.01   0.01    -0.08   0.02   0.01
  61   1    -0.06  -0.04  -0.02     0.02   0.04  -0.00    -0.05  -0.05  -0.02
  62   1     0.05   0.00   0.01    -0.06  -0.02  -0.05     0.01   0.01  -0.02
  63   1     0.05  -0.01  -0.00    -0.06   0.04   0.00     0.02   0.00  -0.00
  64   1     0.01  -0.02  -0.04     0.01  -0.03  -0.05    -0.03  -0.00   0.06
  65   1    -0.02   0.05   0.10     0.01  -0.05  -0.08    -0.03  -0.05  -0.09
  66   1    -0.01   0.04   0.07    -0.02   0.02   0.06    -0.03  -0.03  -0.10
  67   1     0.02  -0.00  -0.07    -0.01   0.02   0.06    -0.02   0.04   0.04
  68   1    -0.04   0.00   0.01     0.08   0.00  -0.08     0.02   0.00   0.00
  69   1    -0.03   0.01  -0.00     0.09   0.01   0.04     0.01  -0.02  -0.00
                     25                     26                     27
                        a                      a                      a 
 Frequencies --   252.3914               270.1767               278.1469
 Red. masses --    10.7275                11.2807                10.8143
 Frc consts  --     0.0000                 0.0000                 0.0000
 IR Inten    --     0.4105                 1.6798                 0.4038
 Raman Activ --     0.0000                 0.0000                 0.0000
 Depolar     --     0.0000                 0.0000                 0.0000
 Atom AN      X      Y      Z        X      Y      Z        X      Y      Z
   1   7     0.00   0.06  -0.08     0.00   0.25   0.06     0.01   0.03   0.01
   2   6    -0.00  -0.07   0.09    -0.00  -0.34  -0.09     0.01  -0.05  -0.01
   3   6    -0.00  -0.07   0.07    -0.00  -0.32  -0.10     0.01  -0.04  -0.01
   4   6    -0.12   0.00   0.01    -0.02   0.05  -0.01    -0.00   0.01  -0.00
   5   6    -0.11   0.09  -0.15    -0.02   0.38   0.06    -0.00   0.05   0.00
   6   6     0.00   0.08  -0.22     0.00   0.24   0.01    -0.00   0.03  -0.01
   7   6     0.00   0.04  -0.04    -0.00  -0.07  -0.09    -0.00  -0.01  -0.01
   8   6     0.06   0.05   0.15     0.03  -0.11  -0.11    -0.01  -0.01  -0.00
   9   6     0.01   0.03   0.14    -0.03  -0.11   0.01    -0.00  -0.01  -0.00
  10   6    -0.07  -0.05  -0.10    -0.09  -0.08   0.03     0.00  -0.01   0.00
  11   6    -0.07  -0.03  -0.07    -0.09  -0.03   0.02     0.00  -0.01   0.01
  12   6     0.01   0.08   0.16    -0.02   0.01   0.02    -0.00  -0.01   0.01
  13   6     0.05   0.05   0.14     0.02  -0.06  -0.07    -0.01  -0.01   0.01
  14   6    -0.00  -0.08  -0.04     0.00  -0.03   0.03    -0.01  -0.00   0.02
  15   6    -0.01  -0.22  -0.17     0.00   0.01   0.14    -0.01   0.02   0.00
  16   6    -0.16  -0.16  -0.09     0.04   0.02   0.08    -0.00   0.02  -0.01
  17   6    -0.16   0.04   0.03     0.04   0.02  -0.06    -0.00   0.01  -0.01
  18   6    -0.00   0.13   0.06     0.00   0.01  -0.10    -0.01  -0.01   0.02
  19   6    -0.00   0.15   0.07     0.00  -0.03  -0.03    -0.00  -0.03   0.04
  20   7    -0.10   0.10   0.05     0.02  -0.04   0.01     0.00  -0.14   0.28
  21   6    -0.04  -0.03  -0.01     0.01  -0.03   0.06     0.00  -0.02   0.04
  22   6    -0.03  -0.05  -0.02     0.01   0.00   0.02     0.01   0.09  -0.17
  23   6     0.06  -0.05  -0.03    -0.01   0.02  -0.01    -0.00   0.14  -0.28
  24   6     0.09  -0.02  -0.01    -0.02   0.01  -0.02    -0.00  -0.08   0.16
  25   6     0.07   0.00   0.00    -0.02  -0.01   0.03     0.00  -0.09   0.17
  26   6     0.01  -0.00  -0.00    -0.00  -0.00   0.01     0.00   0.11  -0.25
  27   6    -0.02  -0.04  -0.02     0.00   0.02  -0.02     0.01   0.07  -0.14
  28   6     0.02  -0.04  -0.02    -0.01   0.04  -0.05     0.01  -0.07   0.15
  29   6    -0.01  -0.01  -0.00     0.00   0.03  -0.05     0.01  -0.12   0.26
  30   6    -0.07  -0.01  -0.00     0.02  -0.03   0.06     0.00   0.10  -0.18
  31   6    -0.08  -0.03  -0.01     0.02  -0.01   0.03     0.00   0.08  -0.16
  32   6    -0.05  -0.06  -0.03     0.01   0.05  -0.07     0.01  -0.14   0.29
  33   6     0.03  -0.05  -0.02    -0.01   0.03  -0.02     0.01  -0.09   0.17
  34   6     0.04  -0.03  -0.01    -0.01  -0.03   0.07    -0.00   0.04  -0.08
  35   8     0.09   0.11   0.05    -0.02  -0.06   0.06    -0.01   0.13  -0.27
  36   6     0.15   0.03   0.03    -0.04   0.03  -0.06    -0.02   0.01  -0.01
  37   6     0.14  -0.17  -0.10    -0.03   0.02   0.08    -0.02   0.03  -0.03
  38   6    -0.05   0.04   0.13    -0.02  -0.06  -0.06    -0.01  -0.01   0.00
  39   6    -0.00   0.09   0.15     0.02   0.01   0.02     0.00  -0.00   0.01
  40   6     0.07  -0.03  -0.06     0.09  -0.03   0.02     0.01  -0.01   0.01
  41   6     0.08  -0.05  -0.09     0.09  -0.08   0.03     0.01  -0.02   0.01
  42   6    -0.00   0.02   0.14     0.02  -0.11   0.02     0.00  -0.03  -0.00
  43   6    -0.06   0.05   0.14    -0.03  -0.11  -0.10    -0.01  -0.02  -0.01
  44   6     0.12   0.09  -0.15     0.03   0.38   0.06     0.01   0.05   0.01
  45   6     0.12   0.00   0.01     0.02   0.04  -0.01     0.01   0.01   0.00
  46   1    -0.07   0.00   0.02    -0.01   0.01  -0.00    -0.00   0.00   0.00
  47   1    -0.06   0.05  -0.06    -0.01   0.16   0.03    -0.00   0.02   0.00
  48   1     0.00  -0.00   0.06    -0.00  -0.03   0.04    -0.00   0.00   0.00
  49   1    -0.03  -0.04  -0.08    -0.04  -0.02   0.03     0.00  -0.00  -0.00
  50   1    -0.03  -0.03  -0.06    -0.04   0.01   0.02     0.00  -0.00   0.00
  51   1     0.01   0.05   0.05    -0.00   0.03   0.03    -0.00  -0.00   0.00
  52   1    -0.09  -0.08  -0.02     0.02   0.01   0.03     0.00   0.01  -0.00
  53   1    -0.09   0.03   0.03     0.02   0.01  -0.03     0.00   0.00  -0.00
  54   1     0.03  -0.03  -0.02    -0.01   0.01  -0.00    -0.00   0.07  -0.13
  55   1     0.03  -0.01  -0.00    -0.01   0.01  -0.01    -0.00  -0.06   0.11
  56   1     0.03   0.01   0.00    -0.01  -0.01   0.02     0.00  -0.06   0.12
  57   1    -0.01   0.01   0.01     0.00  -0.01   0.00     0.00   0.06  -0.13
  58   1     0.00   0.01   0.00    -0.00   0.01  -0.03     0.00  -0.06   0.13
  59   1    -0.03   0.00   0.00     0.01  -0.02   0.04    -0.00   0.06  -0.13
  60   1    -0.03  -0.01  -0.00     0.01  -0.01   0.02    -0.00   0.06  -0.12
  61   1    -0.02  -0.03  -0.02     0.00   0.02  -0.03     0.00  -0.07   0.14
  62   1     0.09   0.03   0.03    -0.02   0.01  -0.03    -0.01   0.00  -0.00
  63   1     0.08  -0.08  -0.02    -0.02   0.01   0.03    -0.01   0.02  -0.02
  64   1    -0.00   0.05   0.05     0.00   0.03   0.03     0.00   0.00   0.00
  65   1     0.03  -0.02  -0.06     0.03   0.00   0.02     0.00  -0.00   0.01
  66   1     0.04  -0.04  -0.08     0.03  -0.02   0.02     0.00  -0.01   0.00
  67   1    -0.00  -0.00   0.06     0.00  -0.03   0.04    -0.00  -0.01   0.00
  68   1     0.07   0.05  -0.06     0.02   0.16   0.03     0.01   0.02   0.00
  69   1     0.07   0.00   0.02     0.01   0.01  -0.00     0.00   0.00   0.00
                     28                     29                     30
                        a                      a                      a 
 Frequencies --   291.6766               305.7894               360.2127
 Red. masses --    10.9645                10.8864                10.3179
 Frc consts  --     0.0000                 0.0000                 0.0000
 IR Inten    --     6.2821                 0.3079                 0.6444
 Raman Activ --     0.0000                 0.0000                 0.0000
 Depolar     --     0.0000                 0.0000                 0.0000
 Atom AN      X      Y      Z        X      Y      Z        X      Y      Z
   1   7    -0.14   0.00  -0.00     0.00   0.07   0.00    -0.00  -0.05   0.01
   2   6    -0.12  -0.00   0.00     0.00  -0.11  -0.01     0.00   0.10  -0.02
   3   6    -0.11  -0.00  -0.00     0.00  -0.09  -0.01     0.00   0.05   0.00
   4   6    -0.05   0.03   0.04    -0.03   0.04   0.00     0.04  -0.05   0.00
   5   6    -0.03  -0.02   0.03    -0.03   0.11  -0.02     0.03  -0.08   0.06
   6   6     0.04   0.00  -0.00    -0.00   0.03  -0.06    -0.00  -0.02   0.09
   7   6     0.08  -0.00   0.00    -0.00  -0.04  -0.00    -0.00  -0.07  -0.11
   8   6     0.15  -0.10  -0.07    -0.02  -0.02   0.05     0.10  -0.11  -0.13
   9   6     0.01  -0.17   0.01    -0.01  -0.04  -0.04     0.14  -0.01   0.24
  10   6    -0.14  -0.06   0.07     0.04  -0.05   0.00     0.03  -0.07  -0.05
  11   6    -0.14   0.03   0.02     0.04  -0.06   0.06     0.02   0.04  -0.13
  12   6     0.00   0.06  -0.09    -0.00  -0.08   0.05     0.14   0.20   0.15
  13   6     0.16  -0.05  -0.09    -0.04  -0.02   0.10     0.11   0.01  -0.17
  14   6     0.22  -0.01  -0.00    -0.00   0.00   0.06    -0.00  -0.02  -0.12
  15   6     0.23  -0.00  -0.01    -0.00   0.15  -0.16    -0.00  -0.01   0.12
  16   6     0.19   0.03  -0.00     0.03   0.18  -0.22     0.01   0.02   0.05
  17   6     0.17   0.01   0.07     0.02  -0.01   0.06     0.02   0.07  -0.10
  18   6     0.08   0.01   0.01     0.00  -0.13   0.26    -0.00   0.03  -0.05
  19   6     0.02   0.00   0.01     0.00  -0.10   0.15     0.00  -0.09   0.11
  20   7    -0.03  -0.02   0.01     0.01   0.02  -0.08     0.01  -0.08   0.08
  21   6    -0.06  -0.01  -0.01     0.00   0.14  -0.29     0.00   0.05  -0.13
  22   6    -0.11  -0.05  -0.04     0.01   0.02  -0.04     0.01   0.04  -0.08
  23   6    -0.02  -0.05  -0.04    -0.00  -0.09   0.20    -0.01  -0.04   0.10
  24   6     0.05   0.05   0.03    -0.01   0.01  -0.01    -0.01   0.01  -0.01
  25   6    -0.01   0.14   0.07    -0.01   0.09  -0.19    -0.01   0.04  -0.07
  26   6    -0.12   0.13   0.05     0.00  -0.07   0.14    -0.00  -0.04   0.10
  27   6    -0.18   0.01   0.00     0.01  -0.06   0.13     0.00   0.01  -0.00
  28   6    -0.18  -0.02   0.01     0.00  -0.04   0.11    -0.00   0.01  -0.00
  29   6    -0.11  -0.14  -0.05     0.00  -0.04   0.09     0.00  -0.04   0.10
  30   6     0.01  -0.13  -0.08     0.01   0.07  -0.14     0.01   0.04  -0.07
  31   6     0.06  -0.04  -0.03     0.01   0.00   0.01     0.01   0.01  -0.01
  32   6    -0.02   0.05   0.05     0.01  -0.06   0.13     0.01  -0.04   0.09
  33   6    -0.12   0.05   0.04    -0.00   0.03  -0.05    -0.01   0.04  -0.08
  34   6    -0.06   0.01  -0.01    -0.01   0.13  -0.28    -0.00   0.06  -0.15
  35   8    -0.05   0.01  -0.02    -0.01  -0.02  -0.00    -0.01  -0.08   0.09
  36   6     0.18  -0.00  -0.06    -0.03  -0.01   0.06    -0.02   0.08  -0.10
  37   6     0.20  -0.03  -0.01    -0.03   0.18  -0.21    -0.01   0.03   0.05
  38   6     0.16   0.04   0.10     0.03  -0.03   0.09    -0.11   0.02  -0.17
  39   6     0.00  -0.06   0.10    -0.00  -0.08   0.04    -0.13   0.20   0.15
  40   6    -0.14  -0.03  -0.02    -0.04  -0.06   0.06    -0.02   0.04  -0.13
  41   6    -0.14   0.06  -0.08    -0.03  -0.05   0.01    -0.03  -0.07  -0.05
  42   6     0.01   0.16  -0.01     0.01  -0.05  -0.04    -0.13  -0.01   0.24
  43   6     0.15   0.09   0.08     0.02  -0.03   0.05    -0.11  -0.11  -0.12
  44   6    -0.03   0.02  -0.03     0.03   0.11  -0.02    -0.04  -0.08   0.06
  45   6    -0.04  -0.02  -0.04     0.03   0.03   0.00    -0.04  -0.05   0.00
  46   1    -0.00   0.02   0.01    -0.02   0.02   0.01     0.02  -0.02  -0.01
  47   1    -0.02  -0.01  -0.00    -0.02   0.05  -0.01     0.02  -0.03   0.02
  48   1     0.00  -0.09   0.03    -0.01  -0.01  -0.03     0.05   0.01   0.15
  49   1    -0.06  -0.02   0.05     0.02  -0.01  -0.01    -0.02  -0.04  -0.03
  50   1    -0.06   0.03   0.02     0.02  -0.02   0.02    -0.02   0.01  -0.07
  51   1     0.00   0.06  -0.03    -0.01  -0.04  -0.01     0.05   0.11   0.12
  52   1     0.04   0.01  -0.01     0.02   0.08  -0.10     0.01   0.00   0.03
  53   1     0.06  -0.01   0.03     0.01  -0.01   0.02     0.01   0.03  -0.05
  54   1     0.01  -0.04  -0.02    -0.00  -0.04   0.10    -0.00  -0.02   0.06
  55   1     0.05   0.01   0.01    -0.00   0.01  -0.01    -0.00   0.00  -0.00
  56   1     0.01   0.06   0.03    -0.00   0.06  -0.12    -0.00   0.02  -0.04
  57   1    -0.05   0.05   0.02     0.00  -0.04   0.07     0.00  -0.03   0.06
  58   1    -0.04  -0.06  -0.02     0.00  -0.02   0.04     0.00  -0.03   0.06
  59   1     0.02  -0.06  -0.04     0.00   0.05  -0.09     0.00   0.02  -0.04
  60   1     0.05  -0.01  -0.01     0.00  -0.00   0.00     0.00   0.00  -0.00
  61   1     0.01   0.04   0.03     0.00  -0.03   0.07     0.00  -0.03   0.06
  62   1     0.07   0.02  -0.02    -0.01  -0.01   0.02    -0.01   0.03  -0.05
  63   1     0.05  -0.01   0.01    -0.02   0.08  -0.10    -0.01   0.01   0.03
  64   1     0.00  -0.06   0.03     0.00  -0.04  -0.01    -0.05   0.11   0.12
  65   1    -0.07  -0.03  -0.02    -0.02  -0.02   0.02     0.02   0.01  -0.07
  66   1    -0.06   0.02  -0.06    -0.02  -0.01  -0.01     0.02  -0.04  -0.03
  67   1     0.01   0.09  -0.03     0.00  -0.01  -0.03    -0.05   0.01   0.15
  68   1    -0.02   0.01   0.00     0.02   0.05  -0.01    -0.02  -0.03   0.02
  69   1    -0.00  -0.02  -0.01     0.02   0.02   0.01    -0.02  -0.02  -0.01
                     31                     32                     33
                        a                      a                      a 
 Frequencies --   366.6346               369.9871               371.0597
 Red. masses --     9.4191                11.0780                10.8541
 Frc consts  --     0.0000                 0.0000                 0.0000
 IR Inten    --    10.5898                 6.2690                 1.3597
 Raman Activ --     0.0000                 0.0000                 0.0000
 Depolar     --     0.0000                 0.0000                 0.0000
 Atom AN      X      Y      Z        X      Y      Z        X      Y      Z
   1   7     0.07  -0.00   0.00     0.19   0.00  -0.00    -0.06   0.01   0.00
   2   6     0.06  -0.00  -0.00     0.17  -0.01   0.00    -0.06  -0.03  -0.00
   3   6     0.05  -0.00  -0.00     0.13  -0.01   0.00    -0.04  -0.02  -0.00
   4   6    -0.00   0.33   0.07     0.00  -0.07  -0.09    -0.00   0.04   0.04
   5   6    -0.01  -0.36  -0.12    -0.02   0.13  -0.03     0.00  -0.04   0.00
   6   6    -0.06  -0.00  -0.00    -0.13  -0.01  -0.01     0.04  -0.06  -0.03
   7   6    -0.04  -0.00  -0.00    -0.18  -0.02  -0.00     0.06  -0.07  -0.03
   8   6    -0.05   0.02   0.13    -0.15  -0.05   0.04     0.02  -0.02   0.01
   9   6    -0.05  -0.03  -0.04    -0.07  -0.01   0.05     0.08   0.04   0.16
  10   6     0.03  -0.04   0.04     0.05  -0.12  -0.01     0.05  -0.06  -0.11
  11   6     0.03  -0.09   0.05     0.06  -0.18   0.08     0.07   0.02  -0.02
  12   6    -0.02  -0.13  -0.01    -0.03  -0.18   0.14     0.08   0.09   0.14
  13   6    -0.05   0.00   0.13    -0.15  -0.11   0.04     0.00  -0.01  -0.09
  14   6     0.01  -0.00  -0.00    -0.01  -0.02  -0.07    -0.00  -0.04  -0.21
  15   6     0.00   0.00  -0.00     0.06   0.07  -0.07    -0.02   0.23  -0.21
  16   6     0.04   0.06  -0.11     0.14  -0.02   0.07    -0.01   0.20  -0.12
  17   6     0.03  -0.06   0.11     0.15   0.04  -0.05    -0.01  -0.04   0.20
  18   6     0.04  -0.00   0.00     0.14  -0.00   0.04    -0.04  -0.03   0.11
  19   6     0.02   0.00  -0.00     0.11  -0.01  -0.06    -0.03  -0.01  -0.17
  20   7     0.02  -0.01   0.00     0.09  -0.02  -0.07    -0.00  -0.00  -0.16
  21   6     0.01  -0.00   0.00     0.05  -0.04   0.03    -0.01  -0.08   0.12
  22   6    -0.01  -0.02  -0.01    -0.03  -0.10  -0.01     0.03  -0.00   0.12
  23   6    -0.01  -0.02  -0.01    -0.04  -0.08  -0.08    -0.01   0.11  -0.09
  24   6     0.00  -0.01  -0.00    -0.00  -0.04  -0.01    -0.03   0.00   0.04
  25   6    -0.01   0.01   0.01    -0.06   0.04   0.05    -0.01  -0.05   0.07
  26   6    -0.02   0.01   0.00    -0.10   0.07  -0.01     0.03   0.05  -0.12
  27   6    -0.03  -0.00  -0.00    -0.12   0.00   0.02     0.05   0.01   0.05
  28   6    -0.03  -0.00   0.00    -0.13   0.01   0.02     0.04   0.00   0.05
  29   6    -0.02  -0.01  -0.01    -0.10  -0.03  -0.06     0.04   0.09  -0.11
  30   6    -0.01  -0.01  -0.01    -0.02  -0.06   0.01     0.04  -0.01   0.10
  31   6     0.00   0.01   0.00     0.03   0.04   0.03     0.02  -0.02   0.03
  32   6    -0.01   0.02   0.01    -0.03   0.13   0.01     0.03   0.04  -0.13
  33   6    -0.01   0.02   0.01    -0.06   0.08   0.08     0.00  -0.07   0.09
  34   6     0.01   0.00   0.00     0.04  -0.03   0.05    -0.02  -0.10   0.14
  35   8     0.02   0.01  -0.00     0.07  -0.02  -0.07    -0.05  -0.01  -0.18
  36   6     0.03   0.06  -0.11     0.14  -0.04   0.17    -0.09  -0.01   0.14
  37   6     0.04  -0.05   0.11     0.13   0.14  -0.13    -0.08   0.15  -0.06
  38   6    -0.04  -0.00  -0.14    -0.13   0.08  -0.09     0.08  -0.08  -0.05
  39   6    -0.02   0.13   0.02    -0.07   0.20  -0.03    -0.05  -0.04   0.20
  40   6     0.03   0.09  -0.06     0.01   0.15  -0.07    -0.09  -0.10   0.03
  41   6     0.03   0.04  -0.05     0.02   0.05  -0.06    -0.08  -0.13  -0.08
  42   6    -0.05   0.04   0.05    -0.10   0.03   0.05    -0.02   0.02   0.16
  43   6    -0.05  -0.02  -0.13    -0.14   0.03  -0.02     0.07  -0.06   0.03
  44   6     0.00   0.35   0.12    -0.02  -0.13   0.02     0.01   0.03  -0.02
  45   6    -0.01  -0.33  -0.07     0.01   0.08   0.09     0.00  -0.00  -0.02
  46   1    -0.01   0.21   0.06    -0.02  -0.05  -0.02     0.01   0.04   0.01
  47   1     0.01  -0.20  -0.06     0.02   0.07   0.01    -0.01  -0.01  -0.00
  48   1    -0.02  -0.02  -0.07    -0.02   0.03   0.02     0.03   0.03   0.09
  49   1     0.02  -0.01   0.00     0.04  -0.03  -0.03     0.00  -0.04  -0.08
  50   1     0.01  -0.03   0.01     0.03  -0.06   0.03     0.01   0.00  -0.02
  51   1    -0.02  -0.07  -0.05    -0.01  -0.08   0.06     0.03   0.04   0.07
  52   1     0.01   0.04  -0.06     0.05  -0.01   0.05     0.01   0.07  -0.04
  53   1     0.01  -0.04   0.07     0.04   0.02  -0.04     0.01  -0.04   0.11
  54   1    -0.00  -0.01  -0.01    -0.01  -0.02  -0.04    -0.01   0.06  -0.07
  55   1     0.01  -0.00  -0.00     0.02  -0.01  -0.00    -0.02   0.00   0.01
  56   1    -0.00   0.01   0.00    -0.01   0.02   0.03    -0.01  -0.03   0.04
  57   1    -0.01   0.00  -0.00    -0.03   0.03  -0.02     0.01   0.03  -0.09
  58   1    -0.01  -0.00  -0.00    -0.03  -0.01  -0.04     0.01   0.05  -0.08
  59   1     0.00  -0.01  -0.00     0.01  -0.04   0.00     0.01  -0.01   0.05
  60   1     0.01   0.00   0.00     0.03   0.01   0.01    -0.00  -0.01   0.01
  61   1    -0.00   0.01   0.00    -0.00   0.06  -0.01     0.01   0.04  -0.08
  62   1     0.01   0.04  -0.07     0.04  -0.04   0.09    -0.03  -0.02   0.06
  63   1     0.01  -0.03   0.06     0.05   0.05  -0.06    -0.04   0.05  -0.00
  64   1    -0.01   0.07   0.05    -0.02   0.08  -0.01    -0.02  -0.02   0.09
  65   1     0.01   0.03  -0.01     0.02   0.05  -0.03    -0.03  -0.04  -0.00
  66   1     0.02   0.01  -0.01     0.03  -0.00  -0.03    -0.03  -0.05  -0.08
  67   1    -0.02   0.02   0.08    -0.03  -0.01   0.04    -0.01   0.04   0.08
  68   1     0.01   0.20   0.06     0.02  -0.06  -0.01    -0.00   0.03   0.00
  69   1    -0.02  -0.20  -0.06    -0.02   0.06   0.02     0.01   0.00   0.00
                     34                     35                     36
                        a                      a                      a 
 Frequencies --   377.3156               393.1149               394.0518
 Red. masses --     9.3808                11.2578                11.1367
 Frc consts  --     0.0000                 0.0000                 0.0000
 IR Inten    --     2.3196                 4.1566                 5.2155
 Raman Activ --     0.0000                 0.0000                 0.0000
 Depolar     --     0.0000                 0.0000                 0.0000
 Atom AN      X      Y      Z        X      Y      Z        X      Y      Z
   1   7    -0.04   0.00   0.00    -0.03  -0.03  -0.03     0.01  -0.05  -0.05
   2   6    -0.03  -0.00  -0.00    -0.03   0.06   0.06     0.01   0.11   0.12
   3   6    -0.02  -0.00  -0.00    -0.02   0.03   0.02     0.01   0.05   0.04
   4   6    -0.00   0.15   0.05    -0.03   0.01   0.00    -0.06  -0.09  -0.05
   5   6     0.00  -0.19  -0.05    -0.02  -0.06  -0.07    -0.05   0.06  -0.11
   6   6     0.02  -0.00   0.00     0.02   0.10  -0.04    -0.00   0.20  -0.08
   7   6     0.03  -0.00  -0.00     0.03   0.07   0.14    -0.01   0.14   0.28
   8   6     0.04  -0.04  -0.06     0.00   0.12   0.06     0.09  -0.01   0.19
   9   6     0.01  -0.04   0.07     0.04   0.14  -0.06    -0.02  -0.15   0.02
  10   6    -0.01  -0.04   0.03    -0.01   0.18  -0.11    -0.07  -0.20  -0.08
  11   6    -0.02  -0.03  -0.03    -0.00   0.21  -0.02    -0.01  -0.03   0.22
  12   6     0.04   0.01   0.01    -0.05   0.12  -0.11     0.05  -0.09  -0.07
  13   6     0.04  -0.03  -0.07    -0.00   0.05  -0.09     0.06  -0.09  -0.10
  14   6    -0.00   0.00   0.00    -0.06  -0.05  -0.09     0.03  -0.10  -0.18
  15   6     0.01  -0.00  -0.00    -0.03   0.01   0.03     0.01   0.03   0.06
  16   6    -0.05  -0.17   0.35     0.02  -0.03   0.08    -0.02   0.07   0.06
  17   6    -0.03   0.17  -0.30     0.04   0.04  -0.04    -0.01   0.08   0.04
  18   6    -0.05  -0.00   0.00     0.07   0.04  -0.01    -0.03   0.08  -0.02
  19   6    -0.03  -0.00  -0.00     0.08  -0.06  -0.03    -0.04  -0.12  -0.06
  20   7    -0.04   0.01  -0.01     0.10  -0.07  -0.02    -0.03  -0.15  -0.04
  21   6    -0.02   0.01  -0.00     0.07  -0.05  -0.03    -0.04  -0.05  -0.02
  22   6     0.01   0.04   0.01    -0.01  -0.15  -0.09     0.03   0.11   0.03
  23   6     0.00   0.04   0.02     0.01  -0.19  -0.07    -0.06   0.11   0.11
  24   6    -0.01   0.02   0.01     0.03  -0.15  -0.09    -0.09   0.13   0.02
  25   6     0.01  -0.01  -0.01    -0.05  -0.03  -0.01    -0.06   0.06   0.03
  26   6     0.03  -0.01   0.00    -0.13  -0.03   0.01     0.04   0.04   0.07
  27   6     0.04   0.01   0.00    -0.12   0.01  -0.03     0.06   0.10  -0.02
  28   6     0.04  -0.00  -0.00    -0.12   0.07   0.00     0.07   0.06  -0.04
  29   6     0.04   0.02   0.00    -0.11   0.04   0.05     0.09  -0.00   0.05
  30   6     0.01   0.01   0.01     0.02   0.07   0.03     0.07   0.01  -0.00
  31   6    -0.01  -0.02  -0.01     0.08   0.18   0.07     0.02  -0.07  -0.08
  32   6     0.01  -0.04  -0.02     0.04   0.19   0.12     0.02  -0.12  -0.00
  33   6     0.02  -0.04  -0.01    -0.05   0.17   0.07    -0.00  -0.08  -0.07
  34   6    -0.02  -0.01   0.00     0.07  -0.01  -0.01    -0.04  -0.07  -0.04
  35   8    -0.03  -0.01   0.01     0.08  -0.10  -0.03    -0.06  -0.15  -0.05
  36   6    -0.03  -0.17   0.31     0.04   0.05   0.05    -0.02   0.08  -0.01
  37   6    -0.04   0.17  -0.35     0.04   0.07   0.00    -0.00   0.02   0.10
  38   6     0.04   0.03   0.07    -0.05  -0.11  -0.02    -0.04  -0.02  -0.13
  39   6     0.04  -0.01  -0.01    -0.07  -0.14   0.01     0.01   0.03  -0.13
  40   6    -0.02   0.03   0.03     0.00  -0.15   0.20     0.01   0.13   0.13
  41   6    -0.01   0.05  -0.03     0.04  -0.27   0.01     0.05  -0.00  -0.13
  42   6     0.01   0.04  -0.08     0.03  -0.22   0.05    -0.01   0.00  -0.02
  43   6     0.04   0.04   0.06    -0.07  -0.08   0.12    -0.06   0.08   0.16
  44   6     0.01   0.19   0.05     0.03   0.09  -0.05     0.05   0.00  -0.12
  45   6    -0.01  -0.15  -0.05     0.03  -0.08  -0.04     0.06  -0.06  -0.03
  46   1     0.00   0.10   0.03    -0.02   0.00   0.01    -0.04  -0.07  -0.01
  47   1    -0.00  -0.10  -0.03    -0.02  -0.04  -0.03    -0.03   0.01  -0.05
  48   1     0.01  -0.02   0.05     0.01   0.04  -0.02    -0.00  -0.06   0.01
  49   1    -0.01  -0.01   0.02    -0.02   0.04  -0.04    -0.03  -0.07  -0.06
  50   1    -0.02  -0.00  -0.01     0.01   0.06   0.01    -0.01   0.03   0.12
  51   1     0.02   0.03   0.04    -0.02   0.03  -0.04     0.01  -0.03  -0.06
  52   1    -0.02  -0.10   0.18     0.01  -0.01   0.03    -0.01   0.02   0.01
  53   1    -0.00   0.10  -0.19     0.00   0.03  -0.02     0.00   0.02   0.01
  54   1    -0.00   0.01   0.01     0.00  -0.06  -0.01    -0.03   0.04   0.06
  55   1    -0.01   0.01   0.00     0.04  -0.04  -0.03    -0.03   0.04  -0.00
  56   1    -0.00  -0.01  -0.01     0.00   0.02   0.01    -0.03  -0.00   0.01
  57   1     0.01  -0.01   0.00    -0.04  -0.01   0.01     0.02  -0.01   0.03
  58   1     0.01   0.01   0.00    -0.04  -0.01   0.02     0.02  -0.02   0.03
  59   1    -0.00   0.01   0.01     0.02  -0.01  -0.00     0.01   0.02   0.01
  60   1    -0.01  -0.01  -0.00     0.04   0.05   0.02    -0.01  -0.02  -0.03
  61   1     0.00  -0.01  -0.01     0.02   0.07   0.05     0.01  -0.04   0.02
  62   1    -0.00  -0.10   0.19     0.01   0.01   0.02    -0.00   0.03  -0.02
  63   1    -0.02   0.10  -0.18     0.02   0.02  -0.01    -0.00   0.00   0.03
  64   1     0.02  -0.03  -0.04    -0.02  -0.04  -0.02     0.01   0.00  -0.07
  65   1    -0.02   0.00   0.01     0.02  -0.01   0.09    -0.00   0.07   0.09
  66   1    -0.01   0.01  -0.02     0.01  -0.09  -0.03     0.03  -0.02  -0.07
  67   1     0.01   0.02  -0.05     0.01  -0.07   0.02    -0.00  -0.01  -0.00
  68   1    -0.00   0.10   0.03     0.02   0.03  -0.02     0.03  -0.02  -0.05
  69   1    -0.00  -0.10  -0.03     0.02  -0.06  -0.01     0.03  -0.05  -0.01
                     37                     38                     39
                        a                      a                      a 
 Frequencies --   400.5086               407.5854               410.2775
 Red. masses --    10.1809                11.2238                10.9831
 Frc consts  --     0.0000                 0.0000                 0.0000
 IR Inten    --     1.3662                 3.4526                 3.0176
 Raman Activ --     0.0000                 0.0000                 0.0000
 Depolar     --     0.0000                 0.0000                 0.0000
 Atom AN      X      Y      Z        X      Y      Z        X      Y      Z
   1   7     0.00   0.05   0.02    -0.05  -0.01  -0.01    -0.01   0.02   0.01
   2   6    -0.00  -0.10  -0.04    -0.04   0.02   0.02    -0.01  -0.04  -0.02
   3   6    -0.00  -0.05  -0.02    -0.03   0.01   0.01    -0.01  -0.02  -0.01
   4   6     0.01   0.07   0.02     0.00  -0.03   0.01     0.00   0.03   0.01
   5   6     0.00  -0.01   0.01     0.01   0.02   0.01     0.00  -0.01   0.01
   6   6    -0.00  -0.15  -0.03     0.04   0.03  -0.01     0.01  -0.07  -0.02
   7   6    -0.00  -0.01  -0.08     0.04   0.01   0.04     0.01   0.04  -0.04
   8   6    -0.16   0.08  -0.03     0.10  -0.10   0.01    -0.11   0.07  -0.04
   9   6    -0.08   0.17   0.03     0.00  -0.18   0.09    -0.09   0.14   0.04
  10   6     0.01   0.07  -0.07    -0.02  -0.23   0.03    -0.03   0.05  -0.07
  11   6     0.02  -0.07   0.02    -0.00  -0.12   0.09    -0.02  -0.08   0.05
  12   6    -0.09  -0.09   0.12     0.11  -0.05   0.04    -0.08  -0.09   0.10
  13   6    -0.16  -0.08  -0.01     0.07  -0.05  -0.05    -0.11  -0.11  -0.04
  14   6    -0.00  -0.06  -0.12     0.01   0.00  -0.02    -0.00  -0.10  -0.09
[...]
  46   1     0.16  -0.08   0.28     0.05  -0.03   0.09    -0.18   0.08  -0.30
  47   1    -0.28  -0.12   0.46    -0.08  -0.04   0.14     0.29   0.12  -0.48
  48   1     0.00  -0.00  -0.00    -0.03   0.00   0.00     0.04  -0.00  -0.01
  49   1    -0.02   0.04  -0.01     0.00  -0.00   0.00     0.03  -0.05   0.01
  50   1     0.02   0.03  -0.01    -0.01  -0.02   0.01    -0.02  -0.03   0.02
  51   1    -0.03   0.00   0.01    -0.04   0.00   0.01     0.02  -0.00  -0.00
  52   1    -0.00   0.00   0.00    -0.26   0.41   0.23    -0.08   0.12   0.07
  53   1     0.00   0.01   0.00     0.38   0.56   0.31     0.11   0.16   0.09
  54   1    -0.00  -0.00  -0.00     0.01   0.00   0.00     0.00   0.00   0.00
  55   1     0.00  -0.00  -0.00    -0.00   0.00   0.00     0.00  -0.00  -0.00
  56   1     0.00  -0.00   0.00    -0.00   0.00   0.00     0.00  -0.00  -0.00
  57   1    -0.00  -0.00  -0.00     0.00   0.00   0.00    -0.00  -0.00  -0.00
  58   1     0.00  -0.00  -0.00     0.00  -0.00  -0.00     0.00  -0.00  -0.00
  59   1    -0.00  -0.00  -0.00    -0.00  -0.00  -0.00    -0.01  -0.00  -0.00
  60   1     0.00  -0.00  -0.00     0.00  -0.01  -0.00     0.00  -0.02  -0.01
  61   1     0.00  -0.00  -0.00     0.00  -0.00  -0.00     0.01  -0.01  -0.00
  62   1    -0.00   0.00   0.00    -0.03   0.04   0.02    -0.01   0.02   0.01
  63   1    -0.00  -0.01  -0.00    -0.02  -0.03  -0.02    -0.01  -0.02  -0.01
  64   1     0.04   0.00   0.01    -0.03  -0.00  -0.00     0.02   0.00   0.00
  65   1    -0.03   0.04  -0.02    -0.00   0.00  -0.00    -0.02   0.03  -0.02
  66   1     0.03   0.05  -0.01    -0.00  -0.00   0.00     0.03   0.05  -0.01
  67   1    -0.01  -0.00  -0.00    -0.01  -0.00  -0.00     0.04   0.00   0.01
  68   1     0.30  -0.14   0.51    -0.08   0.04  -0.13     0.25  -0.12   0.44
  69   1    -0.19  -0.08   0.30     0.05   0.02  -0.08    -0.16  -0.07   0.27
                    193                    194                    195
                        a                      a                      a 
 Frequencies --  3092.7986              3097.8251              3098.3953
 Red. masses --     1.8945                 1.8365                 1.8391
 Frc consts  --     0.0000                 0.0000                 0.0000
 IR Inten    --   131.3483                37.1020               181.3855
 Raman Activ --     0.0000                 0.0000                 0.0000
 Depolar     --     0.0000                 0.0000                 0.0000
 Atom AN      X      Y      Z        X      Y      Z        X      Y      Z
   1   7     0.00  -0.00  -0.00    -0.00  -0.00  -0.00     0.00  -0.00  -0.00
   2   6    -0.00   0.00  -0.00    -0.00  -0.00   0.00    -0.00  -0.00   0.00
   3   6    -0.00  -0.00  -0.00     0.00   0.00  -0.00    -0.00   0.00  -0.00
   4   6    -0.00   0.00  -0.00     0.00  -0.00   0.00    -0.00   0.00  -0.00
   5   6     0.00   0.00  -0.00    -0.01  -0.00   0.01     0.01   0.00  -0.01
   6   6     0.00  -0.00   0.00    -0.00   0.00  -0.00     0.00   0.00  -0.00
   7   6    -0.00   0.00  -0.00     0.00   0.00  -0.00    -0.00   0.00  -0.00
   8   6     0.00   0.00  -0.00     0.00   0.00  -0.00    -0.00  -0.00   0.00
   9   6     0.00  -0.00  -0.00     0.19  -0.02  -0.03    -0.07   0.01   0.01
  10   6     0.00  -0.00   0.00     0.03  -0.05   0.01    -0.01   0.02  -0.00
  11   6    -0.00  -0.00   0.00     0.01   0.02  -0.01    -0.01  -0.01   0.01
  12   6    -0.00   0.00   0.00     0.15  -0.01  -0.03    -0.07   0.00   0.01
  13   6    -0.00   0.00  -0.00     0.00  -0.00   0.00    -0.00   0.00  -0.00
  14   6     0.00   0.00  -0.00     0.00  -0.00   0.00    -0.00   0.00   0.00
  15   6    -0.00  -0.00  -0.00    -0.00  -0.00   0.00     0.00  -0.00   0.00
  16   6    -0.00   0.00   0.00    -0.01   0.01   0.01     0.00  -0.00  -0.00
  17   6     0.00   0.00   0.00     0.00   0.00   0.00    -0.00  -0.00  -0.00
  18   6    -0.00  -0.00  -0.00     0.00  -0.00  -0.00    -0.00  -0.00  -0.00
  19   6     0.00   0.00   0.00    -0.00   0.00   0.00     0.00   0.00   0.00
  20   7    -0.00  -0.00  -0.00    -0.00  -0.00  -0.00     0.00   0.00   0.00
  21   6     0.00   0.00   0.00     0.00   0.00   0.00    -0.00  -0.00  -0.00
  22   6     0.00  -0.00  -0.00     0.00  -0.00  -0.00     0.00  -0.00  -0.00
  23   6     0.01   0.01   0.00     0.00   0.00   0.00     0.00   0.00   0.00
  24   6    -0.00  -0.00  -0.00    -0.00   0.00   0.00    -0.00   0.00   0.00
  25   6     0.01  -0.01  -0.00     0.00  -0.00  -0.00    -0.00   0.00   0.00
  26   6     0.02   0.01   0.00     0.00   0.00   0.00     0.00   0.00   0.00
  27   6    -0.00   0.00   0.00    -0.00   0.00   0.00    -0.00  -0.00   0.00
  28   6    -0.00   0.00   0.00     0.00   0.00   0.00     0.00   0.00   0.00
  29   6    -0.05   0.02   0.01    -0.00   0.00   0.00    -0.00   0.00   0.00
  30   6     0.08   0.05   0.02     0.00   0.00   0.00    -0.00  -0.00  -0.00
  31   6    -0.01   0.20   0.10    -0.00   0.00   0.00    -0.00   0.00   0.00
  32   6    -0.13   0.05   0.03     0.00  -0.00  -0.00    -0.00   0.00   0.00
  33   6    -0.00  -0.00  -0.00    -0.00  -0.00  -0.00     0.00  -0.00  -0.00
  34   6    -0.00   0.00   0.00     0.00  -0.00  -0.00    -0.00   0.00   0.00
  35   8     0.00  -0.00  -0.00    -0.00   0.00   0.00     0.00  -0.00  -0.00
  36   6    -0.00   0.00   0.00    -0.00   0.00   0.00     0.00  -0.00  -0.00
  37   6    -0.00  -0.00  -0.00     0.00   0.00   0.00     0.00   0.01   0.00
  38   6    -0.00  -0.00   0.00    -0.00  -0.00   0.00    -0.00  -0.00   0.00
  39   6    -0.00  -0.00  -0.00    -0.05  -0.00  -0.01    -0.13  -0.00  -0.02
  40   6    -0.00   0.00  -0.00    -0.00   0.00  -0.00    -0.00   0.01  -0.00
  41   6     0.00   0.00  -0.00    -0.02  -0.03   0.01    -0.04  -0.06   0.02
  42   6     0.00   0.00   0.00    -0.08  -0.00  -0.01    -0.20  -0.01  -0.03
  43   6     0.00  -0.00   0.00    -0.00   0.00  -0.00    -0.00   0.00  -0.00
  44   6     0.00  -0.00   0.00     0.00  -0.00   0.00     0.01  -0.00   0.02
  45   6    -0.00  -0.00   0.00     0.00   0.00  -0.00    -0.00  -0.00   0.00
  46   1     0.00  -0.00   0.01    -0.01   0.00  -0.01     0.01  -0.00   0.01
  47   1    -0.01  -0.00   0.01     0.03   0.01  -0.05    -0.02  -0.01   0.04
  48   1    -0.01   0.00   0.00    -0.66   0.05   0.09     0.25  -0.02  -0.03
  49   1    -0.00   0.00  -0.00    -0.10   0.17  -0.05     0.03  -0.06   0.02
  50   1     0.00   0.00  -0.00    -0.04  -0.07   0.04     0.03   0.04  -0.02
  51   1     0.01  -0.00  -0.00    -0.53   0.03   0.09     0.25  -0.02  -0.04
  52   1     0.00  -0.01  -0.00     0.02  -0.03  -0.02    -0.01   0.02   0.01
  53   1    -0.01  -0.01  -0.00    -0.00  -0.01  -0.00     0.00   0.00   0.00
  54   1    -0.05  -0.03  -0.01    -0.00  -0.00  -0.00    -0.01  -0.01  -0.00
  55   1    -0.00   0.01   0.01     0.00  -0.00  -0.00     0.00  -0.01  -0.00
  56   1    -0.04   0.02   0.01    -0.00   0.00   0.00     0.00  -0.00  -0.00
  57   1    -0.06  -0.03  -0.01    -0.00  -0.00  -0.00    -0.00  -0.00  -0.00
  58   1     0.19  -0.08  -0.04     0.00  -0.00  -0.00     0.00  -0.00  -0.00
  59   1    -0.27  -0.15  -0.07    -0.00  -0.00  -0.00     0.00   0.00   0.00
  60   1     0.03  -0.66  -0.32     0.00  -0.00  -0.00     0.00  -0.00  -0.00
  61   1     0.42  -0.19  -0.10    -0.00   0.00   0.00     0.00  -0.00  -0.00
  62   1     0.00  -0.00  -0.00     0.00  -0.00  -0.00    -0.01   0.01   0.00
  63   1     0.00   0.00   0.00    -0.00  -0.01  -0.00    -0.02  -0.03  -0.01
  64   1     0.01   0.00   0.00     0.18   0.01   0.03     0.45   0.02   0.07
  65   1     0.00  -0.00   0.00     0.00  -0.01   0.00     0.01  -0.01   0.01
  66   1    -0.00  -0.00   0.00     0.06   0.09  -0.03     0.13   0.21  -0.06
  67   1    -0.01  -0.00  -0.00     0.30   0.02   0.04     0.71   0.04   0.10
  68   1    -0.01   0.00  -0.01    -0.00   0.00  -0.01    -0.03   0.02  -0.06
  69   1     0.00   0.00  -0.01    -0.00  -0.00   0.00     0.01   0.00  -0.01
                    196                    197                    198
                        a                      a                      a 
 Frequencies --  3099.5505              3100.9830              3102.0301
 Red. masses --     1.8663                 1.8787                 1.8782
 Frc consts  --     0.0000                 0.0000                 0.0000
 IR Inten    --    34.1374                97.4460                12.7648
 Raman Activ --     0.0000                 0.0000                 0.0000
 Depolar     --     0.0000                 0.0000                 0.0000
 Atom AN      X      Y      Z        X      Y      Z        X      Y      Z
   1   7    -0.00   0.00  -0.00     0.00  -0.00   0.00    -0.00   0.00  -0.00
   2   6     0.00   0.00   0.00    -0.00   0.00  -0.00     0.00  -0.00  -0.00
   3   6    -0.00  -0.00   0.00    -0.00   0.00   0.00     0.00   0.00   0.00
   4   6     0.00  -0.00   0.00    -0.00   0.00  -0.00     0.00  -0.00   0.00
   5   6    -0.00  -0.00   0.00     0.00   0.00  -0.01    -0.00  -0.00   0.01
   6   6     0.00  -0.00   0.00     0.00  -0.00   0.00    -0.00  -0.00   0.00
   7   6     0.00  -0.00   0.00    -0.00  -0.00   0.00     0.00  -0.00   0.00
   8   6    -0.00  -0.00   0.00    -0.00  -0.00   0.00     0.00   0.00  -0.00
   9   6    -0.00   0.00   0.00    -0.13   0.01   0.02     0.06  -0.00  -0.01
  10   6    -0.00   0.00  -0.00    -0.05   0.08  -0.02     0.02  -0.04   0.01
  11   6     0.00   0.00  -0.00     0.06   0.08  -0.04    -0.02  -0.03   0.02
  12   6     0.01  -0.00  -0.00     0.17  -0.01  -0.03    -0.07   0.00   0.01
  13   6     0.00  -0.00   0.00     0.00  -0.00   0.00    -0.00   0.00  -0.00
  14   6     0.00  -0.00   0.00     0.00  -0.00   0.00    -0.00  -0.00   0.00
  15   6    -0.00   0.00   0.00    -0.00  -0.00   0.00     0.00  -0.00   0.00
  16   6     0.00  -0.00  -0.00    -0.00   0.01   0.00     0.00  -0.01  -0.00
  17   6    -0.00  -0.00  -0.00     0.00   0.00   0.00    -0.00  -0.00  -0.00
  18   6     0.00  -0.00  -0.00     0.00  -0.00  -0.00     0.00  -0.00  -0.00
  19   6    -0.00   0.00   0.00    -0.00   0.00   0.00     0.00  -0.00  -0.00
  20   7    -0.00  -0.00  -0.00     0.00   0.00  -0.00    -0.00  -0.00  -0.00
  21   6     0.00   0.00   0.00    -0.00  -0.00  -0.00     0.00   0.00   0.00
  22   6     0.01  -0.00  -0.00    -0.00   0.00   0.00    -0.00  -0.00  -0.00
  23   6     0.21   0.10   0.05    -0.00  -0.00  -0.00    -0.00  -0.00  -0.00
  24   6    -0.01   0.09   0.04     0.00  -0.00  -0.00    -0.00  -0.00  -0.00
  25   6    -0.01   0.00   0.00     0.00  -0.00  -0.00     0.01  -0.00  -0.00
  26   6     0.08   0.04   0.02    -0.00  -0.00  -0.00     0.03   0.01   0.01
  27   6    -0.00   0.00   0.00     0.00  -0.00  -0.00     0.00   0.00   0.00
  28   6     0.00   0.00   0.00    -0.00   0.00   0.00    -0.00   0.00   0.00
  29   6    -0.04   0.02   0.01    -0.00   0.00   0.00    -0.01   0.01   0.00
  30   6    -0.02  -0.01  -0.01     0.00   0.00   0.00    -0.01  -0.00  -0.00
  31   6     0.00  -0.02  -0.01    -0.00   0.00   0.00     0.00  -0.01  -0.00
  32   6     0.01  -0.00  -0.00    -0.00   0.00   0.00     0.00  -0.00  -0.00
  33   6     0.00  -0.00  -0.00    -0.00  -0.00  -0.00     0.00  -0.00  -0.00
  34   6     0.00   0.00   0.00    -0.00   0.00   0.00     0.00  -0.00  -0.00
  35   8    -0.00  -0.00  -0.00     0.00  -0.00  -0.00    -0.00   0.00  -0.00
  36   6     0.00  -0.00  -0.00    -0.00   0.00   0.00     0.01  -0.02  -0.01
  37   6    -0.00  -0.00  -0.00     0.00   0.00   0.00     0.00   0.00   0.00
  38   6     0.00   0.00  -0.00    -0.00  -0.00   0.00    -0.00  -0.00   0.00
  39   6     0.01   0.00   0.00    -0.09  -0.00  -0.01    -0.19  -0.01  -0.03
  40   6     0.00  -0.00   0.00    -0.02   0.04  -0.02    -0.05   0.08  -0.04
  41   6    -0.00   0.00  -0.00     0.02   0.03  -0.01     0.05   0.07  -0.02
  42   6     0.00   0.00   0.00     0.03   0.00   0.00     0.10   0.01   0.01
  43   6    -0.00  -0.00   0.00     0.00  -0.00   0.00     0.00  -0.00   0.00
  44   6    -0.00   0.00  -0.00     0.00  -0.00   0.00    -0.00   0.00  -0.01
  45   6     0.00   0.00  -0.00    -0.00  -0.00   0.00     0.00   0.00  -0.00
  46   1    -0.00   0.00  -0.00     0.00  -0.00   0.01    -0.01   0.00  -0.01
  47   1     0.00   0.00  -0.00    -0.01  -0.01   0.02     0.01   0.01  -0.02
  48   1     0.01  -0.00  -0.00     0.44  -0.03  -0.06    -0.20   0.02   0.03
  49   1     0.00  -0.01   0.00     0.16  -0.26   0.07    -0.07   0.12  -0.03
  50   1    -0.01  -0.01   0.00    -0.17  -0.25   0.14     0.08   0.11  -0.06
  51   1    -0.03   0.00   0.00    -0.58   0.04   0.09     0.25  -0.02  -0.04
  52   1    -0.00   0.00   0.00     0.01  -0.02  -0.01    -0.02   0.03   0.01
  53   1     0.00   0.01   0.00    -0.00  -0.01  -0.00     0.01   0.02   0.01
  54   1    -0.72  -0.37  -0.17     0.02   0.01   0.00     0.01   0.01   0.00
  55   1     0.01  -0.29  -0.14    -0.00   0.01   0.00    -0.00   0.02   0.01
  56   1     0.03  -0.01  -0.01    -0.00   0.00   0.00    -0.03   0.01   0.01
  57   1    -0.28  -0.15  -0.07     0.01   0.00   0.00    -0.09  -0.05  -0.02
  58   1     0.12  -0.05  -0.03     0.00  -0.00  -0.00     0.05  -0.02  -0.01
  59   1     0.07   0.04   0.02    -0.00  -0.00  -0.00     0.02   0.01   0.01
  60   1    -0.00   0.06   0.03     0.00  -0.01  -0.00    -0.00   0.02   0.01
  61   1    -0.03   0.01   0.01     0.00  -0.00  -0.00    -0.01   0.01   0.00
  62   1    -0.01   0.01   0.01     0.01  -0.01  -0.01    -0.04   0.06   0.03
  63   1     0.00   0.01   0.00    -0.01  -0.01  -0.00    -0.01  -0.02  -0.01
  64   1    -0.02  -0.00  -0.00     0.32   0.01   0.05     0.65   0.02   0.10
  65   1    -0.00   0.00  -0.00     0.08  -0.12   0.06     0.17  -0.26   0.14
  66   1    -0.00  -0.00   0.00    -0.06  -0.09   0.02    -0.14  -0.22   0.06
  67   1    -0.00  -0.00  -0.00    -0.12  -0.01  -0.02    -0.34  -0.02  -0.05
  68   1     0.00  -0.00   0.00    -0.00   0.00  -0.01     0.01  -0.01   0.02
  69   1    -0.00  -0.00   0.00     0.00   0.00  -0.01    -0.01  -0.00   0.01
                    199                    200                    201
                        a                      a                      a 
 Frequencies --  3102.2838              3105.9208              3111.8346
 Red. masses --     1.8780                 1.8589                 1.8269
 Frc consts  --     0.0000                 0.0000                 0.0000
 IR Inten    --    26.9904                25.1437               255.5847
 Raman Activ --     0.0000                 0.0000                 0.0000
 Depolar     --     0.0000                 0.0000                 0.0000
 Atom AN      X      Y      Z        X      Y      Z        X      Y      Z
   1   7     0.00  -0.00   0.00    -0.00   0.00  -0.00     0.00  -0.00   0.00
   2   6    -0.00   0.00  -0.00     0.00  -0.00   0.00    -0.00   0.00  -0.00
   3   6     0.00  -0.00  -0.00    -0.00   0.00  -0.00     0.00  -0.00   0.00
   4   6    -0.00   0.00  -0.00     0.00  -0.00   0.00    -0.00   0.00  -0.00
   5   6     0.00   0.00  -0.00    -0.00  -0.00   0.00     0.00   0.00  -0.00
   6   6     0.00   0.00  -0.00    -0.00  -0.00  -0.00    -0.00   0.00  -0.00
   7   6    -0.00   0.00  -0.00     0.00  -0.00   0.00    -0.00   0.00   0.00
   8   6    -0.00  -0.00   0.00     0.00   0.00  -0.00    -0.00   0.00   0.00
   9   6    -0.01   0.00   0.00     0.01  -0.00  -0.00    -0.00   0.00   0.00
  10   6    -0.00   0.01  -0.00     0.00  -0.00   0.00    -0.00   0.00  -0.00
  11   6     0.00   0.00  -0.00    -0.00  -0.00   0.00     0.00   0.00  -0.00
  12   6     0.01  -0.00  -0.00    -0.01   0.00   0.00     0.00  -0.00  -0.00
  13   6     0.00  -0.00   0.00    -0.00   0.00   0.00     0.00   0.00  -0.00
  14   6     0.00   0.00  -0.00    -0.00   0.00  -0.00     0.00  -0.00   0.00
  15   6    -0.00   0.00  -0.00     0.00  -0.00  -0.00    -0.00   0.00   0.00
  16   6    -0.00   0.00   0.00     0.00  -0.00  -0.00    -0.00   0.00   0.00
  17   6     0.00   0.00   0.00    -0.00  -0.01  -0.00     0.00   0.00   0.00
  18   6    -0.00   0.00   0.00    -0.01   0.00   0.00     0.00  -0.00  -0.00
  19   6    -0.00   0.00   0.00    -0.00   0.00   0.00    -0.00   0.00   0.00
  20   7     0.00  -0.00  -0.00     0.00  -0.00  -0.00     0.00  -0.00  -0.00
  21   6     0.00   0.00   0.00     0.00  -0.00  -0.00    -0.00   0.00   0.00
  22   6    -0.00  -0.00  -0.00     0.00  -0.00  -0.00    -0.00  -0.00  -0.00
  23   6    -0.07  -0.04  -0.02     0.01   0.00   0.00    -0.01  -0.01  -0.00
  24   6     0.00  -0.06  -0.03    -0.00   0.00   0.00    -0.00  -0.02  -0.01
  25   6     0.06  -0.03  -0.02    -0.00   0.00   0.00     0.03  -0.01  -0.01
  26   6     0.17   0.09   0.04    -0.00  -0.00  -0.00     0.13   0.07   0.03
  27   6     0.00   0.01   0.00    -0.00   0.00   0.00     0.00   0.00   0.00
  28   6    -0.00   0.00   0.00     0.00  -0.00  -0.00     0.00  -0.01  -0.00
  29   6    -0.13   0.06   0.03     0.00  -0.00  -0.00     0.19  -0.08  -0.04
  30   6    -0.05  -0.03  -0.01     0.00   0.00   0.00     0.05   0.03   0.01
  31   6     0.00  -0.03  -0.01    -0.00  -0.00  -0.00    -0.00   0.02   0.01
  32   6     0.01  -0.00  -0.00     0.00  -0.00  -0.00    -0.01   0.00   0.00
  33   6     0.00  -0.00  -0.00     0.00  -0.00   0.00    -0.00   0.00   0.00
  34   6    -0.00   0.00   0.00    -0.00  -0.00  -0.00    -0.00  -0.00  -0.00
  35   8     0.00  -0.00  -0.00     0.00   0.00   0.00     0.00   0.00   0.00
  36   6    -0.00   0.01   0.00    -0.14   0.20   0.11     0.00  -0.00  -0.00
  37   6     0.00   0.00   0.00     0.04   0.06   0.03    -0.00  -0.00  -0.00
  38   6     0.00   0.00  -0.00    -0.00  -0.00   0.00     0.00  -0.00   0.00
  39   6     0.02   0.00   0.00    -0.01  -0.00  -0.00     0.00   0.00   0.00
  40   6     0.01  -0.01   0.01    -0.00   0.01  -0.00     0.00  -0.00   0.00
  41   6    -0.01  -0.01   0.00     0.00   0.00  -0.00    -0.00  -0.00   0.00
  42   6    -0.01  -0.00  -0.00     0.01   0.00   0.00    -0.00  -0.00  -0.00
  43   6    -0.00   0.00  -0.00     0.00  -0.00   0.00    -0.00   0.00  -0.00
  44   6     0.00  -0.00   0.00    -0.00   0.00  -0.00     0.00  -0.00   0.00
  45   6    -0.00  -0.00   0.00     0.00   0.00  -0.00    -0.00  -0.00   0.00
  46   1     0.00  -0.00   0.00    -0.00   0.00  -0.00     0.00  -0.00   0.00
  47   1    -0.00  -0.00   0.00     0.00   0.00  -0.00    -0.00  -0.00   0.00
  48   1     0.03  -0.00  -0.00    -0.02   0.00   0.00     0.01  -0.00  -0.00
  49   1     0.01  -0.02   0.00    -0.01   0.01  -0.00     0.00  -0.00   0.00
  50   1    -0.01  -0.02   0.01     0.01   0.01  -0.01    -0.00  -0.00   0.00
  51   1    -0.03   0.00   0.01     0.03  -0.00  -0.01    -0.01   0.00   0.00
  52   1     0.00  -0.00  -0.00    -0.01   0.02   0.01     0.00  -0.00  -0.00
  53   1    -0.00  -0.00  -0.00     0.02   0.03   0.02    -0.00  -0.00  -0.00
  54   1     0.24   0.13   0.06    -0.02  -0.01  -0.00     0.04   0.02   0.01
  55   1    -0.00   0.19   0.09     0.00  -0.01  -0.00    -0.00   0.05   0.03
  56   1    -0.20   0.10   0.05     0.00  -0.00  -0.00    -0.09   0.04   0.02
  57   1    -0.58  -0.30  -0.14     0.00   0.00   0.00    -0.47  -0.25  -0.12
  58   1     0.44  -0.19  -0.10    -0.01   0.00   0.00    -0.68   0.30   0.16
  59   1     0.15   0.09   0.04    -0.00  -0.00  -0.00    -0.14  -0.08  -0.04
  60   1    -0.00   0.09   0.04    -0.00   0.00   0.00     0.00  -0.07  -0.03
  61   1    -0.03   0.01   0.01    -0.00   0.00   0.00     0.03  -0.01  -0.01
  62   1     0.01  -0.02  -0.01     0.47  -0.70  -0.38    -0.00   0.00   0.00
  63   1    -0.00  -0.00  -0.00    -0.12  -0.18  -0.10     0.00   0.00   0.00
  64   1    -0.09  -0.00  -0.01     0.04   0.00   0.01    -0.01  -0.00  -0.00
  65   1    -0.02   0.04  -0.02     0.01  -0.02   0.01    -0.00   0.00  -0.00
  66   1     0.02   0.03  -0.01    -0.01  -0.01   0.00     0.00   0.00  -0.00
  67   1     0.05   0.00   0.01    -0.02  -0.00  -0.00     0.01   0.00   0.00
  68   1    -0.00   0.00  -0.00     0.00  -0.00   0.00    -0.00   0.00  -0.00
  69   1     0.00   0.00  -0.00    -0.00  -0.00   0.00     0.00   0.00  -0.00
