$hessian                                                                        
        0.5863802530   0.1562046621   0.1087699281  -0.2795863122  -0.0165310158
       -0.1261364784  -0.0500818974  -0.0541944983   0.0311860710  -0.0269077860
        0.0134488359  -0.0322764200  -0.0004054290  -0.0007535759   0.0026618294
       -0.0002599983   0.0004930357  -0.0007286466   0.0001481056   0.0003666313
       -0.0000041169   0.0001071514  -0.0001887179   0.0002891974   0.0001755495
        0.0000385994  -0.0002430947  -0.0001245375   0.0002142093  -0.0000575302
       -0.0000280375  -0.0002687829   0.0002824276  -0.0003681383   0.0000799495
        0.0000790293  -0.0005107228  -0.0001007193   0.0002447323   0.0002867883
       -0.0000089921   0.0001087484  -0.0001225922  -0.0001699637  -0.0000538875
       -0.0002238920   0.0000850220   0.0000114906   0.0004722559   0.0002417063
        0.0000285094   0.0001319411   0.0000712466   0.0000255538  -0.0001266690
        0.0000810116   0.0000093295   0.0000490274   0.0000207018   0.0000051064
       -0.0000181288  -0.0000069931   0.0000011682   0.0000143946  -0.0000178835
       -0.0000027646  -0.0000217915   0.0000210833   0.0000121112   0.0000168486
       -0.0000264070  -0.0000128051  -0.0000315145   0.0000193041   0.0000129438
        0.0000231610   0.0000058115   0.0000120538  -0.0000035904  -0.0000027751
       -0.0000041838   0.0000054090  -0.0000015846   0.0000032406  -0.0000067625
       -0.0000012292  -0.0000012883   0.0000006043  -0.0000008283   0.0000027801
       -0.0000028019   0.0000014653  -0.0000013751  -0.0000040420  -0.0000125704
       -0.0000176587   0.0000003852   0.0000019701   0.0000056054  -0.0000005888
       -0.0000021837  -0.0000110477  -0.0000001992   0.0000019393   0.0000035032
       -0.0000035530   0.0000013034  -0.0000050056  -0.0000003075  -0.0000023074
        0.0000020833  -0.0000013863   0.0000505932   0.0000093292  -0.0000868999
       -0.0000221383  -0.0000001651  -0.0000042982  -0.0000091588  -0.0000013591
        0.0000052260  -0.0000082045  -0.0000015636  -0.0000089246   0.0000103827
       -0.0000011519  -0.0000081191   0.0000152921  -0.0000012427  -0.0000022111
       -0.0000240778  -0.0000060767   0.0000098136  -0.0000061439   0.0000008719
        0.0001089862  -0.0000128218  -0.0000259464   0.0000452194  -0.0000822273
       -0.0000187876   0.0430745420   0.0124966549   0.0106736490  -0.1035924398
       -0.0037327987  -0.0304922973  -0.1490519846  -0.1118987405   0.0631101993
       -0.0085631568   0.0000625826  -0.0053419930  -0.0004887205  -0.0046029674
        0.0003001923  -0.0000023117  -0.0000267521  -0.0000882434   0.0000363241
        0.0000030108   0.0000220876  -0.0000254600  -0.0000300430  -0.0000457544
       -0.0000048103   0.0000071801   0.0000026446   0.0000251176   0.0000040477
       -0.0000611545  -0.0002415270  -0.0000790610   0.0000341322  -0.0000300438
        0.0000087996   0.0000322871  -0.0000008803   0.0000563706   0.0000371142
        0.0000025695   0.0000065165   0.0000028217   0.0000008165  -0.0000006582
        0.0000014882  -0.0000036762  -0.0000020755   0.0000009167  -0.0000044474
       -0.0000038788   0.0000017606  -0.0000016435  -0.0000014305   0.0000018839
       -0.0000009185  -0.0000017433  -0.0000012190  -0.0000024076  -0.0000015853
        0.0000007069  -0.0000032629  -0.0000010052   0.0000004287  -0.0000001465
       -0.0000001854   0.0000022769   0.0000013138   0.0000004797  -0.0000020924
        0.0000017220  -0.0000004866   0.0000029339  -0.0000010165   0.0000034557
        0.0000024947  -0.0000012141   0.0000034518  -0.0000000076  -0.0000025554
        0.0000019886  -0.0000011019  -0.0000066419   0.0000039811  -0.0000009417
       -0.0000025099   0.0000028894  -0.0000007586  -0.0000050624   0.0000059652
       -0.0000013291   0.0000021865  -0.0000020881  -0.0000005266  -0.0007693488
       -0.0049347106   0.0007474800  -0.0093683943   0.0136338802  -0.0230951266
        0.1562046621   0.3841545322  -0.2334618148  -0.0629843803  -0.0738739913
       -0.0074660462  -0.0189460608   0.0019155222  -0.0133504070   0.0144469569
       -0.0033306006   0.0066486997  -0.0013675411  -0.0014553560   0.0001471977
        0.0000761467  -0.0000941574  -0.0002938160  -0.0000585977  -0.0002628572
        0.0001051645  -0.0000619441   0.0000467388  -0.0000469481  -0.0000828347
        0.0000545396   0.0000499320   0.0001300242  -0.0000921672  -0.0000811600
        0.0000421528   0.0000946594  -0.0000859226   0.0003614278   0.0000889674
        0.0002866004  -0.0000710578  -0.0000799005  -0.0000587509  -0.0001117031
       -0.0000018004  -0.0000367326   0.0000815345   0.0000538085   0.0000212084
        0.0000902918   0.0000344906   0.0000235113  -0.0000731103   0.0000251218
       -0.0000261320  -0.0000299161  -0.0000063912  -0.0000051383   0.0000189551
        0.0000065049  -0.0000004107   0.0000065733   0.0000035192   0.0000010377
        0.0000010217   0.0000019397   0.0000020060  -0.0000066194  -0.0000138383
       -0.0000016758  -0.0000118403  -0.0000003771   0.0000041527   0.0000084837
       -0.0000022148  -0.0000023660  -0.0000086854   0.0000090504   0.0000014507
        0.0000050965   0.0000011401   0.0000037676  -0.0000026394  -0.0000013381
        0.0000014947   0.0000012172  -0.0000009161   0.0000007381  -0.0000049960
       -0.0000006289  -0.0000015745  -0.0000010066  -0.0000001547   0.0000028543
        0.0000003636   0.0000012481   0.0000010620  -0.0000011124  -0.0000025827
       -0.0000007984   0.0000000591   0.0000031321   0.0000024548   0.0000027788
       -0.0000013197  -0.0000063128   0.0000002456   0.0000034215   0.0000022388
       -0.0000015009   0.0000035888  -0.0000008663   0.0000012554  -0.0000024751
       -0.0000031989  -0.0000019070   0.0000027833   0.0000047291  -0.0000377799
        0.0000307107  -0.0000030926  -0.0000094101  -0.0000351381  -0.0000026264
        0.0000022113   0.0000013286  -0.0000023377  -0.0000170999  -0.0000008939
       -0.0000043158   0.0000062282   0.0000170089  -0.0000016472  -0.0000103860
       -0.0000079172  -0.0000069229   0.0000310370  -0.0000292477  -0.0000008164
       -0.0000325200  -0.0000159589   0.0000020362   0.0000453199   0.0000388732
        0.0000080220  -0.0217579634  -0.0296129798   0.0258028149   0.0423259487
       -0.1359195927   0.1350545520  -0.1117942969  -0.1489575106   0.0717504620
        0.0138488174   0.0018515744   0.0077285655  -0.0049495721   0.0016446367
        0.0045475300  -0.0000084393  -0.0001120305   0.0000800098   0.0000112722
       -0.0000129260   0.0000087080   0.0000011374  -0.0000164542  -0.0000084996
       -0.0000107645  -0.0000023719   0.0000080065   0.0000263523  -0.0000123991
       -0.0000583963  -0.0000836087  -0.0000026718   0.0000743867  -0.0000288925
        0.0000234507  -0.0000064170   0.0000215003   0.0000477036   0.0000330079
        0.0000059005   0.0000002538   0.0000056259  -0.0000000859  -0.0000017921
        0.0000031538  -0.0000014809   0.0000003520   0.0000029505  -0.0000021411
       -0.0000017717   0.0000019539  -0.0000012885  -0.0000018236   0.0000004393
       -0.0000010117  -0.0000021393   0.0000001254  -0.0000002979  -0.0000013647
        0.0000017901  -0.0000006568  -0.0000003255   0.0000003136   0.0000004681
        0.0000000013   0.0000010703   0.0000006762   0.0000000408   0.0000003108
        0.0000007485   0.0000001291   0.0000012645  -0.0000003942   0.0000022788
        0.0000006558  -0.0000004855   0.0000025326  -0.0000005725  -0.0000020865
        0.0000014945  -0.0000006557  -0.0000028372   0.0000038061   0.0000009609
        0.0000020179   0.0000018408  -0.0000003711  -0.0000036510   0.0000038681
       -0.0000013557   0.0000042793   0.0000016851   0.0000022574  -0.0047679848
        0.0018277555   0.0047012478  -0.0004605728   0.0019643425  -0.0021044231
        0.1087699281  -0.2334618148   0.4675693512  -0.0692299366   0.0227123504
       -0.1182915792  -0.0100044935  -0.0354498155   0.0375097287  -0.0308165605
        0.0051055485  -0.0346524910   0.0017099814   0.0010483512   0.0015116848
       -0.0002478795   0.0004953414  -0.0001126549   0.0002427856   0.0006890279
       -0.0002019310   0.0001795306  -0.0001990464   0.0003027184   0.0002324278
       -0.0000469709  -0.0002402899  -0.0002581550   0.0002902037   0.0000670899
       -0.0000870088  -0.0003431690   0.0003570767  -0.0007593118  -0.0000898775
       -0.0002745145  -0.0003700307  -0.0000154424   0.0002948357   0.0003457093
       -0.0000127251   0.0001545663  -0.0001763587  -0.0001884977  -0.0000709479
       -0.0002844544   0.0000320909  -0.0000084063   0.0004595055   0.0001732583
        0.0000624472   0.0001352696   0.0000629424   0.0000294074  -0.0001070729
        0.0000495691   0.0000063289   0.0000220627   0.0000103104   0.0000008378
       -0.0000119256  -0.0000090512  -0.0000013528   0.0000167524   0.0000058960
        0.0000009873   0.0000004551   0.0000131460   0.0000031438   0.0000039959
       -0.0000168079  -0.0000058286  -0.0000076016   0.0000076689   0.0000137514
        0.0000028577   0.0000026167   0.0000001535   0.0000031473   0.0000007364
       -0.0000029170   0.0000007988   0.0000003105  -0.0000008585   0.0000015321
        0.0000002916   0.0000013416   0.0000011010  -0.0000002295  -0.0000017144
       -0.0000002957  -0.0000001928  -0.0000019980  -0.0000037079  -0.0000083200
       -0.0000175854   0.0000029641  -0.0000037275   0.0000014287  -0.0000022122
        0.0000000720   0.0000012810   0.0000000819  -0.0000016882   0.0000002851
       -0.0000009037  -0.0000042849  -0.0000055072  -0.0000019033   0.0000036633
        0.0000067065  -0.0000054964   0.0000193666  -0.0000022512  -0.0000037318
       -0.0000334399   0.0000084061   0.0000064794   0.0000242670   0.0000007291
        0.0000001458  -0.0000037413   0.0000023195   0.0000133973   0.0000067618
        0.0000041964  -0.0000118998  -0.0000110896   0.0000010000   0.0000030164
       -0.0000083931   0.0000036392  -0.0000222605   0.0000274619   0.0000020897
        0.0001206632   0.0000146022  -0.0000253145  -0.0000269255  -0.0001049106
       -0.0000229279   0.0533232246   0.0463063361  -0.0239725189  -0.0879911986
        0.1054377934  -0.2314711450   0.0632519874   0.0715422939  -0.0804667304
       -0.0230441168  -0.0011839294  -0.0119972751   0.0005946986   0.0050120274
        0.0026278825   0.0000354584   0.0001935855  -0.0001673327   0.0000053851
        0.0000309465  -0.0000012118  -0.0000240372  -0.0000043214  -0.0000236055
        0.0000075611   0.0000075876  -0.0000032138  -0.0000261120   0.0000180844
        0.0000356910  -0.0001135679  -0.0000684509  -0.0000215435   0.0000039259
       -0.0000201783   0.0000292529  -0.0000227437  -0.0000158526  -0.0000208854
       -0.0000057884   0.0000038868  -0.0000058821  -0.0000000531   0.0000030147
       -0.0000031658  -0.0000001937  -0.0000006055  -0.0000030493  -0.0000003258
        0.0000000973  -0.0000012236  -0.0000001687   0.0000009817   0.0000005257
        0.0000009047   0.0000013412   0.0000001167  -0.0000007340   0.0000006000
       -0.0000015428  -0.0000009089  -0.0000002970  -0.0000001767  -0.0000007779
       -0.0000003863   0.0000002685  -0.0000006465   0.0000009431  -0.0000015006
       -0.0000001782  -0.0000009390   0.0000002841  -0.0000003667  -0.0000006515
        0.0000014474  -0.0000005911  -0.0000004941   0.0000011634   0.0000009822
       -0.0000009248   0.0000006823   0.0000003262  -0.0000012512  -0.0000015819
       -0.0000033378   0.0000003278   0.0000000243  -0.0000006095   0.0000023527
        0.0000009196  -0.0000022535  -0.0000041239  -0.0000028095   0.0001221573
        0.0045698082   0.0027806592  -0.0059423640   0.0073877783  -0.0112889850
       -0.2795863122  -0.0629843803  -0.0692299366   0.5811860896   0.1432836581
        0.1205814648  -0.1893203562  -0.0946486640   0.0246745277   0.0412497007
       -0.0200382440   0.0552948847   0.0019429705   0.0015606902  -0.0067679829
        0.0002437732  -0.0007767406   0.0003559220  -0.0001986028  -0.0007121201
        0.0001076620  -0.0001053108   0.0002859235  -0.0004726836  -0.0002487442
       -0.0000612790   0.0003580302   0.0002124169  -0.0002650141   0.0000881507
        0.0000026251   0.0004699908  -0.0003829355   0.0002153196   0.0000821228
       -0.0002416922   0.0004939894   0.0000783429  -0.0003801035  -0.0001201035
        0.0000551338  -0.0000578959   0.0000938077   0.0001698443   0.0000603036
        0.0002524037  -0.0000861542   0.0000370844  -0.0003599633  -0.0001880413
        0.0000365823  -0.0001183594  -0.0000831328  -0.0000252831   0.0001015769
       -0.0000843686  -0.0000162082  -0.0000685140  -0.0000070182  -0.0000058083
        0.0000352072  -0.0000019798  -0.0000053201  -0.0000233962   0.0000146934
        0.0000003948   0.0000227057  -0.0000305835  -0.0000213684  -0.0000514601
        0.0000705649   0.0000363706   0.0000736991  -0.0000551493  -0.0000295151
       -0.0000529337  -0.0000164913  -0.0000242148   0.0000076662   0.0000047373
        0.0000148232  -0.0000072857   0.0000017162  -0.0000078512   0.0000046358
        0.0000004819  -0.0000013135  -0.0000075324   0.0000002638   0.0000011769
        0.0000108482  -0.0000034942   0.0000014326   0.0000115421   0.0000301911
        0.0000380721  -0.0000043583  -0.0000033465  -0.0000155138   0.0000013226
       -0.0000007641   0.0000179168   0.0000004948  -0.0000008306  -0.0000005900
       -0.0000007842   0.0000022958   0.0000057367   0.0000034384  -0.0000019233
       -0.0000088628   0.0000003263  -0.0000903636  -0.0000139023   0.0001754671
        0.0000016623   0.0000023146   0.0000228596   0.0000436307   0.0000077854
       -0.0000213221  -0.0000073211  -0.0000023987   0.0000066360   0.0000032284
        0.0000017772   0.0000092439  -0.0000092914   0.0000029423   0.0000040278
        0.0000115582   0.0000028212  -0.0000198805   0.0000188361   0.0000030910
        0.0000066025   0.0000493015   0.0000314197  -0.0001340144   0.0000599373
        0.0000162303  -0.0500679261  -0.0250369059   0.0026859041  -0.0057948978
        0.0519338750  -0.0693322810  -0.0203956174  -0.0045371623  -0.0070935899
       -0.0601667710   0.0318486907  -0.0567189339  -0.0208050599  -0.0189630920
        0.0088726239   0.0000082939  -0.0000578091   0.0001607120  -0.0000501947
       -0.0000118413  -0.0000194557   0.0000340138   0.0000552709   0.0000469433
        0.0000153309   0.0000042218  -0.0000218091   0.0000093359  -0.0000114257
        0.0000420610   0.0001092628   0.0000490214   0.0001773604   0.0000147708
       -0.0000289110  -0.0000256530  -0.0000380994  -0.0000217664  -0.0000421855
       -0.0000144065   0.0000109281   0.0000042031  -0.0000037660   0.0000067610
       -0.0000009445   0.0000055524   0.0000082830   0.0000004127   0.0000110137
        0.0000045845  -0.0000030569   0.0000065755   0.0000018419  -0.0000038377
        0.0000000418   0.0000015361   0.0000027571   0.0000051924   0.0000012181
        0.0000007994   0.0000062379   0.0000004278  -0.0000027884  -0.0000013719
       -0.0000004901  -0.0000040985   0.0000002424  -0.0000030586   0.0000047643
       -0.0000042676   0.0000004607  -0.0000045497  -0.0000012010  -0.0000068983
       -0.0000051684   0.0000012412  -0.0000079768   0.0000009247   0.0000013158
       -0.0000030032   0.0000022049   0.0000078800  -0.0000027085   0.0000038139
        0.0000060644  -0.0000098117   0.0000033468   0.0000005635  -0.0000115700
        0.0000028681  -0.0000077564  -0.0000001655   0.0000033870  -0.0004135797
       -0.0003870340   0.0000699989   0.0015798235  -0.0009675998  -0.0028742705
       -0.0165310158  -0.0738739913   0.0227123504   0.1432836581   0.3817610908
       -0.2354301006  -0.1403319456  -0.1737470438   0.0707396384   0.0120729065
       -0.0300290231   0.0446550769  -0.0010367137   0.0021927858   0.0021362978
        0.0004396501  -0.0003606234   0.0015518485  -0.0002038081  -0.0001390617
       -0.0000887732  -0.0001055001   0.0000569319  -0.0002775731  -0.0001435774
        0.0000097779   0.0001779020   0.0000134914  -0.0002996921   0.0000232483
        0.0000527881   0.0001085173  -0.0002493940   0.0004050151  -0.0001850380
        0.0004951639   0.0005413854  -0.0002015140  -0.0005801125  -0.0002806634
        0.0000684887  -0.0000998902   0.0001659810   0.0002253689   0.0000996831
        0.0003634602  -0.0000577692  -0.0000832041  -0.0004946123  -0.0002774232
       -0.0000686011  -0.0001718742  -0.0001157021  -0.0000400692   0.0001665347
       -0.0001135287  -0.0000047679  -0.0000867132  -0.0000179109  -0.0000032142
        0.0000343127  -0.0000069925  -0.0000028870  -0.0000280422   0.0000113056
        0.0000011138   0.0000240914  -0.0000395632  -0.0000211664  -0.0000661772
        0.0000713004   0.0000386875   0.0000982599  -0.0000533987  -0.0000197642
       -0.0000774279  -0.0000162384  -0.0000398456   0.0000098973   0.0000040991
        0.0000198706  -0.0000119672   0.0000003730  -0.0000100884   0.0000062163
       -0.0000005005   0.0000009548  -0.0000100388  -0.0000007732  -0.0000037158
        0.0000175512  -0.0000050996   0.0000034792   0.0000103728   0.0000310880
        0.0000314062  -0.0000030547  -0.0000001036  -0.0000118755  -0.0000011289
        0.0000072304   0.0000148194   0.0000019245  -0.0000018658  -0.0000012530
       -0.0000011617   0.0000031291   0.0000058078   0.0000008731   0.0000014341
       -0.0000097919   0.0000009597  -0.0001045258  -0.0000156391   0.0001719889
        0.0000216167   0.0000064709   0.0000204501   0.0000423970   0.0000030982
       -0.0000236073   0.0000003183  -0.0000020390   0.0000007886  -0.0000027434
        0.0000015195   0.0000223202  -0.0000010347   0.0000066564  -0.0000009263
        0.0000238982   0.0000054463  -0.0000192009   0.0000088360   0.0000020169
       -0.0000729474   0.0000592400   0.0000429533  -0.0001152990   0.0001171817
        0.0000207809  -0.0240043718  -0.0144075115  -0.0027493285   0.0178228241
        0.0226298114  -0.0152870975  -0.0188865233  -0.0037419441  -0.0071627071
        0.0323863015  -0.1088065550   0.1122312740  -0.0046338846  -0.0033464719
        0.0014813293  -0.0000157692  -0.0001278056   0.0002060099  -0.0000428869
        0.0000177423   0.0000123937   0.0000222545   0.0000478299   0.0000295658
        0.0000193921  -0.0000010203  -0.0000000219   0.0000495423  -0.0000011016
        0.0000153351   0.0001101205   0.0001222983   0.0001753015   0.0000040328
       -0.0000061752  -0.0000437384   0.0000009992   0.0000317690   0.0000075328
       -0.0000105608   0.0000190317   0.0000012566  -0.0000039391   0.0000066926
        0.0000002355   0.0000073415   0.0000113131   0.0000023962   0.0000118136
        0.0000058047  -0.0000019084   0.0000031286   0.0000015794  -0.0000048623
        0.0000011416   0.0000000386   0.0000056473   0.0000060551   0.0000000320
        0.0000026689   0.0000062866   0.0000000839  -0.0000016945  -0.0000011497
       -0.0000009977  -0.0000017922   0.0000007826  -0.0000063159   0.0000038908
       -0.0000027026  -0.0000015749  -0.0000014232  -0.0000016118  -0.0000059108
       -0.0000043836   0.0000018721  -0.0000078356  -0.0000005959   0.0000022749
       -0.0000041628   0.0000031075   0.0000096411  -0.0000011973   0.0000035098
        0.0000106446  -0.0000112963   0.0000014065   0.0000012183  -0.0000152743
       -0.0000013003  -0.0000123992   0.0000075778  -0.0000008004  -0.0003193907
       -0.0001055224  -0.0005487574  -0.0006499516   0.0025218205   0.0058950254
       -0.1261364784  -0.0074660462  -0.1182915792   0.1205814648  -0.2354301006
        0.4833257817   0.0791567037   0.0989139433  -0.1161770989   0.0138876916
        0.0232853950  -0.0215851272  -0.0049657255   0.0039334226  -0.0002001937
        0.0007192315   0.0015674632  -0.0012084276   0.0002646339  -0.0001565942
       -0.0000164347  -0.0000338028   0.0001098171  -0.0000885656   0.0000326013
       -0.0001042950   0.0000566158  -0.0000808181   0.0000738498  -0.0001029337
       -0.0001368942   0.0002292929  -0.0000245659   0.0006494308  -0.0001223823
        0.0007411548  -0.0000840458  -0.0000261643  -0.0001144120   0.0000524860
       -0.0000264011  -0.0000495797   0.0000348562   0.0000343346   0.0000135969
        0.0001398548  -0.0000478710  -0.0000432731  -0.0002712465  -0.0000428573
        0.0000457615  -0.0000368581   0.0000228731   0.0000014097  -0.0000106243
        0.0000070865   0.0000022804   0.0000378051  -0.0000008593   0.0000026006
       -0.0000209432   0.0000162729   0.0000027098   0.0000153711   0.0000063244
        0.0000023284  -0.0000077539   0.0000214510   0.0000128030   0.0000609501
       -0.0000560333  -0.0000299870  -0.0000813864   0.0000419336   0.0000136089
        0.0000620390   0.0000120241   0.0000347536  -0.0000063700  -0.0000014659
       -0.0000172377   0.0000061696   0.0000004335   0.0000082453  -0.0000019596
        0.0000011940   0.0000006275   0.0000104742   0.0000011123   0.0000025673
       -0.0000172583   0.0000042921  -0.0000049179  -0.0000102495  -0.0000241893
       -0.0000240139   0.0000047189  -0.0000047200   0.0000088201  -0.0000003365
       -0.0000039269  -0.0000049051  -0.0000016501  -0.0000003201  -0.0000019167
        0.0000033101  -0.0000053495  -0.0000048177  -0.0000012268   0.0000020277
        0.0000110952  -0.0000126699   0.0000583714   0.0000030687  -0.0001489895
        0.0000356973  -0.0000072661  -0.0000317656  -0.0000637007  -0.0000039272
        0.0000139361   0.0000206825   0.0000035658  -0.0000003776  -0.0000120152
       -0.0000023173  -0.0000021681  -0.0000181212  -0.0000073252  -0.0000303856
       -0.0000021548  -0.0000077463   0.0000372262  -0.0000307267  -0.0000016595
       -0.0000537250  -0.0000522636  -0.0000053596   0.0001145204  -0.0000019066
        0.0000053204  -0.0005028217  -0.0041973291   0.0007205037  -0.0262457527
        0.0076557194  -0.0248629310   0.0101984293   0.0018523156   0.0044196433
       -0.0564559766   0.1123155921  -0.2099119805  -0.0077560017  -0.0077225116
        0.0044240432   0.0000379185   0.0000842794  -0.0000455090   0.0000047407
       -0.0000327685  -0.0000218725   0.0000192885   0.0000005340   0.0000331642
       -0.0000054374   0.0000070508  -0.0000014551  -0.0000546698   0.0000020012
        0.0000542913   0.0001851627   0.0000001834  -0.0001282302  -0.0000421334
        0.0000313886   0.0000146831  -0.0000185616  -0.0000282408  -0.0000014105
        0.0000044544  -0.0000037684  -0.0000038915   0.0000039690   0.0000002173
       -0.0000007233  -0.0000057096  -0.0000085181  -0.0000029581  -0.0000084498
       -0.0000028777   0.0000011322   0.0000002713  -0.0000014353   0.0000042294
       -0.0000004067   0.0000005829  -0.0000050967  -0.0000047417   0.0000005235
       -0.0000033946  -0.0000043866  -0.0000000125   0.0000010772   0.0000011336
        0.0000008308   0.0000002943  -0.0000014211   0.0000069136  -0.0000031109
        0.0000012287   0.0000013375  -0.0000014152   0.0000013511   0.0000034780
        0.0000031201  -0.0000019343   0.0000053427   0.0000010124  -0.0000007808
        0.0000022203  -0.0000021709  -0.0000045925  -0.0000002799  -0.0000027851
       -0.0000092234   0.0000091137   0.0000002975  -0.0000019361   0.0000182091
        0.0000044350   0.0000141084  -0.0000075787   0.0000072508   0.0002657786
       -0.0003956303   0.0005219449  -0.0033126636   0.0057042873  -0.0014853149
       -0.0500818974  -0.0189460608  -0.0100044935  -0.1893203562  -0.1403319456
        0.0791567037   0.5962422790   0.1624038487   0.1129028486  -0.1016838346
        0.0415698166  -0.0852686021   0.0046141854  -0.0155534244   0.0171592810
       -0.0026183870  -0.0003340551   0.0018557862   0.0001468521   0.0002609461
       -0.0000589239  -0.0000308746   0.0000684780   0.0000984584   0.0000746030
       -0.0000301203  -0.0000619388  -0.0001741759   0.0000553843   0.0002296243
        0.0002276789  -0.0013399062   0.0005925361   0.0003296281  -0.0016515952
        0.0023400241  -0.0020242804   0.0004033348   0.0013893825   0.0008298509
        0.0000241811   0.0001721990  -0.0006239603  -0.0004621836  -0.0001972865
       -0.0004737156   0.0001206418  -0.0001584816   0.0006996409   0.0000888725
       -0.0000123539   0.0002517646   0.0001569116  -0.0000072577  -0.0002227135
        0.0001675278   0.0000419841   0.0000874286   0.0000347901   0.0000159996
       -0.0000357980  -0.0000012756  -0.0000055457   0.0000358350  -0.0000091317
       -0.0000049424  -0.0000169671   0.0000417932   0.0000128264   0.0000250983
       -0.0000524169  -0.0000230956  -0.0000466545   0.0000323299  -0.0000025857
        0.0000416033   0.0000059744   0.0000264404  -0.0000071168  -0.0000008723
       -0.0000062928   0.0000057344   0.0000007280   0.0000034013  -0.0000043214
        0.0000004820  -0.0000031371   0.0000068105   0.0000011474   0.0000055101
       -0.0000101361   0.0000033871  -0.0000031096  -0.0000080564  -0.0000134007
       -0.0000060365   0.0000028693  -0.0000012072   0.0000007051   0.0000047220
       -0.0000034594  -0.0000035275  -0.0000005063   0.0000033322   0.0000015821
        0.0000001257   0.0000001375  -0.0000045012   0.0000029570  -0.0000013628
        0.0000027310  -0.0000019212   0.0000797314   0.0000184516  -0.0000973607
       -0.0000210472  -0.0000027353  -0.0000121152  -0.0000298882   0.0000065031
        0.0000220351  -0.0000038012  -0.0000026629   0.0000111979   0.0000067862
       -0.0000013105  -0.0000297119   0.0000169896  -0.0000055656   0.0000099221
       -0.0000342936  -0.0000204760  -0.0000217455   0.0000270195  -0.0000023771
        0.0002795472  -0.0000046906  -0.0000541407   0.0000209168  -0.0002566595
       -0.0000377135  -0.0047566588   0.0167322326  -0.0243326333  -0.0013131923
       -0.0088779209   0.0132240285  -0.0036836947  -0.0028112536  -0.0039199678
        0.0040973053   0.0037538317  -0.0020400537  -0.2470513992  -0.0332111816
       -0.1002839027  -0.0000678030   0.0001530858  -0.0001019914   0.0000309598
       -0.0000252655  -0.0000138506  -0.0000011925  -0.0000371516   0.0000037816
        0.0000233361  -0.0000830826   0.0000611485   0.0000304475   0.0000025307
       -0.0000405268  -0.0005797657   0.0000609185   0.0005396699   0.0000267743
       -0.0000068544   0.0001274077   0.0000559895   0.0000193553   0.0001110856
        0.0000188135  -0.0000208924   0.0000079658   0.0000035901  -0.0000108393
        0.0000038868  -0.0000032247  -0.0000079809   0.0000017948  -0.0000048700
       -0.0000025696   0.0000026871  -0.0000016802  -0.0000017235   0.0000014819
       -0.0000018730  -0.0000000414  -0.0000031884  -0.0000009150   0.0000003777
       -0.0000008901  -0.0000010726   0.0000005045  -0.0000002379   0.0000010127
        0.0000007756  -0.0000010241  -0.0000021031   0.0000055007   0.0000005166
        0.0000005221   0.0000025111  -0.0000014974   0.0000012298   0.0000017768
        0.0000000110   0.0000003748   0.0000030408   0.0000000567  -0.0000015788
        0.0000023718  -0.0000014960  -0.0000010869  -0.0000008783   0.0000025838
       -0.0000005198   0.0000051509   0.0000013149   0.0000028889   0.0000025097
        0.0000017940   0.0000055220   0.0000123776   0.0000118576  -0.0039656582
       -0.0021858557  -0.0040488497   0.0007128424   0.0000328658   0.0006131516
       -0.0541944983   0.0019155222  -0.0354498155  -0.0946486640  -0.1737470438
        0.0989139433   0.1624038487   0.3776559455  -0.2228118462   0.0043120625
       -0.1206646121   0.0882663355  -0.0071647086  -0.0252378392   0.0288521907
       -0.0034643476   0.0000040053   0.0017582849  -0.0001684967   0.0009829365
        0.0001819435   0.0001018066  -0.0001125720   0.0004450013   0.0002898485
       -0.0000138217  -0.0003697413  -0.0003555157   0.0003017543   0.0001687398
        0.0004908233  -0.0017680494   0.0007869879   0.0026833685  -0.0008938704
        0.0012577583  -0.0001617275  -0.0003746603  -0.0000926879  -0.0001197514
       -0.0000082243  -0.0001212307   0.0001090129  -0.0000238563   0.0000345644
        0.0002240091   0.0001213305   0.0000523006   0.0003180362   0.0002210566
       -0.0000365579   0.0000037259   0.0000388625  -0.0000069082  -0.0000390979
        0.0000754917   0.0000049581   0.0000717525   0.0000089608   0.0000047497
       -0.0000340299   0.0000197139   0.0000014419   0.0000274571   0.0000030572
        0.0000016517  -0.0000121261   0.0000496164   0.0000283249   0.0001079957
       -0.0001098603  -0.0000559913  -0.0001502946   0.0000777411   0.0000341873
        0.0001108898   0.0000224151   0.0000587307  -0.0000132083  -0.0000045448
       -0.0000284145   0.0000154537  -0.0000002480   0.0000159406  -0.0000046181
        0.0000009696   0.0000013466   0.0000178574   0.0000008267   0.0000033702
       -0.0000269762   0.0000070266  -0.0000092080  -0.0000197773  -0.0000488340
       -0.0000531996   0.0000091960  -0.0000082740   0.0000176450  -0.0000041717
       -0.0000060421  -0.0000134498  -0.0000038659  -0.0000034103  -0.0000067167
        0.0000055793  -0.0000123002  -0.0000090448  -0.0000048490   0.0000053993
        0.0000221958  -0.0000067414   0.0001332949   0.0000168211  -0.0003512270
        0.0000779590  -0.0000188176  -0.0000584109  -0.0001348163  -0.0000086916
        0.0000237631   0.0000286776   0.0000049640   0.0000018237  -0.0000173486
       -0.0000019185   0.0000124890  -0.0000188345  -0.0000059475  -0.0000762393
       -0.0000225357  -0.0000189457   0.0000925461  -0.0000818565  -0.0000033024
       -0.0001637824  -0.0000466160  -0.0000026246   0.0003047414   0.0000313612
        0.0000207593   0.0442889633   0.0195591090   0.0053436509  -0.0071075012
       -0.0314014633   0.0292315322  -0.0023631909   0.0040657405   0.0022033476
       -0.0101237875  -0.0118799581   0.0091909817  -0.0330445303  -0.0431813838
       -0.0100127029   0.0002502642  -0.0000794673  -0.0002120959   0.0000751165
       -0.0000674790  -0.0000221274   0.0000037471  -0.0000570334  -0.0000313031