$hessian                                                                        
        0.4383195264  -0.1317497076   0.2294019855  -0.2170387378   0.0477898152
       -0.1299429563  -0.0163360848   0.0674478207   0.0173735422  -0.0325185624
       -0.0088809385  -0.0312277599   0.0002106481   0.0007940316   0.0022487121
       -0.0004667744  -0.0004975064  -0.0004644460   0.0000705259   0.0003537143
        0.0002231183  -0.0002415849  -0.0001495984   0.0000022218   0.0001777300
       -0.0001347218  -0.0002085036   0.0001767439   0.0001772190   0.0002484048
       -0.0000043288  -0.0004364266   0.0000663170  -0.0006406219  -0.0000518033
        0.0000574721   0.0002659208  -0.0002883375   0.0000754119  -0.0002674190
       -0.0000856561   0.0000541424   0.0001363918   0.0001637242  -0.0000814015
        0.0002868936   0.0000332525   0.0001249557  -0.0004013831   0.0005361453
        0.0002070490  -0.0000951863  -0.0000123481   0.0000204587   0.0000542433
       -0.0000356930   0.0000112115   0.0000027312  -0.0000078766  -0.0000030934
        0.0000002651   0.0000108677  -0.0000069236  -0.0000050354  -0.0000083396
        0.0000043232  -0.0000083363  -0.0000031064  -0.0000018946   0.0000177713
       -0.0000036571   0.0000069163  -0.0000222374   0.0000070501  -0.0000004567
        0.0000006409  -0.0000045667   0.0000005827  -0.0000005343   0.0000006720
       -0.0000030630   0.0000011108  -0.0000030834   0.0000054004   0.0000003766
       -0.0000012076  -0.0000000467  -0.0000003978   0.0000011630  -0.0000001427
       -0.0000000494  -0.0000030391   0.0000018069   0.0000185252   0.0000000590
       -0.0000109577  -0.0000029939  -0.0000007122   0.0000044917   0.0000039630
       -0.0000009310  -0.0000026276  -0.0000034243  -0.0000002677   0.0000008619
        0.0000019000  -0.0000008636  -0.0000024318  -0.0000042006   0.0000011369
        0.0000005800  -0.0000007263   0.0000150845  -0.0000063309  -0.0000472553
        0.0000090538   0.0000039053  -0.0000121615  -0.0000185566   0.0000078947
        0.0000008541   0.0000026787   0.0000005269  -0.0000140212  -0.0000022910
        0.0000023880   0.0000071393   0.0000037532  -0.0000012472  -0.0000016759
        0.0000060756   0.0000008901   0.0000229812  -0.0000261403   0.0000043470
       -0.0000731815  -0.0000381132  -0.0000046370   0.0000499238   0.0000667137
       -0.0000277584   0.0349977034  -0.0377796212   0.0101023155  -0.1195813327
       -0.0204140002  -0.0766585952  -0.0697337165   0.0843298846   0.0102179786
       -0.0115675751   0.0035525765  -0.0090492005   0.0032745197   0.0035135267
       -0.0023954934   0.0000077448  -0.0000070807  -0.0000298418   0.0000078574
       -0.0000083782   0.0000035948  -0.0000030582   0.0000181093  -0.0000397559
        0.0000236275  -0.0000025368   0.0000164304   0.0000128968  -0.0000422168
       -0.0001012549  -0.0000202556  -0.0000268010   0.0000271977  -0.0000062052
        0.0000050354   0.0000042752  -0.0001267256   0.0001064967  -0.0000808310
       -0.0000104597   0.0000021035   0.0000111959  -0.0000021235  -0.0000028263
       -0.0000004453  -0.0000025501  -0.0000006513   0.0000001919  -0.0000012828
       -0.0000019197   0.0000002774   0.0000002623   0.0000017126  -0.0000002943
        0.0000006730   0.0000010353  -0.0000003416   0.0000000175   0.0000011075
       -0.0000009062  -0.0000009032   0.0000013914  -0.0000002876  -0.0000014248
        0.0000017519   0.0000001723  -0.0000006541  -0.0000005592  -0.0000010356
       -0.0000005343   0.0000003255   0.0000018647  -0.0000014052  -0.0000003064
        0.0000003189  -0.0000017752  -0.0000007232   0.0000002117   0.0000006809
       -0.0000000068  -0.0000003242  -0.0000050827   0.0000011626   0.0000007058
       -0.0000019876   0.0000019258   0.0000003422  -0.0000023917   0.0000025142
       -0.0000012118   0.0000008775  -0.0000048682   0.0000008177   0.0030980218
        0.0040347752  -0.0021710577  -0.0119733308  -0.0122574802  -0.0180202530
       -0.1317497076   0.6037401554   0.1380339792   0.1020717956  -0.1174362597
        0.0566979623   0.0266543008  -0.0190456680   0.0148137211  -0.0092098796
        0.0040645678  -0.0035334428   0.0009923548  -0.0025322756   0.0000120962
       -0.0000095815   0.0000983637   0.0004418650  -0.0000160016   0.0000894789
        0.0000415454  -0.0001615461  -0.0000160358   0.0001143664   0.0000982140
        0.0000391336  -0.0000172997   0.0000493853   0.0000119671  -0.0000049270
       -0.0000581920  -0.0003058234  -0.0000676915  -0.0002963779   0.0003228846
       -0.0005727478   0.0000185181   0.0000025746   0.0000176539   0.0000242479
        0.0000740075  -0.0000377844  -0.0000319287   0.0000006829  -0.0000089353
        0.0000299388   0.0000666358   0.0000168743   0.0000942485  -0.0001663665
        0.0000819476   0.0000003516  -0.0000706011   0.0000629256   0.0000746459
       -0.0000360663   0.0000041311  -0.0000449835  -0.0000146401   0.0000100334
        0.0000165767  -0.0000080426   0.0000136198  -0.0000050976   0.0000291165
       -0.0000111012   0.0000208816  -0.0000060190   0.0000114382  -0.0000054662
        0.0000065673  -0.0000047166   0.0000074473  -0.0000024871   0.0000141167
       -0.0000022954   0.0000076962  -0.0000133882   0.0000044721  -0.0000088371
        0.0000080080   0.0000014113   0.0000021923  -0.0000166666  -0.0000018577
       -0.0000008218   0.0000072963   0.0000048956  -0.0000047008  -0.0000036991
       -0.0000012882   0.0000045165  -0.0000018294  -0.0000043115  -0.0000021219
       -0.0000001545   0.0000013479   0.0000033991   0.0000005512  -0.0000038883
        0.0000020121  -0.0000000457   0.0000049210   0.0000018009  -0.0000023920
        0.0000019648   0.0000028319   0.0000030519  -0.0000036631   0.0000004069
        0.0000011576  -0.0000178928  -0.0000570956   0.0000243502   0.0000760993
        0.0000351237  -0.0000192661   0.0000019133   0.0000112386  -0.0000095783
       -0.0000097277   0.0000119811  -0.0000062722   0.0000177146  -0.0000046099
        0.0000002570   0.0000071201  -0.0000218057   0.0000061703  -0.0000149044
        0.0000104070  -0.0000048632  -0.0000096824   0.0000204459  -0.0000050527
       -0.0000292981   0.0000536223  -0.0000215648  -0.0000590559   0.0000129088
       -0.0000097763   0.0026338078  -0.0437073225  -0.0229447122  -0.0744853585
       -0.1657916416  -0.1307461052   0.0843166050  -0.2623735150  -0.0438231984
       -0.0127168581   0.0053720974  -0.0095892222   0.0038650316  -0.0039333209
       -0.0026266234  -0.0000432107  -0.0000046641   0.0000787870  -0.0000204700
       -0.0000008831  -0.0000085442  -0.0000327194  -0.0000152652   0.0000100888
       -0.0000269850  -0.0000373992  -0.0000044051  -0.0000736732  -0.0001513579
       -0.0000448992   0.0000105277   0.0000698656  -0.0000602381   0.0000041962
       -0.0000070313   0.0000022140   0.0001139386  -0.0000634527  -0.0000457297
        0.0000130660   0.0000216892  -0.0000272527   0.0000002700   0.0000105241
       -0.0000048348   0.0000019907   0.0000009394   0.0000021662  -0.0000014512
        0.0000038387  -0.0000001196  -0.0000012982   0.0000015102  -0.0000031556
       -0.0000014368  -0.0000017335   0.0000074430   0.0000010739  -0.0000028087
        0.0000010724  -0.0000007295  -0.0000010014  -0.0000004755   0.0000011421
       -0.0000014184   0.0000004841   0.0000018772   0.0000007066   0.0000001760
       -0.0000002314   0.0000021836  -0.0000002065  -0.0000005471   0.0000024711
        0.0000010425   0.0000005632   0.0000013174  -0.0000006015   0.0000001135
        0.0000005169   0.0000017549   0.0000073651  -0.0000017543  -0.0000004300
        0.0000003420  -0.0000027311  -0.0000021884   0.0000027285  -0.0000005523
       -0.0000026047  -0.0000012211  -0.0000000622  -0.0000033074   0.0037755747
       -0.0038461394  -0.0029119190   0.0041278371   0.0054699537   0.0066796211
        0.2294019855   0.1380339792   0.3960975291  -0.1015457527   0.0062014594
       -0.1366756605  -0.0024842595   0.0515593855   0.0249825819  -0.0290461542
       -0.0027814001  -0.0365851719   0.0010207446  -0.0005012697   0.0020688072
       -0.0004507104  -0.0004704209  -0.0001834975   0.0000597810   0.0004378892
        0.0002763021  -0.0003339924  -0.0001679338   0.0000705121   0.0002305416
       -0.0001111392  -0.0002196657   0.0002204185   0.0001863882   0.0002774920
       -0.0000189940  -0.0007013365  -0.0000009736  -0.0007836799   0.0001520255
       -0.0002100738   0.0002816038  -0.0002996637   0.0000951486  -0.0002656151
       -0.0000527752   0.0000439061   0.0001237889   0.0001663131  -0.0000889460
        0.0003084090   0.0000729844   0.0001612463  -0.0003946832   0.0005261786
        0.0002549905  -0.0001010978  -0.0000245262   0.0000400647   0.0000752647
       -0.0000544193   0.0000130778  -0.0000114113  -0.0000112035  -0.0000000142
        0.0000005670   0.0000134146  -0.0000038323  -0.0000054643   0.0000020137
        0.0000006718   0.0000006193  -0.0000038641   0.0000034178   0.0000060287
        0.0000041083   0.0000003777  -0.0000102292  -0.0000030073   0.0000204002
        0.0000036178   0.0000024244  -0.0000206960  -0.0000012866  -0.0000014242
        0.0000008702   0.0000024926  -0.0000031417  -0.0000031298  -0.0000009617
       -0.0000014516   0.0000044718   0.0000028176  -0.0000003715  -0.0000071263
       -0.0000006636  -0.0000007706   0.0000045610   0.0000123888  -0.0000021468
       -0.0000079083  -0.0000025125   0.0000006924   0.0000045546   0.0000003015
       -0.0000001900  -0.0000019689   0.0000005088   0.0000006030   0.0000002078
        0.0000013280   0.0000006976   0.0000003886  -0.0000054208   0.0000000264
       -0.0000007176  -0.0000000960   0.0000015338  -0.0000019862  -0.0000112220
        0.0000047471   0.0000043122  -0.0000073767  -0.0000048637  -0.0000007209
       -0.0000018310   0.0000018393  -0.0000001493  -0.0000042800  -0.0000007426
        0.0000014301   0.0000087880  -0.0000044870   0.0000016080  -0.0000037296
        0.0000075178  -0.0000001905   0.0000117124  -0.0000155951   0.0000010410
       -0.0000797096  -0.0000181592  -0.0000151986   0.0000223480   0.0000710931
       -0.0000315076   0.0322846831  -0.0589308283  -0.0017816280  -0.1058462980
       -0.0804803549  -0.1863662219   0.0104794664  -0.0437167101  -0.0463046309
       -0.0181868763   0.0056791122  -0.0125199927  -0.0024245141  -0.0031966574
        0.0044909583  -0.0000235675  -0.0000057975   0.0000161216  -0.0000059042
       -0.0000063742   0.0000028115  -0.0000234154   0.0000142185  -0.0000370171
        0.0000018607  -0.0000319139   0.0000103852  -0.0000303329  -0.0001888135
       -0.0001137789  -0.0000132828   0.0000049089  -0.0000074519  -0.0000030034
        0.0000002605   0.0000065211  -0.0000983653   0.0001062286  -0.0000758486
       -0.0000092226   0.0000076166   0.0000057445  -0.0000002867  -0.0000016149
        0.0000010949  -0.0000032567  -0.0000022264   0.0000026034  -0.0000007956
       -0.0000007113   0.0000011405  -0.0000000418   0.0000017098  -0.0000016166
       -0.0000003512   0.0000009500   0.0000034843   0.0000007519  -0.0000008998
        0.0000012214  -0.0000008200  -0.0000001043   0.0000003686  -0.0000005361
        0.0000007844   0.0000006061   0.0000006869   0.0000004979  -0.0000008584
       -0.0000006204   0.0000015813   0.0000011493  -0.0000010361   0.0000011012
        0.0000004428  -0.0000005338   0.0000002376  -0.0000001628   0.0000009561
        0.0000006829   0.0000009843  -0.0000022692   0.0000006224   0.0000004997
       -0.0000016173   0.0000000240  -0.0000009144  -0.0000010435   0.0000005616
       -0.0000022099  -0.0000013558  -0.0000052400  -0.0000011348  -0.0026627560
       -0.0025536334   0.0045222410  -0.0096512245  -0.0089102296  -0.0122257477
       -0.2170387378   0.1020717956  -0.1015457527   0.4427274086  -0.1196933185
        0.2378679195  -0.1035502576   0.0637211841  -0.0204883787   0.0328654830
        0.0022689318   0.0349107456   0.0018932905  -0.0030968999  -0.0063577421
        0.0002906217   0.0003781366  -0.0004493974  -0.0001717017  -0.0004181625
       -0.0001813889   0.0002040522   0.0000315858   0.0000724662  -0.0001305149
        0.0001884930   0.0002271262  -0.0001396166  -0.0002699775  -0.0002950055
        0.0001253086   0.0005896046  -0.0000038744   0.0001333084  -0.0001127289
       -0.0004671033  -0.0000848543   0.0000631209   0.0000529361   0.0001607396
        0.0000895700  -0.0000059148  -0.0000592573  -0.0000764105   0.0000336766
       -0.0000133453  -0.0000325287   0.0000020272   0.0001911202  -0.0003551351
       -0.0000100002   0.0000280564  -0.0000122763  -0.0000095353   0.0000207533
       -0.0000264025   0.0000050734  -0.0000371275  -0.0000002220   0.0000043469
        0.0000151850  -0.0000142204   0.0000069120  -0.0000052108   0.0000156019
       -0.0000073894   0.0000123774  -0.0000114736   0.0000145043  -0.0000204128
        0.0000166254  -0.0000180644   0.0000393724  -0.0000111707  -0.0000088917
        0.0000028749   0.0000074277   0.0000037027   0.0000044433  -0.0000049465
        0.0000030168  -0.0000054988   0.0000070650  -0.0000077533   0.0000016967
       -0.0000024369   0.0000029010  -0.0000002282  -0.0000003710  -0.0000005917
       -0.0000041748   0.0000074954  -0.0000022778  -0.0000379629   0.0000026239
        0.0000216606   0.0000071969   0.0000023414  -0.0000074882  -0.0000049342
        0.0000026619   0.0000055033   0.0000031471   0.0000007394  -0.0000021032
       -0.0000056341   0.0000017765   0.0000049719   0.0000071622  -0.0000024276
        0.0000002654  -0.0000175502  -0.0000585905   0.0000275540   0.0001081000
        0.0000119351  -0.0000201713   0.0000046359   0.0000281139  -0.0000105779
       -0.0000143938   0.0000015914  -0.0000044665   0.0000071894   0.0000026147
       -0.0000009433  -0.0000010957  -0.0000110203   0.0000018577  -0.0000039562
        0.0000080337  -0.0000089834  -0.0000215423   0.0000246678  -0.0000024866
        0.0000694131   0.0000528313  -0.0000181801  -0.0000926132  -0.0000299739
        0.0000155937  -0.0272703137   0.0302860561  -0.0043201950  -0.0253380829
       -0.0444140629  -0.0486694487  -0.0095443581   0.0058548498  -0.0054929707
       -0.0879142456  -0.0601418720  -0.0820598173  -0.0097443269   0.0226887053
        0.0019126424  -0.0000059414  -0.0000019122   0.0000279468  -0.0000159509
       -0.0000001468  -0.0000189548  -0.0000083388  -0.0000284513   0.0000302566
       -0.0000186976   0.0000035971  -0.0000200611  -0.0000103097   0.0000270940
        0.0000640759  -0.0000168406   0.0000508228  -0.0000383030  -0.0000022755
       -0.0000155296   0.0000060653   0.0000337502   0.0000259650   0.0001149746
       -0.0000008288   0.0000151858  -0.0000025328  -0.0000054438   0.0000098511
        0.0000007021   0.0000017880   0.0000055232   0.0000003166   0.0000045189
        0.0000047795   0.0000013844  -0.0000017066   0.0000004547  -0.0000002235
       -0.0000002029  -0.0000023832   0.0000021156  -0.0000003099  -0.0000024291
        0.0000019161   0.0000017841  -0.0000050806   0.0000001684   0.0000033073
       -0.0000043710  -0.0000024971   0.0000010448   0.0000008009   0.0000000260
       -0.0000001729  -0.0000001737  -0.0000039005   0.0000028713   0.0000007842
       -0.0000013353   0.0000031667   0.0000015124   0.0000004292  -0.0000012340
        0.0000000652   0.0000018397   0.0000088854   0.0000003672  -0.0000006203
        0.0000065291  -0.0000066512  -0.0000004097   0.0000016527  -0.0000070411
        0.0000012407  -0.0000034243  -0.0000046667   0.0000010718  -0.0000816692
        0.0004223229   0.0001657239   0.0024530599  -0.0001198406  -0.0050519252
        0.0477898152  -0.1174362597   0.0062014594  -0.1196933185   0.5922849346
        0.1421822161   0.1171847700  -0.2979738927  -0.0280070774  -0.0357826903
       -0.0435892568  -0.0578159103  -0.0002324092   0.0022011793  -0.0000331531
       -0.0007629553  -0.0012935863  -0.0015813235  -0.0000084015   0.0003324300
        0.0003029999  -0.0002502604  -0.0003086821  -0.0000339006   0.0002129893
       -0.0001392490  -0.0002434981   0.0001416179   0.0001536433   0.0003818467
        0.0002081031  -0.0004036273   0.0001326785  -0.0005171504  -0.0003440316
        0.0000688274   0.0002569102  -0.0003557852   0.0001466677  -0.0004482555
       -0.0001327106   0.0001226695   0.0001946065   0.0002756726  -0.0001545827
        0.0003779558   0.0001158882   0.0000734830  -0.0007612949   0.0006574150
        0.0006453599  -0.0001395942  -0.0000419977   0.0000613224   0.0000178316
        0.0000091910  -0.0000096006   0.0000737582  -0.0000122360  -0.0000107086
       -0.0000366904   0.0000261450  -0.0000179343   0.0000104356  -0.0000111184
        0.0000008088  -0.0000166617   0.0000308035  -0.0000395263   0.0000828845
       -0.0000675657   0.0000672661  -0.0001141125   0.0000395060  -0.0000532179
       -0.0000153190  -0.0000270829   0.0000689757  -0.0000001942  -0.0000045863
       -0.0000138396  -0.0000082131  -0.0000007401   0.0000200624  -0.0000008974
       -0.0000028887  -0.0000055386  -0.0000030139  -0.0000044946   0.0000152705
       -0.0000031681  -0.0000045605  -0.0000215329   0.0000864633   0.0000114824
       -0.0000457098  -0.0000090274  -0.0000015570   0.0000232193   0.0000149743
       -0.0000038840  -0.0000105118  -0.0000094123  -0.0000007787   0.0000008993
        0.0000105068  -0.0000020399  -0.0000055722  -0.0000158649   0.0000059476
        0.0000045432   0.0000144073   0.0001398329  -0.0000525490  -0.0002727652
       -0.0000261885   0.0000352593  -0.0000384830  -0.0000463200   0.0000217571
        0.0000261634   0.0000067312  -0.0000036962  -0.0000022653  -0.0000069593
       -0.0000009183   0.0000000970  -0.0000035082   0.0000028725  -0.0000165011
       -0.0000062789   0.0000093676   0.0000599377  -0.0000631465   0.0000100967
       -0.0001908658  -0.0001086769   0.0000144867   0.0002351460   0.0001026904
       -0.0000482550   0.0286567516  -0.0336499513   0.0105331835  -0.0042769243
        0.0494900132   0.0221260530   0.0226172610  -0.0125604328   0.0138975454
       -0.0605827712  -0.1248167212  -0.1038106023   0.0061086010  -0.0119742998
       -0.0005632568  -0.0000680295   0.0000216611  -0.0000152873  -0.0000186699
       -0.0000044922   0.0000124495   0.0000014246   0.0000589826  -0.0000472221
        0.0000615037  -0.0000055008  -0.0000115889  -0.0000262503  -0.0002199696
       -0.0002064696   0.0000226576   0.0000134418  -0.0000045286  -0.0000108244
        0.0000426118  -0.0000249297  -0.0000136163   0.0000405148  -0.0003511202
        0.0000366512   0.0000159835  -0.0000066680   0.0000170389  -0.0000049737
        0.0000056875  -0.0000080221  -0.0000149935   0.0000102866  -0.0000182366
       -0.0000086325   0.0000011661   0.0000045933   0.0000050546   0.0000084739
        0.0000068228   0.0000012442  -0.0000067314   0.0000004729   0.0000071196
       -0.0000082193  -0.0000007457   0.0000089917  -0.0000014049  -0.0000002786
        0.0000052786   0.0000020274  -0.0000037720  -0.0000014138  -0.0000051759
       -0.0000001163   0.0000019467   0.0000051637  -0.0000068557   0.0000011005
        0.0000030424  -0.0000085851  -0.0000007621  -0.0000015330  -0.0000000798
        0.0000007508  -0.0000053109  -0.0000174516   0.0000022940   0.0000073127
       -0.0000202568   0.0000163727  -0.0000000357  -0.0000030879   0.0000220442
       -0.0000040241   0.0000092003  -0.0000016280   0.0000026943   0.0003716582
       -0.0001405357   0.0006646456  -0.0004796511  -0.0003209026  -0.0046114811
       -0.1299429563   0.0566979623  -0.1366756605   0.2378679195   0.1421822161
        0.4113293588   0.0066125815  -0.0758002266  -0.0785847618   0.0135546249
       -0.0212794515   0.0001560610  -0.0062373012  -0.0023227804  -0.0000109048
        0.0002519667  -0.0017087069  -0.0003655893  -0.0002264638  -0.0002506070
       -0.0000709849  -0.0000300846   0.0000187282  -0.0001015152  -0.0000001836
        0.0001245730   0.0001074353  -0.0001210393  -0.0001330823  -0.0001721222
        0.0002688342   0.0001370312  -0.0000642451   0.0009026587   0.0002801572
        0.0007126978  -0.0002827207   0.0001506521   0.0000393180   0.0002610188
        0.0000567168  -0.0000623212  -0.0001008679  -0.0000837363   0.0000499737
       -0.0000050090  -0.0000765760  -0.0000902074   0.0000620806  -0.0002685104
       -0.0002778263   0.0000507525   0.0000446394  -0.0000437452  -0.0001104539
        0.0000382232  -0.0000060206   0.0000414042   0.0000118177  -0.0000056083
       -0.0000352182  -0.0000027182  -0.0000047171   0.0000215618   0.0000031279
       -0.0000052362  -0.0000029770   0.0000268491  -0.0000211658   0.0000225307
       -0.0000434510   0.0000320679  -0.0000330081   0.0000118386  -0.0000355881
       -0.0000058845  -0.0000099155   0.0000438228   0.0000013182  -0.0000048225
       -0.0000088484  -0.0000115777   0.0000078954   0.0000035516   0.0000008905
       -0.0000048602   0.0000011779  -0.0000001960  -0.0000043105   0.0000067873
       -0.0000071383   0.0000057128  -0.0000168686   0.0000201864   0.0000094068
       -0.0000084574  -0.0000003915   0.0000013875   0.0000086407   0.0000023690
       -0.0000008773  -0.0000027172   0.0000003041  -0.0000001782  -0.0000023796
        0.0000016677   0.0000008638   0.0000039936  -0.0000045325   0.0000006017
        0.0000024425   0.0000017440   0.0000808551  -0.0000273487  -0.0001298586
       -0.0000508868   0.0000206073  -0.0000074167   0.0000124542  -0.0000038793
        0.0000053522  -0.0000017594  -0.0000042969   0.0000149827   0.0000052760
       -0.0000045686  -0.0000084798  -0.0000161919   0.0000058758  -0.0000113095
       -0.0000121045   0.0000040045  -0.0000042391   0.0000034012   0.0000025654
        0.0000634905  -0.0000088960   0.0000168480   0.0000777046  -0.0000587727
        0.0000239666  -0.0063242358   0.0130784359  -0.0029709743  -0.0269126590
       -0.0161543895  -0.0322456347   0.0030950103  -0.0013217898   0.0024206219
       -0.0817214938  -0.1039321889  -0.1660339153  -0.0060557689   0.0145174077
        0.0020224849  -0.0000398488   0.0000075493   0.0000563707  -0.0000208487
       -0.0000058045  -0.0000016816   0.0000049607  -0.0000138234   0.0000423637
        0.0000021764   0.0000055372  -0.0000226469  -0.0000093371  -0.0000501206
        0.0000315940  -0.0000050187   0.0000360754  -0.0000279722  -0.0000197520
        0.0000061592  -0.0000123240   0.0001641159  -0.0000893935  -0.0000023244
        0.0000099878  -0.0000064258   0.0000165491   0.0000082153  -0.0000004904
        0.0000117474  -0.0000037478  -0.0000061608   0.0000086091  -0.0000051792
       -0.0000019316   0.0000027541   0.0000011753   0.0000024543   0.0000072292
        0.0000046626  -0.0000006532  -0.0000037142   0.0000009990   0.0000014152
       -0.0000020333   0.0000015819   0.0000002390  -0.0000000697   0.0000036824
       -0.0000015165  -0.0000004714  -0.0000009747  -0.0000000349  -0.0000035298
       -0.0000000427   0.0000012360  -0.0000001647  -0.0000019021   0.0000014743
        0.0000008389  -0.0000022471   0.0000008300  -0.0000011031  -0.0000008361
        0.0000007281  -0.0000017955  -0.0000035330   0.0000011054   0.0000047698
       -0.0000073481   0.0000031627  -0.0000001083  -0.0000004070   0.0000067637
       -0.0000018613   0.0000037777  -0.0000061042   0.0000013479   0.0003220616
        0.0004426232   0.0002990643  -0.0052758624  -0.0042913345   0.0005123676
       -0.0163360848   0.0266543008  -0.0024842595  -0.1035502576   0.1171847700
        0.0066125815   0.4433984343  -0.1423228825   0.2315606724  -0.1184430857
       -0.0664021038  -0.0984494634   0.0083050071   0.0028816533   0.0044885670
       -0.0009393895   0.0008987250   0.0006545107   0.0002357224   0.0005650639
        0.0001386348  -0.0000017734   0.0000830277   0.0001231606  -0.0000247934
        0.0000582630   0.0000699504  -0.0000998106  -0.0000963473  -0.0000534683
        0.0002630429   0.0000289158  -0.0001165598  -0.0005417350   0.0016788705
        0.0012841510   0.0004649514  -0.0002235915   0.0000897858  -0.0004622204
       -0.0001090928  -0.0000708725  -0.0000320575   0.0003648414  -0.0001994511
        0.0007004439   0.0001818693   0.0001904056  -0.0019004741   0.0009579216
        0.0011268604  -0.0002183176  -0.0002449848   0.0001310483   0.0001844239
       -0.0000685419   0.0000221045  -0.0000424741  -0.0000220368   0.0000068629
        0.0000319342   0.0000013652  -0.0000024566  -0.0000264773   0.0000026322
       -0.0000007826   0.0000133232  -0.0000114783   0.0000047387   0.0000123565
        0.0000056961  -0.0000018824   0.0000173354   0.0000081982  -0.0000306265
       -0.0000081871  -0.0000073272   0.0000316229   0.0000098209   0.0000015161
        0.0000026091  -0.0000017065   0.0000072311   0.0000060145   0.0000041739
        0.0000017156  -0.0000061592  -0.0000047051   0.0000020105   0.0000086316
        0.0000001322   0.0000039098  -0.0000085203  -0.0000180504   0.0000040861
        0.0000114688   0.0000041550  -0.0000000329  -0.0000067023  -0.0000001210
        0.0000016973   0.0000036338  -0.0000023813   0.0000007767   0.0000011555
       -0.0000043744  -0.0000004889  -0.0000016307   0.0000078430  -0.0000000984
       -0.0000018437  -0.0000143121  -0.0000499949   0.0000220963   0.0000538202
        0.0000550755  -0.0000290346  -0.0000029107  -0.0000201315   0.0000182400
        0.0000020000   0.0000100561  -0.0000028870  -0.0000024296  -0.0000145679
        0.0000025149   0.0000122632   0.0000040313  -0.0000044362  -0.0000152985
       -0.0000046898  -0.0000025248   0.0000212778  -0.0000202267  -0.0000033787
       -0.0000763294   0.0000075372  -0.0000451435  -0.0000217995   0.0001113536
       -0.0000459371  -0.0221894479  -0.0050648502  -0.0240390667  -0.0001232822
       -0.0037742191   0.0019938764  -0.0005466266   0.0035636709  -0.0055193403
        0.0039519485  -0.0110524341  -0.0026354019  -0.1911633386   0.0708395443
       -0.1102488402   0.0000031832  -0.0000114615   0.0000224736   0.0000146379
        0.0000285603   0.0000142313   0.0000015392   0.0000189671   0.0000095424
        0.0000028553  -0.0000007119  -0.0000048519  -0.0001993944  -0.0000880012
        0.0000043136   0.0000550339   0.0000659043   0.0000332140   0.0000179930
        0.0000063279   0.0000076445  -0.0004254894   0.0004245864   0.0002969682
        0.0000209947   0.0000278073  -0.0000066423   0.0000015234   0.0000040261
       -0.0000048742   0.0000057098   0.0000036067  -0.0000050289  -0.0000021802
        0.0000013666  -0.0000006046  -0.0000018938  -0.0000045771   0.0000025972
       -0.0000001701  -0.0000058378  -0.0000060769  -0.0000025166   0.0000003123
       -0.0000030661   0.0000014249  -0.0000007958   0.0000000363   0.0000005818
       -0.0000013621  -0.0000014156  -0.0000013399   0.0000001844   0.0000021667
        0.0000002772  -0.0000015363  -0.0000021958   0.0000023234  -0.0000006278
       -0.0000014255   0.0000018833   0.0000009382   0.0000006755  -0.0000018410
       -0.0000006284  -0.0000000179   0.0000014538   0.0000018175   0.0000000768
        0.0000004750   0.0000026787   0.0000005584   0.0000003932   0.0000049076
        0.0000022656   0.0000057562   0.0000158958   0.0000022013  -0.0008695686
        0.0031014705  -0.0055210549   0.0004861969  -0.0002540228   0.0005630606
        0.0674478207  -0.0190456680   0.0515593855   0.0637211841  -0.2979738927
       -0.0758002266  -0.1423228825   0.5986788537   0.1262878714  -0.0227760942
       -0.1415397500  -0.0667878771  -0.0064460960  -0.0416813768  -0.0272702889
        0.0043167010  -0.0021258533  -0.0014671167  -0.0014143415  -0.0021262076
       -0.0006133954   0.0005518654   0.0001106852  -0.0002523276  -0.0003317430
        0.0002033992   0.0003767635  -0.0001415075  -0.0001601534  -0.0004886529
        0.0005269724   0.0009314662  -0.0004110927  -0.0028242312  -0.0004923700
       -0.0025000282  -0.0005677596   0.0005941002  -0.0001652243   0.0001981291
        0.0003028088  -0.0000992186  -0.0001497050  -0.0002499630   0.0001192705
       -0.0003647869   0.0000846617  -0.0000578828   0.0011373247  -0.0011352607
       -0.0006330651   0.0000852426  -0.0000352218   0.0000587002   0.0001098487
       -0.0000698734  -0.0000011331  -0.0001255177  -0.0000069831   0.0000109601
        0.0000700376  -0.0000309704   0.0000229826  -0.0000409695   0.0000043969
        0.0000028567   0.0000153712  -0.0000610392   0.0000573945  -0.0001063533
        0.0001168736  -0.0000988209   0.0001518109  -0.0000553786   0.0000828990
        0.0000203454   0.0000372102  -0.0001049308  -0.0000051545   0.0000067404
        0.0000198063   0.0000163263  -0.0000095875  -0.0000234033  -0.0000009843
        0.0000074097   0.0000010340   0.0000008023   0.0000110555  -0.0000227002
        0.0000093208  -0.0000001722   0.0000375322  -0.0001126950  -0.0000185849
        0.0000586887   0.0000114973   0.0000004179  -0.0000310413  -0.0000189413
        0.0000057262   0.0000163723   0.0000049705   0.0000013287   0.0000028780
       -0.0000155388   0.0000011134   0.0000013720   0.0000217766  -0.0000067679
       -0.0000080358  -0.0000309445  -0.0002463374   0.0000905782   0.0004788678
        0.0000698357  -0.0000479332   0.0000419980   0.0000657693  -0.0000327827
       -0.0000258356  -0.0000114633   0.0000129755  -0.0000070263   0.0000104828
        0.0000011364  -0.0000034746   0.0000273516  -0.0000086812   0.0000271324
        0.0000142076  -0.0000022587  -0.0000694662   0.0000763436  -0.0000172576
        0.0001572777   0.0001726063  -0.0000615561  -0.0003667547  -0.0000382551
        0.0000236151  -0.0375856210   0.0434041438  -0.0126186082  -0.0055153390
       -0.0468266962  -0.0281607923   0.0030442785   0.0008675759  -0.0001368913
        0.0051082613  -0.0190039677  -0.0059285159   0.0705966573  -0.0737992422
        0.0456277876  -0.0000580883   0.0000352399   0.0001727783  -0.0000908045
       -0.0001317939  -0.0000913485  -0.0000179662  -0.0000561605   0.0000568548