$hessian                                                                        
        0.5160322051   0.0170505165   0.0180417458  -0.1073432022   0.0321844834
        0.0624191261   0.0048271645  -0.0037456396  -0.0062525286  -0.0002929234
       -0.0022262322  -0.0011988726   0.0000393574  -0.0002508738  -0.0004790410
        0.0001193937   0.0000072223   0.0000240521  -0.0000195735   0.0000240451
       -0.0000132935  -0.0000112168   0.0000197041  -0.0000130563  -0.0000175814
        0.0000077808   0.0000057556  -0.0000136571   0.0000002758   0.0000015633
       -0.0000181726  -0.0000345942   0.0000233693  -0.0000115247   0.0000244027
       -0.0000073353  -0.0000265934  -0.0000460182  -0.0000173836   0.0000032427
       -0.0000090799   0.0000052108   0.0000039093  -0.0000014102   0.0000042854
       -0.0000003049   0.0000004903  -0.0000077649  -0.0000027942  -0.0000163111
        0.0000151815  -0.0000962167   0.0000584122   0.0000213753  -0.0000187710
        0.0001275062  -0.0001579199  -0.0000094797  -0.0000284699   0.0000305374
        0.0000649109  -0.0000122303   0.0000035597   0.0000022903  -0.0000309913
        0.0000053513   0.0000269178   0.0000243015   0.0000003539   0.0000177463
        0.0000341394   0.0000059223   0.0000255401  -0.0000062067   0.0000428047
       -0.0000272646   0.0000553600   0.0000448830   0.0000037510   0.0000121352
       -0.0000046461   0.0000011781   0.0000045686  -0.0000202506   0.0000028912
       -0.0000035069   0.0000153198   0.0000208363   0.0000034091   0.0000209682
       -0.0000243684  -0.0000410022  -0.0000800475  -0.0048007649  -0.0020316768
        0.0000842050  -0.0215281892   0.0106675260   0.0224428317   0.0003090377
        0.0012023147   0.0007755920  -0.0453472730  -0.0256682764  -0.0006014421
       -0.2696801846  -0.0552674003  -0.0216177401  -0.0715907980   0.0274571679
       -0.0738611622   0.0012456895  -0.0006515027  -0.0020323922   0.0000122818
        0.0000108493   0.0000069278   0.0000116298  -0.0000003416  -0.0000003132
        0.0000038105   0.0000020767  -0.0000042869   0.0000005197  -0.0000071418
       -0.0000031334   0.0000108334  -0.0000060910  -0.0000010335   0.0000027677
        0.0000385046   0.0000244989   0.0000043332   0.0000068965   0.0000091367
        0.0000018221   0.0000007157   0.0000023306   0.0000012234  -0.0000020072
        0.0000000607   0.0000014186   0.0000027542   0.0000118434  -0.0000042149
        0.0000072660   0.0000017595  -0.0000120915   0.0000107291  -0.0000001213
       -0.0000201266  -0.0000019588  -0.0000017565  -0.0000052039   0.0000022088
       -0.0000008315  -0.0000250686   0.0000377203  -0.0000169366  -0.0000024349
        0.0000037979   0.0000096521   0.0000010195   0.0000169258   0.0000104109
        0.0000025391   0.0000229270   0.0000013781  -0.0000034241   0.0000095718
        0.0000044673   0.0000066639  -0.0000277937   0.0000515365  -0.0009072003
        0.0005889687   0.0011457759  -0.0000908864   0.0002978781   0.0005021263
       -0.0002944677   0.0002936115   0.0001674446  -0.0005609517  -0.0002024070
        0.0004099460
        0.0170505165   0.4874798977  -0.0032431813   0.0286864621  -0.0850076271
       -0.0463991485   0.0060591200  -0.0080820661  -0.0190022314  -0.0030300093
        0.0040501855  -0.0043719789   0.0001609417  -0.0002037580  -0.0003216030
        0.0001580167  -0.0000661175   0.0000001208   0.0000191696  -0.0000141196
        0.0000337614  -0.0000090171  -0.0000190115   0.0000135148  -0.0000185575
       -0.0000027581   0.0000103734   0.0000296203  -0.0000278308   0.0000187616
       -0.0000177831   0.0000210007   0.0000046254   0.0000187752   0.0000124135
       -0.0000129431   0.0000400651   0.0000663732   0.0000869753  -0.0000039045
        0.0000190920  -0.0000320625   0.0000017236   0.0000076354   0.0000005223
        0.0000029915  -0.0000003004   0.0000267149   0.0000157736   0.0000106204
        0.0000395471   0.0005132309  -0.0005038162  -0.0002839609   0.0000189202
       -0.0005893263   0.0008375892   0.0000192880  -0.0000324353   0.0000137411
        0.0000254877   0.0000351989   0.0000009387  -0.0000053072   0.0000145979
       -0.0000114970  -0.0000103302  -0.0000164306   0.0000087653  -0.0000137989
       -0.0000261333   0.0000008498   0.0000396462   0.0000015026  -0.0000405516
        0.0001791125  -0.0001599788  -0.0002709843   0.0000176656  -0.0000818432
        0.0000710521  -0.0000158604   0.0000134520   0.0000315025   0.0000022429
        0.0000284370  -0.0000171993  -0.0000233616   0.0000288729  -0.0000277352
        0.0000047167  -0.0000171311   0.0000231424  -0.0017947618   0.0048005466
       -0.0021922564   0.0024001602   0.0016836194   0.0009460079  -0.0002179772
       -0.0028245955   0.0009900238  -0.0230735011  -0.2750825304   0.0016917124
       -0.0549329427  -0.0574032932  -0.0044328010   0.0281313386  -0.0673250891
        0.0742382089   0.0014127671  -0.0014378785   0.0012221241   0.0000007254
       -0.0000321366   0.0000066645  -0.0000190414   0.0000443234  -0.0000183977
       -0.0000274124   0.0000183680  -0.0000096805  -0.0000196461   0.0000075198
       -0.0000040720   0.0000158410   0.0000245174  -0.0000166858  -0.0000440981
        0.0000240642  -0.0000879934  -0.0000032011  -0.0000111083  -0.0000112938
       -0.0000082194  -0.0000365239  -0.0000051632  -0.0000091533  -0.0000261751
       -0.0000198031  -0.0000036101  -0.0000100454  -0.0000245523  -0.0000116410
        0.0000009196   0.0000011443   0.0000174674  -0.0000046257  -0.0000029586
        0.0000190829   0.0000097024  -0.0000018142   0.0000105027   0.0000206991
       -0.0000053534   0.0000024210  -0.0000159269   0.0000021104   0.0000011670
        0.0000083892  -0.0000168215  -0.0000058598  -0.0000255640  -0.0000194260
        0.0000028590  -0.0000293639   0.0000015687   0.0000031295  -0.0000120872
        0.0000019274  -0.0000111767  -0.0000128734  -0.0000427246  -0.0002176785
       -0.0000322520   0.0002138471  -0.0001753581   0.0000432344   0.0000232803
       -0.0016191083   0.0004397119  -0.0000944934   0.0002613682   0.0002578578
        0.0004802504
        0.0180417458  -0.0032431813   0.4771244536   0.0570645092  -0.0472777131
       -0.1482334131   0.0088841168  -0.0163225252  -0.0241866669  -0.0020999486
       -0.0045026643   0.0009164147   0.0002649900  -0.0003904882  -0.0008210707
        0.0001229621   0.0000468984   0.0001448832  -0.0000278736   0.0000134917
       -0.0000023052   0.0000507754  -0.0000546450   0.0000028326   0.0000104270
       -0.0000091407   0.0000132339   0.0000310297   0.0000347521  -0.0000267646
        0.0000248336   0.0000698346  -0.0000310796  -0.0000168605   0.0000900484
        0.0000004490  -0.0000037504   0.0000016164   0.0000564272  -0.0000159761
        0.0000313644  -0.0000584865  -0.0000099103  -0.0000067901  -0.0000117487
        0.0000087774   0.0000193475   0.0000282746   0.0000069347  -0.0000087898
        0.0001060881   0.0005843144  -0.0000335766  -0.0009942727  -0.0002114965
        0.0006298646  -0.0000518303  -0.0001050198  -0.0000521985  -0.0000684445
        0.0000291425   0.0000474350   0.0000005344  -0.0000276846   0.0000247600
        0.0000024391  -0.0000275990  -0.0000113125  -0.0000054281  -0.0000258944
       -0.0000565174  -0.0000085124   0.0000017745   0.0000258489   0.0000105605
        0.0000847792   0.0000090693   0.0000607063   0.0000265140   0.0000054018
        0.0000466939   0.0000125025   0.0000319470   0.0000480739  -0.0000095144
        0.0000414924  -0.0000316115  -0.0000179830   0.0000071670  -0.0000422605
        0.0000168412  -0.0000558723   0.0000479558   0.0003151486  -0.0020801176
        0.0031613837   0.0098920701  -0.0013952961  -0.0041596746  -0.0013371213
        0.0006237314  -0.0021214767   0.0007452447   0.0049725942  -0.0375432582
       -0.0210831435  -0.0043033713  -0.0452716036  -0.0702696042   0.0718766107
       -0.2188706322   0.0011423467   0.0017867528  -0.0000982909  -0.0000206669
       -0.0000705452   0.0000394268  -0.0000205130   0.0000078757  -0.0000126647
       -0.0000450056   0.0000062826   0.0000016992  -0.0000463861  -0.0000209025
        0.0000028298  -0.0000001322  -0.0000118559   0.0000002444  -0.0000104167
       -0.0000416082  -0.0001476335   0.0000100662  -0.0000474828   0.0000411135
       -0.0000053970  -0.0000390756   0.0000122584  -0.0000067996  -0.0000413958
       -0.0000024431   0.0000041246   0.0000072696  -0.0000064160  -0.0000042915
       -0.0000225630  -0.0000000300   0.0000319038  -0.0000216716  -0.0000002816
        0.0000402307   0.0000020511   0.0000017206   0.0000207645   0.0000147047
       -0.0000043167   0.0000081963  -0.0000558030   0.0000097744   0.0000007849
        0.0000166898  -0.0000087132  -0.0000073687  -0.0000395181  -0.0000113608
       -0.0000012697  -0.0000420595   0.0000104996   0.0000113852  -0.0000329087
        0.0000297924  -0.0000135012   0.0000065099  -0.0000646687  -0.0001054242
       -0.0000124389  -0.0001026944  -0.0002267775  -0.0001199819  -0.0000508716
       -0.0003294523   0.0005120875   0.0003616647  -0.0013564541  -0.0005394886
        0.0007684974
       -0.1073432022   0.0286864621   0.0570645092   0.6099242163   0.0686052392
       -0.0247655281  -0.1420036471  -0.0434970087  -0.0391955533   0.0508930787
       -0.0085670775  -0.0282329900   0.0021751036   0.0031632685   0.0055567570
       -0.0003532888  -0.0003024296  -0.0004396393   0.0000618462  -0.0002303062
        0.0001300542  -0.0000472669  -0.0000203632   0.0000891026   0.0000618640
        0.0000357439  -0.0000147994   0.0000659851  -0.0000473471   0.0000476405
       -0.0000613750   0.0001791144  -0.0000302712  -0.0005783640  -0.0005505160
       -0.0007431731  -0.0001406398   0.0002027846  -0.0000872921   0.0000368978
        0.0001114943  -0.0000412864   0.0000209641   0.0000232036  -0.0000019621
        0.0000001923  -0.0000519069  -0.0000418936  -0.0000671897  -0.0002121679
        0.0002716584  -0.0420084340  -0.0202579893  -0.0220697747  -0.0012931150
       -0.0004937899   0.0009359246  -0.0000683873  -0.0001002902  -0.0000656919
        0.0002094328  -0.0000082754   0.0000161548  -0.0000771727  -0.0000456208
        0.0000006102  -0.0000491299   0.0000695746  -0.0000102076   0.0000848351
       -0.0000039381   0.0000420585  -0.0000319376  -0.0000629260   0.0001582817
        0.0006991446  -0.0001236902  -0.0006429920   0.0000659172  -0.0000877537
        0.0002070221  -0.0000952631   0.0000136735   0.0000530586   0.0000055769
        0.0000167557  -0.0000218993  -0.0001168472   0.0000610642  -0.0000024525
        0.0000512661  -0.0000367567  -0.0000474556  -0.0344094550   0.0380217467
        0.0677509733  -0.2798293411  -0.0495367684  -0.0133179097  -0.0205237026
       -0.0084331993  -0.0067257613   0.0020354264   0.0024566189   0.0005463580
       -0.0212047928   0.0108423112   0.0225599876   0.0061929562  -0.0029964665
       -0.0036397384  -0.0189121818  -0.0161524443  -0.0186639646   0.0001021133
       -0.0000111612  -0.0000137651  -0.0000162316   0.0000480276  -0.0000144030
       -0.0000184920   0.0000104224  -0.0000128577  -0.0000329076   0.0000089156
        0.0000002500   0.0000033676  -0.0000011055  -0.0000234875   0.0002283806
        0.0000356557  -0.0000818295   0.0000021589  -0.0000255768   0.0000335441
       -0.0000125025  -0.0000205006   0.0000067960  -0.0000048727  -0.0000617245
       -0.0000072543  -0.0000164201   0.0000156551   0.0000048450  -0.0000395022
       -0.0000381937   0.0000174375   0.0000191566  -0.0000228286   0.0000027535
        0.0000185884   0.0000094188  -0.0000050977  -0.0000051963   0.0000368858
        0.0000030026  -0.0001694132   0.0001017212   0.0000419817   0.0000240567
        0.0000313308  -0.0000083939  -0.0000175005  -0.0000515383  -0.0000125939
        0.0000306284  -0.0000329647  -0.0000055640   0.0000105920  -0.0000093182
        0.0000292713  -0.0000317904  -0.0000120202   0.0001152534  -0.0004351875
        0.0000372644   0.0028753905  -0.0016083803  -0.0016725851  -0.0018212162
       -0.0007969671   0.0009935024   0.0007744596  -0.0006036481  -0.0000393064
        0.0014735625
        0.0321844834  -0.0850076271  -0.0472777131   0.0686052392   0.3020717170
        0.2202644348  -0.0862775324  -0.1258468329  -0.0976874102   0.0224584874
       -0.0176096248  -0.0373571059   0.0005798923   0.0029783118  -0.0036789721
        0.0002131689  -0.0000004813   0.0001015166   0.0000911317   0.0000423100
        0.0001756879  -0.0000084612  -0.0000012975  -0.0000296972   0.0000145303
        0.0000449994  -0.0000394330   0.0000487525  -0.0000907584   0.0000042853
       -0.0001044202  -0.0000307693   0.0000907024   0.0001259334   0.0005618517
        0.0008888755  -0.0000406562  -0.0000938497   0.0000999487   0.0000722680
        0.0000043012   0.0001070260   0.0000193877   0.0000234633   0.0000388242
        0.0000346667   0.0000739842  -0.0000014232   0.0000227691   0.0001987075
       -0.0001465565  -0.0204028573  -0.0114476911  -0.0041563358  -0.0000160335
       -0.0009195569  -0.0007352391   0.0000884851   0.0000654209   0.0000062821
       -0.0000369538  -0.0000747284   0.0000124616   0.0000037450  -0.0000134478
       -0.0000100725  -0.0000291227   0.0000249298   0.0000006671   0.0000277625
        0.0000300510   0.0000047018  -0.0000848113   0.0000086976   0.0000199194
        0.0000957518   0.0002085582  -0.0001544877   0.0000233586   0.0000507479
       -0.0000505956  -0.0000171639  -0.0000050820   0.0000058259   0.0000068977
       -0.0000082930   0.0000114856  -0.0000348658  -0.0000082077   0.0000518021
       -0.0000192013   0.0000458473  -0.0000174471   0.0085401934   0.0143736118
        0.0198555429  -0.0103697828  -0.0681170102  -0.0184799223  -0.0164734592
       -0.0034629229  -0.0017773589   0.0149431606  -0.0164177561  -0.0253751342
       -0.0020240147   0.0025952842   0.0042268239  -0.0057984708   0.0038538995
        0.0033658769  -0.0041998966  -0.0019168947  -0.0039136110   0.0000038810
        0.0000088140  -0.0000370150   0.0000002016  -0.0000048949   0.0000077604
        0.0000099102  -0.0000061713   0.0000014855   0.0000071070   0.0000054152
       -0.0000036013  -0.0000248318  -0.0000053484  -0.0000117275   0.0000515891
       -0.0004322412   0.0000294927  -0.0000052172  -0.0000033856   0.0000197200
        0.0000090928   0.0000303947   0.0000138883   0.0000145526   0.0000394005
        0.0000091929   0.0000185760   0.0000541817   0.0000519923  -0.0000039195
        0.0000079834  -0.0000005413  -0.0000185364   0.0000040771  -0.0000013837
       -0.0000141664  -0.0000029242  -0.0000020879  -0.0000129351  -0.0000199318
       -0.0000015062   0.0000045566   0.0000182850  -0.0000248682   0.0000178390
        0.0000133073   0.0000552564   0.0000040074   0.0000159158   0.0000177700
        0.0000164122   0.0000163668   0.0000086576  -0.0000024276   0.0000055105
        0.0000064562   0.0000674381  -0.0000092029   0.0000808238   0.0006281568
        0.0045219987  -0.0050517191  -0.0019677605  -0.0009964529  -0.0027997018
       -0.0006245806  -0.0001044241  -0.0003612347  -0.0004413068   0.0006594644
       -0.0004512843
        0.0624191261  -0.0463991485  -0.1482334131  -0.0247655281   0.2202644348
        0.4900714206  -0.1050629811  -0.1095477882  -0.1852196113   0.0205211209
       -0.0286865685  -0.0474149747   0.0021874289  -0.0024293404   0.0001271492
        0.0002561393   0.0002479294   0.0006065145   0.0000334948   0.0001088025
        0.0001319183  -0.0000760130   0.0001008557  -0.0000427859   0.0000244409
        0.0000715505  -0.0000300153   0.0000344286  -0.0001421624  -0.0000211801
       -0.0001433886  -0.0001518157   0.0000733016  -0.0001498019  -0.0005474324
       -0.0008015174  -0.0001120606   0.0002835889  -0.0001825185   0.0000484739
        0.0000555665   0.0000779369   0.0000388182   0.0000501284   0.0000102336
       -0.0000449449  -0.0000200169  -0.0000535058  -0.0001144519  -0.0001426998
        0.0000766819  -0.0206970325  -0.0036993774  -0.0050291646   0.0006155478
       -0.0013931635  -0.0013656029   0.0001054215   0.0000825660   0.0000705456
       -0.0000951831  -0.0000958469   0.0000085295   0.0000057040  -0.0000075907
       -0.0000056881  -0.0000284398   0.0000117476  -0.0000082222   0.0000421881
        0.0000433335   0.0000173543  -0.0001001106  -0.0000099911   0.0000544712
       -0.0000653213   0.0003404611  -0.0000380104   0.0000152190   0.0001036966
       -0.0001052178   0.0000025457  -0.0000024705  -0.0000241483   0.0000107505
       -0.0000119061   0.0000140784  -0.0000140888  -0.0000294210   0.0000608806
       -0.0000392926   0.0001099866   0.0000002755   0.0231142129   0.0112783496
        0.0107184959   0.0465188643  -0.0072415251  -0.0783992250  -0.0193408710
       -0.0040961449  -0.0000484433  -0.0001320284  -0.0071288876  -0.0042421221
        0.0029775145   0.0006088669   0.0003395662   0.0118990784  -0.0121906029
       -0.0282892073  -0.0005523460  -0.0005682605   0.0007812380   0.0000656180
        0.0000608069  -0.0000837738   0.0000035591  -0.0000142869   0.0000101226
        0.0000451676  -0.0000004662   0.0000027866   0.0000394387   0.0000276145
       -0.0000115302  -0.0000020514   0.0000468287  -0.0000162364   0.0001365592
       -0.0002475371   0.0002991429  -0.0000156781   0.0000404133  -0.0000086873
        0.0000129485   0.0000389529   0.0000058836   0.0000189028   0.0000080495
        0.0000153277   0.0000268111  -0.0000030453   0.0000905172  -0.0000014652
        0.0000376242  -0.0000081905  -0.0000335282   0.0000172537  -0.0000017409
       -0.0000289189  -0.0000023481  -0.0000002308  -0.0000116605  -0.0000253027
        0.0000015660  -0.0000019496   0.0000390331  -0.0000229719   0.0000054239
        0.0000170021   0.0000586884   0.0000074264   0.0000312555   0.0000212402
        0.0000107013   0.0000303694  -0.0000046819  -0.0000136540   0.0000091382
       -0.0000114759   0.0001125601  -0.0000463646   0.0000522707   0.0034184622
       -0.0050560360  -0.0008996378  -0.0022510348  -0.0028731393  -0.0026422130
       -0.0002702047  -0.0011558202   0.0001512416  -0.0006100676  -0.0001996989
       -0.0006834349
        0.0048271645   0.0060591200   0.0088841168  -0.1420036471  -0.0862775324
       -0.1050629811   0.6385401814   0.0673946411  -0.0463390771  -0.1484231232
        0.0587313874   0.1189789265   0.0056255046  -0.0017262394  -0.0045928165
        0.0000114653  -0.0004463589  -0.0008655949  -0.0003650776   0.0001208616
       -0.0003336394   0.0001236654  -0.0000443950  -0.0000202791  -0.0001834726
       -0.0000755999   0.0001272565  -0.0001255296   0.0001602182   0.0000569363
       -0.0000185149   0.0001168534  -0.0001392207  -0.0005586478  -0.0007712223
       -0.0005294144  -0.0002167904  -0.0004091242   0.0000043524  -0.0000250457
       -0.0000396728  -0.0001105421   0.0000261575   0.0000337509   0.0000303785
        0.0000032626   0.0000813075  -0.0000032091   0.0000255133  -0.0003697169
        0.0003840733  -0.0337788078   0.0077185348   0.0231641570  -0.0038833599
       -0.0014660417   0.0003993859  -0.0003361380   0.0005432859   0.0011651484
       -0.0001241573  -0.0000776807  -0.0000227259   0.0000087068  -0.0000290601
       -0.0001315228   0.0000488854   0.0000229942   0.0000068226  -0.0000245071
        0.0000563565  -0.0000820088   0.0000214170   0.0000286348  -0.0000366113
        0.0002866921  -0.0001384889  -0.0002035436   0.0000961007   0.0000249134
        0.0001258281  -0.0000148246   0.0000035985   0.0000125242   0.0000169117
        0.0000464451   0.0000141008  -0.0000214134   0.0000630962  -0.0000180123
        0.0000283710  -0.0000146893  -0.0001053889   0.0028901234   0.0013919749
        0.0004236445  -0.0313451411  -0.0181515700  -0.0191983581  -0.0048825997
       -0.0012277833   0.0013801143  -0.0007469475   0.0014616367   0.0019099279
        0.0011662236   0.0015756253   0.0019885694  -0.0005957658   0.0009686140
        0.0020209924  -0.2859607763  -0.0347771568   0.0173642169   0.0000271503
       -0.0001367351   0.0000862281  -0.0000240009   0.0000467252  -0.0000600993
       -0.0000720688   0.0000166615  -0.0000131408  -0.0000899444  -0.0000423606
       -0.0000067154   0.0000406632  -0.0001131950  -0.0000082520   0.0002819388
        0.0005240873  -0.0001886924   0.0000253538  -0.0000574444   0.0000828082
       -0.0000097716  -0.0000927602   0.0000260855  -0.0000404659  -0.0001107503
       -0.0000283171   0.0000182503   0.0000249437   0.0000588264  -0.0000112195
       -0.0000511538   0.0000435690  -0.0000122333   0.0000031542   0.0000047582
       -0.0000073646  -0.0000059998   0.0000191173   0.0000010018   0.0000037100
       -0.0000039989  -0.0000499645   0.0000825317   0.0000300124  -0.0000433380
       -0.0000007700  -0.0000475826  -0.0000204846  -0.0000271990  -0.0000161313
       -0.0000014785  -0.0000255998  -0.0000078056  -0.0000027145  -0.0000107126
        0.0000059619  -0.0000705803  -0.0000182790   0.0000516206   0.0007309688
       -0.0000364425  -0.0001200863  -0.0008543128  -0.0008306765  -0.0009623861
       -0.0000904683   0.0001488207   0.0000224259   0.0001630245   0.0001479265
        0.0003852676
       -0.0037456396  -0.0080820661  -0.0163225252  -0.0434970087  -0.1258468329
       -0.1095477882   0.0673946411   0.2754670465   0.2336562694   0.0299187977
       -0.0904295187  -0.0843461862   0.0004564870  -0.0103413944  -0.0160523659
        0.0006986593   0.0002825735   0.0010397054  -0.0001786972   0.0001422395
        0.0001388860  -0.0001318155   0.0001106879  -0.0001408474  -0.0000718881
        0.0001122189  -0.0000252277   0.0001009431  -0.0001934781  -0.0001181006
       -0.0002503512  -0.0001281475   0.0000080460   0.0002742329   0.0006293321
        0.0010284274   0.0001089761  -0.0008890936  -0.0001472823  -0.0000403832
       -0.0000220433  -0.0000541818  -0.0000189240  -0.0000165948   0.0000685059
        0.0000176074   0.0000597086   0.0000059156  -0.0000236521   0.0001185852
       -0.0001900370   0.0336829174   0.0142543294   0.0091038361  -0.0013207204
        0.0042474252  -0.0007673847  -0.0004548832   0.0001650740  -0.0000490369
       -0.0001631746  -0.0000152177  -0.0000546872   0.0000126778   0.0000386318
       -0.0000120415   0.0000549991  -0.0000557098   0.0000128452  -0.0001011484
       -0.0000168470  -0.0000260154   0.0001009160   0.0000441455  -0.0000612403
       -0.0006365963   0.0000775033   0.0008836654  -0.0000552547   0.0001963927
       -0.0002371138   0.0001004247   0.0000084247  -0.0000483483  -0.0000149367
       -0.0000164949   0.0000282217   0.0001028830  -0.0000350558  -0.0000046118
       -0.0000243930   0.0000219011   0.0000495707   0.0015727931  -0.0197900715
       -0.0249932157  -0.0475448842  -0.0014561051   0.0114718644  -0.0009898379
        0.0051201292  -0.0019614656   0.0007997589  -0.0007044855  -0.0012067971
       -0.0010433183   0.0001064432   0.0007731215   0.0005526398  -0.0005731467
       -0.0000773674  -0.0360522977  -0.0415934957  -0.0020177082   0.0001868032
        0.0002273676  -0.0000026131  -0.0000003993   0.0000544319  -0.0000048466
        0.0000255929   0.0000418236   0.0000173640   0.0000022391   0.0000313574
       -0.0000075812   0.0000516960   0.0001419908   0.0000096418  -0.0001006696
       -0.0014969288   0.0006237378   0.0000337967  -0.0000250299   0.0000314507
       -0.0000028683  -0.0000292611  -0.0000120859  -0.0000122699   0.0000309789
       -0.0000079492   0.0000026346  -0.0000251664   0.0000369365   0.0000255439
        0.0000169493  -0.0000012786  -0.0000002880   0.0000048633   0.0000085333
        0.0000077225   0.0000019333   0.0000094044   0.0000105398   0.0000123028
       -0.0000005438   0.0000922650  -0.0000603167   0.0000105393  -0.0000160253
       -0.0000188102   0.0000373588  -0.0000017264   0.0000484877  -0.0000006885
       -0.0000296066   0.0000096034  -0.0000002531   0.0000026669   0.0000087458
       -0.0000076898  -0.0000543317   0.0000459860  -0.0000069618   0.0000808151
       -0.0001056917  -0.0002937543  -0.0000309403   0.0000410863  -0.0003011219
        0.0006285623   0.0005667749   0.0006060527  -0.0004923022  -0.0005204716
       -0.0005509561
       -0.0062525286  -0.0190022314  -0.0241866669  -0.0391955533  -0.0976874102
       -0.1852196113  -0.0463390771   0.2336562694   0.4844659699   0.0738958626
       -0.0913494536  -0.2046947821  -0.0020284367  -0.0147186938  -0.0227703433
        0.0008131387   0.0000660651   0.0001055052  -0.0005276546   0.0000252157
       -0.0003545216   0.0002810981  -0.0000845281  -0.0002148254  -0.0000519697
       -0.0000992386   0.0000340618   0.0000324396   0.0000609100  -0.0002119536
        0.0003220848  -0.0001385738  -0.0000580625   0.0007056272   0.0018899102
        0.0002009396   0.0001541412   0.0000297105   0.0002432283   0.0000854235
       -0.0001124261   0.0001925148   0.0000232975   0.0000354110   0.0001094891
       -0.0000356915   0.0001332829  -0.0001368915  -0.0001421805  -0.0001731718
       -0.0001989758   0.0637586534   0.0161027942   0.0108253410   0.0004866628
        0.0002384728   0.0033525169  -0.0001249670  -0.0000734296  -0.0001240500
       -0.0001638091   0.0000790926  -0.0000349387   0.0000646332   0.0000535498
        0.0000174956   0.0000308575  -0.0000737112   0.0000167832  -0.0000682136
       -0.0000369643  -0.0000050004   0.0000276526   0.0000323470  -0.0001991589
       -0.0000899876  -0.0010782769  -0.0002690944  -0.0000869016  -0.0002338411
       -0.0000889280   0.0000001796   0.0000061359  -0.0000808542  -0.0000139498
       -0.0000820332   0.0000185801   0.0000870275   0.0000000197  -0.0000752850
       -0.0000684775  -0.0000355003  -0.0000270620   0.0002822587  -0.0253802206
       -0.0430791237  -0.0643906188   0.0034094645   0.0232780698   0.0016300754
       -0.0019733714   0.0030408831   0.0009532431  -0.0003957851  -0.0017254728
       -0.0020201475   0.0000405730   0.0004819985   0.0012637547  -0.0012197755
       -0.0020015225   0.0160256545  -0.0021883106  -0.0408065468  -0.0001269810
        0.0002944332  -0.0002248551   0.0000037074  -0.0000056176  -0.0000009597
        0.0000241564   0.0000098197   0.0000411641   0.0000223442   0.0000120663
        0.0000092351  -0.0000406599   0.0000459640  -0.0000075475   0.0001098666
       -0.0003712833   0.0006738512   0.0000234479   0.0000229600   0.0000064297
        0.0000196800   0.0000644089   0.0000220005   0.0000204510   0.0000531961
        0.0000415983   0.0000704584   0.0000625685   0.0001169899   0.0000417069
        0.0000411142  -0.0000112296   0.0000163182   0.0000099398  -0.0000005221
        0.0000167846   0.0000034031  -0.0000044396   0.0000130840   0.0000096219
       -0.0000000886   0.0001630785  -0.0001070413  -0.0000056694  -0.0000193478
       -0.0000141267   0.0000534590   0.0000180734   0.0000255111   0.0000127394
       -0.0000231597   0.0000134909   0.0000162549   0.0000132038   0.0000317434
        0.0000135921  -0.0000317316   0.0001143341  -0.0000524401  -0.0001217975
       -0.0000173990  -0.0005424853   0.0002815689  -0.0000578885   0.0000608511
       -0.0002936522  -0.0002495179  -0.0004406375   0.0004757979   0.0002860218
        0.0004030038
       -0.0002929234  -0.0030300093  -0.0020999486   0.0508930787   0.0224584874
        0.0205211209  -0.1484231232   0.0299187977   0.0738958626   0.5643494325
        0.0261079106  -0.0952018187  -0.0397076895  -0.0179770385  -0.0245116831
       -0.0127126138  -0.0072530616  -0.0124497502   0.0000762241  -0.0018385989
        0.0004405887  -0.0001577199   0.0000379120   0.0010714654   0.0001786002
       -0.0003744052   0.0000575074  -0.0006584060   0.0009035283   0.0014103999
        0.0001179185   0.0016138777  -0.0009790387  -0.0014671752  -0.0047208459
       -0.0011533800  -0.0001917010   0.0000768789  -0.0004333539  -0.0001272567
        0.0000106440  -0.0000889693  -0.0000332061  -0.0000282396  -0.0000710981
        0.0000039650  -0.0001862305   0.0000060800   0.0005920491  -0.0003835641
       -0.0001516913  -0.2974657191  -0.0272624761   0.0343998137  -0.0214946175
        0.0076987967   0.0185043666  -0.0004823580   0.0014974657   0.0011501574
       -0.0008533655  -0.0001192722  -0.0000105039   0.0000924939   0.0002095930
       -0.0001536696   0.0001061614  -0.0001083380   0.0000455136   0.0000789260
       -0.0000585646  -0.0000910896   0.0000112754   0.0000007483  -0.0001934089
        0.0002363309  -0.0017835152  -0.0001655334  -0.0000528735   0.0002066564
        0.0004614337  -0.0000389812  -0.0001742754   0.0001689543  -0.0000648273
       -0.0001050271  -0.0000988782   0.0000037654   0.0000308482  -0.0001867763
        0.0000592353   0.0000788553  -0.0002631890  -0.0307483345  -0.0437393090
       -0.0581854314  -0.0431208275   0.0095547916   0.0258142358  -0.0000612345
       -0.0003610127  -0.0007274708   0.0003294432  -0.0000146051  -0.0000845897
       -0.0000931025  -0.0000805590  -0.0001347879   0.0001102480   0.0002397987
        0.0003741542  -0.0181878799   0.0118029034   0.0225868957  -0.0000005091
       -0.0000043928  -0.0006190797   0.0000754203  -0.0000324401  -0.0000319665
       -0.0000051664  -0.0000823182  -0.0002824381  -0.0001235557   0.0000542928
        0.0000376341  -0.0000607814  -0.0001062642  -0.0005617740   0.0003272832
       -0.0003990713   0.0000490893  -0.0000083110   0.0000991503  -0.0001026445
        0.0000069687   0.0000518599  -0.0000324566  -0.0000642507   0.0000527518
        0.0000297040  -0.0000368223   0.0000369012  -0.0000585843   0.0000018342
       -0.0000517267   0.0000714947  -0.0000407564  -0.0000171075   0.0000001229
        0.0000235730  -0.0000115667   0.0000316493   0.0000191789  -0.0000070626
       -0.0000226540   0.0001118082  -0.0003109027   0.0000848985   0.0000425174
       -0.0000256986  -0.0001487049   0.0000049223  -0.0000678362  -0.0000349816
       -0.0000156057  -0.0000528708  -0.0000177462   0.0000056786  -0.0000335764