$hessian                                                                        
        0.3410428055   0.2260900988   0.1513660108  -0.1405511577  -0.0400450720
       -0.1381850988  -0.0268865319  -0.0396387860  -0.0030882006  -0.0088705529
        0.0088526691  -0.0187993005  -0.0005699690  -0.0005391045   0.0000385219
       -0.0000677392   0.0003047769  -0.0001244708  -0.0000543362  -0.0000098896
        0.0000275337   0.0000553583  -0.0000225771   0.0000370037  -0.0000414548
       -0.0000059183   0.0000119278   0.0000279052   0.0000143015  -0.0000239831
        0.0000906927  -0.0000133157   0.0000602657  -0.0000303380   0.0000769849
       -0.0000364545  -0.0000440814  -0.0000193451   0.0000238546   0.0000029398
        0.0000270405   0.0000003140  -0.0000110958  -0.0000115663  -0.0000045447
        0.0000077155   0.0000019887  -0.0000009103   0.0000046752  -0.0000031030
       -0.0000023219  -0.0000052832  -0.0000033115  -0.0000012770  -0.0000020972
        0.0000042479  -0.0000000963  -0.0000042886   0.0000135579  -0.0000011032
       -0.0000053378  -0.0000154925   0.0000030621   0.0000102158  -0.0000107369
       -0.0000110497  -0.0000077746  -0.0000005355  -0.0000014857   0.0000022060
        0.0000004418   0.0000032064  -0.0000066207   0.0000096113   0.0000010778
       -0.0000010937   0.0000004298  -0.0000013549   0.0000053117  -0.0000017375
        0.0000049976  -0.0000062165   0.0000025639  -0.0000040674   0.0000064080
       -0.0000322079   0.0000111291   0.0001452057   0.0000809614   0.0001503738
       -0.0000846879  -0.0000907504  -0.0000602133   0.0000574946  -0.0000541417
        0.0000206701  -0.0000016712   0.0000588517   0.0000305119  -0.0000231384
       -0.0000098974  -0.0000681678   0.0000418258  -0.0000004567   0.0000671136
       -0.0001885641   0.0000627410  -0.0000793897   0.0000285125   0.0000442156
        0.0000060624   0.0000067275   0.0000039464  -0.0000013722   0.0123285202
        0.0020224270   0.0206852311  -0.0670927382  -0.0325709968   0.0057047038
       -0.1150027261  -0.1209668179   0.0022719187  -0.0002108854  -0.0000832716
       -0.0017142176   0.0031721431  -0.0059526406  -0.0018704989   0.0000048715
        0.0000029861  -0.0000315060   0.0000001015  -0.0000025831  -0.0000126947
        0.0000089342  -0.0000048365  -0.0000139747   0.0000344181  -0.0000116464
       -0.0000259182  -0.0000733511  -0.0000816704  -0.0000066659  -0.0000043562
       -0.0000110788  -0.0000020766   0.0000005111  -0.0000038761  -0.0000008222
       -0.0000026929  -0.0000028864  -0.0000023095  -0.0000013669  -0.0000024685
        0.0000006125  -0.0000004098  -0.0000015456   0.0000009601  -0.0000006549
       -0.0000025272   0.0000000976   0.0000009575  -0.0000088069   0.0000000274
        0.0000004445   0.0000008678   0.0000069233   0.0000002694  -0.0000023111
        0.0000058815  -0.0000003802   0.0000005976   0.0000051945   0.0000033410
        0.0000008209   0.0000097184   0.0000197027   0.0000252164   0.0000526805
       -0.0000009260   0.0000040686   0.0000142085   0.0000173570   0.0000076001
        0.0000184757   0.0000068920   0.0000317299   0.0000161522   0.0000661975
       -0.0000034521   0.0000447453   0.0031594183  -0.0061621380  -0.0016109694
       -0.0005055611   0.0086577558  -0.0149146522
        0.2260900988   0.5221760851  -0.1040667839  -0.0691220417  -0.0992946136
       -0.0711365800  -0.0173598119  -0.0083525296  -0.0232635874   0.0089253533
        0.0003777935   0.0095133176  -0.0004942045  -0.0011023498  -0.0000001234
       -0.0000697129   0.0003103023  -0.0002180385  -0.0000833810  -0.0000793829
        0.0000755508  -0.0000508069   0.0000012966   0.0000249707   0.0000269905
        0.0000150174  -0.0000198749   0.0000269197  -0.0000046257   0.0000409354
        0.0000413552   0.0000256605  -0.0000172251   0.0001007241  -0.0000717909
        0.0000235588  -0.0000461513  -0.0000257200   0.0000137870   0.0000087472
        0.0000082752   0.0000093299  -0.0000142291  -0.0000184093  -0.0000079892
        0.0000129951   0.0000012384   0.0000000474   0.0000044378  -0.0000013734
        0.0000002656  -0.0000070469  -0.0000062089  -0.0000028585  -0.0000049987
        0.0000062941   0.0000001764  -0.0000034787   0.0000134610  -0.0000038476
       -0.0000046349  -0.0000222081   0.0000066909   0.0000345102  -0.0000129122
       -0.0000142746  -0.0000175699   0.0000054952  -0.0000026749   0.0000201895
        0.0000003599   0.0000201617  -0.0000092864   0.0000112345  -0.0000089729
       -0.0000017128  -0.0000019318  -0.0000049583   0.0000042526   0.0000017807
        0.0000046016  -0.0000055667   0.0000054367  -0.0000120377   0.0000054691
       -0.0000699720  -0.0000218330   0.0003894739   0.0001302627   0.0001892989
       -0.0000071743  -0.0000850954  -0.0000408952  -0.0000306402   0.0000327422
       -0.0000332070   0.0000231594  -0.0000365499   0.0000076916  -0.0000040015
        0.0000324124  -0.0000106899  -0.0000274949   0.0000716408  -0.0000675062
        0.0000161420   0.0000320111   0.0000016908   0.0000445642   0.0000682988
       -0.0000019006  -0.0000038058   0.0000075971  -0.0000036773  -0.0202270493
       -0.0401703167   0.0170188671  -0.0034594850  -0.1593185517   0.1506432856
       -0.1210138135  -0.2191174113   0.0097344742   0.0087707219   0.0039021464
        0.0140377293  -0.0061458049  -0.0018724033   0.0012917478   0.0000015793
        0.0000264490  -0.0000717082  -0.0000008579   0.0000046337  -0.0000141942
        0.0000015829   0.0000087708  -0.0000186637   0.0000331799   0.0000123025
       -0.0000227812  -0.0000625588   0.0000105672  -0.0000404066  -0.0000197329
       -0.0000052870   0.0000039503  -0.0000034806  -0.0000037419  -0.0000001063
       -0.0000030341  -0.0000033937  -0.0000004490  -0.0000031547  -0.0000029581
       -0.0000005716  -0.0000034102  -0.0000032263  -0.0000008108  -0.0000040870
       -0.0000006193  -0.0000029756   0.0000033377  -0.0000153571  -0.0000117834
       -0.0000040452  -0.0000025577   0.0000035540  -0.0000040140   0.0000033951
        0.0000006324  -0.0000047495  -0.0000009701  -0.0000001258   0.0000011368
       -0.0000013872   0.0000051109   0.0000100641   0.0000261590   0.0000561766
       -0.0000027898   0.0000038090   0.0000168052   0.0000081394   0.0000126427
        0.0000193481  -0.0000236385   0.0000572990   0.0000333610  -0.0000625881
       -0.0001126078   0.0000511843  -0.0059481187  -0.0018963201   0.0017154756
       -0.0002409607   0.0043099121  -0.0054196656
        0.1513660108  -0.1040667839   0.5779742647  -0.0964554982  -0.0097622979
       -0.2346656588  -0.0340065284  -0.0697830654   0.0278798578  -0.0184998523
        0.0093293311  -0.0592455674  -0.0000660438   0.0001319767  -0.0002892167
       -0.0001205576   0.0001308958   0.0000806249   0.0000073375   0.0002495639
       -0.0000422409   0.0001339706   0.0000374481   0.0000652817  -0.0000483530
        0.0000128224   0.0000400646  -0.0000216803   0.0000425443  -0.0000937566
        0.0000693571  -0.0000017039   0.0001020558  -0.0001006557   0.0002034532
       -0.0001411333  -0.0000458281  -0.0000534606   0.0000566306  -0.0000052097
        0.0000499750  -0.0000083603  -0.0000136853  -0.0000047086   0.0000096363
        0.0000113070   0.0000084906  -0.0000144505  -0.0000061343  -0.0000080132
        0.0000074514   0.0000048523  -0.0000016114  -0.0000009179   0.0000025732
        0.0000057592  -0.0000032901  -0.0000023863   0.0000055824  -0.0000141197
       -0.0000010653   0.0000093858  -0.0000045232  -0.0000263006  -0.0000162519
        0.0000111073   0.0000151332  -0.0000162979  -0.0000072087  -0.0000228520
        0.0000037860  -0.0000274621  -0.0000030298  -0.0000042782  -0.0000018503
       -0.0000000177  -0.0000054443  -0.0000047224   0.0000015763  -0.0000065708
       -0.0000071676  -0.0000020648  -0.0000032993  -0.0000062569   0.0000351577
        0.0000574376   0.0000709072  -0.0002166340   0.0000798310   0.0000671282
       -0.0003333909  -0.0001167711  -0.0000375197   0.0000908769  -0.0001501820
        0.0001317375  -0.0000355828   0.0001018311   0.0000466087  -0.0000613009
       -0.0000443370  -0.0001534039   0.0000437502  -0.0001115973   0.0001667813
       -0.0003265445   0.0000085649  -0.0001674200   0.0000145868  -0.0000136137
        0.0000034785   0.0000140696   0.0000004131   0.0000010420   0.0523544785
        0.0630533238   0.0203612628  -0.0359095286   0.0892225061  -0.2488191575
        0.0022761375   0.0097539262  -0.0431784961  -0.0145277778  -0.0046075130
       -0.0227790198  -0.0015576706   0.0017796437   0.0023032216  -0.0000088470
       -0.0000361912   0.0000756460  -0.0000082342  -0.0000099890   0.0000174733
       -0.0000113168  -0.0000119640   0.0000191666  -0.0000105437  -0.0000189743
        0.0000338215  -0.0000185968  -0.0001242061   0.0001012219   0.0000191174
       -0.0000139135  -0.0000029635   0.0000039575   0.0000030021   0.0000000959
        0.0000011129  -0.0000006702  -0.0000050425   0.0000034927  -0.0000004127
       -0.0000060488   0.0000021616   0.0000004873  -0.0000049015   0.0000001254
       -0.0000028352  -0.0000028268  -0.0000035894  -0.0000032054   0.0000124505
       -0.0000013422   0.0000056747   0.0000113668   0.0000017815   0.0000022415
        0.0000034802   0.0000023200   0.0000017602   0.0000035156   0.0000072769
        0.0000046286   0.0000084339   0.0000289321   0.0000461164   0.0000518997
        0.0000034056   0.0000103214   0.0000166995   0.0000095424   0.0000176527
        0.0000091503   0.0000154778   0.0000295343   0.0000324048   0.0001518074
        0.0000728357   0.0000989132  -0.0019279811   0.0012319232   0.0023205173
       -0.0022850620   0.0132954932  -0.0224606966
       -0.1405511577  -0.0691220417  -0.0964554982   0.3361978954   0.2165972933
        0.1520529853  -0.1398374967  -0.1152005605  -0.0290810912   0.0112674684
       -0.0194068197   0.0513232741   0.0055275395  -0.0014950261  -0.0020753010
       -0.0004024173  -0.0014809306   0.0003787504  -0.0001260071  -0.0002190130
       -0.0001154514  -0.0001213240  -0.0000502869  -0.0000902085   0.0000200445
        0.0000056456  -0.0000219973   0.0000034453  -0.0000344815   0.0000172767
       -0.0000626457   0.0000242324  -0.0000867253  -0.0000177474   0.0001235961
        0.0002159248   0.0002498507  -0.0000891501   0.0002152954  -0.0000239071
       -0.0001164969  -0.0000353327   0.0000448039  -0.0000172972  -0.0000156315
       -0.0000135129  -0.0000120529  -0.0000051229   0.0000274341   0.0000014195
        0.0000051347  -0.0000169228   0.0000031014  -0.0000044041  -0.0000125379
       -0.0000071580   0.0000008158  -0.0000045972   0.0000079472  -0.0000028068
        0.0000028065  -0.0000007811  -0.0000275317   0.0000369813   0.0000733614
        0.0000105296  -0.0000129848   0.0000182538  -0.0000036641   0.0000058630
       -0.0000175285   0.0000018529   0.0000016660  -0.0000079171  -0.0000012332
       -0.0000089977   0.0000076350  -0.0000072270  -0.0000043565  -0.0000019094
       -0.0000143439   0.0000049685  -0.0000128795  -0.0000092504   0.0002353750
        0.0000360770   0.0001960971   0.0002837208   0.0007797680  -0.0004356174
        0.0001116693   0.0001026345  -0.0000145246  -0.0001454717   0.0000376440
       -0.0001118556   0.0000332473  -0.0001228914  -0.0000404405   0.0000546884
        0.0000496540   0.0000479836  -0.0002740382   0.0000361854   0.0000227210
        0.0000723938  -0.0000674731   0.0001831430  -0.0000410620   0.0000065440
       -0.0000129569   0.0000133254   0.0000214213  -0.0000435620  -0.0304026468
       -0.0250133053  -0.0163502698   0.0116426158   0.0419850047  -0.0378655107
       -0.0105080932  -0.0067448496  -0.0134768013  -0.0380267065  -0.0025134021
       -0.0048593033  -0.0102732919  -0.0153665970  -0.0014640063   0.0000115719
        0.0000241481  -0.0000322484   0.0000084603   0.0000121075   0.0000080935
        0.0000038395   0.0000078270  -0.0000006338   0.0000330168   0.0000128651
        0.0000097429   0.0000093906   0.0000183148  -0.0000895424  -0.0000186349
        0.0000046862   0.0000078079  -0.0000063435  -0.0000071304   0.0000036324
       -0.0000017379   0.0000034192  -0.0000032346   0.0000041242   0.0000025089
       -0.0000076050   0.0000065059  -0.0000028846  -0.0000062980   0.0000119555
        0.0000017702  -0.0000036323   0.0000022271   0.0000078692   0.0000028976
       -0.0000040143   0.0000015050  -0.0000000167  -0.0000024806  -0.0000014489
       -0.0000033140   0.0000020472   0.0000023538  -0.0000012978  -0.0000009848
        0.0000067748  -0.0000023457   0.0000160132   0.0000400577   0.0000250286
        0.0000241635   0.0000018225   0.0000262558   0.0000077320  -0.0000087600
        0.0000073063   0.0000232464   0.0000004412  -0.0000006680  -0.0000551219
       -0.0000033314  -0.0000337023  -0.0003465060  -0.0001614569  -0.0000613629
        0.0053216498  -0.0027600282  -0.0017889779
       -0.0400450720  -0.0992946136  -0.0097622979   0.2165972933   0.5131018306
       -0.1116249178  -0.1453731128  -0.2487522498  -0.0140664321   0.0017365027
       -0.0401156128   0.0628209337  -0.0016696925   0.0017953605   0.0039247513
        0.0001639733  -0.0001696081   0.0002291738  -0.0000121061  -0.0001625780
        0.0001193998  -0.0000978353  -0.0000349652  -0.0000994003   0.0000560501
       -0.0000055754  -0.0000494788  -0.0000102367  -0.0000333666   0.0000395061
       -0.0000801014   0.0000348756  -0.0001058156   0.0001397388  -0.0001339911
        0.0002322176  -0.0000154967   0.0001058984  -0.0003295828   0.0000488665
       -0.0000036241  -0.0000093449  -0.0000170459  -0.0000161899   0.0000245670
        0.0000060996   0.0000013360  -0.0000010216   0.0000027065  -0.0000115589
       -0.0000050717   0.0000005111  -0.0000257290   0.0000003679  -0.0000135548
        0.0000362310  -0.0000047216  -0.0000029529  -0.0000275893  -0.0000088533
       -0.0000169928   0.0000335190   0.0000344085  -0.0000268736  -0.0000238808
        0.0000336757  -0.0000106679  -0.0000014176  -0.0000056367   0.0000196999
       -0.0000144023   0.0000088383   0.0000110592  -0.0000074928  -0.0000015448
       -0.0000149292   0.0000167932   0.0000001145  -0.0000115895   0.0000021334
       -0.0000138079   0.0000109780  -0.0000077553  -0.0000149102  -0.0000164657
        0.0001633885  -0.0003846795  -0.0006637352  -0.0008793726  -0.0003614324
        0.0003245969   0.0000016814   0.0001733756  -0.0000650663  -0.0000013237
       -0.0002446493   0.0000172476  -0.0001567678  -0.0001233883   0.0000170540
        0.0001268099   0.0000886880   0.0000212312   0.0002946355  -0.0002062190
        0.0005502502  -0.0001800575   0.0000298243   0.0000096868  -0.0000323857
       -0.0000057882   0.0000142131   0.0000245085   0.0000594659  -0.0244232229
       -0.0271825653  -0.0206122032   0.0200598615   0.0403636954  -0.0135871775
       -0.0156862139  -0.0088258224  -0.0194190064  -0.0023408465  -0.1226953507
        0.1200819927  -0.0065166238  -0.0081741667  -0.0010910267   0.0000164296
        0.0000393474  -0.0000680351   0.0000110658   0.0000112859  -0.0000057232
        0.0000028254   0.0000134810  -0.0000183703   0.0000294520   0.0000259962
       -0.0000204585   0.0000490855  -0.0000368820  -0.0001579122  -0.0000279284
        0.0000064430   0.0000000481  -0.0000060302   0.0000088297   0.0000015260
       -0.0000073276   0.0000031441  -0.0000000909   0.0000001736   0.0000045779
        0.0000025014   0.0000021938  -0.0000036526   0.0000013298   0.0000019844
       -0.0000015027  -0.0000034092   0.0000138825  -0.0000016825   0.0000018015
       -0.0000020331   0.0000069959   0.0000124927  -0.0000040525   0.0000079351
        0.0000050070  -0.0000034542   0.0000058088   0.0000073362  -0.0000078977
        0.0000076472   0.0000050220  -0.0000032717   0.0000488375   0.0000473163
        0.0000218764   0.0000075769   0.0000497589  -0.0000063594  -0.0000243278
        0.0000303651  -0.0000153321   0.0000204454   0.0000174717  -0.0000826363
       -0.0000731179   0.0000530311  -0.0001465427   0.0000064652  -0.0006610397
       -0.0025132890   0.0007836645   0.0049371389
       -0.1381850988  -0.0711365800  -0.2346656588   0.1520529853  -0.1116249178
        0.5944021927   0.0117144924   0.0470913897  -0.0889043754   0.0210804858
        0.0168438710   0.0203913422  -0.0020774369   0.0040536300  -0.0027812290
        0.0005829854   0.0008376695  -0.0000006896   0.0001486270  -0.0000736444
       -0.0000677504  -0.0000995061   0.0000329550  -0.0001148494   0.0000599166
       -0.0000061422  -0.0000167640   0.0000072527  -0.0000312421   0.0000322317
       -0.0001428977  -0.0000115606  -0.0000941756   0.0000467631  -0.0000837429
       -0.0000227851  -0.0000938560   0.0003066641   0.0002470469   0.0000152985
        0.0000507037   0.0000146447   0.0000066292   0.0000267026  -0.0000120914
       -0.0000191195  -0.0000053622  -0.0000120729  -0.0000115426   0.0000012319
        0.0000164707   0.0000004749   0.0000114243   0.0000054263   0.0000040507
       -0.0000104600   0.0000016761  -0.0000027550  -0.0000017579  -0.0000027231
       -0.0000097457   0.0000156260   0.0000037209  -0.0000015374  -0.0000255555
        0.0000253199   0.0000216903  -0.0000115261  -0.0000049085  -0.0000119627
       -0.0000033511  -0.0000063142   0.0000129240  -0.0000124812   0.0000031492
        0.0000014877   0.0000023764   0.0000040645   0.0000016961   0.0000008392
        0.0000012265   0.0000067211  -0.0000023988   0.0000110556  -0.0000863211
        0.0000286157   0.0000417869  -0.0002042381  -0.0002671678  -0.0000668247
        0.0002581585   0.0000137051  -0.0000776022  -0.0001066662   0.0000152367
       -0.0000512720   0.0000228536  -0.0001836131  -0.0000561810   0.0000767513
        0.0000541941   0.0000978120   0.0000618418   0.0000785943  -0.0001048041
        0.0003200606  -0.0002201805  -0.0000137777  -0.0000721388  -0.0000339911
       -0.0000168496  -0.0000055448  -0.0000056209  -0.0000192751  -0.0169300067
       -0.0217496378  -0.0108917656  -0.0065828102   0.0324687472  -0.0584699870
       -0.0007789792  -0.0007383832   0.0000622071  -0.0047299063   0.1201678632
       -0.2160281102  -0.0141268689  -0.0199374052  -0.0008598305   0.0000109237
       -0.0000077800   0.0000484581   0.0000230908  -0.0000182091   0.0000200496
        0.0000136854   0.0000011199   0.0000178898  -0.0000097892  -0.0000010358
        0.0000434763  -0.0000199351   0.0000391770   0.0000697712   0.0000118247
        0.0000022044  -0.0000019418  -0.0000008418   0.0000017633  -0.0000070020
       -0.0000012629  -0.0000025760  -0.0000014190  -0.0000033988  -0.0000019897
       -0.0000024343  -0.0000057261   0.0000015212   0.0000023983  -0.0000091047
       -0.0000051512   0.0000028555  -0.0000020162   0.0000105202   0.0000008635
        0.0000030345   0.0000064974   0.0000062975   0.0000010144   0.0000085971
        0.0000076397  -0.0000028590   0.0000060778   0.0000059521   0.0000016580
        0.0000025276   0.0000027610   0.0000237520   0.0000406217   0.0000092398
       -0.0000153748   0.0000025035  -0.0000060675  -0.0000332755   0.0000373407
       -0.0000015568   0.0000184419  -0.0000136959   0.0000011694  -0.0000618316
        0.0000804951  -0.0000432175  -0.0000736192  -0.0006287933   0.0005615811
       -0.0020935983   0.0045129468  -0.0027354707
       -0.0268865319  -0.0173598119  -0.0340065284  -0.1398374967  -0.1453731128
        0.0117144924   0.3429686047   0.2236538469   0.1571071560  -0.0650724409
       -0.0047969139  -0.0322252119   0.0017205452  -0.0098090155   0.0123571676
       -0.0014758473  -0.0007955846   0.0004653411  -0.0003113189   0.0004034904
        0.0001988618   0.0002431862  -0.0000556196   0.0000221085  -0.0001392686
       -0.0000472299   0.0000181818  -0.0000039752   0.0000219421  -0.0001035113
        0.0000012322   0.0000279632  -0.0000388930  -0.0002428723   0.0002296566
        0.0002367913   0.0002241519  -0.0006953224  -0.0005945719  -0.0002384799
       -0.0000052163  -0.0000627370  -0.0000555909  -0.0000644529   0.0000362804
        0.0000694132   0.0000109233  -0.0000042386  -0.0000963323   0.0000055087
       -0.0000145404   0.0000842193  -0.0000253042   0.0000020955   0.0000608943
        0.0001036281  -0.0000006733  -0.0000316735  -0.0001371518  -0.0000104169
        0.0000201791   0.0001501582   0.0000332084  -0.0001236841  -0.0001204505
        0.0000581035   0.0000439375  -0.0000579674  -0.0000192148   0.0000043831
        0.0000261774  -0.0000062712   0.0000037949  -0.0000150520  -0.0000111656
       -0.0000014920  -0.0000036211  -0.0000040181   0.0000080726  -0.0000133690
        0.0000023548   0.0000054318   0.0000297998   0.0000226561   0.0002631176
        0.0006755712  -0.0005374893  -0.0012272551  -0.0008628060  -0.0001747126
       -0.0017607592  -0.0005172971   0.0002959675  -0.0001245377  -0.0001395038
        0.0003154211  -0.0000666531   0.0001685915   0.0000980065  -0.0001732763
       -0.0001129894  -0.0002979873   0.0000189525  -0.0004734921   0.0004613321
       -0.0016775321   0.0008023979   0.0004871942   0.0001643495  -0.0002518719
        0.0000382844   0.0000677457   0.0000643907   0.0000912315   0.0114424961
        0.0194696040  -0.0067283038  -0.0085577771  -0.0141675426   0.0139512170
        0.0029440735  -0.0038143394  -0.0049031148   0.0000145295  -0.0014888659
        0.0005542534  -0.1153253106  -0.0412253398  -0.1140233099  -0.0000146332
       -0.0000028416  -0.0000087047   0.0000255601  -0.0000054928   0.0000170931
        0.0000147489  -0.0000028627  -0.0000088118   0.0000098609   0.0000004784
       -0.0000010236   0.0000949263   0.0001196522   0.0000115375   0.0000411906
       -0.0000131823  -0.0000027605   0.0000087490  -0.0000692851   0.0000078561
        0.0000135160  -0.0000362366   0.0000022158  -0.0000145517  -0.0000311422
        0.0000038401  -0.0000340580  -0.0000065738   0.0000047436  -0.0000405150
       -0.0000219195   0.0000042702   0.0000055025  -0.0000011795  -0.0000181530
       -0.0000024669   0.0000084820   0.0000043039  -0.0000078278   0.0000085471
        0.0000016072  -0.0000154815   0.0000095095  -0.0000045932  -0.0000100605
       -0.0000078863  -0.0000040988  -0.0000336865  -0.0000151749  -0.0000000537
       -0.0000570658   0.0000217278  -0.0000112078   0.0000237135   0.0000392812
       -0.0000223387   0.0000129769   0.0000011727  -0.0000231161   0.0000861360
        0.0000107586  -0.0001042511   0.0028235348  -0.0035217511  -0.0052286165
        0.0001267269   0.0001015129   0.0005794657
       -0.0396387860  -0.0083525296  -0.0697830654  -0.1152005605  -0.2487522498
        0.0470913897   0.2236538469   0.5093516073  -0.0930147403  -0.0265360245
       -0.1470010720   0.0854258480  -0.0075150310  -0.0254759550   0.0211718394
       -0.0025617487   0.0000602227  -0.0002670934  -0.0001645775   0.0003335053
        0.0004968734   0.0002355819   0.0001352064   0.0001881036  -0.0001086264
       -0.0000360672   0.0000878767  -0.0000085358   0.0000810391  -0.0000971712
        0.0000542677  -0.0000846347   0.0000836006   0.0000635543  -0.0002199217
       -0.0001909096   0.0000166400  -0.0012872066  -0.0012135319  -0.0002663419
        0.0000618952  -0.0000751441  -0.0000341751  -0.0000928323   0.0000698396
        0.0000553232   0.0000710769  -0.0000026858  -0.0000707662   0.0000003623
       -0.0000293179   0.0000447261   0.0000175372   0.0000007647   0.0000270411
        0.0000005342  -0.0000312863   0.0000387481  -0.0000050597  -0.0000007622
       -0.0000179479  -0.0000075658   0.0000599314   0.0001321600  -0.0000976787
       -0.0000941265   0.0000316828  -0.0000660468  -0.0000172653   0.0000008654
        0.0000196382   0.0000018374   0.0000092039  -0.0000100767  -0.0000051891
       -0.0000027977   0.0000056172   0.0000067675  -0.0000025075   0.0000041190
        0.0000028692   0.0000091435   0.0000250641   0.0000116273  -0.0003696537
       -0.0003443115  -0.0008829868   0.0021726242  -0.0004679799   0.0014447711
       -0.0002631864   0.0000169882   0.0004130294   0.0000935220  -0.0001022222
       -0.0000124309  -0.0000388313   0.0001296193  -0.0000128707  -0.0000317875
        0.0000499423  -0.0000495599   0.0000411805  -0.0000454983   0.0002535864
       -0.0003987257   0.0002395206  -0.0000242246   0.0003234093   0.0002876915
        0.0000733939  -0.0000439603  -0.0000790418   0.0001976573   0.0388547267
        0.0386326572   0.0302450374  -0.0136722602  -0.0449254640   0.0268144635
       -0.0036326895   0.0025856119  -0.0000606461  -0.0103905299  -0.0165657831
        0.0034057930  -0.0416378665  -0.0595003886  -0.0516002747  -0.0000147523
       -0.0000151736  -0.0000010206   0.0000213852  -0.0000279063  -0.0000026127
        0.0000171961   0.0000005588   0.0000100458  -0.0000176135   0.0000105312
       -0.0000058958   0.0003202685  -0.0004121370  -0.0000552221   0.0000148572
       -0.0000150499  -0.0000208504  -0.0000041731  -0.0000586814   0.0000062258
        0.0000062325  -0.0000203562  -0.0000068800  -0.0000101063  -0.0000170893
        0.0000016276  -0.0000234408  -0.0000077976  -0.0000012982  -0.0000363244
       -0.0000204420   0.0000085530  -0.0000050086  -0.0000149695  -0.0000183224
       -0.0000059203   0.0000096363   0.0000074699  -0.0000085050   0.0000087870
        0.0000031645  -0.0000126903   0.0000079329  -0.0000031083  -0.0000033334
       -0.0000083035  -0.0000067517   0.0000302160  -0.0000367470   0.0000129353
       -0.0000147358   0.0000087966  -0.0000193080   0.0000066503  -0.0000113124
       -0.0000035026   0.0000048120  -0.0000179282  -0.0000466013   0.0001680203
        0.0000674111   0.0000572592  -0.0037966554   0.0023305268  -0.0003990737
        0.0001132907  -0.0003501563   0.0004015488
       -0.0030882006  -0.0232635874   0.0278798578  -0.0290810912  -0.0140664321
       -0.0889043754   0.1571071560  -0.0930147403   0.5790769440   0.0030554602
        0.1404506001  -0.2366541258   0.0047252902   0.0096187737  -0.0017132636
        0.0003394229  -0.0021828705   0.0003580051  -0.0001053126  -0.0002230190
       -0.0001226094  -0.0001475090   0.0000782769  -0.0002799304   0.0001364848
        0.0000303455  -0.0000957844  -0.0000461011  -0.0000222599   0.0000596562
       -0.0002288794  -0.0000469936  -0.0000806271   0.0001005997  -0.0001794764
       -0.0001050006   0.0002326198   0.0003708061   0.0000390243  -0.0000486807
       -0.0001768194  -0.0000561530   0.0000229443   0.0000542159   0.0000122410
       -0.0000418481  -0.0000565732  -0.0000155775   0.0000059720   0.0000631541
        0.0000015273  -0.0000145385   0.0000310720  -0.0000047307   0.0000417383
        0.0000008706  -0.0000038269  -0.0000301956  -0.0000182613  -0.0000069919
        0.0000086935   0.0000122556  -0.0000180421  -0.0000137202  -0.0001070707
        0.0000235494  -0.0000295194  -0.0000346174   0.0000018418  -0.0000040798
        0.0000063073   0.0000378873  -0.0000115969   0.0000091512  -0.0000000758
       -0.0000057271  -0.0000121805  -0.0000193565   0.0000041979  -0.0000048154
        0.0000036729  -0.0000034790   0.0000526274  -0.0000116765  -0.0000795288
        0.0001987264  -0.0000238044  -0.0013104725  -0.0014364160  -0.0003850064
        0.0006529508   0.0002070362   0.0001205616   0.0002213798   0.0000279439
       -0.0002241735  -0.0000841655   0.0002773997  -0.0001173820  -0.0000573530
        0.0000185097  -0.0001001799   0.0000889438   0.0000782650  -0.0000552006
        0.0008558622  -0.0000682149   0.0003486601  -0.0001814146  -0.0001835969
       -0.0000257252   0.0000255292   0.0000874339   0.0000086614  -0.0354045550
       -0.0124204262  -0.0562257292   0.0131535989   0.0258712881  -0.0149475336
       -0.0051990334  -0.0004389164  -0.0022559987   0.0130719221   0.0218245303
       -0.0028742972  -0.1142540880  -0.0513559842  -0.2005681577  -0.0000300515
       -0.0000355232   0.0000732377   0.0000365746  -0.0000187709   0.0000694817
        0.0000542383  -0.0000000264   0.0000424793   0.0000186079  -0.0000012231
        0.0000212145   0.0002242823  -0.0000847609   0.0003951311   0.0000219360
        0.0000249208   0.0000035315   0.0000146718  -0.0000413439   0.0000004856
        0.0000152861  -0.0000296485  -0.0000008416  -0.0000146118  -0.0000284509
       -0.0000052563  -0.0000372553  -0.0000070272  -0.0000013704  -0.0000455919
       -0.0000131206   0.0000095800   0.0000162923  -0.0000023102  -0.0000110735
        0.0000046875  -0.0000122324  -0.0000028402  -0.0000047206   0.0000006588
       -0.0000000470  -0.0000173308   0.0000002957  -0.0000076576  -0.0000159719
       -0.0000196868  -0.0000136784  -0.0000813514  -0.0001108996  -0.0001313386
       -0.0000244982   0.0000082927  -0.0000507685  -0.0000252502  -0.0000033601
       -0.0000198511  -0.0000251270  -0.0000670883  -0.0000364248  -0.0000888442
       -0.0000722607  -0.0004670974  -0.0049216901   0.0000159652  -0.0024381962
        0.0005460421   0.0004412827   0.0004945459
       -0.0088705529   0.0089253533  -0.0184998523   0.0112674684   0.0017365027
        0.0210804858  -0.0650724409  -0.0265360245   0.0030554602   0.3483144813
        0.1821404118   0.1454834667  -0.1058050316  -0.0718278813  -0.0006452951
        0.0091418707   0.0030929126   0.0019360621   0.0005346318   0.0023978250
       -0.0002988338   0.0002451535   0.0000414150   0.0002427091  -0.0002429570
       -0.0001377804  -0.0000309740  -0.0001050204   0.0000330081  -0.0002013651
        0.0000826986  -0.0000477974   0.0001174851  -0.0008019975   0.0006839582
        0.0004678537  -0.0007299312   0.0037030584  -0.0003880636   0.0006829574
        0.0003005939   0.0000679158  -0.0000513884   0.0002727416   0.0000498242
       -0.0000966161  -0.0000793174  -0.0000079415   0.0000979690   0.0000044261
       -0.0000082824  -0.0000334541  -0.0000797830  -0.0000075831  -0.0000013092
        0.0000732360  -0.0000008890  -0.0000262484   0.0000067339  -0.0000102253