66
 energy: -98.965250321483 gnorm: 0.000154133240 xtb: 6.7.1 (edcfbbe)
C           -3.44900980443985       -4.01160965956486        0.19881187005185
C           -2.67618954926417       -3.63970671866604        1.28605716629387
C           -1.91467780064039       -2.48669335696964        1.23569059897606
C           -1.91986054290057       -1.68837214787383        0.09726693429275
C           -1.12448241763743       -0.43948845926820        0.04697686733272
C           -1.79602183523600        0.77891468692648       -0.04307079080659
C           -3.27127984774858        0.79370826091373       -0.14408937502014
C           -3.88882278922395        1.27288146596879       -1.29578425535070
C           -5.26753328560191        1.26838575741883       -1.40596253483215
C           -6.04628863730050        0.79267467320080       -0.36396754260919
C           -5.43950132141314        0.32414516969559        0.78959147590881
C           -4.06087704731498        0.32243523018853        0.89933873678525
C           -1.07308886970567        1.98013929673318        0.01523853579272
C           -1.73147290084538        3.24503926098875        0.07352031346584
C           -1.03625017990157        4.40119797659122        0.16676138780231
C            0.38724276816969        4.39946794030474        0.21314996148842
C            1.12627674684352        5.57829310355238        0.33278559648550
C            2.50756172848003        5.54517281562367        0.39001841654595
C            3.18209952490669        4.34039429399142        0.32019895582216
C            2.48069105384840        3.13892135321001        0.19835321541946
C            3.14021626454331        1.88959134588205        0.05371042421227
C            2.46455233861166        0.71344224658698       -0.06813125653381
C            3.26150496657175       -0.47713887126094       -0.42409842793651
C            3.01846956006427       -1.13960459916234       -1.62372614112882
C            3.82503191925174       -2.18913873971206       -2.02072255391003
C            4.88579790935224       -2.59201587042247       -1.22674473799674
C            5.14219211270915       -1.93121283484290       -0.03741043254189
C            4.34222933666647       -0.87439560898369        0.35626450313923
C            1.02748284874614        0.69342119914499        0.02823418054684
C            0.27255917421225       -0.49103498394467        0.10475780250354
C            0.89879102167451       -1.80936691339000        0.33268428223130
C            1.62456478481713       -2.02678698951379        1.49987030656473
C            2.15659279713370       -3.27263988311256        1.77383382030454
C            1.97163225334749       -4.31809575972704        0.88531688240992
C            1.25090213817413       -4.11041501932892       -0.27854406804412
C            0.71175266138907       -2.86744451843816       -0.55036055327811
C            0.34364668651343        1.93999008769352        0.05831126384908
C            1.06601229921496        3.15726991584245        0.15094044771608
C           -2.70188819909759       -2.06645925033567       -0.98861869441464
C           -3.45925263915427       -3.22232729207582       -0.93885270160011
H           -4.04247189433635       -4.91355055939280        0.23838093889150
H           -2.66600110051900       -4.25030994926153        2.17762967901074
H           -1.31567001639587       -2.19607806657002        2.08695850540587
H           -3.27920654285605        1.64121499887933       -2.10949235808309
H           -5.73553776622026        1.63765682243554       -2.30738824388840
H           -7.12322846099803        0.78893227155648       -0.44997716788158
H           -6.04263746643743       -0.04390348969790        1.60707438136993
H           -3.58904757312457       -0.04103199840510        1.80069931314479
H           -2.81126559522490        3.25751095105332        0.05560970642637
H           -1.54957420062153        5.35112433403179        0.21805903661857
H            0.60307428879658        6.52263026251610        0.38523255985136
H            3.06323830063696        6.46730057642662        0.48490371098586
H            4.26208507511974        4.31786138306050        0.35560397306804
H            4.21949366203428        1.89091501888593       -0.01736232198584
H            2.19789786957089       -0.81835896240340       -2.24960488706638
H            3.62693446123064       -2.69404043575994       -2.95535962926416
H            5.51305898289866       -3.41514595661005       -1.53659055258777
H            5.97147772518914       -2.23771936876329        0.58406960485720
H            4.54395622675101       -0.35904320926198        1.28467934292518
H            1.76073405645955       -1.21212444658130        2.19779423752515
H            2.71586392226442       -3.42890115728213        2.68519957993264
H            2.38898113663806       -5.29141239266260        1.09865811157597
H            1.10416926451097       -4.92213411023028       -0.97651910308634
H            0.15204733296412       -2.71029896053861       -1.46072049871216
H           -2.70848356071111       -1.45338126567765       -1.87873282407166
H           -4.06027547935023       -3.50714256352345       -1.79061321604204
