$hessian                                                                        
        0.3271960988   0.2274778080   0.1446457193  -0.1286266857  -0.0353065689
       -0.1335027477  -0.0250264621  -0.0357088873  -0.0070157743  -0.0070740038
        0.0088480110  -0.0157860524  -0.0005371637  -0.0005523348  -0.0000251549
       -0.0000624208   0.0003263534  -0.0001568591  -0.0000520768   0.0000099036
        0.0000355395   0.0000479163  -0.0000014629   0.0000250067  -0.0000351188
       -0.0000004273   0.0000024091   0.0000320990   0.0000116022  -0.0000085561
        0.0000663544  -0.0000348043   0.0000571755   0.0000392043   0.0000348988
       -0.0000334896  -0.0000312253  -0.0000294593   0.0000235229   0.0000016460
        0.0000340562   0.0000123377  -0.0000036644  -0.0000335959  -0.0000097044
       -0.0000053237   0.0000018036  -0.0000005253  -0.0000054158   0.0000093547
        0.0000013211   0.0000030812  -0.0000044861  -0.0000035421   0.0000086642
        0.0000193207   0.0000085234  -0.0000011158  -0.0000085679   0.0000077603
       -0.0000038474   0.0000090595  -0.0000042645  -0.0000026818  -0.0000034744
       -0.0000055561   0.0000110418  -0.0000303926  -0.0000060377   0.0000008705
       -0.0000038021  -0.0000057543  -0.0000052143   0.0000068209   0.0000046764
        0.0000008725   0.0000005040   0.0000018746   0.0000069037  -0.0000030193
       -0.0000027427  -0.0000008411  -0.0000084713   0.0000063866  -0.0000322462
       -0.0000071373   0.0000263643   0.0001396995   0.0000885748   0.0001614276
       -0.0000366524  -0.0000868896  -0.0000496351   0.0000560690  -0.0000197348
        0.0000255260   0.0000004174   0.0000396253   0.0000203810  -0.0000107053
       -0.0000194274  -0.0000431764   0.0000297114   0.0000176821   0.0000456000
       -0.0000918998   0.0000203377  -0.0001244320   0.0000303108   0.0000196565
        0.0000070018  -0.0000011631  -0.0000012360  -0.0000009358   0.0084839803
       -0.0020649379   0.0200633527  -0.0663564582  -0.0378061988   0.0142831299
       -0.1157472684  -0.1214998552  -0.0051358934   0.0006662256   0.0001762645
       -0.0004009719   0.0033072378  -0.0059989020  -0.0019862355   0.0000070597
        0.0000087761  -0.0000312622   0.0000031930  -0.0000030183  -0.0000145001
        0.0000088786   0.0000004503  -0.0000156322   0.0000453363  -0.0000061875
       -0.0000293066  -0.0000698795  -0.0001316888  -0.0000525183  -0.0000097269
       -0.0000050767  -0.0000003446  -0.0000039381   0.0000073368  -0.0000026585
       -0.0000010589  -0.0000039446   0.0000016478  -0.0000004953  -0.0000029253
        0.0000021895  -0.0000029394  -0.0000022218   0.0000020051  -0.0000016214
       -0.0000025517   0.0000028357   0.0000060858  -0.0000107638   0.0000025146
        0.0000009284   0.0000034500   0.0000074440   0.0000012227  -0.0000002382
        0.0000054252   0.0000000064   0.0000016365   0.0000071314   0.0000016379
        0.0000006161   0.0000052777   0.0000146001   0.0000244850   0.0000377544
       -0.0000030716   0.0000046023   0.0000166262   0.0000166703   0.0000059136
        0.0000173010   0.0000010118   0.0000398659   0.0000134433  -0.0000073101
       -0.0000161088   0.0000922515   0.0033027079  -0.0061824501  -0.0017404268
        0.0003119527   0.0083524788  -0.0134841930
        0.2274778080   0.5263003803  -0.0945346370  -0.0623949943  -0.0964053535
       -0.0696359269  -0.0149242883  -0.0052824934  -0.0250354032   0.0089319947
       -0.0003233040   0.0119120321  -0.0005237436  -0.0010710619  -0.0000356837
        0.0000036676   0.0003161705  -0.0002087759  -0.0001193777  -0.0000885206
        0.0000635558  -0.0000478368   0.0000157252  -0.0000007248   0.0000267519
        0.0000203431  -0.0000119069   0.0000234119  -0.0000164581   0.0000527385
        0.0000206197   0.0000359162  -0.0000320795   0.0000579329  -0.0000935787
        0.0000997199  -0.0000273455  -0.0000412421  -0.0000025562   0.0000051290
        0.0000214826   0.0000156398   0.0000015815  -0.0000500914  -0.0000074957
       -0.0000056388   0.0000104374  -0.0000014226  -0.0000127555   0.0000087133
        0.0000007153   0.0000153291  -0.0000168473  -0.0000046999   0.0000178342
        0.0000386629   0.0000084874  -0.0000016005  -0.0000269026   0.0000057861
       -0.0000058263   0.0000094918  -0.0000018209   0.0000123208  -0.0000017853
       -0.0000101726   0.0000124021  -0.0000369202  -0.0000176198   0.0000237257
       -0.0000081600   0.0000091611  -0.0000116271   0.0000091329  -0.0000067043
       -0.0000015973  -0.0000001300  -0.0000035201   0.0000081487  -0.0000038803
       -0.0000084241  -0.0000032433  -0.0000066453  -0.0000021834  -0.0000465195
       -0.0000336639  -0.0000319500   0.0004444875   0.0000990053   0.0002284615
        0.0000209881  -0.0000297532  -0.0000239547  -0.0000079656   0.0000479728
       -0.0000105167   0.0000341952  -0.0000218662   0.0000231212  -0.0000060410
        0.0000114915  -0.0000117995  -0.0000186921   0.0000285913  -0.0000707959
       -0.0000395605   0.0000683542  -0.0000693910   0.0000475396   0.0000304333
        0.0000049549  -0.0000120314  -0.0000062702   0.0000034822  -0.0228412372
       -0.0425007929   0.0137931902  -0.0106550770  -0.1664885775   0.1527395293
       -0.1215859255  -0.2183637452  -0.0019042601   0.0084046575   0.0036157478
        0.0152733515  -0.0061633814  -0.0019009699   0.0008395717   0.0000081971
        0.0000386057  -0.0000563923  -0.0000017321   0.0000048907  -0.0000134972
        0.0000008037   0.0000162253  -0.0000167486   0.0000455221   0.0000197971
       -0.0000183577  -0.0000686077   0.0000344764  -0.0000782753  -0.0000212848
       -0.0000017958   0.0000044886  -0.0000070900   0.0000117598   0.0000004234
        0.0000016629  -0.0000057811   0.0000047729   0.0000011674  -0.0000047062
        0.0000007411  -0.0000054919  -0.0000038067  -0.0000024260   0.0000022730
       -0.0000023572  -0.0000007160   0.0000113577  -0.0000149709  -0.0000073255
       -0.0000082317  -0.0000025268   0.0000023468  -0.0000088095   0.0000022423
       -0.0000030790  -0.0000050587  -0.0000024519  -0.0000041925   0.0000007120
       -0.0000013671  -0.0000007108   0.0000092616   0.0000231060   0.0000454714
        0.0000006316   0.0000080017   0.0000122436   0.0000103229   0.0000089335
        0.0000177913  -0.0000250962   0.0000712213   0.0000250806  -0.0001268176
       -0.0000791313   0.0000861911  -0.0059824719  -0.0019246422   0.0012820705
        0.0000345609   0.0039352390  -0.0046689738
        0.1446457193  -0.0945346370   0.5872301316  -0.0924355517  -0.0069501883
       -0.2489492355  -0.0374863413  -0.0725571185   0.0228291546  -0.0155436530
        0.0117598375  -0.0604343397   0.0001029694  -0.0000687323  -0.0003706022
       -0.0002744887   0.0002343533   0.0000298077   0.0000839347   0.0002907854
       -0.0000020716   0.0001572251   0.0000110016   0.0000921492  -0.0000871974
       -0.0000066042   0.0000377764   0.0000014773   0.0000937891  -0.0001229932
        0.0001067001  -0.0000453492   0.0001448642  -0.0001235874   0.0002249458
       -0.0001585424   0.0000070334  -0.0000274190   0.0000825679  -0.0000141980
        0.0000302044   0.0000042891   0.0000234987   0.0000198886  -0.0000106410
       -0.0000348239  -0.0000277805  -0.0000186532   0.0000567271   0.0000313272
        0.0000203530  -0.0000545680   0.0000389143  -0.0000035684   0.0000095305
       -0.0000482148  -0.0000147426  -0.0000063467   0.0000353858   0.0000148756
        0.0000004608  -0.0000085717  -0.0000200333  -0.0000344969  -0.0000044799
        0.0000040458   0.0000146700  -0.0000230907  -0.0000039838  -0.0000360329
        0.0000045527  -0.0000298360   0.0000019328  -0.0000059924   0.0000007630
       -0.0000037384  -0.0000009340  -0.0000063640   0.0000003990  -0.0000071963
       -0.0000022431   0.0000012420  -0.0000070404  -0.0000000847   0.0000379725
        0.0000313876   0.0001249451  -0.0003578605   0.0001637031   0.0000752088
       -0.0002884375  -0.0002338703  -0.0000481902   0.0001697979  -0.0001261804
        0.0001336613  -0.0000393604   0.0001389439   0.0000200566  -0.0000655124
       -0.0000725063  -0.0001664740   0.0000715489  -0.0000995086   0.0001757795
       -0.0003257913   0.0000318272  -0.0001284289  -0.0000117946   0.0000084191
        0.0000000559   0.0000222679  -0.0000010673   0.0000032574   0.0512242651
        0.0608678510   0.0264408303  -0.0267450994   0.0901340205  -0.2424001741
       -0.0051497876  -0.0019252465  -0.0430195214  -0.0130282950  -0.0037768086
       -0.0232259595  -0.0016835006   0.0013477815   0.0021996301  -0.0000257797
       -0.0000435893   0.0000510762  -0.0000016077  -0.0000097072   0.0000157172
       -0.0000041007  -0.0000091903   0.0000156706  -0.0000091299  -0.0000238092
        0.0000248415   0.0000051673  -0.0002063771   0.0001153265   0.0000147166
       -0.0000120622  -0.0000024940   0.0000061888   0.0000052050   0.0000014146
        0.0000035975  -0.0000020280  -0.0000003381   0.0000034518  -0.0000021165
       -0.0000022296   0.0000023645  -0.0000020941  -0.0000006900  -0.0000024669
       -0.0000057311   0.0000016935  -0.0000062186  -0.0000024329   0.0000168461
       -0.0000015421   0.0000068297   0.0000115336   0.0000012791  -0.0000005014
        0.0000035594   0.0000025097  -0.0000021048   0.0000049377   0.0000070637
        0.0000029210   0.0000087325   0.0000241870   0.0000395801   0.0000342904
       -0.0000063074   0.0000003289   0.0000256612   0.0000102486   0.0000139533
        0.0000054986   0.0000014569   0.0000401894   0.0000297284   0.0001432192
        0.0000721054   0.0001616036  -0.0020565034   0.0007869037   0.0022097641
       -0.0010207032   0.0144133452  -0.0232596643
       -0.1286266857  -0.0623949943  -0.0924355517   0.3223694295   0.2183553581
        0.1437051200  -0.1396368027  -0.1166957681  -0.0354371018   0.0074851061
       -0.0220077818   0.0502611374   0.0054298943  -0.0014647945  -0.0016195782
       -0.0002819528  -0.0016749564   0.0003156194  -0.0002226712  -0.0001975953
       -0.0001802713  -0.0001071573  -0.0000493288  -0.0000880565   0.0000268949
        0.0000128163  -0.0000176349  -0.0000076942  -0.0000481978   0.0000265744
       -0.0000800083   0.0000756770  -0.0001302101   0.0000120992   0.0000597999
        0.0002675220   0.0001729705  -0.0001296660   0.0002202342  -0.0000084632
       -0.0000931714  -0.0000335732  -0.0000050280  -0.0000445842  -0.0000250713
        0.0000542287   0.0000261215   0.0000067582  -0.0000600185  -0.0000458307
        0.0000025781   0.0000672605  -0.0000493583  -0.0000087094  -0.0000165479
        0.0000767797   0.0000074013   0.0000029713  -0.0000472490  -0.0000102174
        0.0000000856   0.0000384102  -0.0000015255   0.0000632858   0.0000420929
        0.0000092300  -0.0000310697   0.0000340836   0.0000060456   0.0000146731
       -0.0000185193   0.0000028813  -0.0000062651  -0.0000053671  -0.0000062625
       -0.0000053792   0.0000046915  -0.0000048042  -0.0000084957   0.0000010020
       -0.0000097026   0.0000069173  -0.0000157712  -0.0000106805   0.0002134394
        0.0000328716   0.0001333585   0.0004812030   0.0007953026  -0.0004081758
        0.0000852986   0.0001479769   0.0000013960  -0.0001318205   0.0000094638
       -0.0000530559   0.0000362635  -0.0000822837   0.0000036365   0.0000119550
        0.0000209494   0.0000357413  -0.0001469307  -0.0000397174  -0.0000585087
       -0.0001287254  -0.0000603044   0.0000892112   0.0000108369   0.0000080433
       -0.0000110885  -0.0000050734   0.0000238592  -0.0000379566  -0.0287045159
       -0.0232279242  -0.0179697173   0.0139146929   0.0412625555  -0.0328536642
       -0.0097568575  -0.0062681162  -0.0143032261  -0.0382480674  -0.0092335497
        0.0047302028  -0.0095459861  -0.0142203936  -0.0023561113   0.0000119763
        0.0000323877  -0.0000327091   0.0000021725   0.0000194977   0.0000047008
       -0.0000039503   0.0000080377  -0.0000092913   0.0000290196   0.0000147503
        0.0000125932   0.0000262684   0.0000445992  -0.0001318661  -0.0000191497
       -0.0000006728   0.0000131816  -0.0000054682  -0.0000088784   0.0000029035
       -0.0000030461   0.0000032457  -0.0000025317   0.0000032064   0.0000020186
       -0.0000047183   0.0000058056  -0.0000037079  -0.0000018517   0.0000038839
        0.0000038194  -0.0000109842   0.0000037088   0.0000060903  -0.0000010149
       -0.0000029246   0.0000028969  -0.0000009052  -0.0000017744   0.0000004508
       -0.0000032893   0.0000025478   0.0000027768  -0.0000006159  -0.0000018366
        0.0000065775  -0.0000011333   0.0000054298   0.0000280063   0.0000172374
        0.0000235659   0.0000067478   0.0000120039   0.0000112216  -0.0000102471
        0.0000079295   0.0000286129   0.0000056509  -0.0000046152   0.0000524619
        0.0000022057  -0.0000666202  -0.0003363939  -0.0001230191  -0.0001184478
        0.0054773726  -0.0029558654  -0.0014341486
       -0.0353065689  -0.0964053535  -0.0069501883   0.2183553581   0.5173030445
       -0.1036497432  -0.1447788470  -0.2476960467  -0.0262562775  -0.0023000261
       -0.0424106713   0.0606375122  -0.0017106858   0.0015642299   0.0040303805
        0.0001219856  -0.0001461024   0.0002590415  -0.0000002256  -0.0002063760
        0.0001117227  -0.0001152297  -0.0000001071  -0.0001261205   0.0000886456
        0.0000102117  -0.0000533897  -0.0000302763  -0.0000565221   0.0000507601
       -0.0000934607   0.0000737255  -0.0001359447   0.0000184613  -0.0001388631
        0.0003217055   0.0000157574   0.0000985692  -0.0003697652   0.0000269231
       -0.0000113836  -0.0000182511   0.0000420686  -0.0000191708   0.0000287054
       -0.0000424852  -0.0000166707  -0.0000108744   0.0000638605   0.0000216134
       -0.0000110302  -0.0000677250   0.0000088785  -0.0000055372  -0.0000107177
       -0.0000312222  -0.0000101528  -0.0000107484   0.0000307585   0.0000179448
       -0.0000329645  -0.0000219867   0.0000137464  -0.0000027010   0.0000164723
        0.0000100183   0.0000057990  -0.0000282565  -0.0000067621   0.0000288071
       -0.0000058052   0.0000207091   0.0000120998  -0.0000141303  -0.0000057565
       -0.0000170604   0.0000187837   0.0000030288  -0.0000158805  -0.0000030569
       -0.0000159966  -0.0000084571  -0.0000151775  -0.0000203326   0.0000232147
        0.0001267523  -0.0004047706  -0.0007314092  -0.0008332474  -0.0004003373
        0.0003623284   0.0000441565   0.0001753987  -0.0001761817   0.0000110138
       -0.0001834678   0.0000415118  -0.0002059856  -0.0000556345  -0.0000011008
        0.0001230461   0.0001029154   0.0000365023   0.0002484673  -0.0001978554
        0.0002858797  -0.0002197180  -0.0000840130  -0.0000318009   0.0000089682
        0.0000049610   0.0000381054   0.0000222133   0.0000736707  -0.0226565319
       -0.0256354763  -0.0221539760   0.0208958178   0.0393051530  -0.0094025181
       -0.0145573986  -0.0081107435  -0.0203972106  -0.0090465482  -0.1299870236
        0.1224955970  -0.0059918998  -0.0074088450  -0.0016256065   0.0000222122
        0.0000531378  -0.0000567211   0.0000076657   0.0000164145  -0.0000099353
       -0.0000031563   0.0000183285  -0.0000209441   0.0000309516   0.0000326481
       -0.0000144226   0.0000600421  -0.0001596117  -0.0001901000  -0.0000260859
        0.0000017662  -0.0000018295  -0.0000062895   0.0000134055  -0.0000028498
       -0.0000052628   0.0000037792   0.0000033181   0.0000030124   0.0000046704
        0.0000016778   0.0000039423  -0.0000051018  -0.0000018096  -0.0000020154
       -0.0000047582  -0.0000009720   0.0000185528  -0.0000069571  -0.0000019074
       -0.0000033326   0.0000046143   0.0000125849  -0.0000062442   0.0000034616
        0.0000042076  -0.0000008079   0.0000034198   0.0000057714  -0.0000065581
        0.0000077271   0.0000055532  -0.0000015191   0.0000418039   0.0000486808
        0.0000327461   0.0000190931   0.0000343237   0.0000028674  -0.0000183858
        0.0000423397  -0.0000076018   0.0000405296   0.0000112623   0.0000205324
       -0.0000608045   0.0000897757  -0.0001092449   0.0000490928  -0.0006816869
       -0.0027506016   0.0005336114   0.0049173771
       -0.1335027477  -0.0696359269  -0.2489492355   0.1437051200  -0.1036497432
        0.6031417950   0.0047096772   0.0362988895  -0.0894443381   0.0204157729
        0.0137534723   0.0264849673  -0.0018614718   0.0041551308  -0.0027276924
        0.0006258757   0.0006285608   0.0001208233   0.0001135283  -0.0001251019
       -0.0000731050  -0.0001280437   0.0000441262  -0.0001132797   0.0000824630
       -0.0000052901  -0.0000113537  -0.0000005995  -0.0000417820   0.0000529644
       -0.0001533923   0.0000136830  -0.0001344944   0.0000539607  -0.0000380422
       -0.0000418843  -0.0001106314   0.0003186268   0.0002761218   0.0000286166
        0.0000413410  -0.0000128680  -0.0000341142   0.0000636101  -0.0000221279
        0.0000370530   0.0000140298  -0.0000074828  -0.0000307329  -0.0000388318
        0.0000165927   0.0000279715  -0.0000108552   0.0000005967  -0.0000112607
        0.0000080679  -0.0000143916  -0.0000010978  -0.0000138277  -0.0000081115
       -0.0000159018  -0.0000101818   0.0000198283   0.0000125220  -0.0000377273
        0.0000118745  -0.0000176334   0.0000452592   0.0000038866  -0.0000065255
        0.0000038195   0.0000122151   0.0000083430  -0.0000119722  -0.0000043039
       -0.0000024330   0.0000029968  -0.0000004763  -0.0000024372   0.0000019237
        0.0000156041   0.0000021985   0.0000129334  -0.0000014065  -0.0000175299
        0.0000203485  -0.0000011145  -0.0000906710  -0.0003379050  -0.0000876024
        0.0002508461   0.0000940262  -0.0000705516  -0.0001015754   0.0000144181
       -0.0000319353   0.0000280587  -0.0001697650  -0.0000301443   0.0000530166
        0.0000574537   0.0000739041  -0.0000328781   0.0000731814  -0.0000924134
        0.0003256691  -0.0002284388   0.0001153437  -0.0000510210  -0.0000202257
       -0.0000207618  -0.0000004592  -0.0000006847  -0.0000084911  -0.0186234741
       -0.0233901450  -0.0140592531  -0.0020429633   0.0376636595  -0.0598963730
       -0.0017709649  -0.0013008694  -0.0013267298   0.0048524715   0.1225933570
       -0.2087068665  -0.0148187763  -0.0208518427  -0.0024384926  -0.0000000571
       -0.0000159642   0.0000397465   0.0000190971  -0.0000119152   0.0000163833
        0.0000148388  -0.0000016573   0.0000183023  -0.0000178628  -0.0000001895
        0.0000433998  -0.0000336185   0.0000515059   0.0000998526   0.0000157590
       -0.0000037394  -0.0000015295   0.0000066105  -0.0000136496   0.0000059544
       -0.0000034734  -0.0000004394  -0.0000061625  -0.0000039929  -0.0000009533
       -0.0000015339  -0.0000009305   0.0000003231   0.0000050802  -0.0000042503
       -0.0000036281   0.0000024576  -0.0000096341   0.0000123551  -0.0000056595
        0.0000025295   0.0000027756   0.0000027875   0.0000013170   0.0000054474
        0.0000068905  -0.0000026913   0.0000024717   0.0000065638   0.0000011530
        0.0000007057   0.0000077417   0.0000014848   0.0000291335  -0.0000036730
       -0.0000097511   0.0000022488  -0.0000063818  -0.0000437266   0.0000313169
       -0.0000127324   0.0000312494  -0.0000154261   0.0000218913  -0.0000036425
        0.0000958282  -0.0001344061  -0.0001244747  -0.0006509763   0.0005057491
       -0.0017397619   0.0044806699  -0.0026199588
       -0.0250264621  -0.0149242883  -0.0374863413  -0.1396368027  -0.1447788470
        0.0047096772   0.3285770773   0.2237295580   0.1503071737  -0.0636939778
       -0.0117372643  -0.0233754141   0.0017637557  -0.0113668200   0.0120722509
       -0.0021282596  -0.0003047925   0.0001868050   0.0000068358   0.0003462472
        0.0003166746   0.0001411640   0.0000537498  -0.0000142939  -0.0000552806
       -0.0000267092  -0.0000265522  -0.0000374724   0.0000175896  -0.0000864267
        0.0000259422   0.0000292665  -0.0000232423  -0.0003519043   0.0001764968
        0.0002426040   0.0005244802  -0.0004955189  -0.0006408806  -0.0002403060
       -0.0001517876  -0.0000341082   0.0001629637   0.0000560161   0.0000443157
       -0.0002399844  -0.0001589601  -0.0000260597   0.0003157217   0.0002004829
        0.0000081623  -0.0003303359   0.0002297703   0.0000263793   0.0000544250
       -0.0003247703  -0.0000434376  -0.0000576196   0.0002219234   0.0000404042
        0.0000825887  -0.0001082249  -0.0000363185  -0.0001834536   0.0000330700
        0.0000477824   0.0000970008  -0.0001064519  -0.0000365753  -0.0000129135
        0.0000527287   0.0000026093   0.0000349736  -0.0000359916  -0.0000096894
       -0.0000182975   0.0000088856  -0.0000048686   0.0000129834  -0.0000156546
        0.0000047607   0.0000015670   0.0000349269   0.0000240998   0.0003682790
        0.0004141075  -0.0003960535  -0.0018843621  -0.0005272060  -0.0003054966
       -0.0018757759  -0.0011269888   0.0001751415   0.0003152798  -0.0001571850
        0.0002574591  -0.0001036609   0.0002499252  -0.0000185752  -0.0000443235
       -0.0000910663  -0.0003052076  -0.0001203934  -0.0002386327   0.0004769742
       -0.0013636771   0.0010702434   0.0005432138  -0.0001402722  -0.0000980668
        0.0000356200   0.0001218082   0.0000443372   0.0000834383   0.0133855103
        0.0202561816  -0.0023506861  -0.0100559355  -0.0159562449   0.0138451411
        0.0034417626  -0.0036380210  -0.0047062769  -0.0007459426  -0.0027066585
        0.0006044288  -0.1038887541  -0.0351699633  -0.1099427155  -0.0000146739
       -0.0000055018  -0.0000140875   0.0000245779  -0.0000154772   0.0000122170
        0.0000124113   0.0000012445  -0.0000097184   0.0000013087   0.0000079908
       -0.0000018530  -0.0000850131   0.0004185111   0.0001225374   0.0000331979
       -0.0000080603  -0.0000063585   0.0000073100  -0.0000561535  -0.0000089502
        0.0000112899  -0.0000305426   0.0000046319  -0.0000155956  -0.0000292644
        0.0000016393  -0.0000289563  -0.0000078181  -0.0000023011  -0.0000419352
       -0.0000227978   0.0000148006   0.0000078602  -0.0000013312  -0.0000179228
       -0.0000023401   0.0000114555   0.0000085173  -0.0000097063   0.0000120646
        0.0000049730  -0.0000198317   0.0000106490  -0.0000018310  -0.0000147929
       -0.0000096805  -0.0000091104  -0.0000312236  -0.0000199391   0.0000096565
       -0.0000757093   0.0000059695   0.0000041493   0.0000075723   0.0000344723
       -0.0000261963   0.0000074979  -0.0000106545  -0.0000066358  -0.0003772495
        0.0000581140   0.0002083100   0.0033211416  -0.0033663393  -0.0050237288
        0.0000849082   0.0000436967   0.0005513655
       -0.0357088873  -0.0052824934  -0.0725571185  -0.1166957681  -0.2476960467
        0.0362988895   0.2237295580   0.5120435066  -0.0835913421  -0.0317542442
       -0.1533445765   0.0861853037  -0.0083497031  -0.0261935238   0.0198088754
       -0.0027766627   0.0003843799  -0.0004715253  -0.0000925795   0.0004082274
        0.0005625993   0.0002504101   0.0000663668   0.0002464928  -0.0001717754
       -0.0000595548   0.0000617878   0.0000250829   0.0001332177  -0.0001251281
        0.0001182565  -0.0001833021   0.0001629389   0.0001670668  -0.0003132045
       -0.0003269028   0.0000931730  -0.0012175880  -0.0013476820  -0.0002581001
        0.0000514124   0.0000376740  -0.0000541253  -0.0000927480   0.0001001032
        0.0000602108   0.0000741958  -0.0000144754  -0.0000654287  -0.0000091078
       -0.0000427834   0.0000526616  -0.0000051851   0.0000040847   0.0000265986
        0.0000388312  -0.0000153897   0.0000201464  -0.0000340530   0.0000113825
       -0.0000054165   0.0000091294   0.0000386267   0.0000562357  -0.0000982360
       -0.0000528835   0.0000594127  -0.0000512073  -0.0000248524   0.0000065055
        0.0000403234   0.0000081357   0.0000168014  -0.0000137481  -0.0000072574
       -0.0000022861   0.0000108252   0.0000093956   0.0000050990  -0.0000076349
        0.0000021623  -0.0000064426   0.0000348642   0.0000068923  -0.0002594708
       -0.0001655725  -0.0007555224   0.0018001014  -0.0006272891   0.0014754529
       -0.0003083145   0.0000543836   0.0002389995   0.0001619513  -0.0000969383
        0.0000040679  -0.0000597852   0.0000790455  -0.0000146690  -0.0000832924
        0.0000219244  -0.0000607782   0.0001139313  -0.0000506934   0.0002649145
       -0.0005077266   0.0001519679  -0.0001056333   0.0003193061   0.0001786990
        0.0000529558  -0.0000197941  -0.0000755556   0.0001924427   0.0382516730
        0.0376692533   0.0350099967  -0.0155585772  -0.0462905346   0.0250242465
       -0.0034601342   0.0026157745  -0.0000857313  -0.0110552223  -0.0172266377
        0.0023969107  -0.0354362309  -0.0562874419  -0.0484082459  -0.0000177298
       -0.0000161608  -0.0000082423   0.0000227246  -0.0000242157  -0.0000027859
        0.0000222493  -0.0000049050   0.0000196637  -0.0000289561   0.0000081385
       -0.0000125543   0.0006960984  -0.0006322348  -0.0001493890   0.0000153595
       -0.0000139751  -0.0000221435  -0.0000037848  -0.0000558176  -0.0000287440
       -0.0000001968  -0.0000179192   0.0000095532  -0.0000113516  -0.0000163341
        0.0000088676  -0.0000212616  -0.0000053831  -0.0000036827  -0.0000339578
       -0.0000149842   0.0000055900  -0.0000138468  -0.0000193759  -0.0000194884
       -0.0000042076   0.0000164701   0.0000067658  -0.0000078646   0.0000105705
        0.0000029758  -0.0000120137   0.0000090799  -0.0000038305  -0.0000048749
       -0.0000087099  -0.0000044644   0.0000236466  -0.0000087799   0.0000379907
       -0.0000202928  -0.0000006276  -0.0000074170   0.0000141307   0.0000030541
       -0.0000110261   0.0000248586  -0.0000344078  -0.0000390285   0.0002735305
        0.0001804442   0.0000774226  -0.0036397280   0.0023860107  -0.0004211774
        0.0000832544  -0.0003833923   0.0003677334
       -0.0070157743  -0.0250354032   0.0228291546  -0.0354371018  -0.0262562775
       -0.0894443381   0.1503071737  -0.0835913421   0.5891805270   0.0112431571
        0.1421701307  -0.2301702053   0.0044861392   0.0081403864   0.0000270604
        0.0002296587  -0.0021905024   0.0002718061  -0.0001598074  -0.0002126419
       -0.0001077911  -0.0001409915   0.0001301229  -0.0002492580   0.0001522955
        0.0000303338  -0.0000573886  -0.0000276337  -0.0000206593   0.0000848359
       -0.0002415722  -0.0000484886  -0.0001181970   0.0001315277  -0.0002302236
       -0.0002233796   0.0002563644   0.0002670983  -0.0000585398  -0.0000324545
       -0.0001827331  -0.0000444350  -0.0000193081   0.0000369341   0.0000273921
       -0.0000203258  -0.0000022523  -0.0000110117  -0.0000497330   0.0000204883
        0.0000004761   0.0000487861   0.0000019251   0.0000065164   0.0000475209
        0.0000536212  -0.0000066368  -0.0000197956  -0.0000563713  -0.0000045555
        0.0000300695   0.0000271495  -0.0000103375  -0.0000778497  -0.0000825058
        0.0000580434   0.0000074095  -0.0000451248  -0.0000270392  -0.0000087275
        0.0000103455   0.0000304685  -0.0000123733   0.0000068866   0.0000028338
       -0.0000058091  -0.0000055516  -0.0000151696   0.0000180854  -0.0000131177
        0.0000048521   0.0000032289   0.0000621240  -0.0000004223  -0.0001131475
        0.0002424674  -0.0000301959  -0.0011239337  -0.0013474915  -0.0005074784
        0.0002109838   0.0001177361   0.0001875547  -0.0000029702   0.0000106945
       -0.0003225924  -0.0000920866   0.0001111020  -0.0001565977  -0.0000652077
        0.0000841194  -0.0000532230   0.0000025646   0.0001835731  -0.0000597444
        0.0009500084  -0.0001479071   0.0002260933  -0.0001160509  -0.0002152661
       -0.0000398685  -0.0000065181   0.0000250466   0.0000314944  -0.0305066844
       -0.0083543210  -0.0573290309   0.0130042786   0.0239817246  -0.0119659236
       -0.0049995458  -0.0004585567  -0.0027989859   0.0129568290   0.0212192191
       -0.0014065823  -0.1101781165  -0.0481834312  -0.2151465173  -0.0000331651
       -0.0000482144   0.0000766662   0.0000316003  -0.0000363533   0.0000624045
        0.0000586515  -0.0000076167   0.0000491262   0.0000123457  -0.0000119669
        0.0000153665   0.0002115424  -0.0001142961   0.0005178911   0.0000152648
        0.0000276108  -0.0000004333   0.0000095747  -0.0000345615  -0.0000013581
        0.0000107991  -0.0000278097   0.0000017337  -0.0000160785  -0.0000279181
        0.0000028655  -0.0000370209  -0.0000038243   0.0000037307  -0.0000338691
       -0.0000089488   0.0000103484   0.0000300528   0.0000133872  -0.0000099157
        0.0000082717  -0.0000061815  -0.0000040925  -0.0000055527   0.0000078487
        0.0000003715  -0.0000215147   0.0000021274  -0.0000051478  -0.0000193418
       -0.0000203113  -0.0000141250  -0.0000755816  -0.0000920447  -0.0000602549
       -0.0000278756  -0.0000041736  -0.0000367413  -0.0000277625   0.0000062252
       -0.0000117576  -0.0000079100  -0.0000821032  -0.0000235081   0.0005119064
       -0.0002289965  -0.0008058529  -0.0047269100   0.0000204741  -0.0029507657
        0.0005200113   0.0004245868   0.0005797854
       -0.0070740038   0.0089319947  -0.0155436530   0.0074851061  -0.0023000261
        0.0204157729  -0.0636939778  -0.0317542442   0.0112431571   0.3345142071
        0.1815954379   0.1375073700  -0.1044456920  -0.0719423623  -0.0051886030
        0.0086807988   0.0028080565   0.0021101012   0.0006620803   0.0023502574
       -0.0000586584   0.0002120525   0.0000463084   0.0002893505  -0.0001939528
       -0.0001071845  -0.0000828244  -0.0001079954   0.0000310557  -0.0001699885
        0.0000261407  -0.0000823427   0.0000864515  -0.0010031899   0.0009650178
        0.0005716479  -0.0006249931   0.0035132799  -0.0002469445   0.0005190059
        0.0002796808  -0.0000638002   0.0001435250   0.0003351154   0.0000247760
       -0.0002279254  -0.0001609206  -0.0000085749   0.0003040344   0.0001367802
        0.0000191706  -0.0002831249   0.0000886714  -0.0000058355  -0.0000326010
       -0.0002258933  -0.0000539294  -0.0000119974   0.0002003555   0.0000182896