$hessian                                                                        
        0.2330712032   0.1162281265   0.2474465611  -0.1888873726  -0.1006997085
       -0.2031217950   0.0191305526   0.0020912523   0.0038445927  -0.0034012109
       -0.0006075422  -0.0036726271   0.0017377535  -0.0022018712   0.0020880302
        0.0001581505   0.0011140544   0.0019279026  -0.0009026917  -0.0000451785
        0.0012063553  -0.0001517102   0.0002686957  -0.0001744415   0.0000707228
        0.0000357299  -0.0000539323   0.0000388697   0.0000942734  -0.0000582023
        0.0006176245  -0.0005004938  -0.0002601241  -0.0002694945   0.0005482711
        0.0001344963  -0.0509369996  -0.0174429893  -0.0480972947  -0.0039820593
        0.0034107886   0.0043023410  -0.0050846129   0.0019915268  -0.0008130565
        0.0059550255  -0.0009711955  -0.0004907190  -0.0043860906   0.0003787172
       -0.0002769819   0.0006125271  -0.0007995965  -0.0011116867  -0.0001436149
       -0.0003256699  -0.0000412443  -0.0006908642   0.0001756723   0.0000104667
        0.0006974405   0.0004628525   0.0000443671   0.0001169466  -0.0008791039
        0.0001256155   0.0006529145   0.0013970373   0.0000550266  -0.0013284974
        0.0001243632  -0.0001177312   0.0003674783  -0.0014931408   0.0000182745
        0.0003048278   0.0008315944  -0.0000743162   0.0005532815  -0.0005957078
        0.0000764961  -0.0007108848  -0.0000187096  -0.0001108711  -0.0001329367
        0.0003418107   0.0000661007   0.0005312913   0.0006501011   0.0011485945
       -0.0015268573  -0.0022343515  -0.0021662336   0.0024835536  -0.0038353763
       -0.0055721436  -0.0010998227   0.0007013262   0.0022463069  -0.0008705362
        0.0020460065   0.0018690806  -0.0002589295   0.0003035875  -0.0001718034
        0.0000097589  -0.0000705815  -0.0000221160  -0.0000702526  -0.0000577065
        0.0000034663  -0.0000616077  -0.0000191519  -0.0000418617  -0.0001005715
       -0.0003889473  -0.0002329128  -0.0000440145  -0.0002796620   0.0003015926
       -0.0009124938   0.0000172664  -0.0001793566  -0.0000053629  -0.0001775380
        0.0000064636   0.0000164095   0.0000967571   0.0000499976  -0.0000493022
        0.0000756505   0.0000060472  -0.0000803700   0.0000157795  -0.0000141749
       -0.0000853028  -0.0000000774  -0.0000081332  -0.0000591154  -0.0000674646
       -0.0000267472   0.0000166837  -0.0001012948  -0.0000537846   0.0000562005
        0.0001718237  -0.0000537065   0.0000434865  -0.0000240715   0.0000462581
       -0.0010091230   0.0002640664  -0.0000064358
        0.1162281265   0.1495207423   0.2438809242  -0.0987294968  -0.1531369749
       -0.1886045051  -0.0020745124  -0.0055784937  -0.0384429496  -0.0049700799
       -0.0018866593  -0.0010924647   0.0010066287   0.0003646864  -0.0002675586
        0.0009739783   0.0010654494   0.0001868584   0.0002034511  -0.0004628111
        0.0010959726  -0.0000010022   0.0002358279   0.0000151187   0.0000569418
       -0.0000283167  -0.0000768720  -0.0000256153   0.0003173264   0.0000479348
       -0.0004378988  -0.0003426963  -0.0003315381   0.0001393561   0.0003134585
       -0.0000339226  -0.0183868590   0.0123988117  -0.0122246142   0.0022772049
        0.0037254034   0.0017952007  -0.0027819188   0.0006107096   0.0008631814
        0.0036176052  -0.0005071618   0.0002314686  -0.0022181686   0.0005437980
       -0.0002450304   0.0002403132  -0.0001880001  -0.0007088146  -0.0001623104
       -0.0003317891  -0.0000105453  -0.0004476822   0.0001671859  -0.0000076548
        0.0004914841   0.0002906412   0.0000158114   0.0000997604  -0.0005404090
        0.0000678198   0.0004459652   0.0008401972   0.0000129007  -0.0008224995
        0.0001182035  -0.0000661742   0.0003312841  -0.0009227608   0.0000065188
        0.0002199604   0.0005079088  -0.0000286068   0.0003653769  -0.0003588075
        0.0000634995  -0.0004610996  -0.0000619592  -0.0000447919  -0.0001390148
        0.0003533211   0.0000563262   0.0001398083   0.0000250205   0.0006287759
       -0.0022918546  -0.0018270026  -0.0002076528   0.0052230054  -0.0016301618
       -0.0022675572   0.0020615967  -0.0033789429  -0.0038554366   0.0007584024
       -0.0005226361  -0.0006641560  -0.0003253885  -0.0000323974  -0.0003355655
        0.0000415757   0.0000557668  -0.0000617838  -0.0000272318  -0.0000123900
       -0.0000404194  -0.0000071751   0.0000092569  -0.0000184239  -0.0004703830
       -0.0000864114  -0.0000465604   0.0001361553  -0.0001536419   0.0002465497
       -0.0002126076  -0.0002290357   0.0000849811  -0.0000360619  -0.0000492349
       -0.0000431688  -0.0000087126   0.0000718981   0.0000047544  -0.0000226329
        0.0000395927  -0.0000217124  -0.0000363709   0.0000063979  -0.0000267557
       -0.0000410353  -0.0000013698  -0.0000062583  -0.0000194861  -0.0000397357
       -0.0000063771   0.0000206061  -0.0000563354  -0.0000201884   0.0000161498
       -0.0000121416  -0.0000303901  -0.0001239180   0.0000834683  -0.0000210854
        0.0001862801   0.0007132040   0.0005549378
        0.2474465611   0.2438809242   0.4902971749  -0.1996256455  -0.1889914099
       -0.4212004311  -0.0031297443  -0.0374597068  -0.0436413361  -0.0075246018
        0.0003780966  -0.0051167787   0.0020221217  -0.0024368580   0.0019646298
        0.0012970851   0.0011778277   0.0006700724   0.0003091044  -0.0004005456
        0.0004475690   0.0002761169   0.0001333694   0.0000579777  -0.0003083166
        0.0001290766  -0.0001122062  -0.0001099652  -0.0001272076   0.0001109439
       -0.0004784741   0.0006692010  -0.0008609594   0.0004860125  -0.0003343503
        0.0005304160  -0.0491443085  -0.0116295494  -0.0175037587   0.0017059067
        0.0016889703   0.0065479969  -0.0051935435   0.0040342292   0.0001812789
        0.0074765677  -0.0008757416   0.0000865849  -0.0050145369   0.0004067831
        0.0000088283   0.0006036581  -0.0004483571  -0.0014605056  -0.0003123171
       -0.0006479033  -0.0000111500  -0.0009356274   0.0003337306  -0.0000025471
        0.0009935406   0.0005970980   0.0000490487   0.0002027569  -0.0011567935
        0.0001780704   0.0009554729   0.0017816021   0.0000644973  -0.0017501107
        0.0001972889  -0.0001463092   0.0005974768  -0.0019676120   0.0000259304
        0.0004443459   0.0011065679  -0.0000756745   0.0008150219  -0.0007972097
        0.0001414390  -0.0009903157  -0.0001252189  -0.0001290993  -0.0002005382
        0.0007133929   0.0001091897   0.0003585929   0.0003086893   0.0014213722
       -0.0042374287  -0.0017708615  -0.0018497902   0.0097169437  -0.0048202175
       -0.0051171530   0.0013689256  -0.0014215381  -0.0011343666   0.0027858788
       -0.0028141712  -0.0046618243   0.0004219667   0.0001109382  -0.0008384021
        0.0000234081   0.0000052066  -0.0000655052   0.0000176167  -0.0000039374
       -0.0000463782   0.0000568281  -0.0000034714  -0.0000556477  -0.0006615914
       -0.0001983027  -0.0004255152   0.0002849972  -0.0004944359   0.0006574720
       -0.0004791462   0.0001553375  -0.0000559011  -0.0000188521  -0.0000772927
       -0.0000475766   0.0000173650   0.0001314569   0.0000410020  -0.0000458865
        0.0000907143  -0.0000079380  -0.0000861954   0.0000155603  -0.0000246357
       -0.0000949034   0.0000013955   0.0000002085  -0.0000601896  -0.0000817029
       -0.0000124486   0.0000223735  -0.0001242615  -0.0000643840   0.0000482341
        0.0000753305  -0.0000878868  -0.0002148299   0.0000336052   0.0000156246
       -0.0001378107   0.0010522637   0.0011487818
       -0.1888873726  -0.0987294968  -0.1996256455   0.5125409446   0.0411242409
        0.1618024410  -0.0912863273   0.0242546260   0.0354451544  -0.0263301208
        0.0176419831   0.0181783388  -0.0007588655  -0.0006674399  -0.0030079997
        0.0012172721   0.0011081397  -0.0035366330  -0.0001865320  -0.0018029295
        0.0003142610   0.0012554162   0.0000957090   0.0006635066  -0.0008010788
        0.0003279773  -0.0002466331  -0.0002930947  -0.0004533564   0.0005553789
       -0.0019612572   0.0023523387  -0.0011943699   0.0017248747  -0.0018708581
        0.0005083781  -0.1626102270   0.0144240380  -0.0045108021  -0.0283104765
       -0.0081759993  -0.0217078630   0.0111731046  -0.0073806768  -0.0050393076
       -0.0172916708   0.0020950524  -0.0008070153   0.0130018073  -0.0015901743
        0.0012193118  -0.0017095042   0.0025204794   0.0031853013   0.0004129199
        0.0007038249   0.0001289516   0.0017191382  -0.0003914969   0.0000236566
       -0.0017643536  -0.0011744373  -0.0000684814  -0.0003077486   0.0022790350
       -0.0003269856  -0.0014475815  -0.0036511985  -0.0001149291   0.0033352742
       -0.0003569347   0.0002909285  -0.0007500910   0.0038592173  -0.0000706132
       -0.0008097967  -0.0021334331   0.0002059185  -0.0014480682   0.0015294008
       -0.0002337746   0.0017284373   0.0000186321   0.0002659694   0.0003322607
       -0.0007271352  -0.0000756639  -0.0016397188  -0.0020879057  -0.0034343477
        0.0090805816   0.0071816209   0.0064983897  -0.0422735751   0.0173894166
        0.0187639831   0.0041480405   0.0004024157   0.0005148587   0.0074812344
       -0.0063255292  -0.0056734050   0.0000428940  -0.0017974869   0.0010476625
        0.0000567165   0.0002401233  -0.0000040708   0.0002064806   0.0000987007
       -0.0001034084   0.0002088539   0.0000304925   0.0000547096  -0.0011735989
        0.0004167742  -0.0002665281   0.0011688269   0.0011336771   0.0011309978
        0.0003723497   0.0001350520   0.0002799661  -0.0000551489   0.0003629421
       -0.0000022121  -0.0000623831  -0.0002573238  -0.0000862480   0.0001248724
       -0.0002005747   0.0000296095   0.0002171441  -0.0000403113   0.0000639171
        0.0002268610  -0.0000055156  -0.0000123246   0.0001627615   0.0001788823
        0.0000094135  -0.0000319293   0.0002733724   0.0000793112  -0.0001178554
       -0.0003389413   0.0000166158  -0.0000290797  -0.0000176548  -0.0001925102
        0.0003983893  -0.0020013545  -0.0009351590
       -0.1006997085  -0.1531369749  -0.1889914099   0.0411242409   0.3137442766
        0.2286426235   0.0151985034  -0.0809015532  -0.0248366491   0.0218760842
       -0.0021404703   0.0052320201  -0.0031987219   0.0035864743  -0.0013853471
       -0.0033426712  -0.0035609825  -0.0011562345  -0.0013758236   0.0013282758
       -0.0013680154  -0.0008641996  -0.0004224857  -0.0000918479   0.0004456285
       -0.0001532725   0.0002277900   0.0001110021  -0.0001527106   0.0000292579
        0.0018892045  -0.0014278695   0.0011671021  -0.0011811730   0.0006340752
       -0.0005377653   0.0200920897  -0.0663342423   0.0038694559  -0.0093838522
       -0.0015950734  -0.0003059782   0.0007175402   0.0051010833  -0.0042873301
       -0.0003938014   0.0001813142  -0.0008246099  -0.0003267027  -0.0016389418
        0.0008288211   0.0002118710  -0.0001425330   0.0002279402   0.0000664098
        0.0002595757  -0.0000430534   0.0001452909  -0.0001108650  -0.0000270216
       -0.0002045849  -0.0000918053  -0.0000094607  -0.0000058162   0.0001798373
       -0.0000406937  -0.0000964363  -0.0002200220   0.0000171144   0.0002321298
       -0.0001413740  -0.0000184324  -0.0002971501   0.0002150395  -0.0000101317
       -0.0000793240  -0.0000910595  -0.0000247348  -0.0000784485   0.0000872632
       -0.0000258737   0.0001002855   0.0000402693  -0.0000281717   0.0000654256
       -0.0001587145  -0.0000643092   0.0000485996   0.0004892344   0.0000594440
        0.0026850142   0.0048829795  -0.0048886820   0.0129298541  -0.0022235038
        0.0000822982  -0.0067237401   0.0064549994   0.0061605311   0.0091851383
       -0.0180600847  -0.0202938493  -0.0004641091  -0.0001245738   0.0011700628
       -0.0000556219  -0.0001944217   0.0000884448  -0.0000015517  -0.0000524847
        0.0000259675  -0.0000921648  -0.0000531756   0.0000086209   0.0014731746
        0.0001994996   0.0004124897  -0.0006555365  -0.0020158644   0.0004689645
       -0.0004212658   0.0003170503  -0.0002248728   0.0000188825   0.0000073885
        0.0000554747   0.0000267785  -0.0000300728   0.0000024849   0.0000039581
       -0.0000008001   0.0000151510   0.0000009287  -0.0000005754   0.0000133002
       -0.0000024146   0.0000012628   0.0000124649  -0.0000051367   0.0000099205
        0.0000119421  -0.0000172493   0.0000002738   0.0000074238   0.0000325530
        0.0001173528   0.0000489721   0.0007067197  -0.0000219852   0.0000396021
        0.0005798971  -0.0026389539   0.0005587100
       -0.2031217950  -0.1886045051  -0.4212004311   0.1618024410   0.2286426235
        0.6015849376   0.0192247102  -0.0216046465  -0.0898381933   0.0218693545
        0.0007027802   0.0171435487  -0.0076769162   0.0075837768  -0.0069248625
       -0.0035096886  -0.0039405689  -0.0022371305   0.0003309857   0.0013401839
       -0.0016641443  -0.0014972806  -0.0004148140  -0.0000667745   0.0007137860
       -0.0004400568   0.0004023217   0.0001205280   0.0002943109   0.0000596057
        0.0019103359  -0.0023628174   0.0016673017  -0.0017508194   0.0012673263
       -0.0012103779   0.0050392377   0.0004765107  -0.0618025704  -0.0252169075
        0.0009864195  -0.0082888405   0.0004562966  -0.0069331133  -0.0025936321
       -0.0057412072  -0.0000462379  -0.0014346658   0.0038469727   0.0002530269
       -0.0003041335  -0.0004495096   0.0000929528   0.0010508952   0.0002542064
        0.0004702987   0.0000298188   0.0007137556  -0.0002297954   0.0000235443
       -0.0007687152  -0.0004363765  -0.0000185031  -0.0001845684   0.0008448275
       -0.0001241275  -0.0008456627  -0.0013731185  -0.0000500872   0.0014124264
       -0.0001258733   0.0001366215  -0.0004159818   0.0015663107  -0.0000260349
       -0.0003506789  -0.0008702243   0.0000717786  -0.0006752736   0.0006210001
       -0.0001139145   0.0007673297   0.0001253485   0.0001177278   0.0001171351
       -0.0006260575  -0.0000519407  -0.0001031116  -0.0001744135  -0.0011285039
        0.0070419595  -0.0030138676  -0.0000536021   0.0118762543   0.0021378359
        0.0067554408   0.0111828405  -0.0130149812  -0.0248633849  -0.0010223154
       -0.0051389337  -0.0033783290   0.0005144761   0.0011718809   0.0001064448
       -0.0000690646  -0.0000807138   0.0000921794  -0.0000892714  -0.0000465431
       -0.0000440523  -0.0001575854  -0.0000188165   0.0000112129   0.0019870921
        0.0003925888   0.0007417810  -0.0003268831   0.0012925958  -0.0009544280
       -0.0009286111  -0.0001264728  -0.0001930286   0.0000543687   0.0000425724
        0.0000270134   0.0000000019  -0.0000953896  -0.0000151640   0.0000465523
       -0.0000685114   0.0000110623   0.0000661906  -0.0000028827   0.0000232679
        0.0000728371   0.0000000541   0.0000024712   0.0000459185   0.0000688482
        0.0000060706  -0.0000211597   0.0001022681   0.0000570521  -0.0000475253
        0.0000182742   0.0000378861   0.0013709815  -0.0003313760  -0.0000199373
        0.0021315577  -0.0003735081  -0.0015591896
        0.0191305526  -0.0020745124  -0.0031297443  -0.0912863273   0.0151985034
        0.0192247102   0.4332859636   0.0300157900   0.0355298483  -0.1557524402
        0.0001484526  -0.0181063716  -0.0274718064   0.0321922790  -0.0189847492
       -0.0268332483  -0.0077398027  -0.0072506035  -0.0010695261   0.0026046293
       -0.0013524656  -0.0015393850  -0.0001276299  -0.0003152398   0.0006672112
       -0.0000903716   0.0001645235  -0.0010160364   0.0000207407   0.0001898971
        0.0021469619  -0.0057608117   0.0014398615  -0.0024082270   0.0009602060
       -0.0009422961  -0.0243740141   0.0181090847   0.0194236989  -0.0002869952
        0.0008181362   0.0012064602  -0.0007331515   0.0009867109   0.0011733874
        0.0031390090  -0.0002163638   0.0005861934  -0.0027312161   0.0004171492
       -0.0002973634   0.0004368515  -0.0008468373  -0.0005273947  -0.0000504136
       -0.0000243202  -0.0000702412  -0.0003252165   0.0000148770  -0.0000115360
        0.0002979914   0.0002389313   0.0000146127   0.0000317974  -0.0004465214
        0.0000446954   0.0002485928   0.0007445093   0.0000382530  -0.0006591671
        0.0000689307  -0.0000565335   0.0001083950  -0.0007630443   0.0000032165
        0.0001321635   0.0004221410  -0.0000343232   0.0002498598  -0.0002946491
        0.0000351086  -0.0003126136   0.0000562778  -0.0000530549  -0.0000409726
        0.0000222079   0.0000247506   0.0005351656   0.0007401103   0.0006616962
       -0.0023509602  -0.0002010072   0.0008315777  -0.0047281050  -0.0004036158
       -0.0032862376  -0.0368228681   0.0043320578  -0.0179444857  -0.0793435312
       -0.0889966257  -0.0090067014  -0.0003432421  -0.0009094118   0.0001405032
       -0.0000051499  -0.0001997014   0.0000746985  -0.0000664520  -0.0001478064
       -0.0000286319  -0.0003736642  -0.0002957427  -0.0000231372   0.0031833792
        0.0005735230   0.0005372280  -0.0019028818   0.0007254867   0.0002623776
       -0.0002179540  -0.0000033249  -0.0001230430   0.0000295537  -0.0001614788
        0.0000298179   0.0000224161   0.0000504482   0.0000176680  -0.0000298260
        0.0000458849  -0.0000046159  -0.0000544215   0.0000135138  -0.0000130163
       -0.0000563079   0.0000044098   0.0000051479  -0.0000457401  -0.0000364840
        0.0000003464   0.0000028625  -0.0000568226  -0.0000089693   0.0000366981
        0.0001464251   0.0000025397  -0.0008064657   0.0000970110   0.0001107415
        0.0003529015   0.0000284577  -0.0002028042
        0.0020912523  -0.0055784937  -0.0374597068   0.0242546260  -0.0809015532
       -0.0216046465   0.0300157900   0.4908527416  -0.0380024182  -0.0151843927
       -0.0675360576  -0.0036466801   0.0512415195  -0.0217400605   0.0207721086
       -0.0165187935   0.0060795501  -0.0017092453   0.0001036128  -0.0023377355
        0.0003525075   0.0008764612   0.0007633300  -0.0003109110  -0.0005420648
        0.0001505913  -0.0001359114  -0.0011694332   0.0001998863  -0.0009767687
       -0.0040638571  -0.0027607779   0.0005160522   0.0024437836   0.0010018666
        0.0003868553   0.0118107793   0.0023357295  -0.0085150394  -0.0011714790
       -0.0009886904  -0.0010504362   0.0004723191  -0.0014972755   0.0000653608
       -0.0020562192   0.0000822898  -0.0004232124   0.0016240674   0.0000991431
        0.0000852786  -0.0001945554   0.0002252830   0.0003086034   0.0000530458
        0.0000424662   0.0000554598   0.0002137822  -0.0000298895   0.0000207509
       -0.0001923439  -0.0001122249  -0.0000061160  -0.0000590421   0.0002404663
       -0.0000245734  -0.0002074763  -0.0004452053  -0.0000377301   0.0003926860
        0.0000227766   0.0000507853  -0.0000277020   0.0004391618  -0.0000123844
       -0.0001072841  -0.0002498674   0.0000288498  -0.0001846186   0.0001693449
       -0.0000241215   0.0002369912  -0.0000063890   0.0000468414   0.0000361602
       -0.0000727969   0.0000039695  -0.0002093085  -0.0003179793  -0.0004204712
        0.0014722203  -0.0001958654   0.0005843793  -0.0002418102   0.0024748271
        0.0012221859   0.0049654292  -0.0823169288   0.1033439468  -0.0844863176
       -0.2354150638  -0.0128234629  -0.0021210103  -0.0014964897  -0.0002818183
       -0.0000218368   0.0000053277  -0.0000393200  -0.0001191105   0.0000414063
        0.0000912602  -0.0002500582  -0.0002756672   0.0000006905  -0.0037684207
       -0.0017508707  -0.0003309513   0.0006032935   0.0008824214  -0.0002362592
        0.0000789997  -0.0000029588   0.0000390438   0.0000048656   0.0000463762
       -0.0000298678  -0.0000159812  -0.0000271771  -0.0000131860   0.0000188691
       -0.0000299285  -0.0000028797   0.0000310042  -0.0000010490   0.0000044431
        0.0000267141  -0.0000007970  -0.0000055871   0.0000198662   0.0000221952
       -0.0000033755  -0.0000069033   0.0000356698   0.0000045425  -0.0000245270
       -0.0000639849  -0.0000174457   0.0002028485  -0.0001396110   0.0000303870
       -0.0003464409   0.0000785377   0.0001302241
        0.0038445927  -0.0384429496  -0.0436413361   0.0354451544  -0.0248366491
       -0.0898381933   0.0355298483  -0.0380024182   0.4484320242  -0.0332926715
        0.0017081918  -0.0765945295  -0.0205750157   0.0138063239   0.0100570107
       -0.0025818048   0.0018126716   0.0097896240  -0.0004053981  -0.0005636298
       -0.0002965567   0.0007504326  -0.0001954223  -0.0010596005  -0.0004528839
        0.0002423007  -0.0002846909   0.0004165951  -0.0009361497  -0.0018587020
       -0.0010314155   0.0020298088   0.0024100853   0.0001497103  -0.0011506341
        0.0003544832   0.0090114600  -0.0070605401   0.0017526067  -0.0012950404
       -0.0008600140  -0.0024446159   0.0008914066  -0.0000657771  -0.0002722916
       -0.0016795655   0.0000525816  -0.0005449113   0.0012404106  -0.0001761863
        0.0003284460  -0.0001741530   0.0002421085   0.0003461135   0.0000474844
        0.0000974148   0.0000314787   0.0002072482  -0.0000494404   0.0000009679
       -0.0001977937  -0.0001271748   0.0000018037  -0.0000338611   0.0002622509
       -0.0000393378  -0.0001905680  -0.0004036839  -0.0000204569   0.0003512539
       -0.0000029068   0.0000426984  -0.0000772423   0.0003874603  -0.0000281560
       -0.0000962482  -0.0002427907   0.0000324832  -0.0001717618   0.0001827700
       -0.0000253524   0.0002045892   0.0000058222   0.0000436952   0.0000427428
       -0.0001013639   0.0000127338  -0.0002224766  -0.0002465155  -0.0003852061
        0.0013803246   0.0010070338   0.0004771820  -0.0016841772   0.0003925632
        0.0023194592  -0.0182733883   0.0980350462  -0.2251159306  -0.0064708233
       -0.0081061611  -0.0375190246   0.0002038987   0.0003535471   0.0011690541
        0.0000210054   0.0000575090  -0.0000235599  -0.0000742252   0.0001466808
        0.0005390029   0.0000757829   0.0000303959   0.0000645513   0.0001822114
        0.0006838678   0.0005993042  -0.0006675929  -0.0000637651   0.0008605156
        0.0001007315  -0.0000000459   0.0000456536  -0.0000043876   0.0000423374
       -0.0000238310  -0.0000116623  -0.0000270247  -0.0000182310   0.0000154750
       -0.0000267656  -0.0000013896   0.0000308038  -0.0000095884   0.0000030395
        0.0000268094   0.0000012968  -0.0000033486   0.0000199354   0.0000216743
       -0.0000009941   0.0000012748   0.0000355769   0.0000052000  -0.0000029047
       -0.0000523967  -0.0000218373   0.0000940170   0.0000817436   0.0000280996
       -0.0006181373   0.0000310159   0.0003147669
       -0.0034012109  -0.0049700799  -0.0075246018  -0.0263301208   0.0218760842
        0.0218693545  -0.1557524402  -0.0151843927  -0.0332926715   0.4970865979
       -0.0624336654   0.0823175729  -0.1300065223   0.1459902367  -0.0526564250
       -0.1339266049  -0.0686268010   0.0012380990   0.0086209763  -0.0084841894
        0.0047932053   0.0062229616   0.0045105805  -0.0013690747  -0.0036244257
        0.0018968065  -0.0012581170  -0.0063243545  -0.0006675572  -0.0032954088
       -0.0363871314  -0.0140172320  -0.0051625235   0.0050395411  -0.0085949177
        0.0038951157   0.0055557185  -0.0012029149  -0.0014465425  -0.0009557168
       -0.0007581428  -0.0015215092   0.0014027048  -0.0012939822  -0.0007937601
       -0.0032263247   0.0003672354  -0.0002135450   0.0025686035  -0.0003290586
        0.0001602465  -0.0003672271   0.0005511240   0.0005836079   0.0000964493
        0.0000505008   0.0000281536   0.0003945544  -0.0000826548  -0.0000056084
       -0.0003222083  -0.0002173160  -0.0000283860  -0.0000495229   0.0004061409
       -0.0000718350  -0.0002522304  -0.0007183705  -0.0000307066   0.0006474585
       -0.0000969211   0.0000489375  -0.0001266803   0.0007783621   0.0000008659
       -0.0001446700  -0.0003961965   0.0000377156  -0.0002441713   0.0002369946
       -0.0000341690   0.0004019563   0.0000007831   0.0000635713   0.0000895678
       -0.0000820008  -0.0000495824  -0.0003260179  -0.0004159075  -0.0006255773
        0.0014320732   0.0007773109   0.0005236434  -0.0006710300   0.0012497239
        0.0021353115  -0.0020537912   0.0057215608  -0.0017509697  -0.0201895161
       -0.0034537559  -0.0038201197  -0.0005935101   0.0018523165  -0.0001511585
        0.0003242256   0.0010643866  -0.0003431881  -0.0000079890   0.0004163208
        0.0003328903  -0.0007890153  -0.0010507733   0.0001445449  -0.0033270115
        0.0053542439  -0.0023358884  -0.0005893983   0.0000630985  -0.0003715032
        0.0001640646   0.0000445720   0.0001319577  -0.0000433491   0.0001499382
       -0.0000109077  -0.0000292521  -0.0000381876  -0.0000339858   0.0000190244
       -0.0000382138  -0.0000123926   0.0000393263   0.0000012767   0.0000020616
        0.0000453583  -0.0000155597  -0.0000029902   0.0000262245   0.0000297572
        0.0000108032  -0.0000387226   0.0000339092   0.0000226579  -0.0000935369
       -0.0000947586   0.0000265623   0.0003023236  -0.0000610898  -0.0001227943
       -0.0002860079  -0.0000986241  -0.0000309365
       -0.0006075422  -0.0018866593   0.0003780966   0.0176419831  -0.0021404703
        0.0007027802   0.0001484526  -0.0675360576   0.0017081918  -0.0624336654
        0.7180527842  -0.1445261660   0.1246546789  -0.4830049990   0.1356375001
       -0.0527260105  -0.1238517295   0.0019827730  -0.0090791176  -0.0496434446
        0.0090170445   0.0155563315   0.0024327202   0.0050705371  -0.0079169524
        0.0029363110  -0.0029063907  -0.0018943593  -0.0020758210   0.0018920643
       -0.0357562847   0.0299440318  -0.0157700578  -0.0006308136  -0.0335206233
        0.0074773189   0.0005268515   0.0003903154  -0.0022989981  -0.0000113490
        0.0000633678   0.0000692319  -0.0002232660   0.0001269289   0.0001604362
        0.0005571725  -0.0000489263  -0.0000686941  -0.0004709492   0.0000206127
       -0.0000323461   0.0000105272  -0.0000695157  -0.0001033940  -0.0000482948
       -0.0000443672   0.0000135961  -0.0000453462   0.0000030673   0.0000145023
        0.0000343917   0.0000140195   0.0000118081   0.0000162880  -0.0000946237
        0.0000219259   0.0000354858   0.0001559076   0.0000080650  -0.0001284816
       -0.0000037370  -0.0000041556   0.0000234802  -0.0001168514  -0.0000014244
        0.0000169134   0.0000416988  -0.0000043019   0.0000766543  -0.0000742470
        0.0000085541  -0.0000601356   0.0000203744  -0.0000108641  -0.0000127423
       -0.0000067295   0.0000101729   0.0000747250   0.0000993271   0.0001006534
       -0.0000850183  -0.0003452965  -0.0000560572   0.0008041364  -0.0002055932
       -0.0003012083   0.0122471026  -0.0019320489   0.0060806290  -0.0285481512
        0.0003879680  -0.0078674085  -0.0006075816   0.0009901884  -0.0009037372
       -0.0005721936   0.0001129300   0.0000580565   0.0003058639   0.0003627141
       -0.0004528094   0.0009603948   0.0003441588   0.0000381785   0.0284281770
        0.0096882820   0.0047955267  -0.0001753637   0.0000949939   0.0000828617
       -0.0000524657   0.0000504759  -0.0000320094   0.0000304379   0.0000391335
       -0.0000049078   0.0000177279   0.0000093436   0.0000113353   0.0000067418
        0.0000082287   0.0000110426  -0.0000118196   0.0000101444   0.0000060519
       -0.0000112308   0.0000139313   0.0000000474  -0.0000265570   0.0000043087
       -0.0000083501  -0.0000405351  -0.0000123776  -0.0000154727  -0.0000163965
        0.0000555300  -0.0000187829  -0.0000095960   0.0000065849   0.0000070216
        0.0000277015   0.0001337356   0.0000115325
       -0.0036726271  -0.0010924647  -0.0051167787   0.0181783388   0.0052320201
        0.0171435487  -0.0181063716  -0.0036466801  -0.0765945295   0.0823175729
       -0.1445261660   0.2357453413  -0.0464096713   0.1365366486  -0.0998413969
       -0.0026519229   0.0010229192  -0.0626703305   0.0050062552   0.0083122476
       -0.0046220175  -0.0037859974   0.0025980498   0.0062914666   0.0008239955
       -0.0001374760  -0.0000493317  -0.0030547452   0.0018036446   0.0058496832
       -0.0000751898  -0.0102325478   0.0024045257   0.0021464224   0.0053743089
       -0.0024953155   0.0038512468  -0.0039556821  -0.0040237806  -0.0006527587
       -0.0003992895  -0.0008582628   0.0002481960  -0.0002986590  -0.0001634756
       -0.0012190904   0.0001014932  -0.0001051364   0.0008652859  -0.0001111149
        0.0000732750  -0.0001290583   0.0001976831   0.0001887968   0.0000568413
        0.0000039829   0.0000080479   0.0001342764  -0.0000235144  -0.0000127868
       -0.0001022669  -0.0000637880  -0.0000033357  -0.0000146956   0.0001374812
       -0.0000299984  -0.0000716994  -0.0002362197   0.0000016878   0.0001987945
       -0.0000333829   0.0000084230  -0.0000296791   0.0002505912  -0.0000041854
       -0.0000456569  -0.0001171970   0.0000158696  -0.0000881126   0.0000821724
       -0.0000148124   0.0001285554  -0.0000013338   0.0000209274   0.0000463254
       -0.0000124469  -0.0000193455  -0.0001278925  -0.0001549441  -0.0002051361
        0.0006316599   0.0001620749  -0.0002198892   0.0012779366   0.0002920073
        0.0010181700  -0.0242752946   0.0051263186  -0.0079587908  -0.0034789939
       -0.0003640390   0.0012603994   0.0005543551  -0.0004363182  -0.0024714648
        0.0000366692   0.0004079494   0.0006280180   0.0004107403  -0.0004404748
       -0.0017298530  -0.0003439364  -0.0004454015  -0.0003042750  -0.0084203915
       -0.0009683736  -0.0012802336  -0.0002952934   0.0001756740   0.0000537344
        0.0000627554  -0.0000052552   0.0000583931  -0.0000330386   0.0000481956
       -0.0000037793  -0.0000147596  -0.0000119503  -0.0000114882  -0.0000000043
       -0.0000091494  -0.0000052289   0.0000094988   0.0000000152  -0.0000005224
        0.0000105571  -0.0000107536   0.0000000973   0.0000082962   0.0000042040
        0.0000068514  -0.0000008265   0.0000119612   0.0000149906  -0.0000319240
       -0.0000506159   0.0000158872   0.0002392461  -0.0000303992  -0.0000424028
       -0.0001119227  -0.0000660055   0.0000497497
        0.0017377535   0.0010066287   0.0020221217  -0.0007588655  -0.0031987219