$hessian                                                                        
        0.4536117065   0.0146803687   0.0150882426  -0.1698893633   0.0303094003
        0.0286508190  -0.0112880011   0.0083929511   0.0014196856  -0.0097327780
        0.0023961546   0.0077166060  -0.0252802486   0.0009885746   0.0017324170
       -0.0017171143  -0.0022212402  -0.0017288170  -0.0012434800   0.0001006108
        0.0001236126  -0.0001923340   0.0001043132   0.0000993877  -0.0001429471
        0.0005806677   0.0004710052  -0.0003284718  -0.0000307773  -0.0000218305
        0.0000868632   0.0000086971   0.0000100289  -0.0000610043   0.0000056862
        0.0000024615  -0.0000181718  -0.0000096930  -0.0000091450  -0.0000173668
        0.0000039165   0.0000045949   0.0000067143  -0.0000010067  -0.0000012291
       -0.0000023109  -0.0000114112  -0.0000035331  -0.0000020578  -0.0000044850
       -0.0000104319   0.0000341351  -0.0000182755  -0.0000144939  -0.0000170833
       -0.0000065438  -0.0000065743   0.0000352200  -0.0000332681  -0.0000284440
       -0.0000361929   0.0000162848   0.0000033018  -0.0000289933  -0.0000153480
       -0.0000076428  -0.0000038869  -0.0000050089   0.0000023080  -0.0000154418
        0.0000052373   0.0000000042   0.0000058844  -0.0000041534   0.0000040884
        0.0000106958  -0.0000007051   0.0000013788   0.0000001875   0.0000028649
        0.0000020916  -0.0000018959  -0.0000045031  -0.0000029586  -0.0000021533
        0.0000012779   0.0000006397   0.0000032759  -0.0000010745   0.0000000926
        0.0000026058   0.0000042696   0.0000007093  -0.0000005109   0.0000012204
       -0.0000006625   0.0000107864  -0.0000000766   0.0000001887  -0.0000077072
        0.0000009669  -0.0000002476   0.0000024997  -0.0000022408   0.0000009427
        0.0000012893   0.0000026863  -0.0000021592  -0.0000002929  -0.0000004621
        0.0000013603  -0.0000005253  -0.0000005934   0.0000013463   0.0000020151
       -0.0000008563   0.0000015325   0.0000003517   0.0000001159   0.0000011809
        0.0000011906   0.0000013699   0.0000008176   0.0000012652   0.0000001389
       -0.0000004234   0.0000008123   0.0000029947  -0.0000020091  -0.0000014759
       -0.0000001989   0.0000007135  -0.0000018463   0.0000008125  -0.0000004126
        0.0000007779  -0.0000031945   0.0000028345   0.0000004338   0.0000010089
       -0.0000008957   0.0000027281   0.0000017775  -0.0000015851  -0.0000000340
        0.0000008361   0.0000002518  -0.0000000960  -0.0000004401  -0.0000006873
        0.0000012668  -0.0000007011   0.0000005619  -0.0000023499   0.0000009610
       -0.0000011050   0.0000016371  -0.0000029977   0.0000030517   0.0000020949
        0.0000028886  -0.0000006912  -0.0000014897  -0.0000010182   0.0000011184
        0.0000029680  -0.0000029006  -0.0000004675  -0.0000047488  -0.0000047918
       -0.0000038905   0.0000000709   0.0000007459   0.0000001445  -0.0000112505
       -0.0000007888  -0.0000004730   0.0000136503   0.0000016733   0.0000003893
       -0.0000023393   0.0000045422   0.0000039424  -0.0000064036  -0.0000120838
       -0.0000015833  -0.0000012856   0.0000338019  -0.0000201143  -0.0508025423
        0.0416683544  -0.0131002712  -0.1367153686  -0.0927203088  -0.0707862843
       -0.0468392275  -0.0028902941   0.0316399718   0.0002753292  -0.0007355248
        0.0002597337  -0.0001158879   0.0014829255  -0.0004601753   0.0006714864
       -0.0011562434   0.0001916156   0.0006660609  -0.0000225222  -0.0011592049
        0.0000767114  -0.0001559709   0.0012462419   0.0002918142   0.0000647269
       -0.0007822118   0.0000576388  -0.0000458152  -0.0000447748  -0.0002106695
       -0.0001553960  -0.0001347452  -0.0011914100  -0.0005977204  -0.0003987468
       -0.0000037275   0.0000113537   0.0000122142   0.0000016925  -0.0000035305
       -0.0000028244   0.0000041332   0.0000004278   0.0000061328   0.0000048314
        0.0000067142  -0.0000011922   0.0000034192  -0.0000008909  -0.0000048906
        0.0000062488  -0.0000016695   0.0000083740  -0.0000045244   0.0000074485
        0.0000054815   0.0000032443  -0.0000055508  -0.0000002749   0.0000069689
        0.0000088316  -0.0000038699  -0.0000052943   0.0000057093   0.0000072825
       -0.0000004063  -0.0000029517   0.0000025368   0.0000051967  -0.0000039139
       -0.0000024805   0.0000006893   0.0000046784   0.0000008895  -0.0000013466
       -0.0000023754  -0.0000004271   0.0000049551  -0.0000003910  -0.0000006119
        0.0000001876   0.0000011910   0.0000013377   0.0000013601  -0.0000007090
        0.0000000130  -0.0000008536  -0.0000004449  -0.0000001480   0.0000008937
       -0.0000001113   0.0000009423   0.0000013349   0.0000006475   0.0000002748
        0.0000008772   0.0000004121   0.0000005407   0.0000001541   0.0000012374
       -0.0000000098   0.0000010629   0.0000004951   0.0000002332   0.0000007120
        0.0000000829   0.0000006918   0.0000011901   0.0000002552  -0.0000000042
       -0.0000003328   0.0000010548  -0.0000002846   0.0000009565   0.0000002290
        0.0000006248  -0.0000002228   0.0000011012   0.0000001958   0.0000007650
       -0.0000000680   0.0000006823   0.0000002253  -0.0000000976   0.0000006726
        0.0000002429   0.0000007975  -0.0000004897  -0.0000002546  -0.0000007948
        0.0000001534   0.0000006704   0.0000001714  -0.0000006892   0.0000013300
        0.0000000719  -0.0000001866   0.0000012960  -0.0000000573  -0.0000001292
       -0.0000001705  -0.0000005806   0.0000005219   0.0000007643   0.0000002743
        0.0000000051  -0.0000005081  -0.0000006171   0.0000004194   0.0000006276
        0.0000003583  -0.0000005470   0.0000007169   0.0000006067  -0.0000001015
        0.0000016595  -0.0000004242   0.0000003878   0.0000007292   0.0000007945
       -0.0000005968  -0.0000002332   0.0000006151   0.0000007019   0.0000014728
        0.0000007275   0.0000005540   0.0000053494  -0.0000017733   0.0000013986
        0.0000085085  -0.0000245236   0.0000140026
        0.0146803687   0.5245913543  -0.0062542484   0.0286029332  -0.0719042507
       -0.0082893381   0.0276216212  -0.0158125754  -0.0050961174  -0.0001435548
        0.0006526443  -0.0004318230  -0.0148789510   0.0035716555   0.0029742847
       -0.0018394099  -0.0015416509  -0.0018696331  -0.0008061237   0.0000456528
        0.0000099800   0.0000292080   0.0002483876   0.0001190536  -0.0004589724
        0.0005072747   0.0002740474  -0.0006389929  -0.0011213696  -0.0001449762
        0.0000194036   0.0000150504   0.0000376787  -0.0000296014  -0.0000056591
        0.0000277099  -0.0000476465  -0.0000059045  -0.0000106978  -0.0000261536
        0.0000168637  -0.0000019561   0.0000138594   0.0000020014   0.0000060010
        0.0000039585  -0.0000133553   0.0000020556   0.0000038025  -0.0000169188
       -0.0000116316   0.0000162678   0.0000017603   0.0000024269   0.0000337607
        0.0000004393   0.0000009069  -0.0000543129  -0.0000161533   0.0000072000
       -0.0002883207  -0.0002102195  -0.0001389442   0.0001739600  -0.0000035941
       -0.0000147795  -0.0000507751  -0.0000137846  -0.0000059353   0.0000180595
       -0.0000028890  -0.0000082737  -0.0000288083  -0.0000044180   0.0000000648
        0.0000396440   0.0000005118   0.0000031260  -0.0000173146   0.0000017302
        0.0000011085   0.0000076077  -0.0000041791  -0.0000064791   0.0000064870
       -0.0000045244  -0.0000031026  -0.0000024022   0.0000007542   0.0000001912
        0.0000030422   0.0000040119   0.0000019890  -0.0000058885   0.0000056674
       -0.0000023209   0.0000236620   0.0000010900  -0.0000004653  -0.0000275137
        0.0000001695   0.0000008593   0.0000054117  -0.0000103885   0.0000039543
       -0.0000000623   0.0000022964  -0.0000022241   0.0000012650  -0.0000002067
        0.0000006787  -0.0000006890  -0.0000017621   0.0000016221   0.0000001125
       -0.0000004252   0.0000004405  -0.0000005138   0.0000001967  -0.0000005179
       -0.0000006899   0.0000004623  -0.0000003452  -0.0000007626   0.0000003091
       -0.0000001577   0.0000004990   0.0000014025  -0.0000006979  -0.0000030869
       -0.0000030553   0.0000028136  -0.0000041894   0.0000031204  -0.0000027413
        0.0000005791  -0.0000009110   0.0000003748  -0.0000012172   0.0000020429
       -0.0000019380   0.0000001138   0.0000000821  -0.0000004170  -0.0000012226
       -0.0000002716   0.0000000578  -0.0000012391  -0.0000002988   0.0000004403
       -0.0000006389  -0.0000001663   0.0000000858   0.0000007236   0.0000001666
       -0.0000008081  -0.0000000356  -0.0000022722   0.0000021561   0.0000065831
        0.0000099744  -0.0000050703  -0.0000055314  -0.0000068664   0.0000026523
        0.0000014937  -0.0000067128  -0.0000028644  -0.0000055195   0.0000005683
        0.0000006957  -0.0000174375   0.0000032619   0.0000039917   0.0000009305
       -0.0000084341  -0.0000066126   0.0000051947   0.0000096965   0.0000061489
       -0.0000038459  -0.0000061466  -0.0000031089   0.0000365346  -0.0000000914
        0.0000104642  -0.0000551397   0.0000165431  -0.0000043905   0.0421763984
       -0.2540210885   0.0655320420  -0.0930299969  -0.1342898572  -0.0682867464
       -0.0027799173  -0.0459895199   0.0212815344   0.0004087224   0.0006344611
       -0.0007720953   0.0024454350  -0.0060626682   0.0013934052   0.0014622684
        0.0005771719  -0.0000576841   0.0004232525   0.0001086576  -0.0001789612
       -0.0001239249   0.0003913319   0.0002808397  -0.0007258130   0.0004491062
        0.0005553199   0.0000016239   0.0000095245   0.0000887308  -0.0002334556
       -0.0001403771  -0.0000612918  -0.0019401283  -0.0006420495  -0.0009251406
        0.0000168515   0.0000205117  -0.0000190287   0.0000064870  -0.0000100302
       -0.0000093275   0.0000010916  -0.0000004914   0.0000081202  -0.0000057333
       -0.0000005592  -0.0000007561   0.0000053987  -0.0000037625  -0.0000118281
        0.0000033531  -0.0000066870   0.0000108228  -0.0000022658   0.0000150627
        0.0000003622   0.0000047746  -0.0000090045   0.0000005527  -0.0000058341
       -0.0000066315  -0.0000026259   0.0000083636   0.0000168396  -0.0000009983
       -0.0000071646  -0.0000026006  -0.0000073614  -0.0000052460  -0.0000015845
       -0.0000044173   0.0000025879  -0.0000015237  -0.0000015236  -0.0000052593
       -0.0000049299   0.0000031857   0.0000025714  -0.0000022623  -0.0000015918
       -0.0000030070   0.0000011480   0.0000018050   0.0000007661   0.0000005843
       -0.0000009357  -0.0000016063  -0.0000011551  -0.0000008108  -0.0000009247
       -0.0000008345   0.0000003748  -0.0000001183   0.0000000008  -0.0000001791
       -0.0000000304  -0.0000002288   0.0000002470  -0.0000008179   0.0000005152
       -0.0000002083  -0.0000003820   0.0000000543   0.0000006838   0.0000000666
        0.0000003420  -0.0000000763  -0.0000005640   0.0000002777   0.0000006527
       -0.0000009731   0.0000002444  -0.0000002835   0.0000000435  -0.0000001021
        0.0000001266  -0.0000009641   0.0000006754  -0.0000000408   0.0000000532
       -0.0000000506   0.0000000034  -0.0000011973   0.0000000676   0.0000001564
       -0.0000008564   0.0000000039  -0.0000001748  -0.0000010771  -0.0000005861
        0.0000001389  -0.0000003384   0.0000002651   0.0000000551  -0.0000003721
        0.0000002813  -0.0000004038  -0.0000001729   0.0000000557  -0.0000004801
       -0.0000008426  -0.0000002936   0.0000003948  -0.0000001903  -0.0000001540
       -0.0000003472  -0.0000010771  -0.0000003821   0.0000003063  -0.0000001733
        0.0000002495   0.0000002203  -0.0000001794   0.0000001120  -0.0000002193
       -0.0000001494  -0.0000005951   0.0000002424  -0.0000007908   0.0000002402
       -0.0000006446  -0.0000019298   0.0000008254   0.0000004576   0.0000002349
       -0.0000010129  -0.0000002573  -0.0000069602   0.0000017809  -0.0000044257
        0.0000095660  -0.0000170553   0.0000074405
        0.0150882426  -0.0062542484   0.5260195272   0.0272664441  -0.0083802678
       -0.0707811921  -0.0054962847   0.0027166329   0.0017742364   0.0282239773
       -0.0076315758  -0.0161993698  -0.0111558956   0.0023796478   0.0029221023
       -0.0014146992  -0.0018145704  -0.0006535823  -0.0006039456  -0.0000216149
        0.0000718572   0.0000230294   0.0001386334   0.0001815768  -0.0003611379
        0.0002501587   0.0003690072  -0.0005725107  -0.0002291653  -0.0009526966
        0.0000117561   0.0000349759  -0.0000131933  -0.0000177164   0.0000313810
       -0.0000222001  -0.0000387127  -0.0000102933  -0.0000046986  -0.0000204557
       -0.0000012349   0.0000180486   0.0000106818   0.0000056663   0.0000002726
        0.0000030077  -0.0000108436  -0.0000130443   0.0000035491   0.0000035096
       -0.0000105259   0.0000133772   0.0000054562   0.0000007100   0.0000279702
        0.0000023951  -0.0000009631  -0.0000429824  -0.0000236942   0.0000161456
       -0.0002327778  -0.0001412010  -0.0001566264   0.0001368482  -0.0000124847
       -0.0000106855  -0.0000424276  -0.0000169758  -0.0000057898   0.0000202714
       -0.0000039760  -0.0000061524  -0.0000225876   0.0000008963  -0.0000004508
        0.0000315972   0.0000011830   0.0000017578  -0.0000131713   0.0000014584
        0.0000008143   0.0000052477  -0.0000032132  -0.0000054568   0.0000044337
       -0.0000037228  -0.0000027416  -0.0000023313   0.0000004001   0.0000000911
        0.0000027688   0.0000038236   0.0000015053  -0.0000043649   0.0000040962
       -0.0000020052   0.0000195785   0.0000006101  -0.0000003257  -0.0000226193
        0.0000010022  -0.0000002953   0.0000057780  -0.0000079022   0.0000026408
       -0.0000014261   0.0000024410  -0.0000027899   0.0000011323  -0.0000014784
        0.0000011865  -0.0000008082  -0.0000015201   0.0000010261   0.0000001396
       -0.0000013376   0.0000005197  -0.0000007208  -0.0000001794  -0.0000000845
       -0.0000006132   0.0000002737  -0.0000002460  -0.0000004645   0.0000001760
       -0.0000006739  -0.0000008187   0.0000023667  -0.0000019551  -0.0000024812
       -0.0000023921   0.0000021003  -0.0000019845   0.0000022500  -0.0000020323
       -0.0000009738  -0.0000027665   0.0000021618  -0.0000011341   0.0000013241
       -0.0000008963   0.0000011500   0.0000009017   0.0000000254  -0.0000004409
        0.0000000586   0.0000007605  -0.0000000528   0.0000001971  -0.0000003522
       -0.0000006100   0.0000000610   0.0000008131   0.0000008844   0.0000009546
       -0.0000009598  -0.0000008703  -0.0000026475   0.0000027966   0.0000049060
        0.0000069834  -0.0000028079  -0.0000045380  -0.0000050788   0.0000019275
        0.0000018831  -0.0000061270  -0.0000027254  -0.0000041957   0.0000000188
        0.0000012932  -0.0000148589   0.0000042109   0.0000030946   0.0000018521
       -0.0000082935  -0.0000043785   0.0000038503   0.0000099534   0.0000035549
       -0.0000031903  -0.0000063183  -0.0000023039   0.0000200448  -0.0000035367
        0.0000086214  -0.0000374959   0.0000171171  -0.0000066858  -0.0130884692
        0.0656412960  -0.0645072165  -0.0710475519  -0.0682998728  -0.0967271427
        0.0321148288   0.0211389978  -0.2765175176  -0.0008402453   0.0005205732
        0.0005259266  -0.0006488065   0.0015849196   0.0000640742   0.0001145785
       -0.0002173374   0.0001204503   0.0013988134   0.0000995055   0.0006184215
        0.0022339216   0.0001395514  -0.0065642062   0.0006120183  -0.0007180568
        0.0006808343  -0.0000132345   0.0000907299  -0.0000324697  -0.0001855846
       -0.0000561588  -0.0001102159  -0.0014441982  -0.0009140289  -0.0001229452
        0.0000137027  -0.0000176949   0.0000299824   0.0000048708  -0.0000093382
       -0.0000047383  -0.0000064033  -0.0000007318  -0.0000031326   0.0000023876
        0.0000074099  -0.0000017635   0.0000033318  -0.0000002641  -0.0000055314
       -0.0000074308  -0.0000026863  -0.0000101552   0.0000102695  -0.0000014556
        0.0000177903   0.0000037820  -0.0000098379  -0.0000005669   0.0000044096
        0.0000100664  -0.0000078128  -0.0000038029   0.0000005896   0.0000140310
       -0.0000060985  -0.0000045285  -0.0000031040  -0.0000051164  -0.0000036690
        0.0000006797   0.0000022968   0.0000025102   0.0000000958  -0.0000025744
       -0.0000029123   0.0000031992   0.0000020219  -0.0000008724  -0.0000018477
       -0.0000023442   0.0000012558   0.0000013407   0.0000002913   0.0000006565
       -0.0000005002  -0.0000012855  -0.0000007014  -0.0000003211  -0.0000006358
       -0.0000008794   0.0000001712  -0.0000000714  -0.0000000932  -0.0000005937
       -0.0000005472  -0.0000007044  -0.0000005700  -0.0000008790   0.0000000797
       -0.0000005904  -0.0000002747  -0.0000004734  -0.0000002153  -0.0000002416
       -0.0000003686   0.0000002299  -0.0000002568  -0.0000004002   0.0000000340
       -0.0000011020  -0.0000000559  -0.0000005277  -0.0000003463  -0.0000004551
       -0.0000004038  -0.0000009415   0.0000002373  -0.0000003009  -0.0000000761
       -0.0000001904  -0.0000002210  -0.0000008004  -0.0000002698   0.0000002164
       -0.0000007303   0.0000003533  -0.0000001489  -0.0000005656  -0.0000002257
        0.0000006408  -0.0000001446   0.0000001310   0.0000004202  -0.0000005687
        0.0000004625   0.0000000690  -0.0000004812   0.0000003730  -0.0000000883
       -0.0000007908  -0.0000001321   0.0000010051  -0.0000002452   0.0000003526
        0.0000000545  -0.0000006748   0.0000000059   0.0000006076  -0.0000001806
        0.0000001661   0.0000000933  -0.0000002008   0.0000000938   0.0000000416
       -0.0000002860   0.0000000586   0.0000002180  -0.0000008692   0.0000006509
       -0.0000006715  -0.0000017155   0.0000008203   0.0000002449   0.0000002601
       -0.0000000626  -0.0000003886  -0.0000039682   0.0000038939  -0.0000028136
        0.0000068528  -0.0000038375   0.0000085607
       -0.1698893633   0.0286029332   0.0272664441   0.4960216823  -0.0001060040
       -0.0010196539  -0.0650207208   0.0191685291  -0.0047458554  -0.0637103003
       -0.0005489250   0.0144256433  -0.1199816873  -0.0473467279  -0.0365925934
       -0.0273993772  -0.0147455011  -0.0114259829  -0.0038849178   0.0015480795
        0.0017228365  -0.0009132938  -0.0003314012  -0.0002047018   0.0005429467
        0.0016704680   0.0015954832   0.0052805793  -0.0018476972  -0.0014824062
        0.0002071816   0.0001196887   0.0001244285   0.0002135805  -0.0000055258
        0.0000013335   0.0000697111   0.0000242868   0.0000245849   0.0000308959
       -0.0000001802  -0.0000006254  -0.0000326925   0.0000113106   0.0000081172
       -0.0000151236   0.0000381330   0.0000311098  -0.0000154738   0.0000385694
        0.0000302416  -0.0000519794   0.0000389280   0.0000380536  -0.0000235154
       -0.0000971930  -0.0000814782   0.0001679816   0.0001676166   0.0000350375
        0.0004822574   0.0005154061   0.0003763982  -0.0004435952   0.0000150294
        0.0000021332   0.0001101866   0.0000326669   0.0000293887  -0.0000740638
        0.0000340269   0.0000216003   0.0000953114   0.0000057545   0.0000110507
       -0.0000786565   0.0000023371  -0.0000028625   0.0000246490  -0.0000122166
       -0.0000083383  -0.0000140335   0.0000010845   0.0000117453  -0.0000244560
        0.0000159613   0.0000116366   0.0000208614  -0.0000009062  -0.0000002674
       -0.0000029666  -0.0000061614  -0.0000046483   0.0000170953  -0.0000195766
        0.0000061686  -0.0000648185  -0.0000004328   0.0000016071   0.0000804048
       -0.0000002475  -0.0000011808  -0.0000208474   0.0000322390  -0.0000143479
        0.0000037148  -0.0000058258   0.0000070917  -0.0000055345   0.0000027604
       -0.0000022315   0.0000010780   0.0000053017  -0.0000039388   0.0000003517
        0.0000020791  -0.0000009208   0.0000021866  -0.0000000579   0.0000012674
        0.0000027828  -0.0000008012   0.0000010830   0.0000022016  -0.0000010630
        0.0000012624  -0.0000000262  -0.0000040449   0.0000028007   0.0000088471
        0.0000098300  -0.0000086760   0.0000090425  -0.0000094869   0.0000083886
        0.0000003788   0.0000030782  -0.0000019194   0.0000036919  -0.0000059504
        0.0000045374  -0.0000010605  -0.0000003794  -0.0000011755   0.0000025686
       -0.0000000243  -0.0000016683   0.0000019650  -0.0000001696  -0.0000009401
        0.0000026296  -0.0000003795  -0.0000013443  -0.0000070577  -0.0000021455
        0.0000029738   0.0000037901   0.0000054085  -0.0000055271  -0.0000222116
       -0.0000301516   0.0000155252   0.0000185836   0.0000223971  -0.0000057276
       -0.0000053043   0.0000106091   0.0000085627   0.0000020484  -0.0000141275
       -0.0000141008   0.0000729600  -0.0000057200  -0.0000068689  -0.0000615809
        0.0000186708   0.0000117324   0.0000328031  -0.0000175244  -0.0000068250
       -0.0000004743   0.0000369876   0.0000232465  -0.0000768994  -0.0000386818
       -0.0000229936   0.0001051160  -0.0000049565  -0.0000455687  -0.0079499085
        0.0054810915   0.0008843415  -0.0252513444   0.0021072013   0.0026840893
       -0.0063841584   0.0013870797   0.0050313733   0.0002180773  -0.0019532131
        0.0007239231  -0.0070000864   0.0262780906  -0.0065018505   0.0009838279
       -0.0199909476   0.0046320991  -0.0000048066   0.0003961955  -0.0209462410
       -0.0055924385  -0.0012215906   0.0271327729   0.0001723044   0.0006912060
       -0.0035271107   0.0005783871  -0.0004902864  -0.0005044644  -0.0009924552
       -0.0005918513  -0.0004674110  -0.0005928873   0.0008813946   0.0006451127
       -0.0000768480  -0.0000036741  -0.0000032552  -0.0000168284   0.0000237826
        0.0000175500   0.0000112381  -0.0000017020  -0.0000073413   0.0000106686
       -0.0000082311  -0.0000002014  -0.0000269750   0.0000148390   0.0000235567
        0.0000135066   0.0000009308  -0.0000017743   0.0000078253  -0.0000139474
       -0.0000100298  -0.0000268956   0.0000264062   0.0000082354   0.0000129127
       -0.0000030982   0.0000013584   0.0000084659  -0.0000131044  -0.0000113603
       -0.0000003258   0.0000082360   0.0000169445   0.0000241402   0.0000192050
        0.0000176657  -0.0000029469   0.0000121717   0.0000056848   0.0000100222
        0.0000077894  -0.0000110736   0.0000021000   0.0000053121   0.0000034870
        0.0000043956  -0.0000002189  -0.0000016094  -0.0000013686  -0.0000019307
        0.0000020741   0.0000034239   0.0000036549   0.0000020684   0.0000022464
        0.0000021800  -0.0000000568   0.0000006267  -0.0000001465   0.0000018950
        0.0000007901   0.0000017312   0.0000006589   0.0000036299  -0.0000010137
        0.0000018189   0.0000011685   0.0000011585  -0.0000003788   0.0000006906
        0.0000001864  -0.0000004741   0.0000015150   0.0000005521  -0.0000008150
        0.0000042773  -0.0000003155   0.0000016715   0.0000003872   0.0000008171
        0.0000007167   0.0000037506  -0.0000019185   0.0000007996   0.0000001903
        0.0000003987   0.0000002518   0.0000046336   0.0000002669  -0.0000007921
        0.0000037624  -0.0000007335   0.0000002893   0.0000034361   0.0000017150
       -0.0000022615   0.0000012620  -0.0000008832  -0.0000010435   0.0000021458
       -0.0000017109  -0.0000001742   0.0000015081  -0.0000013498   0.0000007264
        0.0000030135   0.0000004585  -0.0000032053   0.0000004480  -0.0000010711
        0.0000001593   0.0000033268   0.0000005030  -0.0000023249   0.0000009029
       -0.0000010463  -0.0000010426   0.0000005724  -0.0000008809  -0.0000001543
        0.0000015283   0.0000011799  -0.0000016477   0.0000021109  -0.0000009130
        0.0000010486   0.0000040811  -0.0000025912  -0.0000009066  -0.0000007653
        0.0000029906   0.0000013304   0.0000222760  -0.0000075554   0.0000110729
       -0.0000145702  -0.0000327842   0.0000060787
        0.0303094003  -0.0719042507  -0.0083802678  -0.0001060040   0.4635738554
        0.0041460443   0.0137419077  -0.1673306788   0.0292589064  -0.0003370311
       -0.0607759030   0.0126592814  -0.0438702450  -0.0983569386  -0.0337627697
       -0.0044451198   0.0021272126   0.0029464764   0.0020715783   0.0028584477
       -0.0019116235  -0.0000014323  -0.0005576007  -0.0007411794   0.0015829096
        0.0005356807  -0.0054462471  -0.0129237024  -0.0155604092  -0.0130907312
       -0.0006727783   0.0000198730  -0.0003932598   0.0000237797  -0.0001075261
       -0.0000446382   0.0000883657   0.0000348014   0.0000622068  -0.0000164852
        0.0000214672  -0.0000116241  -0.0000048144   0.0000118989   0.0000078609
       -0.0000087973   0.0000001051   0.0000061338  -0.0000076223   0.0000036580
       -0.0000009729  -0.0000662333   0.0000652045   0.0000284082  -0.0000487342
       -0.0001235888  -0.0000557859  -0.0000467189  -0.0002610731   0.0001078741
        0.0003784692  -0.0002756602   0.0004882463  -0.0002506902  -0.0000089734
        0.0000733060   0.0000414884   0.0000116855   0.0000142557  -0.0000663195
        0.0000269032   0.0000008794   0.0000362492  -0.0000283980   0.0000085191
       -0.0000270642  -0.0000013434   0.0000029755   0.0000120483  -0.0000030476
       -0.0000005551  -0.0000020909   0.0000026275   0.0000087540  -0.0000112498
        0.0000067915   0.0000052322   0.0000118946  -0.0000006763   0.0000005016
        0.0000011647  -0.0000010363  -0.0000014740   0.0000082668  -0.0000084509
        0.0000027426  -0.0000247608   0.0000007488   0.0000011628   0.0000311434
       -0.0000030183   0.0000020734  -0.0000092301   0.0000135442  -0.0000053130
        0.0000036484  -0.0000024813   0.0000035690   0.0000005301   0.0000022039
       -0.0000011700   0.0000016537   0.0000022271  -0.0000007398   0.0000010377
        0.0000030167  -0.0000003751   0.0000026046   0.0000008310   0.0000009548
        0.0000021433  -0.0000000971   0.0000003312   0.0000019184   0.0000001329
        0.0000015647   0.0000012494  -0.0000023100   0.0000022116   0.0000059621
        0.0000038959  -0.0000029328   0.0000033970  -0.0000029085   0.0000028559
        0.0000019155   0.0000028095  -0.0000024362   0.0000031353  -0.0000022783
        0.0000013675   0.0000000085  -0.0000005625  -0.0000005265   0.0000018030
       -0.0000004976  -0.0000014069   0.0000012759  -0.0000005247  -0.0000003298
        0.0000020551  -0.0000003125  -0.0000011244  -0.0000009927  -0.0000011114
        0.0000008484   0.0000021773   0.0000029184  -0.0000031432  -0.0000048885
       -0.0000094897   0.0000043005   0.0000090486   0.0000109103  -0.0000015541
       -0.0000000058   0.0000067413   0.0000052248  -0.0000003990  -0.0000045183
       -0.0000094988   0.0000332686  -0.0000012376   0.0000010051  -0.0000341550
        0.0000079330   0.0000002240   0.0000271557  -0.0000049604   0.0000052668
        0.0000030819   0.0000182493   0.0000108798  -0.0000123335  -0.0000013905
       -0.0000268069   0.0000174565   0.0000255715  -0.0000204408   0.0273855339
       -0.0107636629  -0.0055419729  -0.0171389002   0.0032482425   0.0033727952
       -0.0014155835   0.0002276306  -0.0000079420   0.0002331127  -0.0055782680
        0.0047622528   0.0052030382  -0.0119403027   0.0020202733  -0.0006117339
       -0.0233834864   0.0033921218   0.0000123217   0.0004561911  -0.0166838807
        0.0015180027   0.0001134048  -0.0086832946  -0.0017881830  -0.0052820705
        0.0287408107   0.0008599744  -0.0010813571   0.0008808716   0.0005091395
        0.0002653352   0.0000105814  -0.0003181214  -0.0003157537   0.0017489821
       -0.0000205734  -0.0000069954  -0.0000185675   0.0000018237   0.0000084789
        0.0000050386   0.0000111771   0.0000012422   0.0000094668   0.0000064445
        0.0000020034  -0.0000008447  -0.0000038314   0.0000054666   0.0000055625
        0.0000109140  -0.0000040163   0.0000172197  -0.0000015049  -0.0000025957
       -0.0000056363  -0.0000053869   0.0000085333   0.0000057364   0.0000057934
        0.0000008457  -0.0000035163   0.0000074661   0.0000009152  -0.0000027117
       -0.0000036539   0.0000029888   0.0000072448   0.0000072746  -0.0000297107
        0.0000118592   0.0000050294   0.0000058100  -0.0000012762   0.0000018651
        0.0000007273  -0.0000047726  -0.0000004863   0.0000057239   0.0000001411
        0.0000037203   0.0000007256  -0.0000004934   0.0000007639  -0.0000015235
        0.0000007052   0.0000017998   0.0000013048   0.0000007137   0.0000011328
        0.0000018815   0.0000007237   0.0000011594   0.0000003199   0.0000021372
        0.0000015314   0.0000011606   0.0000011670   0.0000027498   0.0000003781
        0.0000016058   0.0000017438   0.0000015472   0.0000009256   0.0000014767
        0.0000006231  -0.0000001107   0.0000017574   0.0000013074   0.0000001658
        0.0000033285   0.0000005030   0.0000011241   0.0000013150   0.0000006487
        0.0000007273   0.0000028780  -0.0000002714   0.0000008624   0.0000010357
        0.0000002758   0.0000007723   0.0000025912   0.0000005989  -0.0000001106
        0.0000026431  -0.0000002984   0.0000000996   0.0000020794   0.0000001229
       -0.0000016037   0.0000016897  -0.0000002051  -0.0000010924   0.0000021061
       -0.0000007285  -0.0000007667   0.0000016721  -0.0000008948  -0.0000002545
        0.0000018571  -0.0000004249  -0.0000016866   0.0000011896  -0.0000014306
       -0.0000005081   0.0000021084  -0.0000002432  -0.0000014505   0.0000016143
       -0.0000003185  -0.0000007048   0.0000014716  -0.0000010258  -0.0000005620
        0.0000016726  -0.0000001438  -0.0000004861   0.0000019168  -0.0000004050
        0.0000006621   0.0000035692  -0.0000013240   0.0000001268  -0.0000003444
        0.0000007847   0.0000011300   0.0000213396  -0.0000067848   0.0000036421
       -0.0000118151  -0.0000201710   0.0000024791
        0.0286508190  -0.0082893381  -0.0707811921  -0.0010196539   0.0041460443
        0.4628057625  -0.0036102570   0.0341890011  -0.0693674496   0.0089825022
        0.0075969744  -0.1774020732  -0.0334444272  -0.0333988252  -0.0814039547
       -0.0029774703   0.0031530180   0.0015206484   0.0019843828  -0.0019735614
        0.0035538392  -0.0000453724  -0.0007583506  -0.0003398498   0.0013109354
       -0.0055425654   0.0029297441  -0.0105627596  -0.0134078836  -0.0097951993