118
 energy: -187.453706470904 gnorm: 0.000065465702 xtb: 6.7.1 (edcfbbe)
C            5.88469379918780        5.50642945112979       -0.86877089520350
C            5.30284331503347        4.58338193932646       -0.01624394469560
C            5.88756952103151        3.34602430840798        0.17955135738788
C            7.06405727724055        3.01367559071260       -0.48998647036775
C            7.72146597581706        1.72455803469955       -0.33587203812268
N            9.02201084936529        1.57404891590344       -0.31457815901716
C            9.24482522118771        0.24465583808814       -0.14736608780758
C           10.49658829054419       -0.42521349732025       -0.03005630926322
C           11.71574507169023        0.24140112503906       -0.06593419759192
C           12.89889443432897       -0.46392035519992        0.07310269633244
C           12.87786046648337       -1.83364864605514        0.24500211148479
C           11.67011215481131       -2.53656600797072        0.27940450002079
C           11.63561833827420       -3.95165214666574        0.44345435085685
C           10.46323880152178       -4.62420421220823        0.44857876560840
C            9.21844875136387       -3.94554258901552        0.29678502524983
C            8.01161458768789       -4.64975241260848        0.27382513352624
C            6.81554961476070       -3.98701361656766        0.09903095552970
C            6.78654418832124       -2.60855717116322       -0.02675652478290
C            7.96244990408228       -1.86236751657584        0.02292755604453
C            9.21150061219677       -2.53552705986983        0.15839642620800
C           10.44898456921397       -1.83122123350690        0.14169753907175
C            8.03222777040301       -0.44319096270818       -0.08000826504905
N            7.06052213333960        0.52359746097667       -0.19375586328419
C            5.66090491257043        0.38028436555478       -0.18010717056064
C            4.92302860027723        0.75337994206818       -1.29737585121865
C            3.54364672229614        0.69908482079156       -1.25765905471669
C            2.88453830151942        0.26731603032167       -0.11068759706341
C            1.40833260233084        0.25698647070202       -0.05459528093883
C            0.71558748401392       -0.96065215704135       -0.02953629393246
C            1.39126233156020       -2.20775943980062       -0.09367850736986
C            0.70700114398744       -3.38301440517013       -0.05312645463052
C           -0.69791140364432       -3.38471056101560        0.05881753069730
C           -1.38470349665648       -2.21107873962095        0.10359967279105
C           -0.71179667468476       -0.96229306714533        0.04306203050370
C           -1.40727726230858        0.25376488845293        0.07041809845915
C           -2.88358865201045        0.26077713872836        0.12364231189589
C           -3.62848402166040       -0.13796269284757       -0.98317133252401
C           -5.00773918238284       -0.07947728480917       -0.95976461086999
C           -5.66036458606358        0.37023354595623        0.18436899573603
N           -7.06004703934189        0.51357051881268        0.19287228252144
C           -7.72085744016395        1.71519524888551        0.32981174086115
C           -7.06385849042526        3.00464200521204        0.48296653310818
C           -7.66215827418775        3.95250656696984        1.31307150869358
C           -7.07575670399033        5.18889594366643        1.49900523522849
C           -5.88788263537651        5.49972132060467        0.85668758754461
C           -5.30287281347300        4.57442984648955        0.00877110389351
C           -5.88582488703694        3.33580956200128       -0.18439962122766
N           -9.02138604962590        1.56540162891239        0.30376740775724
C           -9.24431345667999        0.23581462552778        0.13851932383237
C          -10.49609215781848       -0.43352517649006        0.01871851417171
C          -11.71488352337275        0.23402547753005        0.04901099910796
C          -12.89811113545848       -0.47099730293420       -0.09079940185502
C          -12.87746279509660       -1.84128641731479       -0.25828491569190
C          -11.67004770235546       -2.54500770162518       -0.28781895584959
C          -11.63592894621117       -3.96052524671916       -0.44815267325942
C          -10.46387786156240       -4.63367238991005       -0.44907450290953
C           -9.21908119727616       -3.95533271053549       -0.29581728650412
C           -8.01267825884953       -4.66011984003128       -0.26834405101424
C           -6.81669215495191       -3.99765007114483       -0.09193502972747
C           -6.78725620853718       -2.61896047692686        0.03120108983831
C           -7.96264969372075       -1.87227652486606       -0.02290280410884
C           -9.21170706887468       -2.54502766237664       -0.16047901787400
C          -10.44884991567592       -1.84001603465491       -0.14893648109188
C           -8.03187543080918       -0.45288266125359        0.07716790703298
C           -4.92641865982666        0.74432214783099        1.30388730030719
C           -3.54681045931129        0.69163945800805        1.26857902599261
C           -0.71497892424388        1.47282678278794        0.03669002804886
C           -1.39360366332023        2.72043704432907        0.03798841910698
C           -0.70784469757165        3.89545998416665        0.01894047676065
C            0.70114263592254        3.89699568444625       -0.00030131434463
C            1.38938204249604        2.72343463963977       -0.01939988890343
C            0.71335786748165        1.47441692426655       -0.01879483232424
C            3.63327081816738       -0.12974033846548        0.99409411037383
C            5.01239431051692       -0.06934162529914        0.96638891042831
C            7.65951431293432        3.95956744093956       -1.32437249218233
C            7.07145312934683        5.19480455758301       -1.51276377129822
H            5.42085678051315        6.46968215243478       -1.02168958891967
H            4.39017533920518        4.82984627372020        0.50712553095870
H            5.43815911399552        2.65105894574580        0.87297997309982
H           11.71223327571738        1.31192760463634       -0.19891737352696
H           13.84323277207972        0.06038016972202        0.04733066235703
H           13.80326601901642       -2.38185479938412        0.35232704057069
H           12.57476369300112       -4.47475210082534        0.55681720605237
H           10.44184440161586       -5.69879081270465        0.56433597914378
H            8.02855783458233       -5.72470711004791        0.38226533521730
H            5.88977260321202       -4.54288723659978        0.05989221326796
H            5.83986865476897       -2.11385280610545       -0.17650699943105
H            5.43569792771223        1.09722644898108       -2.18328463435088
H            2.96658209522201        0.99567441625664       -2.12092853256565
H            2.46773882606963       -2.20726671085933       -0.17959456362407
H            1.23436953925786       -4.32411714105609       -0.10341513496453
H           -1.22326404913759       -4.32711078309603        0.10580342397685
H           -2.46114506817183       -2.21325624761227        0.18990101167329
H           -3.11754935441882       -0.47496926745171       -1.87316097474298
H           -5.58720131766533       -0.36982155081351       -1.82412238965164
H           -8.58794790200173        3.69626114038297        1.80412158280545
H           -7.54417633759264        5.91366826531632        2.14845739640439
H           -5.42557731142098        6.46406488621402        1.00736849180434
H           -4.38924304720127        4.82017329246139       -0.51326667919148
H           -5.43393582539502        2.63898907686739       -0.87435115336152
H          -11.71097681512074        1.30497963426228        0.17849958488227
H          -13.84218236132064        0.05396559737589       -0.06905696177645
H          -13.80294304335006       -2.38928620024548       -0.36599952521466
H          -12.57508711403870       -4.48341417703001       -0.56241394344092
H          -10.44278448997375       -5.70852434564998       -0.56241932121218
H           -8.02993015162144       -5.73528590280781       -0.37464048536810
H           -5.89133201883662       -4.55396723488662       -0.04939045336767
H           -5.84071361412718       -2.12437516153725        0.18230307869078
H           -5.44226219384976        1.08789465916674        2.18806739226698
H           -2.97291215953466        0.98909810904811        2.13366725694191
H           -2.47340800337496        2.72277311596406        0.05512396468446
H           -1.23757904027715        4.83668631375784        0.02221472536628
H            1.22883282521809        4.83936814498876       -0.00354837807516
H            2.46918617510549        2.72793548238920       -0.03644262216989
H            3.12558147540503       -0.46730378448930        1.88572683913576
H            5.59494314339567       -0.35862016444737        1.82902799658071
H            8.58433585479998        3.70264305372244       -1.81688410004939
H            7.53764252975593        5.91803643404144       -2.16552348386954
