$hessian                                                                        
        0.6643495305  -0.0195175727  -0.0278504370  -0.3410905911  -0.0451692227
        0.0144707191  -0.0416001813   0.0808427461   0.0024600998  -0.0481244343
       -0.0275530943   0.0021999879   0.0622592617  -0.0209445419  -0.0033281224
       -0.1435701666  -0.0580942458   0.0049472305  -0.0074305238   0.0009083035
        0.0006383108   0.0010231681  -0.0014273776   0.0000565563  -0.0001128445
        0.0035112199   0.0000002724   0.0029816353  -0.0019760065  -0.0001667515
       -0.0031205068  -0.0020060487   0.0001658273   0.0001615986   0.0036518111
       -0.0000189159  -0.0010702834  -0.0038259421   0.0000680972   0.0053874522
        0.0004894361  -0.0004099217  -0.0005323322  -0.0002376809   0.0000754671
        0.0003181548   0.0000098952   0.0000776852   0.0000390883   0.0000237113
        0.0000617633   0.0000572285  -0.0000119122  -0.0000026185  -0.0000261535
       -0.0000123934   0.0000162532  -0.0000354680   0.0000160193   0.0000101419
        0.0000357793  -0.0000069498  -0.0000147943  -0.0000109655  -0.0000029580
       -0.0000015534   0.0000047052   0.0000012717  -0.0000107645  -0.0000018414
       -0.0000029674   0.0000207077  -0.0000094533   0.0000041941   0.0000128163
        0.0000238261  -0.0000041518   0.0000307828  -0.0000134877   0.0000022908
       -0.0000124476   0.0000260026   0.0000285577  -0.0000539977   0.0002987268
        0.0000192135  -0.0001049030  -0.1168559891   0.1167579332   0.0046062483
       -0.0165971565  -0.0027614148   0.0008727866  -0.0005602286   0.0029053980
        0.0003874967  -0.0161973991  -0.0254852413   0.0007786647  -0.0000148950
        0.0000001221   0.0000024148  -0.0000003250  -0.0000519829  -0.0000057988
        0.0000186821  -0.0000635192  -0.0000022267   0.0000666359  -0.0000443608
       -0.0000039312  -0.0000590905   0.0000011639   0.0000588873   0.0000204559
        0.0000127938   0.0000145328  -0.0000048827  -0.0000014527   0.0000052257
       -0.0000049075   0.0000002332   0.0000078252  -0.0000025919   0.0000009540
        0.0000071994  -0.0000005338  -0.0000003718   0.0000040115   0.0000356335
        0.0000113296  -0.0000143763  -0.0000603323   0.0000028112  -0.0000564513
       -0.0195175727   0.6600835529   0.0024307935   0.0326734343  -0.0922231459
       -0.0018224927   0.0232729829   0.0250228530  -0.0011417991  -0.0333457549
       -0.0066232693   0.0017481984   0.0340138921  -0.0659578908  -0.0018721936
       -0.1345878175  -0.2709142545   0.0063253683  -0.0004537124   0.0000149620
       -0.0000092611   0.0011987773  -0.0057729126  -0.0000430735   0.0002985251
        0.0026895130  -0.0000126891   0.0019763255  -0.0018401438  -0.0000922640
       -0.0022473783  -0.0010961699   0.0001149039   0.0001282630   0.0020828126
       -0.0000106632  -0.0002379123  -0.0006271346   0.0000397180   0.0055457850
       -0.0059001970  -0.0004939517  -0.0007806937  -0.0000662061   0.0000893839
        0.0003036096   0.0000305675  -0.0000551174  -0.0000100446   0.0000082973
        0.0000544799   0.0000375720  -0.0000023075  -0.0000061389  -0.0001075522
       -0.0000182834   0.0000539105  -0.0000183830   0.0000191506  -0.0000067087
        0.0000512887  -0.0000101362  -0.0000178463  -0.0000093472  -0.0000038092
       -0.0000197183   0.0000198063  -0.0000000047  -0.0000219044   0.0000127787
       -0.0000048575   0.0000215383  -0.0000063735   0.0000051799   0.0000085145
        0.0000480378  -0.0000058577   0.0000254802  -0.0000154685   0.0000016523
       -0.0000263008  -0.0000314715   0.0000130315  -0.0000428411   0.0002943161
        0.0000311589   0.0000264796   0.1169393020  -0.2305864190  -0.0065197861
       -0.0267834312  -0.0027227800   0.0013885319   0.0034761642  -0.0039178649
       -0.0002171456  -0.0022483523  -0.0013997248   0.0001086945   0.0000142506
       -0.0000600003  -0.0000005610   0.0000034466  -0.0000810218  -0.0000048841
        0.0000246472  -0.0000655295   0.0000004724  -0.0000139655  -0.0000082173
        0.0000031639  -0.0000222924  -0.0000424833  -0.0000383171   0.0000542869
       -0.0000020241   0.0000276214   0.0000011957  -0.0000049856   0.0000051473
        0.0000050735  -0.0000031278   0.0000020582   0.0000053988  -0.0000015076
        0.0000019943  -0.0000005049  -0.0000021720   0.0000024164   0.0000606184
        0.0000002400  -0.0000451690  -0.0000217494  -0.0000385327   0.0000419573
       -0.0278504370   0.0024307935   0.1122995391   0.0146906263   0.0021864893
       -0.0471602941   0.0023128464  -0.0041080604   0.0018367721   0.0021717334
        0.0014158816  -0.0042637363  -0.0032206442   0.0008816732  -0.0018950645
        0.0047564454   0.0024334724  -0.0427171814   0.0007029371  -0.0000367729
        0.0058913758   0.0000106089   0.0000260827   0.0014773334   0.0000126918
       -0.0001695787  -0.0000000208  -0.0001665155   0.0000920251  -0.0002430551
        0.0001674267   0.0001079865   0.0000070001  -0.0000161242  -0.0001895821
       -0.0001006337   0.0000614373   0.0002143868  -0.0000840005  -0.0002679370
       -0.0000513622  -0.0000832572   0.0000281019   0.0000148174   0.0000477375
        0.0000270007  -0.0000474202  -0.0000221788  -0.0000162157  -0.0000193328
        0.0000168455  -0.0000001044  -0.0000044753  -0.0000014461   0.0000052678
       -0.0000079445  -0.0000071241   0.0000075954   0.0000045103   0.0000185840
       -0.0000014755   0.0000132989   0.0000080961   0.0000000558  -0.0000172890
        0.0000070293   0.0000007155  -0.0000030318   0.0000107706   0.0000011736
       -0.0000125006   0.0000085952   0.0000033622   0.0000169033   0.0000084424
       -0.0000030749   0.0000029600   0.0000048528  -0.0000015207   0.0000071099
        0.0000074712   0.0000094184   0.0000280381   0.0000172997  -0.0000641199
        0.0000443540   0.0000001302   0.0046109823  -0.0065260921  -0.0323667443
        0.0007965657   0.0001312202   0.0001163526   0.0003919219  -0.0001781041
        0.0070137956   0.0008463117   0.0013166647   0.0000586747   0.0000022188
       -0.0000019586   0.0000227518   0.0000015517   0.0000015579  -0.0000144395
        0.0000013333   0.0000028656   0.0000309961  -0.0000033300   0.0000009197
       -0.0000080825   0.0000125054  -0.0000115472   0.0000005829   0.0000006912
        0.0000021876   0.0000015867  -0.0000088415  -0.0000033158   0.0000072260
       -0.0000046183  -0.0000015033   0.0000137720  -0.0000001962   0.0000020547
        0.0000126058   0.0000045144   0.0000049160   0.0000117166  -0.0000020987
       -0.0000052927   0.0000021053  -0.0000107873   0.0000119947   0.0000072178
       -0.3410905911   0.0326734343   0.0146906263   0.6653077726   0.0160667349
       -0.0275864926  -0.1553904164   0.0662455650   0.0056865783   0.0606663938
        0.0290050113  -0.0031589677  -0.0527499414   0.0232735317   0.0025203364
       -0.0343479159  -0.0841112321   0.0016669257   0.0064736789   0.0025143717
       -0.0002674297  -0.0007783959   0.0032083517   0.0000072177  -0.0001343854
       -0.0038230179   0.0000114206  -0.0031207878   0.0022472300   0.0001678185
        0.0030660611   0.0018479084  -0.0001673856  -0.0004351744  -0.0035081679
        0.0000306755   0.0015053264   0.0024170060  -0.0000146395  -0.0068680775
       -0.0038936272   0.0006883325   0.0000026906   0.0004259814  -0.0000164323
       -0.0002221781   0.0000788125   0.0000638672   0.0000634572   0.0000207546
       -0.0000520154   0.0000207395   0.0000284435   0.0000093900   0.0000692155
        0.0000038845  -0.0000326460  -0.0000315408   0.0000047698   0.0000012133
       -0.0000037110   0.0000043694  -0.0000127008   0.0000173556  -0.0000060302
        0.0000091537  -0.0000021928  -0.0000009042   0.0000068467  -0.0000024190
       -0.0000063346  -0.0000156440   0.0000148903  -0.0000031724  -0.0000153545
       -0.0000108201  -0.0000084826  -0.0000048642  -0.0000122763   0.0000022715
        0.0000201535   0.0000746793   0.0000206796   0.0000399473  -0.0002357053
        0.0000728881  -0.0000456942  -0.0180264588   0.0019310783   0.0009444179
       -0.1043533304  -0.1093921747   0.0033880338  -0.0190668051   0.0251295910
        0.0010471891  -0.0002851283  -0.0027341233   0.0003688493   0.0000482113
        0.0000239414   0.0000006040   0.0000165117   0.0000580156   0.0000147236
        0.0000036078   0.0000427765   0.0000115986  -0.0000275625   0.0000333165
        0.0000070987  -0.0000282349   0.0000461531  -0.0000354882  -0.0000350892
        0.0000084592   0.0000059898   0.0000010194   0.0000056196  -0.0000034570
       -0.0000046114   0.0000027037  -0.0000077605  -0.0000056083  -0.0000002535
       -0.0000058661  -0.0000039331  -0.0000026792  -0.0000010505  -0.0000463927
        0.0000060410  -0.0000050718  -0.0000319269   0.0000405036   0.0000399525
       -0.0451692227  -0.0922231459   0.0021864893   0.0160667349   0.6606812734
        0.0002418259   0.1420622335  -0.2614532208  -0.0075377778  -0.0246093195
       -0.0660261957   0.0010981990   0.0300721493  -0.0046657164  -0.0014838309
       -0.0269763389   0.0195288684   0.0014579918  -0.0053023843  -0.0053105663
        0.0002203884   0.0006857382  -0.0006492318  -0.0000002121   0.0000507375
        0.0019383751   0.0000009377   0.0020058903  -0.0010958696  -0.0001084263
       -0.0018475946  -0.0014462208   0.0000966211  -0.0000741629   0.0023509490
       -0.0000113707  -0.0014517019  -0.0056249514   0.0000650010  -0.0004566791
        0.0016867624  -0.0000470797   0.0001348313  -0.0000855727   0.0000079900
       -0.0000361794   0.0000912787   0.0001364443   0.0000520081   0.0000030355
        0.0000318630  -0.0000511612  -0.0000293807   0.0000214483   0.0001268171
       -0.0000175385  -0.0000739874   0.0000386847   0.0000057603   0.0000191737
       -0.0000775615  -0.0000032915   0.0000208800   0.0000271250  -0.0000010854
        0.0000193491  -0.0000265482   0.0000033834   0.0000347397  -0.0000152130
        0.0000025600  -0.0000348248   0.0000097877   0.0000110411  -0.0000137627
       -0.0000620106   0.0000076233  -0.0000399730   0.0000456253  -0.0000011103
        0.0000292543   0.0000539796   0.0000108631  -0.0000543928  -0.0000530745
        0.0000968235  -0.0001241963   0.0259150604  -0.0012008130  -0.0013362296
       -0.1095842530  -0.2416513842   0.0051066313   0.0016334773  -0.0002701519
       -0.0000516143  -0.0031805995  -0.0044168171   0.0001446031   0.0000447828
        0.0000271429  -0.0000051542  -0.0000025396  -0.0000342249  -0.0000129568
       -0.0000041099  -0.0000397186  -0.0000066977  -0.0000263748  -0.0000395646
       -0.0000021683   0.0000099864  -0.0000753976   0.0000026073  -0.0000175424
       -0.0000145239  -0.0000208287   0.0000069456  -0.0000042195  -0.0000036856
       -0.0000013098  -0.0000006112  -0.0000046205  -0.0000029180   0.0000052622
       -0.0000011468   0.0000041789   0.0000066103   0.0000027022  -0.0000286519
       -0.0000124808   0.0000335421   0.0000106774  -0.0000646076  -0.0000037454
        0.0144707191  -0.0018224927  -0.0471602941  -0.0275864926   0.0002418259
        0.1148971308   0.0058922584  -0.0036753111  -0.0431952813  -0.0032842079
       -0.0016373899  -0.0015552101   0.0025807040  -0.0011852894  -0.0046418400
        0.0018181926   0.0043995756   0.0016037452  -0.0003362941  -0.0001463482
        0.0000257510   0.0000265778  -0.0001661210  -0.0000945212   0.0000077589
        0.0002037257  -0.0000597893   0.0001661391  -0.0001150937   0.0000071940
       -0.0001677979  -0.0000971413  -0.0002059598   0.0000104795   0.0001849604
       -0.0000407510  -0.0000153755  -0.0001753497   0.0014185829   0.0006138426
        0.0002027918   0.0048366692   0.0000360760  -0.0000370393   0.0005188934
        0.0001764779   0.0000412727  -0.0000651068   0.0000479316   0.0000043945
        0.0000260521  -0.0000043805  -0.0000074568   0.0000277980  -0.0000012577
       -0.0000096083  -0.0000194434   0.0000125936   0.0000102827   0.0000153776
        0.0000046170   0.0000141754  -0.0000059877   0.0000013534  -0.0000114515
       -0.0000116442   0.0000027820   0.0000009826  -0.0000095909  -0.0000006415
       -0.0000139140  -0.0000122246   0.0000008073   0.0000128011  -0.0000077435
       -0.0000090597   0.0000003790  -0.0000089333  -0.0000085347  -0.0000013568
       -0.0000020079  -0.0000491143   0.0000065486   0.0000324138  -0.0001495282
       -0.0000447490  -0.0000604956   0.0010128229  -0.0000958310  -0.0002075925
        0.0033963077   0.0050760715  -0.0331559773   0.0009642408  -0.0012524777
       -0.0000725826   0.0003710870   0.0001094768   0.0070134291  -0.0000027425
       -0.0000017951   0.0000053833   0.0000028063  -0.0000037001   0.0000588409
        0.0000004261  -0.0000027544   0.0000152429   0.0000027211  -0.0000031995
        0.0000372363   0.0000150281  -0.0000017679   0.0000358082   0.0000203907
       -0.0000014273   0.0000061942   0.0000005184   0.0000055010  -0.0000067775
        0.0000011853   0.0000047529  -0.0000085462  -0.0000012933  -0.0000006473
       -0.0000105714  -0.0000025007  -0.0000037255  -0.0000071431  -0.0000208334
       -0.0000029140   0.0000063385  -0.0000167906  -0.0000031655   0.0000379339
       -0.0416001813   0.0232729829   0.0023128464  -0.1553904164   0.1420622335
        0.0058922584   0.6646082100  -0.0073684225  -0.0282882719  -0.1513573414
       -0.1346310668   0.0051326137  -0.0246264522  -0.0271439517   0.0011135925
        0.0026754812   0.0057009446  -0.0002830987  -0.0076640864   0.0013268481
        0.0007214033   0.0011902934  -0.0013360112  -0.0000560600   0.0000301218
        0.0001726296  -0.0000171781   0.0001618355  -0.0001283741  -0.0000164427
       -0.0004354025   0.0000739903   0.0000102295   0.0004355992   0.0014417938
       -0.0000445259  -0.0028427985   0.0016479161   0.0002375821   0.0128861860
        0.0138460004  -0.0005633545   0.0006121879   0.0022692858  -0.0000387497
        0.0004488302  -0.0000247314  -0.0000523211  -0.0000969481  -0.0001443485
        0.0000626776  -0.0001116192  -0.0000725193  -0.0000089717  -0.0000521682
        0.0000457930   0.0000159603   0.0000127499  -0.0000284821  -0.0000248752
        0.0000365403   0.0000134683  -0.0000103263   0.0000062380  -0.0000069475
        0.0000085426   0.0000095958  -0.0000016429  -0.0000064353   0.0000032263
       -0.0000009136   0.0000021209   0.0000322180   0.0000024330   0.0000031003
        0.0000340302   0.0000027282   0.0000033543  -0.0000927144   0.0000036161
        0.0000321040  -0.0001317752  -0.0001556879  -0.0000473724   0.0004486880
       -0.0000340912   0.0000240774  -0.0057701824   0.0000613346   0.0006874657
        0.0063314275  -0.0114545520  -0.0003574545  -0.3011292444  -0.0099069152
        0.0136120664   0.0009152747   0.0000677969  -0.0000529966   0.0000699018
        0.0000486350  -0.0000105953   0.0000203249   0.0000248045  -0.0000059104
        0.0000413532   0.0001036399  -0.0000025859   0.0000241955   0.0000233239
       -0.0000035690   0.0000942019   0.0000310349   0.0000568983   0.0000640712
        0.0000596214   0.0000067067  -0.0000067150  -0.0000039473  -0.0000048149
       -0.0000010087  -0.0000040458   0.0000011307   0.0000012724   0.0000010507
        0.0000002100  -0.0000116589   0.0000026056   0.0000078174   0.0000539098
        0.0000639736  -0.0000176629   0.0000727485   0.0000761664  -0.0000311858
        0.0808427461   0.0250228530  -0.0041080604   0.0662455650  -0.2614532208
       -0.0036753111  -0.0073684225   0.6556038134   0.0014637729  -0.0615167330
       -0.2584485712   0.0026838066  -0.0817738662   0.0076557532   0.0041924066
       -0.0012754815  -0.0555170504  -0.0000720915   0.0099527710   0.0117394724
       -0.0004591561   0.0008137477  -0.0005293818  -0.0000860236   0.0000121966
       -0.0035630844  -0.0000094896  -0.0036519218   0.0020825520   0.0001902136
        0.0035079783   0.0023512056  -0.0001842299  -0.0014413606  -0.0061395774
        0.0001012457   0.0068485242   0.0044918570  -0.0003646451  -0.0109719181
       -0.0523642292   0.0004127828  -0.0008100478  -0.0012055036   0.0000587969
       -0.0003701224  -0.0001296290  -0.0006697562  -0.0001901638  -0.0001678019
        0.0000059819   0.0000467716   0.0000193031  -0.0000358868  -0.0002569629
        0.0000448828   0.0001196953  -0.0000116051   0.0000072557  -0.0000243179
        0.0001070784  -0.0000038362  -0.0000188187  -0.0000516617  -0.0000027563
       -0.0000449702   0.0000328490   0.0000016262  -0.0000594869   0.0000157921
       -0.0000028472   0.0000523473  -0.0000308080   0.0000020936   0.0000292383
        0.0000876304  -0.0000028095   0.0000459755  -0.0000354635   0.0000001369
       -0.0000540600  -0.0002085557  -0.0001837091   0.0000475674  -0.0003465274
       -0.0001125896   0.0006589211  -0.0003230255   0.0011463848   0.0000039246
        0.0122648892  -0.0262377692  -0.0007243986  -0.0102340461  -0.0433356576
        0.0005079323   0.0001569927  -0.0005653163  -0.0000121951  -0.0000644152
       -0.0000569929   0.0000013390  -0.0000277258   0.0000417417   0.0000116228
       -0.0000665062  -0.0001390790   0.0000057757  -0.0002153612   0.0002065094
        0.0000113667   0.0000697444  -0.0000830354  -0.0000205001   0.0000584845
       -0.0000184776   0.0000103962  -0.0000061780   0.0000021353   0.0000032538
        0.0000072795   0.0000026423   0.0000066549   0.0000074749   0.0000010668
        0.0000020143  -0.0000072890  -0.0000001681  -0.0000005501   0.0000739661
       -0.0000144505  -0.0000305352   0.0001036875  -0.0001457407   0.0000274512
        0.0024600998  -0.0011417991   0.0018367721   0.0056865783  -0.0075377778
       -0.0431952813  -0.0282882719   0.0014637729   0.1071861513   0.0053355410
        0.0063424710  -0.0448779318   0.0009428357   0.0014401578  -0.0024199789
       -0.0002974663  -0.0004340799  -0.0034700378   0.0007269541  -0.0000421475
        0.0065031974  -0.0000731878   0.0000295421  -0.0000930256  -0.0000038553
       -0.0000098992  -0.0001647189  -0.0000194727   0.0000111012  -0.0001003893
        0.0000310225   0.0000116062  -0.0000407733  -0.0000444476  -0.0001017309
       -0.0002441901   0.0002382034  -0.0000294272   0.0008397768  -0.0005688905
       -0.0009096720   0.0032116579  -0.0000557473  -0.0000970511  -0.0005093225
       -0.0002354201   0.0001575600  -0.0001048507   0.0002386226   0.0000820414
       -0.0000731798   0.0000116353  -0.0000001913   0.0000610571   0.0000175161
       -0.0000100076  -0.0000572382   0.0000254138   0.0000151163   0.0000836382
        0.0000239580   0.0000051766  -0.0000021784  -0.0000002041  -0.0000113672
       -0.0000062811   0.0000004189  -0.0000029403   0.0000021766  -0.0000024093
       -0.0000106022  -0.0000093629   0.0000118233   0.0000098019   0.0000045989
       -0.0000359171   0.0000007996  -0.0000072253  -0.0000353393  -0.0000034598
        0.0000341501  -0.0002364375  -0.0000570056  -0.0000513656   0.0002050888
       -0.0001676453  -0.0001544974   0.0006754241  -0.0000178619   0.0073340759
       -0.0002999754   0.0005313140   0.0000992399   0.0136385200   0.0004973873
       -0.0320167347  -0.0000561237  -0.0000049984  -0.0001795483  -0.0000071996
       -0.0000011492  -0.0000399555  -0.0000003411  -0.0000015020   0.0000328556
        0.0000038021  -0.0000067189   0.0001131594  -0.0000018135   0.0000000538
       -0.0000082129  -0.0000643827   0.0000345772   0.0001932275   0.0000029836
       -0.0000180849   0.0000412107   0.0000020754  -0.0000035129   0.0000065674
       -0.0000001987  -0.0000022130   0.0000028260  -0.0000001566  -0.0000011586
        0.0000021875  -0.0000017943   0.0000009239   0.0000040902  -0.0000054908
        0.0000121427   0.0000427810   0.0000560263  -0.0000215422   0.0001908826
       -0.0481244343  -0.0333457549   0.0021717334   0.0606663938  -0.0246093195
       -0.0032842079  -0.1513573414  -0.0615167330   0.0053355410   0.6398762814
        0.0271265592  -0.0260579627  -0.2792918695  -0.0476058227   0.0109444610
       -0.0324493867   0.0794154602   0.0017985959  -0.0313591305  -0.0073598541
        0.0017871697   0.0023469654  -0.0041435864  -0.0001156177   0.0012325002
        0.0010397636  -0.0000593897  -0.0010706503   0.0002379500   0.0000616427
        0.0015054845   0.0014522011  -0.0000153702  -0.0028422247  -0.0068491299
        0.0002377611   0.0146480901   0.0005428881  -0.0009070911  -0.1248959541
        0.0764070493   0.0049658362  -0.0264790359   0.0241834704   0.0013740167
       -0.0003068335   0.0002101960   0.0011515427  -0.0007019338  -0.0013164825
       -0.0001614976   0.0006924274   0.0000295973  -0.0000539991  -0.0005550557
        0.0002621971   0.0001730312   0.0000241121   0.0000246258   0.0000411705
        0.0001507506  -0.0000442117  -0.0000433861  -0.0000684779   0.0000009541
       -0.0000986837   0.0000624543   0.0000047071  -0.0001203765   0.0000335268
       -0.0000022048   0.0000877122  -0.0000745165   0.0000097700   0.0000444687
        0.0001552800   0.0000037964   0.0000722943   0.0000261707  -0.0000250820
       -0.0001786350  -0.0007615816  -0.0012927741   0.0002356436  -0.0003523990
        0.0004275791  -0.0011718405  -0.0001802621  -0.0007831701   0.0000375017
       -0.0009046286   0.0030428720   0.0004360590  -0.0191748850  -0.0272489235
        0.0009318170  -0.0002977093   0.0018887902   0.0004443082  -0.0001424015
       -0.0000969580   0.0000171379  -0.0001574352  -0.0002154259   0.0000028554
        0.0000068665  -0.0005763479   0.0000024213  -0.0001115444   0.0000408137
        0.0000005881  -0.0000549967   0.0003514376  -0.0002009753   0.0000948322
        0.0000124880   0.0001054908  -0.0000021226  -0.0000086949   0.0000083912
        0.0000198786  -0.0000050446   0.0000001812   0.0000179420  -0.0000067692
       -0.0000107522  -0.0000046123  -0.0000047565  -0.0000213296   0.0001304286
       -0.0000154139  -0.0001549849   0.0000310379   0.0003572940   0.0001867272
       -0.0275530943  -0.0066232693   0.0014158816   0.0290050113  -0.0660261957
       -0.0016373899  -0.1346310668  -0.2584485712   0.0063424710   0.0271265592
        0.6607711318   0.0000786508   0.0407528053  -0.0521628846  -0.0020613774
        0.0262080092   0.0136978382  -0.0013431515  -0.0503559769  -0.0424344021
        0.0023539622  -0.0023566461   0.0138699886   0.0002066121  -0.0008502698
       -0.0000509739   0.0000717511   0.0038259358  -0.0006268327  -0.0002144526
       -0.0024165654  -0.0056250183   0.0001742858  -0.0016484317   0.0044912333
        0.0000302752  -0.0005381733  -0.0546005017  -0.0002337524   0.0837696099
       -0.1992628715  -0.0044549066   0.0149857210   0.0020471683  -0.0007675939
       -0.0036732654  -0.0010642806  -0.0003589185   0.0002909654  -0.0002239028
       -0.0004187358  -0.0008421588   0.0000464626   0.0001402029   0.0011109672
        0.0001172180  -0.0004960905   0.0001386078  -0.0000789477   0.0000123727
       -0.0004663280   0.0000532937   0.0001375430   0.0001963031  -0.0000248912
        0.0002163976  -0.0001520171  -0.0000088520   0.0002713379  -0.0000782250
       -0.0000073920  -0.0002390433   0.0001613493  -0.0000180065  -0.0001180930
       -0.0003970605  -0.0000058802  -0.0002405225   0.0001002898   0.0000127893
        0.0003229912   0.0004215370  -0.0002387310   0.0002789684  -0.0035690188
       -0.0011639810   0.0007167076  -0.0009205689   0.0005685707   0.0000540313
        0.0028239087  -0.0030155651  -0.0001737113  -0.0034448678  -0.0018003594
        0.0001844051   0.0027873933  -0.0039806801  -0.0001862867   0.0006885366
        0.0005724056  -0.0000303803   0.0002018706   0.0002648788  -0.0000133853
       -0.0002983231   0.0001196836   0.0000061611  -0.0001039298   0.0000657532
        0.0000012904   0.0003195149   0.0002932690   0.0002841079  -0.0003903975
        0.0000899219  -0.0001709519   0.0000174867   0.0000160688  -0.0000344453
       -0.0000358424   0.0000064226  -0.0000242049  -0.0000360302   0.0000077053
       -0.0000006235   0.0000157367   0.0000077606   0.0000250544  -0.0004870049
        0.0001008782   0.0002826240   0.0002971441   0.0002725489  -0.0003900684
        0.0021999879   0.0017481984  -0.0042637363  -0.0031589677   0.0010981990
       -0.0015552101   0.0051326137   0.0026838066  -0.0448779318  -0.0260579627
        0.0000786508   0.1145558914   0.0110749772   0.0024285258  -0.0514476957
        0.0016628636  -0.0040956503  -0.0019180253   0.0015772299   0.0002979277
        0.0030616967  -0.0001391712   0.0001951080  -0.0002606737  -0.0000704070
       -0.0000129707  -0.0001338696   0.0000663849  -0.0000380548  -0.0000845938
       -0.0000126066  -0.0000650723   0.0014178107   0.0002368739   0.0003630791
        0.0008392242  -0.0009122490   0.0002277407  -0.0028734179   0.0055334788
       -0.0051238500  -0.0223726647   0.0009390792  -0.0008496738  -0.0043716737
       -0.0023557333  -0.0016067325   0.0002782191  -0.0002402208  -0.0006069667
       -0.0004077307  -0.0000436909  -0.0000041481  -0.0001009233   0.0000313696
       -0.0000273426  -0.0000048068  -0.0000161275  -0.0000048130  -0.0000755832
       -0.0000389644   0.0000205110  -0.0000020513   0.0000089969  -0.0000015037
        0.0000019876  -0.0000021854  -0.0000023668  -0.0000063414   0.0000001731
       -0.0000020440  -0.0000118802  -0.0000111696  -0.0000116883  -0.0000196023
        0.0000198597  -0.0000140951  -0.0000062636   0.0000214471   0.0000415367
       -0.0000423334   0.0002734102   0.0006895310  -0.0004377178   0.0023417609
        0.0015615453   0.0002076184   0.0000291178   0.0000407116   0.0004179814
        0.0004323286  -0.0001847317   0.0073121954   0.0009960173   0.0013896261
        0.0004149660   0.0004384059  -0.0001342603   0.0079725704   0.0000132419
        0.0000051067   0.0001349702   0.0000001909   0.0000105574  -0.0001543714
       -0.0000034103   0.0000312656  -0.0000605624   0.0000007389  -0.0000071097
       -0.0000404170  -0.0001354446  -0.0002218620  -0.0003522717  -0.0001177175
        0.0002816375  -0.0000724328  -0.0000046872   0.0000000740  -0.0000199651
       -0.0000018218   0.0000013508  -0.0000152542  -0.0000032909   0.0000050654
       -0.0000171240   0.0000009699  -0.0000014955  -0.0000146163   0.0001151452
       -0.0002752858  -0.0000734104   0.0001791654   0.0000919626  -0.0005199796
        0.0622592617   0.0340138921  -0.0032206442  -0.0527499414   0.0300721493
        0.0025807040  -0.0246264522  -0.0817738662   0.0009428357  -0.2792918695
        0.0407528053   0.0110749772   0.6390590142  -0.0529075714  -0.0259921483
       -0.1677953793   0.0715599647   0.0063158527  -0.1373518358  -0.0865272003
        0.0051073267   0.0175080302   0.0017157098  -0.0010532094  -0.0028308147
        0.0050852254   0.0001192153   0.0010231525  -0.0011983296   0.0000105216
       -0.0007781504  -0.0006857492   0.0000264654   0.0011902508  -0.0008135985
       -0.0000731802   0.0023465261   0.0023558664  -0.0001387862  -0.0346594175
        0.0127051683   0.0020772268   0.0003485888   0.0023642274   0.0000664371
       -0.0006717567  -0.0002794024   0.0000087879  -0.0000856916  -0.0001931081
       -0.0001841259   0.0000499628   0.0000304530   0.0000037594   0.0000171938
        0.0000731721  -0.0000083076  -0.0000081090  -0.0000357780   0.0000026037
       -0.0000026450   0.0000260857   0.0000014702   0.0000084697  -0.0000143097
        0.0000107246  -0.0000002221  -0.0000035980   0.0000077487  -0.0000011898
        0.0000004433   0.0000037577   0.0000147791  -0.0000055711   0.0000061266
       -0.0000009303  -0.0000029952   0.0000001199  -0.0000083969   0.0000138422
        0.0000203656  -0.0000674566  -0.0001926787   0.0001848497  -0.0007125506
       -0.0002722992   0.0000566734  -0.0005965067  -0.0028345095   0.0003896073
       -0.0002984992   0.0008546993   0.0000482267   0.0002870049  -0.0011975312
        0.0003836602  -0.0213809191   0.0263690209   0.0012347879   0.0000651059
       -0.0002266914  -0.0000083338   0.0000692992   0.0004259222  -0.0000123232
       -0.0001087526   0.0001778843  -0.0000162937  -0.0001081936   0.0001361171
        0.0000105851   0.0000060785   0.0001776953  -0.0000549067  -0.0000574649
        0.0000152668   0.0000060381  -0.0000057000   0.0000054954   0.0000051324
       -0.0000038175   0.0000045017   0.0000071069  -0.0000005440   0.0000104440
        0.0000069401  -0.0000008841   0.0000115193   0.0000059149  -0.0000616481
        0.0000247946  -0.0000012742   0.0000130210   0.0001824216   0.0000369838
       -0.0209445419  -0.0659578908   0.0008816732   0.0232735317  -0.0046657164
       -0.0011852894  -0.0271439517   0.0076557532   0.0014401578  -0.0476058227
       -0.0521628846   0.0024285258  -0.0529075714   0.6261199676   0.0037989918
        0.1497011646  -0.2561284170  -0.0079558932  -0.0715008172  -0.1622756082
        0.0031682241  -0.0017106186  -0.0573721383   0.0000309448   0.0014235848
        0.0025864650  -0.0000910355   0.0014278159  -0.0057728928  -0.0000269175
       -0.0032083560  -0.0006494917   0.0001659747   0.0013361295  -0.0005293707
       -0.0000293572   0.0041429643   0.0138704411  -0.0001909585   0.0450973055
       -0.0351310969  -0.0025103138  -0.0006137005  -0.0052897855   0.0000081461
        0.0011353837   0.0000756076  -0.0001712273  -0.0001147894   0.0004395980
        0.0002095778   0.0002162959  -0.0000079430  -0.0000533306  -0.0004227160
       -0.0000888047   0.0001812792  -0.0000741831  -0.0000109454   0.0000014505
        0.0001803556   0.0000258932  -0.0000584778  -0.0000866755  -0.0000027143
       -0.0000854313   0.0000493246   0.0000045131  -0.0001108044   0.0000178190
       -0.0000004874   0.0000980318  -0.0000708223  -0.0000031791   0.0000527262
        0.0001447412  -0.0000054444   0.0000969162  -0.0000528869   0.0000087917
       -0.0001108114  -0.0001603114   0.0004468291  -0.0001540953   0.0011799928
        0.0000782433   0.0000631187  -0.0025982251  -0.0031661754   0.0000983143