45
 energy: -74.919334645187 gnorm: 0.000107981427 xtb: 6.7.1 (edcfbbe)
C           -4.77340667853051        3.51455985609105       -0.47209495300137
C           -3.39430466105169        3.55700569637131       -0.51536947996980
C           -2.65156598323281        2.39473168369256       -0.37214092821678
C           -3.27578952323565        1.16932417693093       -0.17095497636725
C           -4.67668145813301        1.13304768968304       -0.16710399378188
C           -5.41350207693823        2.29483217921960       -0.30717776811707
O           -5.38481428277292       -0.03963186504862       -0.04470893064695
C           -4.66306558175782       -1.20318158011369        0.08627426261513
C           -5.38673276947109       -2.37440200575734        0.21601703975739
C           -4.73327301029274       -3.58590881549171        0.38880408810450
C           -3.35440925842707       -3.61067140969124        0.44979878593225
C           -2.62473113561718       -2.43890085956969        0.31707443765390
C           -3.26200479063439       -1.22140727631484        0.10896857106219
N           -2.55710455320152       -0.02124212877760       -0.02577686830501
C           -1.14773483791785       -0.01089621942623       -0.00927737598864
C           -0.46299893751822        0.67592565837173        0.99209335400546
C            0.91546934657880        0.68811513485343        1.00735882140355
C            1.64127669137750        0.01289796887857        0.02434036130157
C            3.08429736053301        0.01022614532340        0.01735120626748
N            3.80661180560606       -0.63250903041790       -0.82754654322186
C            5.13983045853724       -0.46741783414237       -0.61820365547113
C            6.16369692942456       -1.03959265034920       -1.37117884243865
C            7.47119908941934       -0.77010364991346       -1.02883600230475
C            7.77810551511720        0.05859951498149        0.04987457601567
C            6.78107673440760        0.63663409764742        0.81180130951649
C            5.46520128882318        0.37057546655414        0.47383535474363
S            4.00704714456739        0.94036871039377        1.22553660097210
C            0.94969349312204       -0.67656127258635       -0.97752153278605
C           -0.42764535399429       -0.68702910400103       -0.99426513586874
H           -5.35665523105260        4.41577236733606       -0.57735841173077
H           -2.88119702759561        4.49465649966079       -0.66481884502454
H           -1.57538770263471        2.44092393587134       -0.42473819340575
H           -6.48966176226120        2.22167737980930       -0.29041097052957
H           -6.46343367497343       -2.31490797712393        0.18534231996978
H           -5.30623895739541       -4.49458976218913        0.48595417844781
H           -2.83122019243337       -4.54179123243933        0.60487105642714
H           -1.54880925610967       -2.47175409135082        0.38304925042504
H           -1.02060179238224        1.19212142966712        1.75933506385228
H            1.44015306369774        1.21581238334654        1.79055906914025
H            5.91294013853722       -1.67905923182690       -2.20267908722820
H            8.27350095733441       -1.20719893800004       -1.60410100574031
H            8.81138370456460        0.25212328327371        0.29537204057706
H            7.01500361679075        1.27854378578484        1.64704245751381
H            1.51660903120957       -1.18938443527356       -1.73817862378011
H           -0.95908119548864       -1.21138043162617       -1.77448508181429
