45
 energy: -74.843646359930 gnorm: 0.000060350255 xtb: 6.7.1 (edcfbbe)
C           -4.72923976604076        3.57846943981743        0.38735618808696
C           -3.34454094485030        3.59669451445551        0.48633247007703
C           -2.61538708519443        2.43057219458462        0.36567519276115
C           -3.25635731263751        1.21182505442085        0.12441474449188
C           -4.66423767707563        1.19917513346779        0.08086436399513
C           -5.38808775814265        2.37691050146642        0.19977018845563
O           -5.37303842248731        0.04394375737075       -0.05019517086088
C           -4.68020238207269       -1.12237553768787       -0.16714553543574
C           -5.42003631520775       -2.28804679315880       -0.30476305112241
C           -4.77661461512953       -3.49986927652213       -0.47950596706408
C           -3.39058341740804       -3.54029712471606       -0.54791869429859
C           -2.64568806982506       -2.38638996738928       -0.40770833466982
C           -3.27205249007060       -1.15778984966346       -0.17847087330784
N           -2.55710001494201        0.02115962039952       -0.01800696593814
C           -1.15422495931111        0.01047844462779       -0.00327667569817
C           -0.45457682513063       -0.77543933077604        0.93715733559959
C            0.90693133399797       -0.77720340587521        0.96381351501097
C            1.66560229860312       -0.01338099696817        0.02500733050255
C            3.05294361770879       -0.00789211706797        0.01487970227986
N            3.81941727322786        0.67598430890973       -0.82752181955576
C            5.11785493858049        0.49489921967146       -0.61159427333062
C            6.16665101713822        1.08497859424333       -1.34383796035347
C            7.46760293930962        0.80218110226714       -1.00547784792450
C            7.77678809102145       -0.05927374530518        0.05026211280915
C            6.76816290560125       -0.65951288158301        0.79290872652857
C            5.45899697141764       -0.38550630101171        0.46658133214269
S            4.01278970359948       -0.99065395606840        1.21260752921415
C            0.93748796196158        0.76580937540957       -0.93050434018662
C           -0.42274228836766        0.78605998452360       -0.93037256391004
H           -5.29472730512660        4.49218704507667        0.47567277174193
H           -2.82704136942814        4.52564163912105        0.66731759181099
H           -1.54272929528866        2.45168286578750        0.46753419940683
H           -6.46374755414888        2.32227276987272        0.15139689688872
H           -6.49550149002244       -2.21617843249768       -0.28063353427813
H           -5.35469747006247       -4.40410973190648       -0.58267885197547
H           -2.88422764889841       -4.47715029100403       -0.71952784572542
H           -1.57149937964617       -2.42443172681107       -0.48579455429630
H           -1.01467560052816       -1.34016984630914        1.66863889804812
H            1.43981972389198       -1.35158393048273        1.70711765429518
H            5.92127245102814        1.74902496217204       -2.15808622556403
H            8.27323963292788        1.25446386287999       -1.56643730565662
H            8.80888119507284       -0.26193707686937        0.29334808192640
H            7.00213600431916       -1.32690369365025        1.60934823915026
H            1.50793154380802        1.32454146115985       -1.65488669685004
H           -0.96028145702909        1.35961836878204       -1.67183173402105
