$hessian                                                                        
        0.6329721237  -0.0407289718  -0.1212746142  -0.2790863148  -0.1050937193
        0.0809994737  -0.0631032043   0.0468164665   0.0063569534  -0.0177323176
       -0.0318610759   0.0099985440  -0.0023717614   0.0018677100   0.0000065628
        0.0007228483   0.0000823380  -0.0004774308  -0.0000159610   0.0005164572
        0.0001712071   0.0000008568   0.0000000878   0.0000438547   0.0000079285
       -0.0000117150   0.0000071253  -0.0000257993   0.0000001389  -0.0000068590
       -0.0000032519   0.0000010544   0.0000007332  -0.0000082070  -0.0000008388
       -0.0000009040  -0.0000102207  -0.0000005908  -0.0000017315   0.0000011081
       -0.0000060005   0.0000040301  -0.0000132853   0.0000024938  -0.0000059468
        0.0000198468   0.0000129452  -0.0000097475  -0.0000188244  -0.0000033359
        0.0000050620  -0.0003904611  -0.0002325346  -0.0000812978   0.0001250180
        0.0001488053   0.0000107243  -0.0002226241  -0.0000641415   0.0000032049
        0.0001988855  -0.0002560872  -0.0000895351   0.0001400688   0.0006549862
        0.0001425196   0.0000887289  -0.0013914252   0.0000250703   0.0361541849
        0.0125360234  -0.0124213428  -0.0952615572   0.0136432741   0.0097573283
       -0.1970469972   0.1251364695   0.0129799309  -0.0046277119  -0.0033368833
        0.0021688049  -0.0024111551   0.0035940920   0.0021053253  -0.0000026417
       -0.0000052188   0.0000098441  -0.0000068525   0.0000010769   0.0000021335
       -0.0000018329  -0.0000015112   0.0000030971  -0.0000015453   0.0000005366
        0.0000010109  -0.0000037467   0.0000002496  -0.0000008537   0.0000041352
        0.0000063044  -0.0000021856   0.0000400959   0.0000262564  -0.0000135982
        0.0000020896  -0.0000016100  -0.0000100882   0.0000090374   0.0000046547
        0.0000103851   0.0000291307  -0.0000033710  -0.0000006029   0.0000304753
        0.0000554530  -0.0000218541  -0.0025739939   0.0043455471   0.0018451603
       -0.0056062950  -0.0264543902   0.0077605066
       -0.0407289718   0.6344184554  -0.1095707851  -0.0295091419  -0.1191203709
        0.0225816297  -0.0097132325   0.0519573261  -0.0088607667  -0.0319334177
       -0.0332810893   0.0144434439   0.0015459657  -0.0013505995  -0.0003894186
       -0.0007441161   0.0001514201   0.0000606432   0.0001077505  -0.0003769602
        0.0000077616  -0.0000414126   0.0000537478  -0.0000142325   0.0000059282
       -0.0000225995   0.0000081073  -0.0000002914   0.0000138310  -0.0000114076
        0.0000017178  -0.0000043283   0.0000029665  -0.0000038759   0.0000043289
       -0.0000027552   0.0000008364   0.0000008298   0.0000014809   0.0000101710
       -0.0000015842   0.0000023169   0.0000049786   0.0000012516  -0.0000007666
        0.0000137730   0.0000099472   0.0000015465   0.0000215179  -0.0000086295
        0.0000076971  -0.0001836883   0.0003055450   0.0000662743  -0.0000196759
       -0.0000365820  -0.0000071716   0.0000159006   0.0000107566   0.0000591623
        0.0000285798   0.0001590846  -0.0000151534  -0.0001207966  -0.0002298134
       -0.0000781850   0.0002120186   0.0004700001  -0.0001134859   0.0692760667
       -0.0519952143  -0.0051109124  -0.0614749695  -0.3094895391   0.0778570421
        0.1252227245  -0.1449022782  -0.0063988579  -0.0262653125  -0.0127635466
        0.0097428012   0.0040675613  -0.0012525606   0.0012223033  -0.0000107127
        0.0000137128  -0.0000113839  -0.0000026278   0.0000023141  -0.0000022805
       -0.0000024263   0.0000022562  -0.0000019408  -0.0000018077   0.0000021744
       -0.0000015573  -0.0000032886   0.0000013945  -0.0000008867   0.0000002932
        0.0000009613  -0.0000012223   0.0000078891   0.0000114727  -0.0000063060
        0.0000114196   0.0000037510  -0.0000046518   0.0000155517  -0.0000075651
        0.0000166094   0.0000044017  -0.0000066059  -0.0000180241   0.0001959778
        0.0001084265   0.0000493517   0.0036669943  -0.0011208278   0.0012278655
       -0.0036782521  -0.0117322935   0.0032631486
       -0.1212746142  -0.1095707851   0.1707021197   0.0640024786   0.0424768864
       -0.0728909849   0.0186575484  -0.0236851821   0.0017717715   0.0105670289
        0.0143451708  -0.0122781940   0.0001522705  -0.0000940423  -0.0001380365
        0.0000633720  -0.0000979171   0.0000998633  -0.0000540750  -0.0000296620
       -0.0000307687   0.0000143762  -0.0000104165  -0.0000038177  -0.0000038951
        0.0000092962  -0.0000035996   0.0000081639  -0.0000028894   0.0000052096
        0.0000002052  -0.0000004976  -0.0000004428   0.0000037131  -0.0000016263
        0.0000022078   0.0000024335   0.0000003149   0.0000003535  -0.0000025949
        0.0000026672  -0.0000012391   0.0000021407   0.0000008242   0.0000018164
       -0.0000070942  -0.0000063745   0.0000021801  -0.0000029948   0.0000033459
       -0.0000039741   0.0001368045  -0.0000330537   0.0000068508  -0.0000222013
       -0.0000418124  -0.0000018612   0.0000576870   0.0000207660  -0.0000104745
       -0.0000982602   0.0000298381   0.0000219106   0.0000201599  -0.0000441389
        0.0000232455  -0.0000824274   0.0002165854   0.0000378033  -0.0256524462
        0.0092744267   0.0056484544   0.0272307142   0.0573224422  -0.0683350719
        0.0129253491  -0.0063461925  -0.0354091426   0.0071601222   0.0038490621
       -0.0018967013   0.0016799410   0.0011400813   0.0074338463   0.0000030602
       -0.0000026047  -0.0000003407   0.0000024270  -0.0000006530  -0.0000006070
        0.0000007646   0.0000000596  -0.0000010299   0.0000007800  -0.0000008964
       -0.0000000975   0.0000017036  -0.0000006208   0.0000002715  -0.0000011156
       -0.0000022616   0.0000005432  -0.0000122194  -0.0000106455   0.0000071138
       -0.0000030504  -0.0000014039   0.0000038061  -0.0000092301   0.0000012547
       -0.0000057487  -0.0000085703   0.0000029638   0.0000026061  -0.0000700447
       -0.0000504557  -0.0000333066   0.0020671628   0.0013160702   0.0073548758
        0.0025444266   0.0100220761  -0.0020814098
       -0.2790863148  -0.0295091419   0.0640024786   0.6223318390  -0.0278977884
       -0.1211528038  -0.2394456916   0.0860645947   0.0288307163   0.0327504797
        0.0680168894  -0.0232746148   0.0051545231  -0.0045554471   0.0014942144
       -0.0014273634  -0.0002887057   0.0005606914   0.0003500946  -0.0009905134
       -0.0003084289  -0.0000175517   0.0000073728  -0.0000737747   0.0000062233
        0.0000285310  -0.0000031485  -0.0000008995   0.0000176666  -0.0000117289
       -0.0000087796  -0.0000008611  -0.0000004663  -0.0000087801   0.0000144557
       -0.0000128827  -0.0000126742   0.0000045230  -0.0000012288  -0.0000035005
       -0.0000083589   0.0000025486   0.0000158574  -0.0000207798   0.0000139843
       -0.0000051029   0.0000275510   0.0000061429   0.0000385511  -0.0000572900
        0.0000314800   0.0007784038   0.0004905863   0.0000737803  -0.0000817653
       -0.0002689033  -0.0000541183   0.0003516441   0.0001177347  -0.0000138746
       -0.0004230706   0.0005210395   0.0001766411  -0.0002540167  -0.0009789196
       -0.0001932814  -0.0000783809   0.0024764951   0.0000843544  -0.0588224926
        0.0129435499   0.0109952153   0.0125054731  -0.0864985325   0.0169189779
       -0.0243308817  -0.0056627656   0.0075904803  -0.0475296372  -0.0298806426
        0.0097346717  -0.0236990278   0.0159394962   0.0027119192  -0.0000083516
        0.0000107827  -0.0000133846   0.0000036333  -0.0000058217   0.0000020953
        0.0000006787  -0.0000038544   0.0000015146   0.0000075838   0.0000036083
       -0.0000005447   0.0000003884   0.0000111189  -0.0000051232   0.0000038809
        0.0000077824  -0.0000052018   0.0000381505  -0.0000199397  -0.0000061756
        0.0000045015   0.0000016115  -0.0000107095   0.0000047637  -0.0000038766
       -0.0000178794  -0.0000496873  -0.0000053639   0.0000218499  -0.0001715452
       -0.0001238541  -0.0000456854  -0.0005119135   0.0002161414   0.0000520440
        0.0016307591  -0.0001401707   0.0018992554
       -0.1050937193  -0.1191203709   0.0424768864  -0.0278977884   0.6498943934
       -0.1114295613   0.1594968726  -0.1914022194  -0.0077403934   0.0152449372
       -0.0490049429   0.0073696002  -0.0026180249  -0.0040179636   0.0026503817
        0.0004856030   0.0003274658  -0.0002943126  -0.0002689522   0.0005146066
        0.0000252795   0.0000854535   0.0000615658   0.0000247625  -0.0000615540
       -0.0000380589  -0.0000018169   0.0000182989  -0.0000080126   0.0000159421
       -0.0000313674   0.0000078004  -0.0000103552   0.0000340156  -0.0000246565
        0.0000219279   0.0000133087   0.0000005587  -0.0000001402   0.0000043976
        0.0000367306  -0.0000161794  -0.0000440274   0.0000069647  -0.0000119363
        0.0000304754   0.0000148437  -0.0000295259  -0.0000470233  -0.0000283496
        0.0000310635  -0.0003792499  -0.0004550331  -0.0003592050   0.0000846503
        0.0003158409   0.0000011421  -0.0001459543  -0.0000608933   0.0000151551
        0.0001934847  -0.0000879943  -0.0000436115  -0.0000831268   0.0001477905
       -0.0000801617   0.0011258591  -0.0012353190   0.0003283065   0.0097985699
        0.0007758546  -0.0040990935  -0.0308325658  -0.0136645727   0.0112238711
        0.0172066971   0.0052107894  -0.0053466632  -0.0297145294  -0.2792318130
        0.0615842506  -0.0061515219   0.0054207943   0.0007607050  -0.0000018251
        0.0000003276   0.0000049541  -0.0000155777   0.0000105217  -0.0000110785
       -0.0000119065   0.0000093358  -0.0000078581  -0.0000192567  -0.0000062469
       -0.0000006958  -0.0000135068  -0.0000199387   0.0000101272   0.0000178321
        0.0000014440   0.0000036121   0.0000523199   0.0000225088  -0.0000263679
        0.0000188536  -0.0000105451  -0.0000374916  -0.0000092091   0.0000172416
        0.0000152617   0.0000068089   0.0000163718   0.0000317642   0.0001212504
        0.0000543673   0.0000383001   0.0002209422   0.0007848141  -0.0003555484
       -0.0008199440  -0.0052360012   0.0032687028
        0.0809994737   0.0225816297  -0.0728909849  -0.1211528038  -0.1114295613
        0.1713675637   0.0134758805   0.0109216351  -0.0518700872  -0.0124798260
       -0.0066538820   0.0050220455   0.0016341244   0.0033078087   0.0059300130
        0.0006736575  -0.0005776698  -0.0000417193   0.0001868459  -0.0000231851
       -0.0002145355  -0.0000778676  -0.0000451527  -0.0000321844   0.0000210973
       -0.0000042130   0.0000107994  -0.0000089585  -0.0000049355   0.0000048442
        0.0000176625   0.0000016702   0.0000010976  -0.0000096704   0.0000001582
       -0.0000008696   0.0000024889   0.0000029695  -0.0000010721  -0.0000043675
       -0.0000063788   0.0000026325   0.0000133495   0.0000002914   0.0000054605
       -0.0000246451  -0.0000067678   0.0000043055   0.0000360741   0.0000353154
       -0.0000074790   0.0002427217   0.0003718104  -0.0001036049  -0.0000520471
       -0.0001294043  -0.0001647026   0.0001173453   0.0000140756   0.0000318424
       -0.0000796363  -0.0000282790  -0.0000412265   0.0000353733   0.0001446465
       -0.0000580169  -0.0009618546   0.0002460881   0.0005289091   0.0118563386
       -0.0047287212  -0.0073533878   0.0038180024   0.0260138162  -0.0057484986
        0.0024491601   0.0004116232  -0.0000032201   0.0098224563   0.0616552932
       -0.0507586337   0.0074979840  -0.0049754531  -0.0000709094   0.0000006436
        0.0000004706  -0.0000023531   0.0000040114  -0.0000020048   0.0000014228
        0.0000030454  -0.0000018362   0.0000014600   0.0000045668   0.0000004431
        0.0000003674   0.0000054669   0.0000030749  -0.0000024539  -0.0000056535
       -0.0000005889  -0.0000040752  -0.0000217594  -0.0000018211  -0.0000022668
       -0.0000111166   0.0000230402  -0.0000514592   0.0000007145  -0.0000056976
        0.0000158703   0.0000099659  -0.0000012375   0.0000180035   0.0000136748
        0.0000188594  -0.0000102214   0.0000424086  -0.0002732160  -0.0001530673
        0.0019056729   0.0031452860   0.0066403917
       -0.0631032043  -0.0097132325   0.0186575484  -0.2394456916   0.1594968726
        0.0134758805   0.6546435254  -0.0378651048  -0.1264651472  -0.0929496654
       -0.0584086181   0.0224865833   0.0005157237   0.0257316495  -0.0047003148
        0.0005742946   0.0011095589  -0.0005062582  -0.0003261540   0.0013355625
        0.0003935082   0.0004060562   0.0000955817   0.0001284529  -0.0001184120
       -0.0000207334  -0.0000175062   0.0000858961  -0.0000018880   0.0000174510
       -0.0000487244  -0.0000255650   0.0000121147   0.0000730017  -0.0000200906
        0.0000251766   0.0000007640  -0.0000322412   0.0000174354  -0.0000015175
        0.0000267095  -0.0000075425  -0.0000627365   0.0000675082  -0.0000618752
        0.0000648935  -0.0000720842   0.0000087645  -0.0002155082   0.0000720715
       -0.0001242727  -0.0015705890   0.0008553474   0.0002228437  -0.0001859703
        0.0002866567   0.0001168247  -0.0002905611  -0.0001605414  -0.0000217298
        0.0003835667  -0.0001915733  -0.0000470358  -0.0003252232   0.0002990087
        0.0000603206  -0.0024283102   0.0007210976  -0.0002215259   0.0127642729
       -0.0304909972   0.0041204220  -0.0070926958   0.0245136033  -0.0053531808
       -0.0044214799  -0.0015313869   0.0033882880   0.0019299260  -0.0000844567
       -0.0001233427  -0.2550361618  -0.0745476009   0.0709690474   0.0000271191
       -0.0000433287   0.0000479851  -0.0000099296  -0.0000001815  -0.0000026651
        0.0000020761   0.0000025872  -0.0000001551  -0.0000076654  -0.0000096458
        0.0000034574  -0.0000118851  -0.0000172016   0.0000098922  -0.0000115633
       -0.0000471869   0.0000340738  -0.0000886575  -0.0000215147   0.0000576574
       -0.0000652000   0.0001206836   0.0000670870  -0.0000138512   0.0000253834
        0.0000106822   0.0000150279   0.0000832133  -0.0000104397   0.0000150059
        0.0000738678   0.0000999206  -0.0043214778  -0.0020737703   0.0037008497
        0.0006516853   0.0004619804  -0.0004692757
        0.0468164665   0.0519573261  -0.0236851821   0.0860645947  -0.1914022194
        0.0109216351  -0.0378651048   0.6185960417  -0.1005936247  -0.0018879751
       -0.2848373092   0.0512921494   0.0188438994  -0.0383664112   0.0028157367
       -0.0052293438  -0.0012471726   0.0022242350   0.0002557430  -0.0017637419
       -0.0006580564   0.0000084157   0.0000841921  -0.0001198057  -0.0000247146
        0.0000586633   0.0000045027   0.0000306653   0.0000235018  -0.0000109018
        0.0000042567  -0.0000170365   0.0000086013   0.0000098286   0.0000294458
       -0.0000146044  -0.0000040342  -0.0000152911   0.0000083638  -0.0000009760
       -0.0000097745   0.0000007722   0.0000276232  -0.0000076706   0.0000160489
        0.0000053147  -0.0000122099   0.0000354290  -0.0000307670  -0.0000392798
       -0.0000155191   0.0017714236  -0.0001765733  -0.0002922613  -0.0000808378
       -0.0003866143  -0.0001508345   0.0006623315   0.0001982627   0.0000408657
       -0.0008388325   0.0012910663   0.0002783492  -0.0007806182  -0.0026415739
       -0.0004834594   0.0023912378   0.0054792921   0.0009887249  -0.0758928215
       -0.0120020480   0.0233367107   0.0220978544  -0.0533588383   0.0055387323
       -0.0020602409   0.0007197746   0.0020055010   0.0223273318  -0.0225083224
       -0.0006800575  -0.0753468010  -0.0695648115   0.0253057963  -0.0000058317
        0.0000166261  -0.0000313522   0.0000212467  -0.0000067733   0.0000056590
        0.0000131705  -0.0000059443   0.0000058411   0.0000161528   0.0000043114
        0.0000008325   0.0000168100   0.0000083222  -0.0000040347  -0.0000073429
       -0.0000126963   0.0000017992  -0.0000654049  -0.0000436984   0.0000295064
       -0.0000129159  -0.0000734415  -0.0000274757  -0.0000213883   0.0000061973
       -0.0000162243   0.0000025752   0.0000083751  -0.0000093120  -0.0002300409
       -0.0002358126  -0.0000364588  -0.0015004124   0.0006064508   0.0018837655
        0.0004994624  -0.0003525844   0.0000796069
        0.0063569534  -0.0088607667   0.0017717715   0.0288307163  -0.0077403934
       -0.0518700872  -0.1264651472  -0.1005936247   0.1687314300   0.0070110414
        0.0667304036  -0.0666752872  -0.0013283179   0.0000142017   0.0018510141
       -0.0003066563   0.0006898267  -0.0000538143   0.0004348665  -0.0005678792
       -0.0001307815  -0.0001075655  -0.0000314774  -0.0000106952   0.0000408372
       -0.0000159474   0.0000116486  -0.0000274099   0.0000005092  -0.0000038308
        0.0000093088   0.0000053041  -0.0000050288  -0.0000165697   0.0000001975
       -0.0000015265   0.0000010549   0.0000099593  -0.0000043068   0.0000062546
       -0.0000039155   0.0000034891   0.0000030998  -0.0000034478   0.0000135049
        0.0000039237   0.0000207925  -0.0000051074   0.0000543909  -0.0000018838
        0.0000573640   0.0000115663   0.0002284311  -0.0001197904   0.0000313700
        0.0000600166   0.0000069950  -0.0000317686   0.0000444767   0.0000238880
        0.0000102290   0.0000895487  -0.0000892755   0.0001297010   0.0000677286
        0.0000269962   0.0008109510  -0.0008365325   0.0014736055   0.0159060222
        0.0108367018  -0.0054340514  -0.0046374179   0.0048017476  -0.0055034902
        0.0034907898   0.0019693983   0.0064661570  -0.0052595728   0.0052351266
        0.0009390108   0.0718006298   0.0255103400  -0.0573429154  -0.0000069946
        0.0000075067  -0.0000074380  -0.0000036636   0.0000021059  -0.0000022366
       -0.0000053531   0.0000011345  -0.0000023993  -0.0000038777   0.0000010628
       -0.0000015930  -0.0000042360   0.0000004460  -0.0000025028   0.0000048759
        0.0000111621  -0.0000165242   0.0000332914   0.0000094244  -0.0000744024
        0.0000228683  -0.0000134045  -0.0000135113   0.0000033227  -0.0000044445
        0.0000081186  -0.0000093601  -0.0000133561   0.0000048491   0.0000206884
        0.0000485059  -0.0000004750   0.0035321318   0.0023754660   0.0060960731
       -0.0003469743  -0.0000844516  -0.0001148443
       -0.0177323176  -0.0319334177   0.0105670289   0.0327504797   0.0152449372
       -0.0124798260  -0.0929496654  -0.0018879751   0.0070110414   0.6222792517
       -0.0152157639  -0.1180406685  -0.1674092323   0.0792252591   0.0101114672
       -0.0436824417   0.0172423999   0.0043283630  -0.0045248942  -0.0067857425
       -0.0013854019  -0.0011706222   0.0012293207  -0.0002962002  -0.0001163250
        0.0000052313   0.0000508095  -0.0000923045   0.0000488223  -0.0001246562
        0.0000421678   0.0000369573  -0.0000213700  -0.0000627871   0.0000567763
       -0.0000413255  -0.0000080514   0.0000179033  -0.0000076138  -0.0000093042
       -0.0000399841   0.0000081996   0.0000757233  -0.0000908455   0.0000846570
       -0.0000332664   0.0000804890   0.0000164660   0.0002999574  -0.0000692392
        0.0000915713   0.0029519747  -0.0006579973   0.0004942349  -0.0003224351
       -0.0008310022  -0.0001314073   0.0011917130   0.0003884819   0.0000150038
       -0.0016604279   0.0025552896   0.0007149707  -0.0011227373  -0.0053194824
       -0.0006444639   0.0014373599   0.0176435755  -0.0003276820  -0.2547221700
       -0.0940567421   0.0815369113  -0.0609890841   0.0468098334   0.0054763048
        0.0003895359  -0.0007581639   0.0001563209  -0.0026179640   0.0042075088
        0.0022821088  -0.0055724179  -0.0259694941   0.0082260906  -0.0000458041
        0.0000342919  -0.0000542616   0.0000110971  -0.0000164332   0.0000068181
        0.0000141764  -0.0000159950   0.0000080550   0.0000258642   0.0000130870
       -0.0000014761   0.0000278890   0.0000301063  -0.0000167562  -0.0000052084
        0.0000391290  -0.0000339647   0.0000521371   0.0000710240  -0.0000497480
        0.0001014623  -0.0002237792  -0.0000363356  -0.0000074239  -0.0000463240
       -0.0000561684  -0.0000457534  -0.0001774239  -0.0000890484   0.0000176444
       -0.0005379596  -0.0002308625  -0.0042615940  -0.0039558307   0.0012544464
       -0.0025042017   0.0036091719   0.0016283675
       -0.0318610759  -0.0332810893   0.0143451708   0.0680168894  -0.0490049429
       -0.0066538820  -0.0584086181  -0.2848373092   0.0667304036  -0.0152157639
        0.6086661861  -0.0959412943   0.0828782703  -0.1289838619  -0.0061911012
        0.0053398567   0.0091790786   0.0000410484  -0.0042884196   0.0034376545
       -0.0004812564  -0.0002614191   0.0004564203   0.0001862240  -0.0002434675
       -0.0001837778   0.0000384671  -0.0000503209  -0.0000181243  -0.0000095935
        0.0000049041   0.0000139861  -0.0000004515   0.0000301140  -0.0000638439
        0.0000481039   0.0000079482   0.0000078521  -0.0000038571   0.0000218176
        0.0000321518  -0.0000014404  -0.0000884878   0.0000738066  -0.0000753346
        0.0000472248  -0.0000534650  -0.0000603924  -0.0001959009   0.0001860404
       -0.0001123359  -0.0006414542  -0.0069626112  -0.0025646757   0.0015282953
        0.0008285788   0.0000790725  -0.0012302596  -0.0002454737   0.0001189123
        0.0013251706  -0.0021631058  -0.0004940367   0.0017200576   0.0041975575
        0.0003918288   0.0187792573  -0.0285335797  -0.0008569961  -0.0377102068
       -0.1144623949   0.0243088053  -0.0069335172   0.0482729083  -0.0101774369
       -0.0007744487   0.0000135961   0.0002353972   0.0036923027  -0.0011632471
        0.0013085255  -0.0045884166  -0.0114579538   0.0041465216   0.0000120624
       -0.0000092593   0.0000288774  -0.0000601388   0.0000236460  -0.0000219883
       -0.0000164046   0.0000171431  -0.0000097672  -0.0000301200  -0.0000099955
       -0.0000019673  -0.0000320358  -0.0000269487   0.0000136086   0.0000177523
       -0.0000234521   0.0000236881   0.0000320556   0.0000350062   0.0000157930
        0.0001283349  -0.0002306438  -0.0002056242  -0.0000040206   0.0000435728
        0.0000402404   0.0000575649   0.0000702963   0.0000752859  -0.0001295162
        0.0001659185   0.0001340646  -0.0252038221  -0.0126863167   0.0103725554
        0.0043279564  -0.0013200034   0.0011808372
        0.0099985440   0.0144434439  -0.0122781940  -0.0232746148   0.0073696002
        0.0050220455   0.0224865833   0.0512921494  -0.0666752872  -0.1180406685
       -0.0959412943   0.1829095706   0.0109042654  -0.0084130210  -0.0487133988
       -0.0007960863   0.0030677922  -0.0043128185  -0.0013367278  -0.0011575947
        0.0055697730   0.0004180941   0.0000920989   0.0009773344   0.0000760803
        0.0000407543  -0.0000814375   0.0000651653  -0.0000820782  -0.0000223647
       -0.0000534396   0.0000018034  -0.0000094523   0.0000383374  -0.0000041329
        0.0000267141  -0.0000084636  -0.0000057666   0.0000010411   0.0000122509
        0.0000200576  -0.0000000971  -0.0000397230   0.0000038170  -0.0000073473
        0.0000995064  -0.0000511576  -0.0000458081  -0.0002566765  -0.0000907740
       -0.0000132914  -0.0005186716  -0.0011822331   0.0039791596   0.0000677414
       -0.0002597495   0.0007735417  -0.0000358040   0.0000914564  -0.0003138965
        0.0000516537  -0.0001110755   0.0000537993   0.0002030890   0.0001388076
        0.0005561200   0.0034834493  -0.0023639747  -0.0037695712   0.0644225402
        0.0400214801  -0.0765772258   0.0177442946  -0.0229844608   0.0012344444
        0.0000319399   0.0001629339  -0.0001858277   0.0018865736   0.0011001787
        0.0076281468   0.0026522717   0.0093276311  -0.0015937586   0.0000181592
       -0.0000095162   0.0000155195   0.0000104329   0.0000111489   0.0000144892
       -0.0000052294   0.0000054616  -0.0000043348  -0.0000074931  -0.0000053270
       -0.0000017657  -0.0000040426  -0.0000104600   0.0000049437   0.0000013072
       -0.0000095345   0.0000039263  -0.0000291535  -0.0000068747   0.0000401551
       -0.0000245410  -0.0001179345   0.0005108840   0.0000029107   0.0000168756
       -0.0000625781   0.0000095389   0.0000252260  -0.0001421507  -0.0000248777
        0.0000341539   0.0000723146   0.0078828756   0.0042891654  -0.0021215213
        0.0018886079   0.0012509238   0.0075382045
       -0.0023717614   0.0015459657   0.0001522705   0.0051545231  -0.0026180249
        0.0016341244   0.0005157237   0.0188438994  -0.0013283179  -0.1674092323
        0.0828782703   0.0109042654   0.6563957104  -0.0995298658  -0.0011238334
       -0.2596828011  -0.0926345851  -0.0241475180  -0.0941965052   0.0545091587
        0.0040615804   0.0034192158   0.0052773671   0.0003150616  -0.0034198472
        0.0006726437  -0.0002867725   0.0005842824   0.0004109561  -0.0000168516
       -0.0005524568  -0.0001527791   0.0000693754   0.0005405938   0.0000091137
        0.0000921942  -0.0001064539  -0.0002161246   0.0000890992   0.0000170761
        0.0001990827   0.0000059365  -0.0002437960   0.0001265447  -0.0001471744
        0.0010017538  -0.0003361046  -0.0003483850  -0.0018660415  -0.0012165517
       -0.0003329518  -0.0230675866   0.0131634754   0.0010291957  -0.0074398028
        0.0000843836  -0.0012878138   0.0047855420  -0.0019996008   0.0000807698
       -0.0060222538   0.0030863060  -0.0004752251   0.0003081460  -0.0234411563
       -0.0042384085  -0.0646336279   0.0352094892   0.0080302046  -0.0403393021
        0.0133027165   0.0050570717  -0.0008118687  -0.0054149034   0.0027212619
       -0.0000757083  -0.0001292714  -0.0003748980   0.0002381359  -0.0003765507
       -0.0001760871   0.0001452433  -0.0018153341  -0.0003943928   0.0000806942
       -0.0002373588   0.0003298024  -0.0001387221  -0.0000179463  -0.0001104086
       -0.0000311354   0.0000358530  -0.0000207414  -0.0000911249  -0.0000404102
       -0.0000053209  -0.0000627743  -0.0000857632   0.0000403389  -0.0000060305
       -0.0001010776   0.0000637907  -0.0003668789  -0.0003828869   0.0002371068
       -0.0006348401   0.0013926588   0.0003021639  -0.0001015810  -0.0001709611
        0.0000854980   0.0001639293  -0.0008875214  -0.0003507544   0.0004634830
       -0.0000211938   0.0002027295   0.0007823612   0.0004712268  -0.0006097973
       -0.0009242812   0.0006068608   0.0002718110
        0.0018677100  -0.0013505995  -0.0000940423  -0.0045554471  -0.0040179636
        0.0033078087   0.0257316495  -0.0383664112   0.0000142017   0.0792252591
       -0.1289838619  -0.0084130210  -0.0995298658   0.6117033709   0.0619731057
       -0.0787059205  -0.1321768546  -0.0097883652   0.0032606088   0.0200288318
        0.0014089525   0.0087212199  -0.0026097882  -0.0013271903  -0.0012346302
        0.0006755414   0.0002626667   0.0008129504   0.0004900211   0.0003900851
       -0.0008427912  -0.0002367603   0.0000275344   0.0006636749   0.0000900617
        0.0000186741  -0.0001562234  -0.0002511949   0.0001062082   0.0000451776
        0.0001823784  -0.0000149915  -0.0003786183   0.0000319732  -0.0000890034
        0.0010945335  -0.0001101858  -0.0000244944  -0.0021575405  -0.0016513427
        0.0001020735   0.0498247011  -0.0374656696  -0.0031374365  -0.0000791297
       -0.0071307010  -0.0025009511   0.0178674085   0.0011527491   0.0015302878
       -0.0183696868   0.0235830455   0.0035743952  -0.0173724899  -0.0577451551
       -0.0102264339   0.0315301822  -0.2569864851  -0.0361737161   0.0061749236
        0.0085747679  -0.0008756740  -0.0035502558   0.0032026549   0.0024418627
       -0.0003139461   0.0001158676  -0.0003327792   0.0009870557  -0.0008338508
        0.0000568232   0.0005524296  -0.0000040479  -0.0006846505   0.0000084754
        0.0000536845  -0.0001211079  -0.0000607499   0.0000250078  -0.0001283157
       -0.0000745510   0.0000556167  -0.0000418026  -0.0000945775  -0.0000295100
       -0.0000031114  -0.0000772502  -0.0000879448   0.0000393191   0.0000228581
       -0.0000699702   0.0000532708  -0.0001445911  -0.0001153961  -0.0001649442
        0.0005032198  -0.0014259306  -0.0002379769  -0.0000258969   0.0001869759
        0.0000607808   0.0000964461   0.0000474860  -0.0005773547   0.0008816625
        0.0008197457   0.0002733798  -0.0012731553   0.0003336550  -0.0006503244
       -0.0008748289   0.0002961889  -0.0000337428
        0.0000065628  -0.0003894186  -0.0001380365   0.0014942144   0.0026503817
        0.0059300130  -0.0047003148   0.0028157367   0.0018510141   0.0101114672
       -0.0061911012  -0.0487133988  -0.0011238334   0.0619731057   0.1412452722
       -0.0186613629  -0.0137555571  -0.0607830817  -0.0060920115   0.0054952212
        0.0085575846   0.0009262623  -0.0010937750   0.0059107701   0.0004961985
        0.0001147356   0.0001675069   0.0001884370  -0.0003269685  -0.0000792885
       -0.0001849665   0.0000034241  -0.0000077688   0.0001168966   0.0000143188
        0.0000754955  -0.0000421257  -0.0000156179   0.0000001269   0.0000449278
        0.0000652952   0.0000287828  -0.0001499665  -0.0000118875  -0.0000340955
        0.0003691826  -0.0002184987  -0.0002720677  -0.0011021636  -0.0005450639
       -0.0000330325   0.0070664745  -0.0058609701   0.0049651213  -0.0006455677
       -0.0018515002   0.0017153005   0.0032316908   0.0003291044  -0.0000501415
       -0.0039918389   0.0029782253   0.0051225967  -0.0024569334  -0.0114841148
       -0.0071263299   0.0048051419  -0.0313380856  -0.0571077163   0.0091695855
       -0.0049498264  -0.0004742217   0.0026593552   0.0029890443   0.0056003806
       -0.0004448504  -0.0003403210  -0.0015145615  -0.0002845561   0.0002738643
       -0.0000119577  -0.0008902040  -0.0004686843  -0.0018472187  -0.0000100948
        0.0001313197   0.0000242277   0.0000578233   0.0000177383  -0.0000260734
       -0.0000300157   0.0000204164  -0.0000148945  -0.0000268555  -0.0000126802
       -0.0000145074  -0.0000248806  -0.0000261715   0.0000122415   0.0000080028
       -0.0000022158   0.0000022353  -0.0001067851   0.0001502821   0.0000220345
        0.0001284024  -0.0000694943  -0.0003467914   0.0000208972   0.0001538710
       -0.0005739317  -0.0000309056  -0.0004122733   0.0010098760   0.0004580277
        0.0003790094  -0.0012743370  -0.0007283307  -0.0009329607  -0.0018412535