$hessian                                                                        
        0.2845897289  -0.0174915995  -0.0996610364  -0.1740101965   0.0431313905
        0.0629800193  -0.0721766984  -0.0150329149  -0.0145591604  -0.0162878899
       -0.0209618133   0.0357488205  -0.0215529835   0.0081521289   0.0150154734
        0.0003477593  -0.0027255548   0.0012321897   0.0000204490  -0.0000386165
        0.0007334512   0.0001993736  -0.0015901349  -0.0003287501  -0.0002607756
        0.0011668109   0.0002510891  -0.0005521399  -0.0009277003  -0.0001404306
       -0.0000630638   0.0000383722   0.0000165563   0.0000449637   0.0000109638
        0.0000235589   0.0000103821   0.0000524090  -0.0001067267   0.0000159501
        0.0000242161   0.0000083916  -0.0000273218  -0.0000322591  -0.0000190998
       -0.0000068855  -0.0000101739  -0.0000014461  -0.0000017994  -0.0000150533
       -0.0000085595   0.0000118993  -0.0000192863  -0.0000024945  -0.0000257754
        0.0000021202  -0.0000249648   0.0000069625   0.0000023613   0.0000138304
        0.0000102608   0.0000059832  -0.0000070387  -0.0000118772   0.0000081199
       -0.0000076722  -0.0000116607  -0.0000047830  -0.0000041931  -0.0000092527
       -0.0000157472  -0.0000049073  -0.0000001825  -0.0000109104  -0.0000079575
        0.0000028789  -0.0000125688  -0.0000108832  -0.0000120126  -0.0000027996
       -0.0000111940   0.0000056891  -0.0000157751   0.0000138075   0.0000068039
        0.0000021304  -0.0000062888  -0.0000059482  -0.0000084051   0.0000004179
       -0.0000063702  -0.0000030110  -0.0000048966  -0.0000034789  -0.0000029470
       -0.0000029033  -0.0000011907  -0.0000050741   0.0000023853  -0.0000115620
       -0.0000034759  -0.0000030231   0.0000016529   0.0000063752   0.0000113313
       -0.0000076543  -0.0000012306  -0.0000062450  -0.0000038537  -0.0000142303
       -0.0000008999   0.0000006779  -0.0000020224   0.0000008023  -0.0000084711
       -0.0000068112  -0.0000090521  -0.0000037766  -0.0000167921   0.0000002206
        0.0000036800   0.0000029264   0.0000050660  -0.0000192162  -0.0000262884
       -0.0000073093   0.0000512117   0.0000316870   0.0000103641   0.0000303979
       -0.0000383512   0.0000211250   0.0000247724  -0.0000622599  -0.0000087442
       -0.0001056994   0.0005829763   0.0000804827   0.0000774687   0.0000457305
        0.0000772670   0.0000497715  -0.0000304193   0.0000223584  -0.0000545052
        0.0000110140   0.0000082240  -0.0000138358  -0.0000033221  -0.0000056824
        0.0000144846   0.0000175623   0.0000067966   0.0000227395   0.0000200128
        0.0000000304  -0.0000008044   0.0000275907   0.0000046304  -0.0000194043
       -0.0000437722   0.0000073892   0.0000213819   0.0000129912   0.0000064677
        0.0000162233   0.0000259394   0.0000132160  -0.0000454248   0.0000274149
        0.0000000623  -0.0000046487   0.0000786601  -0.0000453815  -0.0000216828
        0.0000162101   0.0000051588   0.0005330252  -0.0002068705  -0.0002173753
        0.0000031341   0.0009383753   0.0014594284  -0.0008130628   0.0045916010
       -0.0014641249   0.0000053672   0.0001384092  -0.0008523893  -0.0000211984
        0.0000138690  -0.0000332939  -0.0001361968   0.0000193824  -0.0000146469
        0.0000299974   0.0000095157   0.0000647840  -0.0000080150  -0.0000010290
       -0.0000019712  -0.0000075984   0.0000018260   0.0000010018  -0.0000008957
        0.0000089310   0.0000096872  -0.0000060469   0.0000086616   0.0000165128
        0.0000000353   0.0000009841   0.0000148498   0.0000011928   0.0000020126
        0.0000093743   0.0000006765   0.0000047179   0.0000073683   0.0000011271
        0.0000027516  -0.0000021724  -0.0000001900  -0.0000023706   0.0000001305
       -0.0000025392  -0.0000026995  -0.0000004596  -0.0000018485  -0.0000006323
       -0.0000016195   0.0000041421   0.0000000374   0.0000030163  -0.0000002365
        0.0000048546  -0.0000006111  -0.0000028396  -0.0000009396  -0.0000029747
       -0.0000005104   0.0000001583  -0.0000003879  -0.0000019784   0.0000107690
       -0.0000027474   0.0000028681   0.0000087514  -0.0000010143   0.0000359787
        0.0000158505   0.0000116619   0.0000141725   0.0000612564   0.0000233157
       -0.0000007975   0.0000121219   0.0000001495  -0.0000314853  -0.0000046842
        0.0000090175   0.0000072178  -0.0000080773  -0.0000028287   0.0000001710
        0.0000095107   0.0000032486  -0.0000031741   0.0000012303   0.0000033910
       -0.0000021562  -0.0000115748  -0.0000031869  -0.0000130923   0.0000092021
        0.0000078565  -0.0000026858  -0.0000123331   0.0000012071   0.0000406006
       -0.0000338618   0.0000043896   0.0000230746  -0.0000895819   0.0000466652
       -0.0000278730   0.0004448704   0.0001527312   0.0001421191  -0.0002729897
       -0.0005620262
       -0.0174915995   0.0621903446   0.0066855732   0.0231964666  -0.0573917436
       -0.0098917486  -0.0155390618   0.0073734021   0.0021017649  -0.0231353681
        0.0022584415   0.0196198348   0.0294130792  -0.0079913870  -0.0159047842
        0.0013951165   0.0001778506  -0.0006914467   0.0000261142   0.0004619329
       -0.0008720664  -0.0001106728   0.0010792984   0.0000399778   0.0002650094
       -0.0009198758  -0.0002304902   0.0004245542   0.0007623592   0.0001501803
       -0.0000232099  -0.0000079179  -0.0000009149   0.0000029080  -0.0000057861
       -0.0000761701   0.0000107214  -0.0000487575   0.0000088089   0.0000212363
        0.0000068392   0.0000127651   0.0000183622  -0.0000108898   0.0000066467
       -0.0000157939   0.0000129074  -0.0000075725  -0.0000167018   0.0000198123
        0.0000043784   0.0000545570  -0.0000123460  -0.0000008159  -0.0000828443
       -0.0000060602   0.0000042761   0.0000490663  -0.0000438187   0.0000093063
       -0.0000048842  -0.0000008464   0.0000032069   0.0000016841  -0.0000076523
       -0.0000065009   0.0000003182   0.0000033436  -0.0000032094  -0.0000011700
       -0.0000018519   0.0000111798   0.0000035936  -0.0000030978   0.0000029161
        0.0000029956   0.0000069224   0.0000009190  -0.0000460309   0.0000172296
        0.0000093460  -0.0000103119   0.0000033707  -0.0000046299   0.0000072565
        0.0000027290  -0.0000057911  -0.0000009253   0.0000010418   0.0000032742
        0.0000004451  -0.0000004792  -0.0000035726  -0.0000015700   0.0000004898
        0.0000002601   0.0000017981   0.0000006909   0.0000022613  -0.0000047038
       -0.0000003277   0.0000054469   0.0000392203   0.0000316846  -0.0000130668
        0.0000009489  -0.0000071822   0.0000017884   0.0000021926   0.0000064102
        0.0000029230  -0.0000007017   0.0000013534  -0.0000022081  -0.0000030480
        0.0000012322  -0.0000010154   0.0000000328   0.0000006790   0.0000054400
       -0.0000063712   0.0000074965   0.0000024436  -0.0000076099  -0.0000275699
       -0.0000153211  -0.0000038494   0.0000271853   0.0000116140  -0.0000210548
        0.0000167438  -0.0000213617   0.0000015116   0.0000650727  -0.0000071151
        0.0000927879  -0.0004965304  -0.0000900280  -0.0000195912  -0.0000547400
       -0.0000505407  -0.0000577076   0.0000357880  -0.0000118091   0.0000513858
       -0.0000221044  -0.0000132578   0.0000102312   0.0000094223   0.0000070312
       -0.0000034391  -0.0000053327  -0.0000047872  -0.0000377954  -0.0000182143
       -0.0000033822   0.0000259974  -0.0000231118  -0.0000013026  -0.0000019745
        0.0000382688  -0.0000045200   0.0000011563   0.0000009068   0.0000025827
       -0.0000012395  -0.0000018465   0.0000003246   0.0000188083  -0.0000515929
       -0.0000185082  -0.0000382278   0.0000052125   0.0000539711   0.0000177929
       -0.0000110706  -0.0000031011  -0.0004844730   0.0002201575   0.0001806624
       -0.0000366430  -0.0008247769  -0.0017001539   0.0013074856  -0.0051978685
        0.0004580452   0.0006174352  -0.0010464323   0.0000359195  -0.0000166995
        0.0000802429   0.0000228589   0.0000358298  -0.0000107322   0.0000796638
        0.0000107647   0.0000005614   0.0000118661   0.0000077596  -0.0000003442
        0.0000051634  -0.0000065797  -0.0000069820  -0.0000031698   0.0000019933
        0.0000061974   0.0000049750   0.0000014740  -0.0000071666   0.0000023557
        0.0000000422   0.0000033402  -0.0000067180  -0.0000061765   0.0000044352
       -0.0000006646  -0.0000019786  -0.0000034303   0.0000002363   0.0000012571
       -0.0000015685  -0.0000028895   0.0000002800  -0.0000013716  -0.0000004005
       -0.0000014478  -0.0000012319   0.0000000884  -0.0000016716   0.0000004933
       -0.0000005504   0.0000013187  -0.0000009993   0.0000000530  -0.0000013400
       -0.0000022742  -0.0000036127  -0.0000002173  -0.0000032236  -0.0000019167
        0.0000017398  -0.0000006514  -0.0000014842   0.0000016623   0.0000009412
       -0.0000052163   0.0000065354  -0.0000063994  -0.0000015229  -0.0000091145
       -0.0000001520   0.0000036188   0.0000361527  -0.0000258131   0.0000033438
       -0.0000153355  -0.0000191735   0.0000116223   0.0000127991  -0.0000161948
        0.0000059344  -0.0000096384   0.0000117292   0.0000042889  -0.0000016952
       -0.0000202652  -0.0000088378   0.0000129149  -0.0000135631  -0.0000076468
        0.0000155205   0.0000062366   0.0000018568   0.0000243426  -0.0000173206
       -0.0000071327   0.0000324489  -0.0000034191   0.0000000508  -0.0000091762
        0.0000070274  -0.0000001940  -0.0000745749   0.0000134878  -0.0000619884
        0.0000416067  -0.0004743055  -0.0001949172   0.0000355085  -0.0001035190
        0.0003670099
       -0.0996610364   0.0066855732   0.1027747476   0.0608491454  -0.0187280475
       -0.0726317645  -0.0178738998   0.0016333185   0.0114083275   0.0382974772
        0.0183895206  -0.0370389538   0.0183721123  -0.0070166773  -0.0045621809
        0.0000928821   0.0021228477  -0.0006670177  -0.0002258413  -0.0000792172
       -0.0005895672  -0.0001730352   0.0011030908   0.0001185209   0.0001530905
       -0.0008065199  -0.0000869246   0.0003315142   0.0005758136   0.0000496769
        0.0000028574  -0.0000212820   0.0000080110   0.0000039455   0.0000048762
       -0.0000420750  -0.0000363752   0.0000042444   0.0000059969   0.0000121201
       -0.0000176009   0.0000045265   0.0000005430   0.0000061975   0.0000030656
        0.0000059361   0.0000031776   0.0000025342  -0.0000099066   0.0000061009
        0.0000075900   0.0000257703   0.0000067860  -0.0000072706  -0.0000267752
        0.0000145885   0.0000022609   0.0000110390  -0.0000170751  -0.0000069528
        0.0000046019   0.0000126030  -0.0000010784  -0.0000048200  -0.0000018552
        0.0000021275   0.0000062639  -0.0000018872  -0.0000088308  -0.0000052158
        0.0000097494  -0.0000067364   0.0000024361   0.0000004350  -0.0000002203
        0.0000024171  -0.0000040031   0.0000002050  -0.0000103106  -0.0000045274
        0.0000048702  -0.0000046511  -0.0000010574  -0.0000014690   0.0000122589
        0.0000039148  -0.0000023614  -0.0000024314   0.0000016638   0.0000027918
        0.0000018771   0.0000081342   0.0000064870   0.0000001583   0.0000011718
        0.0000024673   0.0000022000   0.0000040397  -0.0000039011  -0.0000010281
       -0.0000017800  -0.0000061318   0.0000009371   0.0000030233  -0.0000045379
        0.0000007074   0.0000058400  -0.0000021948   0.0000043737  -0.0000010641
        0.0000035821   0.0000001708   0.0000031452   0.0000056242   0.0000007205
        0.0000040066   0.0000036009  -0.0000062447   0.0000094832  -0.0000044006
        0.0000001400  -0.0000009437   0.0000075509   0.0000007314  -0.0000037442
        0.0000055156   0.0000013496   0.0000116565   0.0000305878  -0.0000159984
        0.0000101263  -0.0000027605  -0.0000085206   0.0000280747   0.0000125163
        0.0000987853  -0.0003588119  -0.0000248741  -0.0000434188  -0.0000411871
       -0.0000660710  -0.0000408761   0.0000296001  -0.0000112592   0.0000356331
       -0.0000056015  -0.0000021038   0.0000036454   0.0000058088   0.0000033410
       -0.0000023600  -0.0000062254   0.0000041911  -0.0000193705  -0.0000101008
        0.0000060286   0.0000018618  -0.0000111918  -0.0000001198   0.0000266137
        0.0000165727  -0.0000028545  -0.0000181070   0.0000072147   0.0000043650
       -0.0000071539  -0.0000066006   0.0000004018   0.0000232217  -0.0000386720
       -0.0000101220   0.0000181044  -0.0000151288   0.0000632362  -0.0000016258
       -0.0000250380  -0.0000117565  -0.0002984831   0.0001064773   0.0001356808
       -0.0003989259  -0.0009726040  -0.0009328974   0.0007957456  -0.0026181349
        0.0013647208  -0.0001604405   0.0000802310   0.0004677464  -0.0000005313
       -0.0000331660   0.0000111865   0.0000169065   0.0000135722   0.0000278250
        0.0000308134   0.0000159648   0.0000028005   0.0000030335  -0.0000039892
       -0.0000045742  -0.0000018830  -0.0000049704  -0.0000069696   0.0000044047
       -0.0000001599  -0.0000060817   0.0000017936   0.0000016945   0.0000040856
        0.0000065022  -0.0000122415  -0.0000007216   0.0000016205  -0.0000005496
       -0.0000048184  -0.0000031530  -0.0000000964  -0.0000012939   0.0000015941
        0.0000003805  -0.0000015175  -0.0000007005   0.0000001904   0.0000026735
       -0.0000009448   0.0000012060   0.0000008846  -0.0000010758  -0.0000017044
       -0.0000004473   0.0000007924  -0.0000005937  -0.0000001170   0.0000007342
       -0.0000016348   0.0000011743   0.0000011480   0.0000004006   0.0000029650
        0.0000011366  -0.0000028688   0.0000010064   0.0000038210  -0.0000049047
        0.0000006879  -0.0000034856  -0.0000052857  -0.0000094834  -0.0000000501
       -0.0000035252  -0.0000132462   0.0000058820  -0.0000053088  -0.0000365995
       -0.0000059510  -0.0000196116   0.0000040373   0.0000174530  -0.0000149153
        0.0000005797  -0.0000063252   0.0000085320   0.0000011315   0.0000003723
       -0.0000085589  -0.0000019305   0.0000044128  -0.0000036376  -0.0000042947
        0.0000081425   0.0000027110  -0.0000002081   0.0000100709  -0.0000044920
       -0.0000056850   0.0000099233   0.0000046220  -0.0000035421   0.0000003381
        0.0000155576  -0.0000105511  -0.0000388740   0.0000270974  -0.0000710862
       -0.0000350043  -0.0002287685  -0.0001002167  -0.0001794527   0.0001665254
        0.0004388394
       -0.1740101965   0.0231964666   0.0608491454   0.3709502830  -0.0292291410
       -0.0270437873  -0.0898187651  -0.0343529116  -0.0543327199  -0.0453952343
        0.0054514302  -0.0013679998  -0.0607432582   0.0271139336   0.0098399714
        0.0011107855  -0.0054004123  -0.0046582377   0.0039622516  -0.0018950101
        0.0040850538   0.0000576735   0.0010439158   0.0009946626  -0.0009706322
       -0.0011833672  -0.0012085495   0.0006652279   0.0008014547   0.0000951334
        0.0001300873  -0.0000442184  -0.0000377880  -0.0000238245   0.0000074015
        0.0000203788   0.0000317357  -0.0000717995   0.0002022662  -0.0000450045
       -0.0000079065  -0.0000303401   0.0000643530   0.0000451842   0.0000308990
        0.0000060318   0.0000237706   0.0000026525   0.0000199452   0.0000202196
        0.0000132465  -0.0000304201   0.0000267414   0.0000076621   0.0000624697
        0.0000017241   0.0000402554  -0.0000144279   0.0000001772  -0.0000207639
       -0.0000148595  -0.0000226870   0.0000164893   0.0000345084  -0.0000145238
        0.0000120644   0.0000343024   0.0000110633   0.0000179618   0.0000305965
        0.0000220627   0.0000129473   0.0000066363   0.0000256778   0.0000141465
       -0.0000034933   0.0000242620   0.0000237325   0.0000251086   0.0000103776
        0.0000285786  -0.0000136302   0.0000366346  -0.0000274209  -0.0000185227
       -0.0000056198   0.0000126879   0.0000128934   0.0000171707  -0.0000073129
        0.0000128849   0.0000021934   0.0000100160   0.0000053088   0.0000067751
        0.0000007808   0.0000027848   0.0000108559  -0.0000068842   0.0000246641
        0.0000071530   0.0000092330  -0.0000059782  -0.0000120143  -0.0000177549
        0.0000136633  -0.0000028922   0.0000134321   0.0000058301   0.0000249796
       -0.0000031324   0.0000005400   0.0000029906  -0.0000040206   0.0000168528
        0.0000087775   0.0000122013   0.0000108976   0.0000232474   0.0000026373
       -0.0000081788  -0.0000154469  -0.0000154886   0.0000444070   0.0000491454
        0.0000105148  -0.0001017815  -0.0000827058  -0.0000469992  -0.0000343024
        0.0000434580  -0.0000279155  -0.0000245325   0.0000838712  -0.0000008741
        0.0000298836  -0.0007948525  -0.0001118868  -0.0001867218  -0.0000225203
       -0.0000424440  -0.0000115188  -0.0000001878  -0.0000308047   0.0000662736
        0.0000137446   0.0000027289   0.0000211082   0.0000058553   0.0000061060
       -0.0000348577  -0.0000290940  -0.0000110860  -0.0000425719  -0.0000199368
       -0.0000026072   0.0000032810  -0.0000491875  -0.0000147722  -0.0000088452
        0.0000510388  -0.0000054883  -0.0000211987  -0.0000526164  -0.0000248798
       -0.0000423354  -0.0000451886  -0.0000190958   0.0000842974   0.0000032903
        0.0000417187  -0.0001665680  -0.0000154423   0.0000370991   0.0001997754
        0.0000199211   0.0000300583  -0.0005768459   0.0003768873   0.0002451344
        0.0021985109   0.0003399486   0.0056501663  -0.0052150441   0.0153670551
        0.0073744007  -0.0012515327  -0.0012868484  -0.0003093924   0.0003327800
       -0.0006769520   0.0000319929   0.0001959383  -0.0000606224  -0.0000090657
       -0.0000951634  -0.0000422338  -0.0001154253   0.0000107999   0.0000133406
        0.0000082538   0.0000135512   0.0000092295   0.0000046219  -0.0000047128
       -0.0000066593  -0.0000110473   0.0000025116  -0.0000129747  -0.0000266237
       -0.0000063155   0.0000104897  -0.0000240427  -0.0000078227   0.0000033874
       -0.0000088770   0.0000002010  -0.0000037287  -0.0000086756   0.0000002086
       -0.0000067432   0.0000082772   0.0000018516   0.0000036664  -0.0000023107
        0.0000097034   0.0000050993  -0.0000017006   0.0000063225   0.0000013171
        0.0000029259  -0.0000076873   0.0000034688  -0.0000076222   0.0000018482
       -0.0000047226  -0.0000000866   0.0000070021   0.0000068115   0.0000021450
        0.0000012862   0.0000050514  -0.0000029063   0.0000030115  -0.0000207554
        0.0000043077  -0.0000024761  -0.0000095160   0.0000072576  -0.0000764760
       -0.0000214977  -0.0000099836  -0.0000267060  -0.0000978625  -0.0000192828
       -0.0000033214  -0.0000096855  -0.0000028241   0.0000283974   0.0000214172
       -0.0000172461  -0.0000104773  -0.0000067808  -0.0000026089   0.0000025563
       -0.0000256943  -0.0000098228   0.0000139673  -0.0000129090  -0.0000065707
        0.0000004010   0.0000160907   0.0000073481   0.0000328262  -0.0000272642
       -0.0000101002   0.0000165708   0.0000097178   0.0000014018  -0.0001413842
        0.0000261218  -0.0000307593   0.0001545692   0.0001501816   0.0000262251
       -0.0001013066   0.0006220108   0.0002450844  -0.0014632255   0.0004748751
       -0.0003579756
        0.0431313905  -0.0573917436  -0.0187280475  -0.0292291410   0.4734274440
        0.0123891038  -0.0439609506  -0.0784448479  -0.0517135886   0.0003779402
       -0.1389145734   0.0940694587   0.0222886511  -0.1586729990  -0.0297487060
       -0.0014809023  -0.0337459692   0.0033031487  -0.0034285071  -0.0001234499
        0.0048074131   0.0014137893  -0.0064756601  -0.0018498501  -0.0006464222
        0.0058215437   0.0022216523  -0.0024680616  -0.0042064436  -0.0006533984
        0.0000777808   0.0000962390  -0.0000081206   0.0000327315   0.0001455304
        0.0003195464  -0.0000275473   0.0001766337  -0.0000226882  -0.0000876449
       -0.0000349841  -0.0000301431  -0.0000759652   0.0000384044  -0.0000271221
        0.0000681137  -0.0000714707   0.0000209987   0.0000509026  -0.0000753248
       -0.0000261648  -0.0001797228   0.0000278242  -0.0000041639   0.0002516353
       -0.0000052767   0.0000006341  -0.0001526735   0.0001410507  -0.0000301327
        0.0000096108  -0.0000023632  -0.0000115258   0.0000033414   0.0000150312
        0.0000253388   0.0000010636  -0.0000226914   0.0000069253   0.0000105055
       -0.0000005143  -0.0000290719  -0.0000158062   0.0000025730   0.0000015885
       -0.0000053335  -0.0000186384   0.0000030137   0.0001381201  -0.0000388136
       -0.0000202101   0.0000325859  -0.0000117883   0.0000126568  -0.0000285756
       -0.0000091700   0.0000204080   0.0000068255   0.0000022150  -0.0000114165
        0.0000059309  -0.0000040641   0.0000045438   0.0000070552  -0.0000021287
        0.0000036491  -0.0000046783  -0.0000026145  -0.0000017969   0.0000218762
        0.0000046249  -0.0000055575  -0.0001106226  -0.0000887115   0.0000328569
        0.0000030762   0.0000112407   0.0000026491  -0.0000100770  -0.0000072474
       -0.0000103370   0.0000056713  -0.0000086115   0.0000046129   0.0000183795
       -0.0000015482   0.0000100164   0.0000119012  -0.0000052621  -0.0000100529
        0.0000235602  -0.0000137548  -0.0000101743   0.0000303178   0.0000794046
        0.0000518857   0.0000573269  -0.0000476840  -0.0000272866   0.0000703559
       -0.0000785654   0.0000869216  -0.0000199088  -0.0003617089   0.0000180616
       -0.0005914215   0.0028327105   0.0003886903   0.0002269594   0.0002637387
        0.0003113509   0.0002859286  -0.0001965086   0.0000967498  -0.0002749827
        0.0000459031   0.0000485618  -0.0000341830  -0.0000649589  -0.0000415494
        0.0000137741   0.0000033093   0.0000042808   0.0001950078   0.0000704423
       -0.0000028420  -0.0000762712   0.0001005506   0.0000036151  -0.0000381626
       -0.0001889911   0.0000272491   0.0000647931  -0.0000328130  -0.0000177549
        0.0000558408  -0.0000493875  -0.0000363568  -0.0000587916   0.0001942535
        0.0000985625   0.0000127957  -0.0000311567  -0.0001773165  -0.0000573432
        0.0001041740   0.0000183892   0.0024300989  -0.0009526352  -0.0011067562
        0.0011719605   0.0045721150  -0.0004949085   0.0118009994  -0.0096572613
       -0.0142719610   0.0001339136   0.0003492398  -0.0002524273   0.0001387636
       -0.0002824409  -0.0001638918  -0.0000475770   0.0000284013  -0.0002775577
       -0.0000184235  -0.0000105391  -0.0000371951  -0.0000366088   0.0000109148
       -0.0000150706   0.0000220832   0.0000294734   0.0000143639  -0.0000085628
       -0.0000092689  -0.0000183183  -0.0000033026   0.0000266078  -0.0000137721
        0.0000013152  -0.0000007626   0.0000102684   0.0000193820  -0.0000097207
       -0.0000060649   0.0000058522   0.0000103363  -0.0000066480  -0.0000059353
        0.0000032263   0.0000085399  -0.0000018082   0.0000060272  -0.0000013291
        0.0000060566   0.0000053869  -0.0000004872   0.0000083507   0.0000023320
        0.0000034577  -0.0000057910   0.0000023053  -0.0000005693   0.0000050457
        0.0000059609   0.0000103191  -0.0000002309   0.0000101378   0.0000040269
       -0.0000084085   0.0000051403   0.0000024931  -0.0000113111  -0.0000023492
        0.0000109135  -0.0000178101   0.0000202804   0.0000059115   0.0000201498
       -0.0000041458  -0.0000160732  -0.0000845463   0.0000767607   0.0000076504
        0.0000635888   0.0000862080  -0.0000487478  -0.0000680144   0.0000821430
       -0.0000354162   0.0000545760  -0.0000467996  -0.0000172190   0.0000070646
        0.0000769140   0.0000284818  -0.0000454976   0.0000447064   0.0000306091
       -0.0000728320  -0.0000185215  -0.0000106223  -0.0000900632   0.0000618749
        0.0000262286  -0.0001183299   0.0000125971  -0.0000054962  -0.0000069729
       -0.0000293426  -0.0000289878   0.0001720609   0.0000482791   0.0001557504
       -0.0002014008   0.0004379970   0.0002599936  -0.0011496772   0.0008560190
        0.0010913538
        0.0629800193  -0.0098917486  -0.0726317645  -0.0270437873   0.0123891038
        0.3774922735  -0.0586255040  -0.0438459978  -0.1103586639   0.0035060524
        0.0721868017  -0.1236255590   0.0074839126  -0.0248086605  -0.0635969268
       -0.0039205718   0.0087340400   0.0064757898   0.0031406323   0.0041904112
        0.0015110529   0.0010918687  -0.0020179345  -0.0007317470  -0.0008120538
        0.0019904400  -0.0000697898  -0.0007104416  -0.0014032818  -0.0001643255
        0.0000724780   0.0000559200  -0.0000259215  -0.0001153873  -0.0000227321
        0.0001509225   0.0000647314   0.0000287337  -0.0000053655  -0.0000404357
        0.0000374897  -0.0000179706  -0.0000186312   0.0000061096  -0.0000078632
        0.0000195879  -0.0000250214  -0.0000038874   0.0000183048  -0.0000288021
       -0.0000200402  -0.0000595040   0.0000046534   0.0000320649   0.0000764793
       -0.0000258494  -0.0000151079  -0.0000324453   0.0000417310   0.0000204926
        0.0000003373  -0.0000187766   0.0000168264   0.0000216478   0.0000066723
        0.0000004787  -0.0000077744   0.0000265482   0.0000537192   0.0000200942
        0.0000009061   0.0000243137   0.0000060018   0.0000223453   0.0000090220
       -0.0000061885   0.0000133434   0.0000079635   0.0000285019  -0.0000071673
       -0.0000179939   0.0000099815   0.0000227921   0.0000015192  -0.0000225059
       -0.0000066527   0.0000022390   0.0000141965  -0.0000111555  -0.0000085497
       -0.0000025545  -0.0000060221   0.0000039526  -0.0000006361  -0.0000023620
       -0.0000108466  -0.0000032592   0.0000009965  -0.0000086333   0.0000092283
       -0.0000050043  -0.0000052323  -0.0000131512  -0.0000120102   0.0000037429
        0.0000009407  -0.0000212051   0.0000069236  -0.0000053927  -0.0000060766
       -0.0000231554  -0.0000024461  -0.0000091463  -0.0000158743  -0.0000058735
       -0.0000133045  -0.0000190565   0.0000177522  -0.0000162696   0.0000019015
        0.0000070822   0.0000014205  -0.0000212090   0.0000064677   0.0000343255
       -0.0000085206   0.0000352299   0.0000183229  -0.0000721881   0.0000136617
        0.0000046242   0.0000001800  -0.0000009433  -0.0000899934  -0.0000238570
       -0.0001941409   0.0007957906   0.0000455175   0.0000047839   0.0000900812
        0.0001516310   0.0001008268  -0.0000573581   0.0000321017  -0.0000894857
        0.0000243414   0.0000053275  -0.0000075144  -0.0000160501  -0.0000301085
       -0.0000009946  -0.0000041498  -0.0000070588   0.0000596127   0.0000262024
       -0.0000102183  -0.0000239372   0.0000243012  -0.0000027797  -0.0000197314
       -0.0000633241   0.0000238724   0.0000174916  -0.0000283114  -0.0000154841
        0.0000259150  -0.0000431390  -0.0000200020   0.0000085998   0.0000638070
       -0.0000048506  -0.0000695090   0.0000430396  -0.0001159542   0.0000182873
        0.0000339698   0.0000286398   0.0007387369  -0.0001723853  -0.0003136044
        0.0061729547   0.0008096168  -0.0015394577   0.0066263759  -0.0202379247
       -0.0107269854  -0.0006107074   0.0017381407  -0.0009085972  -0.0001271457
        0.0010154526   0.0001604423   0.0001178954  -0.0000721105  -0.0000708031
       -0.0001222657  -0.0000453769   0.0000275888  -0.0000131817   0.0000025048
       -0.0000003767   0.0000051390   0.0000116161   0.0000085880  -0.0000113128
        0.0000035638   0.0000151062  -0.0000027668  -0.0000022558  -0.0000035201
       -0.0000180219   0.0000278165   0.0000151358  -0.0000024534   0.0000036525
        0.0000290931   0.0000115280   0.0000048082   0.0000103194  -0.0000057510
       -0.0000049222   0.0000004881   0.0000018834  -0.0000058596  -0.0000103083
        0.0000021560  -0.0000038669  -0.0000061442  -0.0000003444  -0.0000002044
        0.0000001466  -0.0000053298   0.0000058372  -0.0000001175  -0.0000060427
       -0.0000008530  -0.0000076356  -0.0000035603   0.0000001506  -0.0000134979
       -0.0000030082  -0.0000034456  -0.0000121714  -0.0000075971  -0.0000016017
       -0.0000052761  -0.0000000962  -0.0000071866   0.0000222914   0.0000124944
       -0.0000076155   0.0000361715  -0.0000300417   0.0000098425   0.0001047659
        0.0000304922   0.0000478585  -0.0000084232  -0.0000220086   0.0000476561
       -0.0000050059   0.0000178207  -0.0000137412  -0.0000038245   0.0000035883
        0.0000283553   0.0000037067  -0.0000139210   0.0000175383   0.0000077186
       -0.0000253800  -0.0000047853   0.0000082546  -0.0000239608   0.0000132423
        0.0000273969  -0.0000361051  -0.0000027067   0.0000323624  -0.0000597152
       -0.0000184240   0.0000655903   0.0000838371   0.0000228458   0.0001858700
        0.0004250179  -0.0009047145  -0.0001868363  -0.0001251093  -0.0007122755
       -0.0013244138
       -0.0721766984  -0.0155390618  -0.0178738998  -0.0898187651  -0.0439609506
       -0.0586255040   0.1638826453   0.0565037796   0.1115445886  -0.0033952569
        0.0089887157  -0.0280786738   0.0019480813  -0.0063803519  -0.0066164970
        0.0006926411   0.0009446181  -0.0006605721   0.0006287277  -0.0002520124
       -0.0002028477  -0.0003024634   0.0011143293   0.0002037594  -0.0000604625
       -0.0007439351  -0.0003438109   0.0003038911   0.0005088516   0.0000473704
       -0.0000092209  -0.0000278005   0.0000189307  -0.0000254689  -0.0000655056
       -0.0000263962  -0.0000165307  -0.0000265311  -0.0000264205   0.0000082315
       -0.0000075932   0.0000113206  -0.0000020317  -0.0000056030  -0.0000057741
       -0.0000124325  -0.0000039733  -0.0000036618  -0.0000054089  -0.0000022599
       -0.0000004430  -0.0000050997  -0.0000054149  -0.0000038203   0.0000030816
       -0.0000028670  -0.0000111353  -0.0000059956   0.0000100388  -0.0000018597
        0.0000000487   0.0000047830  -0.0000037030  -0.0000124182   0.0000023730
       -0.0000047602  -0.0000138636  -0.0000015606  -0.0000047617  -0.0000129282
       -0.0000042405  -0.0000050289  -0.0000063128  -0.0000079513  -0.0000040615
       -0.0000016116  -0.0000040467  -0.0000082448   0.0000044828  -0.0000068781
       -0.0000073914   0.0000071541  -0.0000080751   0.0000057047   0.0000005002
        0.0000002261  -0.0000016135  -0.0000005950  -0.0000038940   0.0000030436
       -0.0000057940  -0.0000011929  -0.0000003764  -0.0000035918  -0.0000012643