$hessian                                                                        
        0.4825686219  -0.0214864740  -0.0441034136  -0.1119682680  -0.0212902685
       -0.0500419451  -0.0048444716  -0.0008070798  -0.0078950781  -0.0300564838
       -0.0109556336  -0.0098939847  -0.0004949615  -0.0005536982  -0.0006461043
        0.0004253394  -0.0005950080   0.0005658704  -0.0001158148  -0.0002072194
        0.0001143191  -0.0001231572  -0.0007205392   0.0011538071  -0.0029363220
        0.0026253960   0.0008007326   0.0005194016  -0.0009163963  -0.0006578270
        0.0001384209   0.0001023504   0.0000833224  -0.0000063696  -0.0000173260
       -0.0000449882  -0.0000449220  -0.0000614669   0.0000031168   0.0000340209
        0.0000563653  -0.0000179827   0.0002856333  -0.0001648221   0.0000952283
       -0.0002071889   0.0002067208  -0.0000795064  -0.0001610659  -0.0000574556
        0.0000175521  -0.0000106301   0.0000482938  -0.0000082348   0.0000313888
       -0.0000471371   0.0000004354  -0.0000962197   0.0002232714  -0.0000037857
        0.0000457721   0.0000038546   0.0000080183  -0.0000606648  -0.0000527743
        0.0000015269   0.0000700380   0.0000108300   0.0000020180  -0.0000328907
       -0.0000178258   0.0000282065   0.0000615682   0.0000346456  -0.0000119315
       -0.0000349224   0.0000177115   0.0000012091  -0.0000295225   0.0000428133
       -0.0000042411   0.0000197919  -0.0000802709  -0.0000902795   0.0000466006
       -0.0000201635   0.0000728411   0.0000437042  -0.0000761338  -0.0000085574
       -0.0000271766   0.0000320887  -0.0000069772  -0.0000221328   0.0000271013
       -0.0000008211  -0.0000719171   0.0000794802  -0.0000388850   0.0000294318
       -0.0000428891   0.0000024574   0.0000127058   0.0000117552  -0.0000086001
       -0.0000167641  -0.0000065454   0.0000012944  -0.0000507379   0.0000993138
        0.0000270689  -0.0000224941   0.0000260487   0.0000006871  -0.0000239691
        0.0000319476   0.0000035585   0.0000539053  -0.0000630905   0.0000173701
        0.0000044741  -0.0000592350  -0.0000665457   0.0000809697  -0.0000296317
        0.0000953484  -0.0000058997  -0.0000407805  -0.0000009583  -0.0000613605
       -0.0000222287   0.0000005836   0.0001376441  -0.0003497796  -0.0000353578
       -0.0000178266   0.0001967868   0.0000152103  -0.0000102886  -0.0000412630
        0.0000312885   0.0000086521   0.0000298135  -0.0000249550  -0.0003938377
        0.0015479879   0.0001758458  -0.0000416052   0.0000936023  -0.0001241090
        0.0004312826   0.0004459411  -0.0000509055   0.0001860504  -0.0012997888
       -0.0004098249  -0.0019889710   0.0010898655   0.0012699856   0.0055869394
       -0.0041722368  -0.0005731494  -0.2322725242  -0.0166721592   0.1007362735
       -0.0450681019   0.0136252823  -0.0147049289  -0.0590173292   0.0595952578
        0.0238839289   0.0002354547   0.0005385891  -0.0009592672   0.0006389730
       -0.0000902193   0.0007938787   0.0001327162  -0.0004901572   0.0002505658
       -0.0011908669  -0.0002742854  -0.0004626909  -0.0000339282   0.0000052528
       -0.0000846747  -0.0001178771  -0.0000052621  -0.0001403904  -0.0002066187
       -0.0000303338   0.0001276580  -0.0000099716   0.0000122805   0.0000031597
       -0.0000028390  -0.0000096568   0.0000162909  -0.0000235656   0.0000043866
       -0.0000031372  -0.0000265649   0.0000133455  -0.0000004851   0.0000372624
        0.0000112587  -0.0000002975   0.0000078653  -0.0000078561   0.0000002962
        0.0000011140   0.0000074120   0.0000035462  -0.0000046260   0.0000029180
       -0.0000102608  -0.0000000727  -0.0000041180  -0.0000076201   0.0000050713
       -0.0000077529  -0.0000022654  -0.0000028332   0.0000043709   0.0000004097
       -0.0000006795  -0.0000063741  -0.0000033129   0.0000003265  -0.0000038364
        0.0000063291  -0.0000036132   0.0000026498   0.0000003216   0.0000031953
       -0.0000008593  -0.0000075508   0.0000056025   0.0000002291   0.0000034523
        0.0000065630  -0.0000067812   0.0000021558   0.0000053703   0.0000005862
        0.0000064326   0.0000014710   0.0000075688   0.0000074181  -0.0000020871
        0.0000042723  -0.0000056317   0.0000099872  -0.0000078420   0.0000035375
        0.0000018504   0.0000003614  -0.0000018926   0.0000202052  -0.0000110078
       -0.0000048987  -0.0000019467  -0.0000045749  -0.0000087628   0.0000203004
        0.0000093879   0.0000371798  -0.0000224282   0.0000978028  -0.0000199145
        0.0000449885   0.0000596242   0.0000179629  -0.0000009349   0.0000128439
       -0.0000067686  -0.0000124088   0.0007885726   0.0007939996
       -0.0214864740   0.5151346242  -0.0164544068  -0.0256934604  -0.0689437775
       -0.0287756578   0.0101387385   0.0035702520   0.0120636326  -0.0082471156
       -0.0002525160   0.0005434994   0.0008340626  -0.0012762452  -0.0013647796
       -0.0007384955  -0.0002548475   0.0006273803   0.0001753374   0.0003742807
        0.0000277557   0.0000158018  -0.0002071213   0.0001171591  -0.0001402423
        0.0005299974   0.0001139593  -0.0007146134   0.0001661243   0.0003880774
        0.0000201389   0.0000989738  -0.0000586798   0.0000027262   0.0000396878
        0.0000080495  -0.0000024182  -0.0000077704   0.0000024023   0.0000073581
       -0.0000037274   0.0000008666   0.0001410546   0.0000493247   0.0000255968
       -0.0001102711   0.0000538062  -0.0000312059  -0.0001083767  -0.0001560234
        0.0000140198  -0.0000674135   0.0001369790  -0.0000106877   0.0000586742
        0.0000309908   0.0000058647   0.0001066875   0.0007030040   0.0000477948
       -0.0002612317  -0.0005370659  -0.0000006109   0.0001760093   0.0004025317
        0.0000002562   0.0000643531   0.0001119261  -0.0000175079  -0.0000532871
       -0.0001124312   0.0000545689   0.0000503761  -0.0000038828  -0.0000112433
        0.0000289637  -0.0000805431   0.0000066017   0.0001046410  -0.0001290310
        0.0000040558  -0.0000167954   0.0002015568   0.0002340931  -0.0000377762
       -0.0000189393  -0.0000973721  -0.0000280496   0.0000715202   0.0000471428
        0.0000273926  -0.0000232276   0.0000261965   0.0000033881   0.0000064060
        0.0000218731   0.0000941756  -0.0001068448   0.0000307721  -0.0000592699
        0.0000790860  -0.0000013809  -0.0000020513  -0.0000044037   0.0000046651
        0.0000050286   0.0000013354  -0.0000014612   0.0000766690  -0.0001191925
       -0.0000207471  -0.0000081282  -0.0000013154  -0.0000180801   0.0000140571
       -0.0000300992  -0.0000220687  -0.0000629911   0.0000471587  -0.0000511828
        0.0000236690   0.0000375303   0.0000969327  -0.0001655527   0.0000673751
       -0.0002477358   0.0000408293  -0.0000187216  -0.0000005956  -0.0000037715
       -0.0000497886  -0.0000082372   0.0003667435  -0.0009912121  -0.0000942977
       -0.0003896835   0.0003795677  -0.0000121144  -0.0000166874  -0.0000099591
       -0.0000008192  -0.0000097414  -0.0000173148   0.0000110039   0.0023649819
       -0.0019139535  -0.0025392600   0.0001590222  -0.0009557679   0.0008544289
       -0.0000418568  -0.0001883152   0.0000321966   0.0001048370  -0.0002675551
        0.0008092569  -0.0010464498  -0.0003565463  -0.0005992510  -0.0142991076
       -0.0185829773  -0.0196780264  -0.0169340201  -0.0442551511   0.0101033624
        0.0136854190  -0.1420990587   0.1175306140   0.0595449735  -0.2395561647
       -0.0765589369   0.0010146445  -0.0015485451   0.0035151806   0.0003724821
        0.0004488103  -0.0001234631   0.0004841399   0.0008992196   0.0004270772
        0.0009653637  -0.0000049163  -0.0000988707   0.0000056251   0.0000092319
       -0.0000032976   0.0000147800   0.0000513103  -0.0000273642  -0.0000376116
        0.0000129197  -0.0000143149  -0.0000154286  -0.0000355983  -0.0000138044
       -0.0000063782  -0.0000162326   0.0000031786  -0.0000361832  -0.0000006039
       -0.0000095799  -0.0000673521   0.0000251402  -0.0000108341   0.0000735543
       -0.0000254679   0.0000233974   0.0000032032   0.0000058055  -0.0000000171
       -0.0000030366   0.0000046616  -0.0000019438  -0.0000034901  -0.0000000955
       -0.0000036127  -0.0000001540  -0.0000039417  -0.0000021902   0.0000021185
       -0.0000036403   0.0000021278   0.0000000944   0.0000031033   0.0000025757
        0.0000020704   0.0000027030   0.0000004717   0.0000021874   0.0000041900
        0.0000019177  -0.0000015673   0.0000001021   0.0000012471  -0.0000039155
       -0.0000010052   0.0000026489  -0.0000031910   0.0000004935   0.0000041170
        0.0000026035  -0.0000005897   0.0000022627   0.0000025161   0.0000026529
        0.0000042058  -0.0000004781   0.0000067473   0.0000031875  -0.0000024978
        0.0000075382  -0.0000003251   0.0000011732  -0.0000056075   0.0000018954
        0.0000031110  -0.0000082145  -0.0000035677   0.0000326678  -0.0000161638
       -0.0000055322  -0.0000083513  -0.0000103459  -0.0000045063   0.0000142070
       -0.0000074158   0.0000119384   0.0000637075  -0.0002370890  -0.0000923162
       -0.0000879669   0.0000035184  -0.0001471832  -0.0000368739   0.0000206710
       -0.0000456212  -0.0004365504  -0.0003458936  -0.0005768170
       -0.0441034136  -0.0164544068   0.4825562167  -0.0455351837  -0.0225053786
       -0.1031985262  -0.0188440026  -0.0033743812  -0.0218828563   0.0035646859
        0.0032769846   0.0076313185   0.0015573178  -0.0008133680  -0.0005198481
       -0.0009826637  -0.0002030099   0.0002440778   0.0002202019   0.0004618188
        0.0000517492  -0.0000107645   0.0002948014  -0.0003483064   0.0018016595
        0.0001640420  -0.0014412668  -0.0008262329   0.0001602216   0.0003139398
        0.0001174477  -0.0000433515   0.0002059360  -0.0000672111  -0.0000187939
       -0.0000160532  -0.0000530602  -0.0000776972   0.0000056823   0.0000345815
        0.0000770051  -0.0000401272   0.0003108346  -0.0002143824   0.0001054890
       -0.0002336474   0.0002503945  -0.0000892373  -0.0001579511  -0.0000388175
        0.0000107389  -0.0000099691   0.0000301443  -0.0000048224   0.0000249670
       -0.0000541695  -0.0000066312  -0.0000959053   0.0001860266  -0.0000127499
        0.0000310954  -0.0000113800   0.0000091026  -0.0000492563  -0.0000299194
        0.0000014154   0.0000667666   0.0000165316   0.0000017570  -0.0000383840
       -0.0000197909   0.0000307644   0.0000680301   0.0000470200  -0.0000115794
       -0.0000459781   0.0000277613   0.0000013119  -0.0000473727   0.0000749955
        0.0000005754   0.0000275345  -0.0001303732  -0.0001456695   0.0000653317
       -0.0000266184   0.0001087148   0.0000611214  -0.0001082049  -0.0000184790
       -0.0000389024   0.0000450978  -0.0000117569  -0.0000281240   0.0000339070
       -0.0000035001  -0.0001063794   0.0001168713  -0.0000534804   0.0000460784
       -0.0000682477   0.0000058369   0.0000155924   0.0000164122  -0.0000083931
       -0.0000227383  -0.0000089168   0.0000034222  -0.0000758486   0.0001477955
        0.0000414491  -0.0000269561   0.0000407264   0.0000025201  -0.0000362564
        0.0000485527   0.0000083728   0.0000815260  -0.0000884141   0.0000249469
        0.0000006471  -0.0000848421  -0.0000973812   0.0001202142  -0.0000453557
        0.0001476880  -0.0000130030  -0.0000453711  -0.0000034284  -0.0000633021
       -0.0000235162   0.0000022469   0.0001119426  -0.0003056244  -0.0000310925
        0.0000107430   0.0001786822   0.0000132394  -0.0000156506  -0.0000560986
        0.0000432965   0.0000193451   0.0000696652  -0.0000293113   0.0010920447
        0.0001233687  -0.0017635935   0.0002022913  -0.0004785101   0.0003631130
        0.0000184447  -0.0001374539   0.0000349900  -0.0001359153  -0.0001922716
        0.0004246037  -0.0001103431  -0.0000313220   0.0000934711  -0.0067529998
       -0.0120267045  -0.0095557954   0.1010311201   0.0101628762  -0.0949279190
       -0.0147938572   0.1174180186  -0.1818911382   0.0239436415  -0.0761800100
       -0.0727797693  -0.0014432751   0.0028406999  -0.0043382086  -0.0006126479
       -0.0008405731   0.0007935714   0.0002190588  -0.0008814198   0.0008242922
        0.0005937456  -0.0000155568   0.0000953601  -0.0000011674   0.0000031275
       -0.0000103336   0.0000608906   0.0000205438   0.0000403050   0.0001183085
        0.0000516575  -0.0000946388   0.0000254666   0.0000321194  -0.0000181033
        0.0000068721  -0.0000010756   0.0000054601  -0.0000246581   0.0000137647
       -0.0000062628  -0.0000202131   0.0000173855  -0.0000032435   0.0000341288
        0.0000142817  -0.0000072324   0.0000063965  -0.0000112035  -0.0000025484
        0.0000001866   0.0000065228   0.0000056351  -0.0000058181   0.0000011525
       -0.0000100077   0.0000009554  -0.0000085313  -0.0000051827   0.0000069900
       -0.0000126653   0.0000012058  -0.0000042944   0.0000073848   0.0000023249
       -0.0000009968  -0.0000088106  -0.0000030130   0.0000038080  -0.0000038234
        0.0000138975  -0.0000036917   0.0000046072   0.0000026785   0.0000057155
       -0.0000008472  -0.0000075454   0.0000103721  -0.0000000014   0.0000078672
        0.0000084958  -0.0000098214   0.0000064605   0.0000072994   0.0000028805
        0.0000115709   0.0000020586   0.0000108650   0.0000133302  -0.0000047219
        0.0000071548  -0.0000068354   0.0000158226  -0.0000092408   0.0000029127
        0.0000027147   0.0000027596  -0.0000059613   0.0000207871  -0.0000187264
       -0.0000077396   0.0000103705   0.0000040149  -0.0000094552   0.0000270276
        0.0000000628   0.0000171991   0.0000321543  -0.0000739808  -0.0000323997
       -0.0000636758  -0.0000154870  -0.0000667591  -0.0000463957   0.0000121237
       -0.0000512454  -0.0003120044  -0.0007143636  -0.0007526292
       -0.1119682680  -0.0256934604  -0.0455351837   0.4660063236  -0.0137699122
       -0.0322203972  -0.0594651004   0.0120178283  -0.0093455173  -0.1549093600
       -0.0083842554   0.0559474161  -0.0173866137   0.0087640501   0.0114258449
        0.0034905122   0.0017789152   0.0021550134  -0.0008459396  -0.0006164472
        0.0001117129   0.0015118117  -0.0023775476   0.0018635830  -0.0160370673
       -0.0104713997   0.0088397682  -0.0006735583   0.0033974603  -0.0008245315
       -0.0004349139  -0.0001128408  -0.0003159735   0.0001211208   0.0001927793
        0.0000345346   0.0000584543   0.0001216382  -0.0000312575  -0.0000637877
       -0.0001166818   0.0000387358  -0.0004136058   0.0001781344  -0.0001320367
        0.0003023925  -0.0002724390   0.0001164787   0.0001897184   0.0000635193
       -0.0000369281   0.0000649750   0.0000040127   0.0000206488  -0.0000548530
        0.0000965139   0.0000034089   0.0001453530  -0.0003335359   0.0000109048
        0.0000516926   0.0002250365  -0.0000213064  -0.0000306416  -0.0001569532
       -0.0000008563  -0.0000904085  -0.0000592695  -0.0000047279   0.0000899141
        0.0000813682  -0.0000791133  -0.0000946452  -0.0000719047   0.0000032075
        0.0000688643  -0.0000322318   0.0000008020   0.0000650025  -0.0000861011
       -0.0000040333  -0.0000381106   0.0001514249   0.0001608052  -0.0001027845
        0.0000655102  -0.0001397840  -0.0000855037   0.0001545537  -0.0000011945
        0.0000542162  -0.0000847412   0.0000003025   0.0000633088  -0.0000708887
        0.0000085617   0.0001452244  -0.0001604777   0.0000838370  -0.0000455396
        0.0000827928  -0.0000100954  -0.0000151521  -0.0000294065   0.0000158717
        0.0000478132   0.0000139549   0.0000689100   0.0001019127  -0.0002029004
       -0.0000655393   0.0000580685  -0.0000789865  -0.0000091711   0.0000629797
       -0.0000680399   0.0000005750  -0.0001118891   0.0001376934  -0.0000218689
       -0.0000299775   0.0001387872   0.0001193796  -0.0001464856   0.0000632715
       -0.0001653683   0.0000198957   0.0000712308   0.0000406124   0.0000783246
        0.0000466071   0.0000042820  -0.0002107705   0.0005597433   0.0000402286
        0.0000176784  -0.0003214052  -0.0000235958   0.0000047579   0.0000971947
       -0.0001033339  -0.0000050107   0.0000110746   0.0000516548   0.0068195775
       -0.0109137403  -0.0042749551  -0.0004137602  -0.0031727079   0.0027572257
       -0.0003364196  -0.0002321982  -0.0000972495  -0.0023704462  -0.0003981206
        0.0049998367  -0.0101135361   0.0222669677   0.0102098206  -0.0731459444
        0.0346582963   0.0187232977  -0.0233495062  -0.0100102459  -0.0158392866
       -0.0040556262  -0.0005830629  -0.0051281927   0.0035253445   0.0002879204
        0.0030067198  -0.0030433494   0.0119566490  -0.0162698585   0.0005019556
       -0.0151396739   0.0198508918  -0.0012066837   0.0063359896  -0.0066106256
       -0.0005305878  -0.0008716575  -0.0015218428  -0.0002146146  -0.0001923718
        0.0001259397  -0.0001047968   0.0000830794  -0.0007303325  -0.0003014765
        0.0001338863   0.0002383668   0.0000018822  -0.0000261089   0.0000333450
        0.0000084904  -0.0000181720  -0.0000107165   0.0000444721  -0.0000407139
        0.0000042402   0.0000274712  -0.0000364426  -0.0000066513  -0.0000515760
       -0.0000415412   0.0000175900  -0.0000243064   0.0000142053  -0.0000022801
       -0.0000007196  -0.0000187591  -0.0000063532   0.0000125528  -0.0000076581
        0.0000266533  -0.0000000705   0.0000202180   0.0000257623  -0.0000239617
        0.0000314397   0.0000062433   0.0000122339  -0.0000158165  -0.0000060517
       -0.0000082630   0.0000163662   0.0000100143  -0.0000105751   0.0000248873
       -0.0000260150   0.0000010623  -0.0000173459   0.0000002526  -0.0000146951
       -0.0000314077   0.0000195795  -0.0000176880   0.0000069359  -0.0000170600
       -0.0000251821   0.0000289653  -0.0000173620  -0.0000218565   0.0000035484
       -0.0000339303  -0.0000091088  -0.0000218383  -0.0000322503   0.0000072167
       -0.0000195393   0.0000235978  -0.0000279211   0.0000150111  -0.0000104425
        0.0000018667   0.0000027442  -0.0000021622  -0.0000454831   0.0000286767
        0.0000117881  -0.0000044058  -0.0000121243   0.0000219539  -0.0000417484
       -0.0000673309  -0.0000196680   0.0001436796  -0.0007674493  -0.0002136130
       -0.0003400742   0.0001371702  -0.0005795129  -0.0005707178   0.0010584776
        0.0006166867  -0.0002430326   0.0006013233  -0.0013486596
       -0.0212902685  -0.0689437775  -0.0225053786  -0.0137699122   0.4609683437
        0.0180878233   0.0075357897  -0.1002351673   0.0495436459  -0.0031260531
       -0.0642332429  -0.0006913377   0.0188327253   0.0026847259  -0.0100906776
        0.0023439126  -0.0031068767  -0.0033844023  -0.0004755069  -0.0007314352
        0.0002145478  -0.0022712163  -0.0039215703  -0.0006853391  -0.0214050075
       -0.0024690797   0.0109604941   0.0034478021   0.0028897554  -0.0006342558
       -0.0001079357  -0.0004496473   0.0001382716   0.0001066278   0.0000987546
       -0.0000331148   0.0001470285   0.0001548026   0.0000330287  -0.0001064908
       -0.0001885114   0.0000822730  -0.0006988253   0.0002931862  -0.0002162168
        0.0004998748  -0.0004436984   0.0002026435   0.0003321584   0.0001149991
       -0.0000649338   0.0000989692  -0.0000143061   0.0000341821  -0.0000882435
        0.0001602348   0.0000071883   0.0002439978  -0.0005907933   0.0000151848
        0.0000613508   0.0003379246  -0.0000369826  -0.0000214420  -0.0002138316
       -0.0000002425  -0.0001606870  -0.0000983905  -0.0000080616   0.0001448800
        0.0001261251  -0.0001314578  -0.0001656036  -0.0001267904   0.0000073138
        0.0001123232  -0.0000492997   0.0000007149   0.0001034713  -0.0001454388
        0.0000005714  -0.0000632639   0.0002531331   0.0002618726  -0.0001773653
        0.0001116240  -0.0002344272  -0.0001482438   0.0002635522  -0.0000032135
        0.0000920377  -0.0001427685  -0.0000010095   0.0001072248  -0.0001234814
        0.0000107071   0.0002453615  -0.0002698495   0.0001409339  -0.0000759939
        0.0001338901  -0.0000160750  -0.0000305724  -0.0000514441   0.0000281832
        0.0000778094   0.0000240030   0.0001141272   0.0001737730  -0.0003411560
       -0.0001113391   0.0001000742  -0.0001341860  -0.0000139422   0.0001077052
       -0.0001141865   0.0000016888  -0.0001924695   0.0002319419  -0.0000354133
       -0.0000537744   0.0002322317   0.0002011053  -0.0002430201   0.0001075708
       -0.0002770019   0.0000356186   0.0001188311   0.0000676387   0.0001391061
        0.0000820947   0.0000069498  -0.0003689242   0.0009722798   0.0000779671
        0.0000432123  -0.0005589562  -0.0000425012   0.0000767099   0.0001580489
       -0.0000954424   0.0001221571   0.0001684028  -0.0000668735   0.0000296564
       -0.0290028627  -0.0069241400  -0.0032557589  -0.0017275448   0.0002894443
       -0.0004022966  -0.0013165927   0.0000441728  -0.0009084577   0.0036298346
       -0.0000783191   0.0121931679  -0.0058041615  -0.0079178313   0.0294321272
       -0.1588499026  -0.0387198266  -0.0035201700  -0.0014146668  -0.0013335844
        0.0113298630   0.0054374622   0.0105834980  -0.0174446527  -0.0123446698
       -0.0183300698   0.0000511468   0.0048368691  -0.0047874930  -0.0015328661
       -0.0034649906   0.0045735314   0.0039994959  -0.0217374629   0.0202800235
        0.0004644471   0.0000401658   0.0003148212   0.0012048554  -0.0002905445
       -0.0007783260   0.0002395514  -0.0000693925   0.0001342624  -0.0009800246
       -0.0001374039   0.0005117144  -0.0000432729  -0.0000759337   0.0000988429
       -0.0000091617  -0.0000503189  -0.0000149242   0.0000724859  -0.0000633746
        0.0000074456   0.0000466365  -0.0000577234  -0.0000106785  -0.0000896020
       -0.0000625314   0.0000252597  -0.0000357235   0.0000278114  -0.0000055095
        0.0000002211  -0.0000319241  -0.0000114843   0.0000222590  -0.0000133782
        0.0000448087   0.0000005195   0.0000326015   0.0000424676  -0.0000382444
        0.0000519884   0.0000104312   0.0000224119  -0.0000249741  -0.0000098966
       -0.0000111538   0.0000271400   0.0000160747  -0.0000151895   0.0000409821
       -0.0000440047   0.0000044662  -0.0000275739  -0.0000005661  -0.0000233207
       -0.0000519406   0.0000329558  -0.0000276940   0.0000111276  -0.0000285066
       -0.0000408852   0.0000476670  -0.0000285861  -0.0000353153   0.0000053079
       -0.0000557630  -0.0000147636  -0.0000366482  -0.0000521614   0.0000139825
       -0.0000298125   0.0000399034  -0.0000456082   0.0000276778  -0.0000183452
        0.0000025648   0.0000044106  -0.0000033893  -0.0000767964   0.0000609458
        0.0000197566   0.0000014483   0.0000096491   0.0000340769  -0.0000604756
       -0.0000564232  -0.0000039281   0.0003378697  -0.0006425548  -0.0003561567
       -0.0000375271   0.0002122632   0.0003585983  -0.0003620241   0.0001706954
        0.0002353351  -0.0007490736  -0.0002778639   0.0009566484
       -0.0500419451  -0.0287756578  -0.1031985262  -0.0322203972   0.0180878233
        0.4362268415  -0.0048761479   0.0559217726  -0.1241487901   0.0568324170
        0.0021708964  -0.0842885523   0.0135466397  -0.0043166437  -0.0089147152
        0.0023676725  -0.0030432183   0.0047738833   0.0001443297   0.0002533642
       -0.0004754964   0.0019646315  -0.0006249669   0.0045170155   0.0066297232
        0.0050058255   0.0006648823  -0.0007953118  -0.0006715664  -0.0032111764
       -0.0003188436   0.0001580884  -0.0006968819   0.0001502206   0.0001022513
        0.0000151144  -0.0000648874   0.0000129846  -0.0000637167   0.0000152078
        0.0000248235  -0.0000112167   0.0000629302   0.0000169021   0.0000102431
       -0.0000393042  -0.0000035740  -0.0000059208  -0.0000100158   0.0000032005
        0.0000062495  -0.0000338683  -0.0000318844  -0.0000013239   0.0000116186
       -0.0000214584  -0.0000031667  -0.0000305393   0.0000403629  -0.0000064578
       -0.0000542586  -0.0001179127   0.0000070594   0.0000443793   0.0001017017
        0.0000022138   0.0000124687   0.0000258497   0.0000013840  -0.0000292716
       -0.0000304694   0.0000187439   0.0000160731   0.0000254966  -0.0000004648
       -0.0000282563   0.0000232417   0.0000000584  -0.0000300018   0.0000485441
        0.0000013619   0.0000142055  -0.0000829029  -0.0000929281   0.0000329606
       -0.0000149999   0.0000577307   0.0000292440  -0.0000570738  -0.0000109255
       -0.0000215510   0.0000277870  -0.0000069815  -0.0000170047   0.0000172559
       -0.0000081878  -0.0000573304   0.0000639626  -0.0000280839   0.0000248555
       -0.0000371743   0.0000020012   0.0000063849   0.0000098884  -0.0000059157
       -0.0000118713  -0.0000038997  -0.0000174356  -0.0000423711   0.0000792084
        0.0000223830  -0.0000123703   0.0000247549   0.0000043664  -0.0000211770
        0.0000239130   0.0000038064   0.0000458599  -0.0000462287   0.0000130007
        0.0000016590  -0.0000467616  -0.0000512469   0.0000720542  -0.0000296626
        0.0000939520  -0.0000059794  -0.0000120825  -0.0000134339  -0.0000049976
       -0.0000088619  -0.0000009642   0.0000238627  -0.0000839086  -0.0000068022
        0.0000082274   0.0000688422   0.0000029309  -0.0000701576  -0.0000017168
       -0.0000553836  -0.0000464963  -0.0002224660   0.0000635870  -0.0020787275
       -0.0009386057   0.0043439163   0.0027209802   0.0001580807   0.0042490205
       -0.0000714248  -0.0000340407  -0.0004176029   0.0049203023  -0.0005580368
        0.0038667640   0.0079633287  -0.0135998338  -0.0077145955   0.0177236392
       -0.0414899412  -0.0712288591   0.0068990714   0.0030569101   0.0068356565
       -0.0170524192  -0.0062625088  -0.0178250846  -0.0084580689  -0.0068305318
       -0.0091061208  -0.0043487069   0.0120820086  -0.0182279960   0.0012492242
        0.0114368235  -0.0149541248   0.0007247925  -0.0025410872   0.0049922480
       -0.0012357316   0.0010947795  -0.0019359699   0.0004162707   0.0000326941
       -0.0001556171  -0.0007090773   0.0002247550  -0.0009709057   0.0000191486
       -0.0001430787   0.0000726900   0.0000045094   0.0000468781  -0.0000283741
        0.0000099512   0.0000311184   0.0000052999  -0.0000075351   0.0000124870
        0.0000006126  -0.0000021738   0.0000083349   0.0000017568   0.0000115526
        0.0000115161  -0.0000065225   0.0000044907  -0.0000036231  -0.0000007224
        0.0000009686   0.0000026154   0.0000032256  -0.0000020584   0.0000014479
       -0.0000046182   0.0000006252  -0.0000054548  -0.0000031267   0.0000049026
       -0.0000076673   0.0000000906  -0.0000037787   0.0000032893   0.0000022131
        0.0000014021  -0.0000046979  -0.0000020604   0.0000025623  -0.0000060212
        0.0000076719  -0.0000010390   0.0000042437   0.0000013786   0.0000044607
        0.0000083546  -0.0000040160   0.0000049471  -0.0000018634   0.0000033547
        0.0000049431  -0.0000078408   0.0000048645   0.0000048004  -0.0000002535
        0.0000083080   0.0000022388   0.0000042270   0.0000091877  -0.0000026196
        0.0000037886  -0.0000042194   0.0000060827  -0.0000042253   0.0000031001
       -0.0000015240  -0.0000022440  -0.0000002757   0.0000132824  -0.0000077418
       -0.0000007577  -0.0000152716  -0.0000190909   0.0000045442  -0.0000226368
       -0.0000114189  -0.0000036776   0.0000630819   0.0002765545   0.0001403512
       -0.0006075115   0.0002850834  -0.0010173203   0.0002930928  -0.0005805795
       -0.0002230667  -0.0016276174   0.0002207466  -0.0019047351
       -0.0048444716   0.0101387385  -0.0188440026  -0.0594651004   0.0075357897
       -0.0048761479   0.5233770048   0.0045662438  -0.0125250031  -0.0026336303
       -0.0150099145   0.0196975051  -0.0006293205  -0.0001137710   0.0012831661
        0.0002544054   0.0000407986  -0.0009172015  -0.0002112489  -0.0004088228
        0.0000474100  -0.0009010907  -0.0003675440  -0.0005783758  -0.0027985533
        0.0011412763   0.0021941245   0.0008108282  -0.0005230012  -0.0006260155
        0.0001124957   0.0000340807   0.0001089303  -0.0000299358  -0.0000274381
       -0.0000204375   0.0000145953   0.0000073357   0.0000011870  -0.0000251278
       -0.0000218241  -0.0000041692  -0.0000852847   0.0000843495  -0.0000296043
        0.0000735377  -0.0000915969   0.0000312848   0.0000413541   0.0000039661
       -0.0000055936   0.0000029258   0.0000012885   0.0000028698  -0.0000013010
        0.0000138947  -0.0000007238   0.0000150062  -0.0000466809   0.0000002647
        0.0000234512   0.0000563924  -0.0000020280  -0.0000174103  -0.0000499417
       -0.0000002907  -0.0000111979  -0.0000121893  -0.0000001791   0.0000137769
        0.0000142527  -0.0000129123  -0.0000172683  -0.0000134902   0.0000015496
        0.0000074568   0.0000031454  -0.0000008397   0.0000093632  -0.0000121250
       -0.0000022372  -0.0000075014   0.0000215270   0.0000222507  -0.0000205765
        0.0000112071  -0.0000265766  -0.0000197258   0.0000295598  -0.0000003082
        0.0000105505  -0.0000170946   0.0000000855   0.0000112502  -0.0000151047
       -0.0000000434   0.0000295171  -0.0000309687   0.0000193313  -0.0000092940
        0.0000189253  -0.0000023650  -0.0000020176  -0.0000047232   0.0000030172
        0.0000104350   0.0000034215  -0.0000007663   0.0000182207  -0.0000407343
       -0.0000137257   0.0000125298  -0.0000144756   0.0000008777   0.0000123727
       -0.0000155777   0.0000012431  -0.0000208795   0.0000307053  -0.0000034198
       -0.0000041901   0.0000271517   0.0000235053  -0.0000215126   0.0000099603
       -0.0000194408   0.0000061101   0.0000141680  -0.0000003755   0.0000148013
        0.0000102798  -0.0000013694  -0.0000248440   0.0000855549   0.0000057009
       -0.0000056170  -0.0000441335  -0.0000074182   0.0000225751   0.0000245483
       -0.0000010536   0.0000386869   0.0000283301  -0.0000364323  -0.0012596680
        0.0005645628   0.0001887379   0.0001453132   0.0001620842   0.0003278418
        0.0002216427   0.0003173603  -0.0000437899   0.0003684118  -0.0006459302
       -0.0001724916  -0.0009105333   0.0004982544   0.0008771881   0.0005272930
        0.0067392473  -0.0056725632   0.0008278201   0.0007907442  -0.0004165318
       -0.0026484017  -0.0008169316  -0.0036744919   0.0005045942   0.0004479219