$hessian                                                                        
        0.1214816606   0.0804000380  -0.0118620748  -0.0473811190  -0.0091446203
        0.0192524922   0.0006972676  -0.0040912355   0.0048438149  -0.0060574176
        0.0023301730  -0.0012756360  -0.0005250823  -0.0008112044   0.0005319717
       -0.0000445319   0.0003610289  -0.0002293882  -0.0000511336  -0.0000023085
        0.0000163504  -0.0000492938   0.0000209021   0.0000151979   0.0000436406
       -0.0000386011   0.0000202553  -0.0000315035   0.0000570495   0.0000271240
        0.0001129563  -0.0000655098  -0.0000089578  -0.0001275777   0.0001718915
        0.0001942495   0.0002771888  -0.0000408904  -0.0001497878  -0.0000203267
       -0.0001003525  -0.0003374529  -0.0002370285   0.0000350528   0.0000135808
        0.0001972048  -0.0000656744   0.0003714302  -0.0000976213   0.0004470546
       -0.0005094588  -0.0002276515  -0.0005445971   0.0002395421   0.0000964179
        0.0002368890  -0.0002588043  -0.0003705384  -0.0004854483  -0.0001289456
        0.0005853181   0.0003157250  -0.0001094979  -0.0004857838  -0.0004384481
        0.0004474311   0.0001028212   0.0005673967   0.0001284762  -0.0000796306
       -0.0001334178   0.0000027840   0.0000131373   0.0000088864   0.0000464927
        0.0000275234   0.0000264484  -0.0000088353  -0.0000306204  -0.0000049442
        0.0000222669   0.0000402360  -0.0000211239  -0.0000282683  -0.0000314714
       -0.0000003943   0.0000587093   0.0002472211  -0.0080356847  -0.0014421251
       -0.0485446483  -0.0203784920  -0.0188380645  -0.0374042736  -0.0376863531
        0.0092511844   0.0010728287   0.0004213584  -0.0023781855   0.0078077922
       -0.0020364853   0.0005479744   0.0000143605   0.0000173887  -0.0000169177
       -0.0000000658   0.0000124789  -0.0000029225  -0.0000013088   0.0000079930
       -0.0000101241   0.0000141769  -0.0000082837   0.0000014839   0.0000276845
       -0.0000417470   0.0000542387  -0.0000139271  -0.0000153983   0.0000282588
        0.0000168512  -0.0000132745   0.0000002509  -0.0000028489  -0.0000279561
       -0.0000243305  -0.0000168615   0.0000077953   0.0000157542   0.0000448553
       -0.0000640408   0.0000159089  -0.0000062363   0.0000117774  -0.0000158733
       -0.0000191494  -0.0000153307   0.0000473648   0.0000090118  -0.0000045887
       -0.0000013767  -0.0000029026  -0.0000023449  -0.0000067636   0.0000024565
        0.0000004137   0.0000012896  -0.0000104476  -0.0000016099  -0.0000086884
        0.0000089785  -0.0000044787  -0.0000046548   0.0078315227  -0.0020780168
        0.0003048900   0.0010978895   0.0009451144   0.0011563664
        0.0804000380   0.6505100897  -0.0097106116  -0.0101974643  -0.1065254984
        0.0952105857  -0.0019399071  -0.0138061131   0.0288800254   0.0025519445
        0.0093823770  -0.0137487859  -0.0034299024  -0.0069287310   0.0023600537
       -0.0007064253   0.0023708870  -0.0021216328  -0.0001700264  -0.0006095225
        0.0003155403  -0.0008943542   0.0000900950  -0.0001027805   0.0005841044
       -0.0001739365   0.0001768419  -0.0002394016   0.0006141136   0.0001133600
        0.0009836720  -0.0000619541   0.0004775299  -0.0004948644   0.0005868028
        0.0011603131   0.0011465456  -0.0001174817  -0.0003109997   0.0002186756
       -0.0002656746  -0.0016998538  -0.0017517428  -0.0000682340  -0.0004829705
        0.0014238060  -0.0002760414   0.0032859767   0.0011601318  -0.0001869578
       -0.0024517651  -0.0011948674  -0.0011169779   0.0024277715   0.0001193537
        0.0002594423  -0.0015982559   0.0002855376  -0.0003208841   0.0000363516
       -0.0003229116   0.0010405499  -0.0013364530   0.0004252493  -0.0011147100
        0.0014589076   0.0001895755   0.0017036654   0.0001190804  -0.0000975282
        0.0000356548  -0.0014652235  -0.0007728473   0.0003489287   0.0009159933
        0.0004010001   0.0003688883  -0.0000016453  -0.0004905680   0.0000617491
        0.0002256337   0.0007989019  -0.0002311564  -0.0002356163  -0.0004468480
       -0.0008172020   0.0007030901  -0.0079114448  -0.0615069155  -0.0026573384
       -0.0182022795  -0.1915700911  -0.1477385218  -0.0379342511  -0.2811494850
        0.0599117988   0.0008935674   0.0044051870  -0.0203268265  -0.0023775696
       -0.0052343553   0.0018406744   0.0000713906   0.0001010843  -0.0000980328
       -0.0000073435   0.0000652009  -0.0000503448  -0.0000172222   0.0000590546
       -0.0000127074   0.0000522937  -0.0000141844  -0.0000377280   0.0002244201
        0.0000696035   0.0001883299  -0.0000271898  -0.0001671937   0.0001420818
        0.0000542668  -0.0001096423   0.0000660200  -0.0000685202  -0.0000879194
        0.0000517244  -0.0000477034   0.0000891008   0.0000177321  -0.0000054061
       -0.0001034551   0.0000383458  -0.0002120744   0.0001424742  -0.0000031507
       -0.0000866213  -0.0000640026   0.0000322572   0.0000285344   0.0000486843
       -0.0000323599  -0.0000328185   0.0000136641  -0.0000686710   0.0000238890
        0.0000284213   0.0000140898  -0.0000408424   0.0000315255  -0.0001032662
        0.0000375103   0.0000593214  -0.0000859494  -0.0020053542  -0.0050106272
        0.0015714231   0.0000518921   0.0051523817   0.0047399588
       -0.0118620748  -0.0097106116   0.6248823930   0.0076227158   0.0129139124
       -0.2946437862   0.0132900254   0.0873905570  -0.0142304949  -0.0022723838
       -0.0120871703  -0.0402725865   0.0026059826   0.0010141619   0.0014093121
       -0.0007619066  -0.0000971771  -0.0015608500   0.0004128076  -0.0008489801
        0.0004906805  -0.0006977642   0.0000421873  -0.0000619661   0.0004113033
       -0.0001419202   0.0000463967  -0.0003713591   0.0005199536  -0.0000777756
        0.0003754112  -0.0001350373   0.0006892107  -0.0001192795  -0.0008473785
       -0.0011561949  -0.0012166487   0.0003340804   0.0001817932   0.0002132742
        0.0004157709   0.0013508681   0.0006672282  -0.0000082633  -0.0005113572
        0.0001525496   0.0001690230  -0.0006280890  -0.0007767529  -0.0006619880
        0.0023985351   0.0009254120   0.0020060350   0.0021888181   0.0003200817
       -0.0011749433  -0.0007440746   0.0003489446   0.0028067979   0.0016935727
       -0.0005398139  -0.0012372540  -0.0039044059   0.0001575786  -0.0013963270
        0.0025323475  -0.0018652368  -0.0001859955  -0.0023631583   0.0003558306
        0.0003171050  -0.0010504665  -0.0002749359   0.0000989119   0.0002565595
        0.0001650894   0.0001284825   0.0000250019  -0.0002251870   0.0000187172
        0.0000387898   0.0003595550  -0.0000425294  -0.0000361123  -0.0001883460
       -0.0003501563   0.0001752924  -0.0089599029  -0.0613440640   0.0352837831
       -0.0070375922  -0.0660713322  -0.2063045394   0.0091455439   0.0599469516
       -0.0590075766   0.0018509672   0.0033840445  -0.0241471678  -0.0005374836
        0.0014619700   0.0010725965  -0.0000158912  -0.0000265258  -0.0000706859
        0.0000002735  -0.0000094395  -0.0000174706  -0.0000099253   0.0000089558
        0.0000467092   0.0000099208   0.0000302705  -0.0000560122   0.0000365476
        0.0003407266  -0.0001477644  -0.0000261884   0.0000043789   0.0000602620
       -0.0000383334  -0.0001438005   0.0000815480  -0.0001814212   0.0000565694
        0.0000682728   0.0001987840   0.0000209354  -0.0000991799  -0.0000095056
        0.0000068207  -0.0000338501  -0.0002649715  -0.0000982663  -0.0000251076
        0.0003194562  -0.0000068583  -0.0000018453  -0.0000197211   0.0000428807
       -0.0000346440  -0.0000043599   0.0000087196  -0.0000112493  -0.0000003770
       -0.0000021792   0.0000067174   0.0000092504  -0.0000066468  -0.0000026730
       -0.0000090013  -0.0000095449  -0.0000295375   0.0012028061   0.0020599264
        0.0010764215  -0.0028709760  -0.0189044569  -0.0248252601
       -0.0473811190  -0.0101974643   0.0076227158   0.1261633866   0.0816050418
       -0.0089131520  -0.0513625407  -0.0433147116   0.0161707285   0.0021466784
       -0.0092439326  -0.0080926782   0.0049532324   0.0003794480  -0.0008369620
       -0.0002492368  -0.0013696496   0.0006817591   0.0003155714  -0.0000258307
        0.0001129237   0.0001639705  -0.0000429818  -0.0000824588  -0.0001250715
       -0.0000378156  -0.0000513281  -0.0000595422   0.0000798439  -0.0001382794
       -0.0004168331  -0.0001490597  -0.0000014388   0.0004814608  -0.0007912077
       -0.0004895311  -0.0005701715   0.0001953917   0.0003121280  -0.0002026689
        0.0003127591   0.0008040158   0.0010708991   0.0001647935   0.0004838142
       -0.0007431074  -0.0001194455  -0.0017750280  -0.0000052137   0.0001875592
        0.0011252311   0.0007869680   0.0008127922  -0.0001610393  -0.0001879546
       -0.0003435327   0.0002306978   0.0000366775   0.0006685449   0.0002776725
       -0.0005120264  -0.0004482711  -0.0001622544  -0.0007619084   0.0005587841
       -0.0000866832  -0.0012576817  -0.0009006148  -0.0004961332   0.0000300178
        0.0000482746   0.0002375866   0.0001282486  -0.0000490446  -0.0001775032
       -0.0000954454  -0.0000746274   0.0000024767   0.0001199597  -0.0000397666
       -0.0000568922  -0.0001963386   0.0000647374   0.0000665809   0.0000876232
        0.0000742167  -0.0001579183  -0.0060645966  -0.0034771324   0.0036171800
        0.0017596554   0.0075642354   0.0006469008   0.0003224702  -0.0017405836
        0.0042522211  -0.0361781330  -0.0165775667  -0.0156949477   0.0003349871
       -0.0023101597   0.0010358020  -0.0000190784  -0.0000217468   0.0000329171
        0.0000216266  -0.0000327475   0.0000163100  -0.0000033907  -0.0000085455
        0.0000437712   0.0000136607   0.0000025937  -0.0000023344  -0.0000774317
        0.0000133682  -0.0000545293  -0.0000458272   0.0000432332  -0.0000127804
       -0.0000569333  -0.0000180401   0.0000371501   0.0000146097   0.0000148284
       -0.0000010058   0.0000555060  -0.0000211703  -0.0000144971   0.0000473236
       -0.0000350906   0.0000159258   0.0000224040  -0.0001031918  -0.0000643196
        0.0001438402   0.0000110968  -0.0000088256  -0.0000095333   0.0000014271
        0.0000095149   0.0000222311  -0.0000068201   0.0000089423   0.0000054002
       -0.0000015643  -0.0000013914   0.0000175662   0.0000041676   0.0000270873
       -0.0000219717  -0.0000193662   0.0000239335  -0.0001011624   0.0000629055
        0.0000338935   0.0074389434  -0.0013483606  -0.0003959690
       -0.0091446203  -0.1065254984   0.0129139124   0.0816050418   0.6513396737
        0.0198406975  -0.0471541973  -0.3205931429   0.0938199353  -0.0096858365
       -0.0626227440  -0.0487302151   0.0038575360   0.0064867962  -0.0036634288
        0.0003534169  -0.0022735739   0.0009585305   0.0003387207   0.0001689682
        0.0001275233   0.0003518136  -0.0000923692  -0.0000025660  -0.0002298641
        0.0000329137  -0.0000754022   0.0000683180  -0.0000230949  -0.0001498048
       -0.0007708509  -0.0001052879  -0.0000714976   0.0004144458  -0.0015150584
       -0.0018749079  -0.0019346968   0.0003097468   0.0007645483  -0.0000140745
        0.0006814261   0.0025878044   0.0017882869  -0.0000548828  -0.0000697250
       -0.0008188197   0.0004373827  -0.0029619139  -0.0016058205  -0.0004679867
        0.0032176273   0.0016161524   0.0016455152  -0.0007910692   0.0001243433
       -0.0011641170   0.0006478486   0.0000165775   0.0019280724   0.0007186653
        0.0001850003  -0.0010757589  -0.0013739853  -0.0002180682   0.0004196495
        0.0007007768  -0.0013662728  -0.0013941522  -0.0011243535   0.0002940256
        0.0001580837   0.0007072373   0.0005517581  -0.0001985257  -0.0006085336
       -0.0002888196  -0.0001906456   0.0000284843   0.0002745228  -0.0000612610
       -0.0001056617  -0.0004847046   0.0001427748   0.0001454416   0.0003275147
        0.0004472355  -0.0005049389  -0.0043016390  -0.0257409493   0.0217488732
        0.0070087326   0.0474903044  -0.0004999373  -0.0023871457  -0.0106082050
        0.0281295717  -0.0163085987  -0.1647695315  -0.1259279564  -0.0018425009
       -0.0098704735   0.0048551959  -0.0000569193  -0.0000361852   0.0000677474
        0.0000287837  -0.0000372109   0.0000096983  -0.0000271476   0.0000021152
        0.0000461732  -0.0000387325  -0.0000053242   0.0000022215   0.0001039953
       -0.0001707533  -0.0000992681  -0.0000830913   0.0001691715  -0.0000343347
       -0.0000739915   0.0000311541  -0.0000262053  -0.0000134762   0.0000389017
        0.0000216444   0.0001487470  -0.0000366168   0.0000148221   0.0000784662
       -0.0001273264   0.0000578792   0.0000965173  -0.0002505435  -0.0001204367
        0.0002640814   0.0000030437   0.0000782487  -0.0000711911  -0.0000087614
        0.0000363222   0.0000596169  -0.0000393342   0.0000269669   0.0000255656
        0.0000038432  -0.0000284794   0.0000437370   0.0000247077   0.0000638406
       -0.0000493442  -0.0000485642   0.0000552577   0.0003521580   0.0002014986
        0.0005529332  -0.0014074517  -0.0020551000  -0.0041018077
        0.0192524922   0.0952105857  -0.2946437862  -0.0089131520   0.0198406975
        0.6408825364   0.0057728510   0.0174267728  -0.1018871108  -0.0005800149
       -0.0005416666   0.0312058473  -0.0051127390  -0.0094419265  -0.0013540452
        0.0002034446   0.0012555663  -0.0002101541  -0.0003288651   0.0001259883
       -0.0001518299  -0.0000608952   0.0000096326  -0.0000010416   0.0000401246
        0.0000395292   0.0000630604   0.0002115537  -0.0000361853   0.0001566216
        0.0003356425   0.0000357670  -0.0002063092  -0.0004794176   0.0003341076
        0.0016736647   0.0017898032  -0.0001346810  -0.0001019736  -0.0001379050
       -0.0004556822  -0.0023907369  -0.0017886850  -0.0001247570  -0.0000303616
        0.0009516685  -0.0004371893   0.0030029138   0.0016144081   0.0007187364
       -0.0042635631  -0.0016307030  -0.0024308246   0.0000239052  -0.0002219381
        0.0012069212  -0.0006289588  -0.0000801957  -0.0027084192  -0.0014319155
        0.0001286528   0.0015298440   0.0024236470   0.0002029612   0.0005939285
       -0.0007155022   0.0018833538   0.0014987877   0.0018819545  -0.0004369385
       -0.0003485540   0.0000152849  -0.0002867815   0.0001936232   0.0004294253
        0.0001290336   0.0001503120  -0.0000459094  -0.0001462063   0.0000294844
        0.0001158909   0.0002370577  -0.0001377165  -0.0001512958  -0.0001377205
       -0.0002830704   0.0003511538   0.0052949072   0.0297765794  -0.0156795087
       -0.0068796805  -0.0569133937  -0.0611778415   0.0010709329   0.0042717453
       -0.0087649041  -0.0165330681  -0.1261159236  -0.1759174968   0.0054002123
        0.0282608509  -0.0100592240   0.0000683457   0.0001103447  -0.0000190111
       -0.0000076469   0.0000504457  -0.0000172138  -0.0000039592   0.0000426401
       -0.0000464469   0.0000075060  -0.0000150459   0.0000207994   0.0002131275
       -0.0000409968   0.0002243033   0.0000232243  -0.0001367060   0.0000495789
        0.0000689308   0.0000566586  -0.0000252921   0.0001026622  -0.0000491505
       -0.0000409075  -0.0001677676  -0.0000232245  -0.0000138192  -0.0001069184
        0.0000886099   0.0000438381   0.0001922986  -0.0000309454  -0.0001311388
       -0.0004156198   0.0001144622  -0.0000029496   0.0000507719   0.0000032491
        0.0000083352  -0.0000123379   0.0000058826  -0.0000378104   0.0000202912
        0.0000175926   0.0000176625  -0.0000324718   0.0000244294  -0.0000676130
        0.0000430373   0.0000448997  -0.0000288001  -0.0005160797   0.0006283108
        0.0001570497  -0.0002915883  -0.0032909268  -0.0025030015
        0.0006972676  -0.0019399071   0.0132900254  -0.0513625407  -0.0471541973
        0.0057728510   0.1222122925   0.0832211818  -0.0207996669  -0.0427858515
       -0.0146834763  -0.0030244143  -0.0019978266  -0.0060284612  -0.0027659193
       -0.0009149849   0.0004354785  -0.0007002942   0.0001773162  -0.0000217494
       -0.0000682737  -0.0000499959  -0.0000260460  -0.0000056673  -0.0000440167
        0.0000998281  -0.0000255776   0.0001512220   0.0000342313  -0.0000388875
       -0.0002963159  -0.0001097644   0.0001485659   0.0008716816  -0.0020161064
        0.0003213336  -0.0000267447   0.0000560309   0.0002354155  -0.0004222503
        0.0000752574  -0.0001849779   0.0007428629   0.0002853302   0.0007949500
       -0.0006493367  -0.0001218353  -0.0013317465  -0.0007598638  -0.0001144350
        0.0005273506  -0.0011843140  -0.0005583405  -0.0006382029   0.0003728139
        0.0000841735   0.0002859315  -0.0002908096  -0.0007132896  -0.0005217387
        0.0001596495   0.0001313798   0.0016077901  -0.0009168755   0.0011723782
       -0.0013413032   0.0006707657  -0.0007926509   0.0006672924   0.0000206283
        0.0000400514   0.0000817589   0.0000214910  -0.0000049703  -0.0000431532
        0.0000038200  -0.0000206118   0.0000000344   0.0000186851  -0.0000127648
       -0.0000063904  -0.0000450556   0.0000112778   0.0000205796   0.0000083883
        0.0000397487  -0.0000554166   0.0017744601   0.0075231058  -0.0076097701
       -0.0064996133  -0.0076124584  -0.0027563064   0.0071547512  -0.0010285259
        0.0005518017   0.0003056238  -0.0032444596   0.0002734160  -0.0334705941
       -0.0065715409   0.0174018709  -0.0000048196   0.0001085380  -0.0000295848
        0.0000173974   0.0000059944   0.0000203331   0.0000040942   0.0000365209
        0.0000307878   0.0000225351   0.0000055383   0.0000074285  -0.0003502545
        0.0006743125  -0.0002754998  -0.0000373367   0.0000119442  -0.0000072636
       -0.0000396461  -0.0000034525   0.0000077411   0.0000514300  -0.0000142733
       -0.0000535611  -0.0000513716  -0.0000070547  -0.0000021254   0.0000118528
        0.0000163723  -0.0000090449   0.0001166204  -0.0000251793  -0.0000312329
       -0.0002852012   0.0000517092  -0.0000576194   0.0000004390  -0.0000122701
        0.0000001424  -0.0000036380   0.0000003543   0.0000029615  -0.0000076401
       -0.0000036026  -0.0000033320  -0.0000018687  -0.0000034022   0.0000073135
       -0.0000104436  -0.0000090299   0.0000098082   0.0071524376  -0.0012335630
        0.0004298504  -0.0002313162  -0.0000333191  -0.0001103635
       -0.0040912355  -0.0138061131   0.0873905570  -0.0433147116  -0.3205931429
        0.0174267728   0.0832211818   0.6304248502  -0.0302340153  -0.0167799602
       -0.1651735972  -0.0909944831  -0.0108342386  -0.0388219768  -0.0042804221
       -0.0010322682   0.0028703023  -0.0027490255  -0.0002395309  -0.0012709703
        0.0003903435  -0.0012023633   0.0000870275  -0.0000408288   0.0008218273
       -0.0000159458   0.0002481559  -0.0001676432   0.0005052997   0.0002974889
        0.0018737003  -0.0000598212   0.0004353537  -0.0014275882  -0.0002793601
        0.0017607488   0.0023787113  -0.0000660882  -0.0002538439  -0.0000793580
       -0.0006166539  -0.0038469757  -0.0041471230  -0.0008264880  -0.0019897469
        0.0033344083  -0.0008269202   0.0080470308   0.0018394813   0.0007751709
       -0.0073660083  -0.0027710954  -0.0025132877   0.0036424153  -0.0000144626
        0.0016029368  -0.0026886718   0.0002442051  -0.0022923998  -0.0003663706
       -0.0002980466   0.0018245786  -0.0005057538   0.0009012352  -0.0018870369
        0.0017500142   0.0014901296   0.0041005569   0.0006250512  -0.0002159321
       -0.0003783116  -0.0016191466  -0.0011639693   0.0006405126   0.0015733330
        0.0006686862   0.0006371442  -0.0001391229  -0.0008394576   0.0001798550
        0.0003136646   0.0013165289  -0.0004581034  -0.0004928477  -0.0006898468
       -0.0012044849   0.0012047652   0.0092378251   0.0378860891  -0.0364665603
       -0.0059137180  -0.0447207452  -0.0145699039  -0.0007623099   0.0005629143
        0.0017550039  -0.0036923581  -0.0242501247   0.0022892123  -0.0068124634
       -0.0623827103   0.0671847033   0.0001776342   0.0002229681  -0.0001546955
       -0.0000078477   0.0001004163  -0.0000819593   0.0000210747   0.0000856904
       -0.0000624785   0.0000800911   0.0000284911  -0.0000224234   0.0013970088
       -0.0001013764   0.0004576552   0.0000451745  -0.0003598064   0.0001804064
        0.0001818126  -0.0000073232  -0.0000435891  -0.0001248908  -0.0000782395
        0.0000563128  -0.0001919917  -0.0000232579  -0.0000318807  -0.0002004117
        0.0000596647   0.0000472796  -0.0002339241   0.0001588975   0.0000114700
       -0.0003950210  -0.0000265666   0.0001905144   0.0000959579   0.0000286850
       -0.0000705719  -0.0000835739   0.0000560085  -0.0001024147   0.0000055432
        0.0000060528   0.0000691710  -0.0000671616  -0.0000076346  -0.0001805509
        0.0001528945   0.0001053355  -0.0001282397  -0.0011414248   0.0002963996
        0.0023620207  -0.0005491843  -0.0001973606  -0.0002269137
        0.0048438149   0.0288800254  -0.0142304949   0.0161707285   0.0938199353
       -0.1018871108  -0.0207996669  -0.0302340153   0.6322782129  -0.0100592468
       -0.1204297362  -0.2002910716  -0.0050110231  -0.0123257290   0.0096248868
       -0.0011170096   0.0042177370  -0.0033167897  -0.0004314496  -0.0009362627
        0.0002499173  -0.0010795104   0.0001422428   0.0000027686   0.0006647607
       -0.0001620930   0.0001842370  -0.0002472415   0.0006863800   0.0001451699
        0.0014647863   0.0003499780   0.0004372381  -0.0001424660   0.0028155265
        0.0020516612   0.0016591902  -0.0006959490  -0.0015019613   0.0001925321
       -0.0004335596  -0.0015875156  -0.0014163425  -0.0000073204  -0.0000789963
        0.0008543728  -0.0003298138   0.0026088646   0.0002963698  -0.0001786870
       -0.0016965679  -0.0006424257   0.0007116205   0.0026198363   0.0000236496
       -0.0004570112  -0.0010939826   0.0002859937   0.0009283581   0.0005368681
       -0.0003419739   0.0002111290  -0.0024464148   0.0004953565  -0.0013380957
        0.0019700687  -0.0006419368   0.0008786097  -0.0007343778   0.0002086027
        0.0001793734  -0.0014056826  -0.0007279525   0.0004101545   0.0009125014
        0.0004167163   0.0004321913  -0.0000538969  -0.0005503199   0.0000665041
        0.0002022413   0.0008502191  -0.0002623128  -0.0002776373  -0.0004164484
       -0.0008372829   0.0006716775   0.0019974598  -0.0083848425  -0.0475150203
       -0.0014287088  -0.0057278314   0.0036457957   0.0005751087   0.0021338509
       -0.0053855545  -0.0027803012  -0.0210361827   0.0037020306   0.0160256149
        0.0657646350  -0.2739985424   0.0000443520   0.0000309719  -0.0001822943
       -0.0000447776   0.0000943573  -0.0000466944  -0.0000235348   0.0000525951
       -0.0000086141  -0.0000021664  -0.0000136464  -0.0000410283   0.0003162641
        0.0000822778   0.0004799727  -0.0000504088  -0.0001217350   0.0000995468
        0.0000809772  -0.0001075969   0.0001215514  -0.0001198957  -0.0000197415
       -0.0000239395   0.0000415187  -0.0000058272   0.0000493779  -0.0000429186
        0.0000157746  -0.0000314153  -0.0002487629  -0.0000035955   0.0000623629
        0.0003964936   0.0000154834  -0.0002217545   0.0000225228   0.0000390465
       -0.0000209159  -0.0000176568   0.0000078441  -0.0000689695   0.0000363310
        0.0000150008   0.0000229874  -0.0000165665   0.0000291176  -0.0000981581
        0.0000408548   0.0000233414  -0.0000774081   0.0009706416   0.0011503856
       -0.0052214179  -0.0005745205  -0.0001355798   0.0008644522
       -0.0060574176   0.0025519445  -0.0022723838   0.0021466784  -0.0096858365
       -0.0005800149  -0.0427858515  -0.0167799602  -0.0100592468   0.1044516876
        0.0584622389  -0.0075539329  -0.0309171607  -0.0242816808   0.0134085125
        0.0069849092   0.0069080941  -0.0035467448  -0.0027406952   0.0001834423
       -0.0005123914   0.0000873440   0.0008065738   0.0009098997  -0.0000654532
       -0.0005102287  -0.0000079919   0.0001830523   0.0005361040   0.0005787410
        0.0002893636   0.0005674730  -0.0007325933  -0.0027569263  -0.0035578532
       -0.0065661894  -0.0029610948   0.0008625257   0.0012042194   0.0021081613
        0.0007716907   0.0009816427  -0.0027355781  -0.0009926977  -0.0054355667
        0.0028204037  -0.0007286137   0.0061858620   0.0005938107   0.0002858321
       -0.0008511463  -0.0017329672  -0.0012938944   0.0015421383  -0.0007913949
        0.0012945154  -0.0016678937   0.0000146379  -0.0014581860  -0.0002403057
        0.0000407281   0.0010219867  -0.0003958283   0.0004273432  -0.0014394836
        0.0010300863  -0.0004943877   0.0026109181   0.0009710980   0.0002600300
       -0.0000573751  -0.0015492024  -0.0005639657   0.0002287351   0.0006326604
        0.0003389883   0.0002205091   0.0000975703  -0.0003023715   0.0000602254
        0.0001109772   0.0005810851  -0.0000877953  -0.0000604545  -0.0005891276
       -0.0005491656   0.0006062781  -0.0416138345  -0.0094492426   0.0097831269
        0.0028027003  -0.0049243365   0.0056745404  -0.0006470120   0.0000527058
       -0.0000280001   0.0076456086  -0.0025316785   0.0003194780  -0.0004827281
        0.0016484967   0.0013107423   0.0001732718  -0.0000965618  -0.0002744429
       -0.0002323911   0.0002218066  -0.0000333753  -0.0000519897   0.0000820567
       -0.0002285713  -0.0000948951  -0.0000341894  -0.0000763406  -0.0006310866
        0.0010409931  -0.0003233236   0.0002696428  -0.0002353095   0.0000289488
        0.0002755142  -0.0000676957  -0.0000637176  -0.0001320331   0.0000118104
        0.0000150653  -0.0000523345  -0.0000206388  -0.0000261360  -0.0000491379
       -0.0000135173  -0.0000034973  -0.0000892100   0.0000219746   0.0000641093
       -0.0001436481   0.0000248560   0.0000038510   0.0000705680  -0.0000899856
       -0.0001338684  -0.0000417170   0.0000092512  -0.0000402195  -0.0000254063
       -0.0000233764  -0.0000351523  -0.0000334043  -0.0000611247  -0.0000566528
        0.0000546967   0.0000796263  -0.0001588326  -0.0002313822   0.0007603072
       -0.0026027672   0.0074263765  -0.0023562657   0.0006572363
        0.0023301730   0.0093823770  -0.0120871703  -0.0092439326  -0.0626227440
       -0.0005416666  -0.0146834763  -0.1651735972  -0.1204297362   0.0584622389
        0.4523848320   0.0283798675  -0.0217001442  -0.1088083031   0.0275583467
        0.0056466789  -0.0164093889   0.0081834748   0.0017933651   0.0018111183
        0.0011684028   0.0022212021  -0.0006355432  -0.0001238892  -0.0015160152
        0.0003112978  -0.0003750901   0.0003869204  -0.0015104792  -0.0004643003
       -0.0034137086  -0.0008766891  -0.0014772384  -0.0011001012  -0.0074036165
       -0.0115243676  -0.0051523100   0.0023880777   0.0051132108  -0.0008325906
        0.0018796737   0.0056735171   0.0037005352  -0.0011321211  -0.0015399744
       -0.0008315544   0.0005094176  -0.0051154430  -0.0023395667   0.0009832573
        0.0036397375   0.0016331733   0.0008648539  -0.0038646181   0.0006187933
       -0.0005764544   0.0018306620  -0.0004544259   0.0007396042  -0.0000685252
        0.0005388467  -0.0014740014   0.0021395450  -0.0007354936   0.0021568341
       -0.0026440905   0.0003097428  -0.0031029843   0.0005883956  -0.0001392542
       -0.0004311272   0.0039043926   0.0018574984  -0.0006476708  -0.0020419069
       -0.0010462850  -0.0009044936  -0.0000012614   0.0012052937  -0.0001797780
       -0.0004389184  -0.0020000829   0.0005069243   0.0004623539   0.0012439448
        0.0018116795  -0.0016570357  -0.0101914614  -0.0819958256   0.0591146408
       -0.0039270936  -0.0236384521   0.0282523496   0.0001024230   0.0011052573
       -0.0003915640  -0.0024710833  -0.0049673251   0.0015456909   0.0006148494
        0.0053054970   0.0041123738  -0.0002918865   0.0000095062   0.0004127229
        0.0002023562  -0.0002688628  -0.0000314681  -0.0000046882  -0.0001151475
        0.0000910333  -0.0001171663   0.0000596348   0.0000469257  -0.0005645193
        0.0001199667   0.0000019312  -0.0000513073   0.0003751853  -0.0001354750
       -0.0001335435   0.0003308634  -0.0001878595   0.0001929564   0.0001057620
       -0.0001513380   0.0000577305  -0.0001060891   0.0000234705   0.0001640191
       -0.0000463408  -0.0000431220   0.0002712165  -0.0002711550  -0.0000850421
        0.0002283611   0.0001107785  -0.0000661960  -0.0000628945  -0.0001053186
        0.0001395042   0.0001331652  -0.0000641703   0.0001229264   0.0000089128
       -0.0000173247  -0.0000178569   0.0000894269   0.0000202929   0.0002146912
       -0.0001124620  -0.0000927285   0.0002520215   0.0008071434   0.0053930299
       -0.0191600775  -0.0017039199  -0.0050879893   0.0016930427
       -0.0012756360  -0.0137487859  -0.0402725865  -0.0080926782  -0.0487302151
        0.0312058473  -0.0030244143  -0.0909944831  -0.2002910716  -0.0075539329
        0.0283798675   0.5785698112   0.0054719777   0.0342415931  -0.0347412839
        0.0030875559   0.0009457541   0.0009076666  -0.0017038743   0.0013935071
        0.0002130998   0.0004818305   0.0000211599   0.0001293491   0.0000762068
        0.0004029281   0.0000707825   0.0005152142  -0.0005717857   0.0000391317
       -0.0005351207   0.0010718940  -0.0007683664  -0.0016093286  -0.0073060230
        0.0015383406   0.0005927910   0.0010788121   0.0033972341  -0.0012443469
        0.0002276702  -0.0022001789  -0.0037304448  -0.0023917000  -0.0031696046
        0.0039553511  -0.0001077965   0.0072059985  -0.0000962304   0.0027402331
       -0.0103792056  -0.0018691167  -0.0031995512   0.0024562015   0.0001995998
        0.0019382543  -0.0021543324  -0.0000816185  -0.0036168855  -0.0013768240
        0.0004128630   0.0022464381   0.0022364856  -0.0000906487  -0.0006676879
       -0.0001891183   0.0016091422   0.0030395008   0.0023397334  -0.0000415531
       -0.0011299437   0.0015670445  -0.0002698437   0.0005860060   0.0006589886
        0.0000731914   0.0002491960  -0.0003195313  -0.0002646316   0.0001133530
        0.0000926282   0.0002652259  -0.0003777418  -0.0004748700  -0.0000114356
       -0.0003259866   0.0004025494   0.0041453618   0.0286669375  -0.2794075130
        0.0120070860   0.0790103349  -0.0112575575  -0.0000170066  -0.0004012363