$hessian                                                                        
        0.4740414333  -0.0111009787  -0.0220864736  -0.1762039786  -0.0464477989
       -0.0434719054  -0.0322508465  -0.0090206566  -0.0069612885  -0.0020362612
        0.0019365831   0.0037010918  -0.0011326177  -0.0005479139  -0.0003346783
       -0.0017278897  -0.0005035646  -0.0008647968   0.0007124200   0.0009666528
        0.0000985660  -0.0000355721  -0.0004974429  -0.0001614212  -0.0000803679
        0.0002719431  -0.0000546497   0.0000791267   0.0000479040   0.0000277488
       -0.0000387656  -0.0000399451  -0.0001029257   0.0000079090   0.0001432827
       -0.0000249911  -0.0000096878  -0.0000371729   0.0000158461   0.0000493082
       -0.0001560865   0.0000850346   0.0001105050   0.0001725224   0.0001733542
        0.0000111070   0.0000026991   0.0000090041  -0.0001279380  -0.0000957483
        0.0003146955   0.0000787263  -0.0001004787   0.0000027255   0.0000986185
       -0.0000283364  -0.0000063211  -0.0000352475   0.0000062781   0.0000705214
        0.0000593750  -0.0000084709  -0.0000290955   0.0000117906  -0.0000366989
        0.0000099924   0.0000291602   0.0000002727  -0.0000070755   0.0000809564
       -0.0001893506  -0.0000222140  -0.0000700832  -0.0001125451   0.0000311794
        0.0002374261  -0.0000146825   0.0000141219  -0.0002545802   0.0001739004
       -0.0000155084   0.0000967302   0.0000543862  -0.0000106178  -0.0001803742
        0.0001510810   0.0000071830   0.0003297251  -0.0001489256  -0.0000133416
       -0.0001800832   0.0000761839   0.0000161450   0.0002221472  -0.0002369000
        0.0000106471   0.0001171078  -0.0001868506   0.0000052590  -0.0000698144
        0.0001194559  -0.0000009196   0.0000386818  -0.0000352550   0.0000011687
        0.0000219523   0.0000482073   0.0000019949   0.0000342009  -0.0000392240
       -0.0000036606  -0.0000210438  -0.0000306398  -0.0000071702  -0.0003053801
        0.0000210558   0.0000073026   0.0000847810   0.0001055755   0.0000004029
       -0.0000489507  -0.0000764525   0.0000435802   0.0000575118   0.0000412602
        0.0000072454  -0.0000354501  -0.0000345684   0.0000009830   0.0000310922
        0.0000566397  -0.0000137044  -0.0000754660  -0.0000664272  -0.0000239301
       -0.0001281427   0.0001700279   0.0000048074   0.0001052780   0.0001072765
       -0.0000558863  -0.0001753022   0.0000417520  -0.0001120932   0.0031112285
       -0.0003580407   0.0010847790  -0.0000893054   0.0000810417   0.0000343243
       -0.0048806952  -0.0065363886  -0.0065767967  -0.0506606784   0.0335029044
        0.0274816246  -0.0912318938   0.0779412868  -0.0563704874  -0.1190324407
       -0.0398879454   0.1052693302   0.0009728431  -0.0006950006  -0.0014996301
       -0.0003039609   0.0001305113   0.0001183924   0.0000472827  -0.0000488957
       -0.0001876317  -0.0000325131  -0.0001068745   0.0000580467  -0.0000683116
       -0.0000086898  -0.0000288334   0.0000205559   0.0000034585  -0.0000345401
       -0.0000149416  -0.0000333160   0.0000081074   0.0000006781  -0.0000221274
        0.0000093353  -0.0000026568  -0.0000075700  -0.0000111796   0.0000087657
       -0.0000144359  -0.0000077981  -0.0000162828  -0.0000164883  -0.0000042948
       -0.0000146450  -0.0000096044  -0.0000153388  -0.0000051973  -0.0000083697
       -0.0000200023  -0.0000175324   0.0000103038   0.0000064909  -0.0000038245
        0.0000010956   0.0000105666  -0.0000622251  -0.0000487383   0.0000046881
       -0.0000033642   0.0000211329  -0.0000052925  -0.0000208742   0.0000269167
       -0.0000236192  -0.0000281245   0.0000144133   0.0000129814  -0.0000348634
        0.0000216831   0.0000258709   0.0000095322  -0.0000140761  -0.0000040845
       -0.0000148547  -0.0000206336   0.0000045665   0.0000085137   0.0000106090
        0.0000011546   0.0000139963   0.0000042566  -0.0000046951  -0.0000037604
        0.0000215579  -0.0000028222  -0.0000173999   0.0000101838   0.0000024077
       -0.0000109781  -0.0000097798   0.0000041276   0.0000095991  -0.0000023346
       -0.0000069519   0.0000003466  -0.0000113877   0.0000101488  -0.0000081057
       -0.0000101674  -0.0000090390  -0.0000146507   0.0000064189  -0.0000090206
       -0.0000060903   0.0000119738   0.0000018601  -0.0000276895  -0.0000204976
        0.0000001302  -0.0000088317  -0.0000200079  -0.0000181999   0.0000467086
       -0.0000471485   0.0000607507  -0.0000295560   0.0000018016   0.0000070835
       -0.0000155312   0.0000799487  -0.0000272441   0.0009085012   0.0011351951
        0.0003748022
       -0.0111009787   0.4970645559   0.0150776591  -0.0517076268  -0.0826521854
       -0.0241507687   0.0025358855   0.0030756264   0.0008603541   0.0004582250
        0.0040857517  -0.0033824736   0.0003763995  -0.0000608205   0.0000863081
       -0.0005836358  -0.0006320342   0.0005362550  -0.0000137756  -0.0002861859
        0.0004110442   0.0000923894  -0.0000143424  -0.0001206540   0.0001020430
        0.0000040856   0.0000978799   0.0000732663  -0.0000003310  -0.0000023967
       -0.0000228566   0.0000506931   0.0000293452  -0.0000141256  -0.0000122961
       -0.0000095474   0.0000281742   0.0000061579  -0.0000107405  -0.0000478525
        0.0000215058   0.0000312897  -0.0000031759   0.0000152282  -0.0001252895
        0.0000050740  -0.0000253602   0.0000010388   0.0002666644   0.0000221210
        0.0001456423   0.0000508489  -0.0000915705  -0.0000336480   0.0000356975
        0.0000221902   0.0000031966   0.0000600089  -0.0000605272   0.0000670961
       -0.0001192171  -0.0000121647   0.0000037851   0.0000530164   0.0000646714
       -0.0000112933  -0.0001234420  -0.0000392095   0.0000278757   0.0003748656
       -0.0001179657  -0.0000198592  -0.0004361213  -0.0004332154   0.0000981729
        0.0010341802   0.0000901233  -0.0000490947  -0.0011000319  -0.0000792458
        0.0000408717   0.0003789406   0.0005134584  -0.0000929003  -0.0003147326
        0.0002216004   0.0000093123   0.0002853601   0.0001013281  -0.0000359583
       -0.0004128420  -0.0003008849   0.0000327154   0.0005278011  -0.0004081985
        0.0000539970   0.0000317703  -0.0000262036  -0.0000088480  -0.0001348743
        0.0000316545   0.0000097498   0.0001729095  -0.0000285702  -0.0000064899
       -0.0000305084  -0.0001904274   0.0000110099   0.0000150269   0.0001477340
       -0.0000053874   0.0000189923  -0.0000882358   0.0000242443  -0.0000173925
        0.0000991671   0.0000007143  -0.0000860864  -0.0001053647  -0.0000025869
       -0.0000138606   0.0001064018  -0.0000605347  -0.0000693638  -0.0000314890
       -0.0000361292   0.0000462047   0.0000469833  -0.0000040064  -0.0000137287
       -0.0000685244   0.0000439458   0.0001151695   0.0000032216   0.0000518759
       -0.0004402396   0.0003380423  -0.0000689339   0.0003012228   0.0001898956
       -0.0000897308  -0.0002937374  -0.0000171673   0.0000700359   0.0009528460
        0.0016331993  -0.0057240118  -0.0006453432  -0.0005511497  -0.0003232037
       -0.0180046783  -0.0097650188  -0.0110146570   0.0337476298  -0.1892763689
       -0.1115460350   0.0825321052  -0.1582812906   0.0862164123  -0.0394846085
       -0.0628590675   0.0500231415   0.0014430257  -0.0006685366   0.0014446837
        0.0001363133  -0.0000234309  -0.0000545353   0.0000019673   0.0000247600
        0.0000090084   0.0000394180   0.0000036383  -0.0000085801  -0.0000144340
       -0.0000029349  -0.0000329360  -0.0000194394  -0.0000128997  -0.0000225798
       -0.0000135054  -0.0000026539  -0.0000102013  -0.0000118738   0.0000081184
       -0.0000056051  -0.0000003232  -0.0000034363  -0.0000084897   0.0000016007
       -0.0000049783  -0.0000053469  -0.0000063136   0.0000019021  -0.0000032789
       -0.0000073935   0.0000101679  -0.0000012433  -0.0000028814   0.0000093871
       -0.0000011896  -0.0000089759   0.0000039946  -0.0000022599   0.0000159106
       -0.0000006056   0.0000032029  -0.0000139023  -0.0000456437  -0.0000342310
        0.0000053640   0.0000217341  -0.0000121012  -0.0000008270   0.0000082147
       -0.0000095063   0.0000028291   0.0000110683   0.0000080894  -0.0000054830
       -0.0000040768   0.0000109929   0.0000098120  -0.0000033328   0.0000092794
       -0.0000032769  -0.0000056160   0.0000105451   0.0000047350   0.0000004337
        0.0000031951   0.0000084982   0.0000090586   0.0000021007  -0.0000005535
        0.0000091613   0.0000013989  -0.0000093023   0.0000050981   0.0000029575
       -0.0000053896  -0.0000027904   0.0000046283   0.0000026487  -0.0000077994
       -0.0000023903   0.0000011064  -0.0000089947   0.0000016789  -0.0000037647
       -0.0000054283  -0.0000058718  -0.0000082902   0.0000032288  -0.0000022577
       -0.0000063296   0.0000057931   0.0000004256  -0.0000058879   0.0000068716
       -0.0000113501  -0.0000062460   0.0000044211  -0.0000192980  -0.0000309977
       -0.0001385771  -0.0001446614  -0.0000970272   0.0000388636   0.0001112627
       -0.0000497042   0.0000005793  -0.0001228020  -0.0007789882  -0.0006847406
        0.0017674761
       -0.0220864736   0.0150776591   0.5011122204  -0.0453492014  -0.0228767268
       -0.0811076266   0.0082349825   0.0019654446   0.0046969291   0.0025566492
       -0.0041290806   0.0022075644   0.0003922443   0.0003398461  -0.0000140530
       -0.0002749211   0.0003423861  -0.0006019909   0.0003095047   0.0006262427
       -0.0001888836  -0.0000853550  -0.0001575338   0.0000380719  -0.0000707962
        0.0001098313  -0.0000645399   0.0000026260   0.0000378726   0.0000246933
       -0.0000105346  -0.0000467308  -0.0000509172   0.0000160851   0.0000575427
        0.0000137426  -0.0000175648  -0.0000095119   0.0000067255   0.0000415656
       -0.0000673933   0.0000028505   0.0000540942   0.0000629162   0.0001515502
       -0.0000038254   0.0000389825   0.0000032097  -0.0003066633  -0.0000278535
       -0.0000256901  -0.0000297716   0.0000439282   0.0000277009   0.0000747971
       -0.0000104882   0.0000124278  -0.0000712707   0.0000336937  -0.0000244421
        0.0001186725   0.0000182766  -0.0000181830  -0.0000517549  -0.0000607016
        0.0000140371   0.0001180114   0.0000369205  -0.0000273207  -0.0003142324
        0.0000486093   0.0000035331   0.0003435850   0.0003563222  -0.0000782913
       -0.0007956046  -0.0001022308   0.0000474988   0.0008287358   0.0000495565
       -0.0000291139  -0.0002978643  -0.0003771404   0.0000666082   0.0002403874
       -0.0001531357  -0.0000034037  -0.0001837196  -0.0000680755   0.0000249260
        0.0002689912   0.0002227020  -0.0000159810  -0.0003884967   0.0003052951
       -0.0000471582   0.0000002273  -0.0000036934   0.0000033094   0.0000779776
       -0.0000143265  -0.0000067427  -0.0001171497   0.0000062733   0.0000010647
        0.0000311764   0.0001395416  -0.0000021225   0.0000021801  -0.0001097032
        0.0000056349  -0.0000259275   0.0000572098  -0.0000185206  -0.0000264487
       -0.0000805770   0.0000011733   0.0000898229   0.0001108439  -0.0000019837
       -0.0000042551  -0.0000938293   0.0000504083   0.0000642628   0.0000326577
        0.0000234535  -0.0000396934  -0.0000401096   0.0000029953   0.0000189308
        0.0000619589  -0.0000331437  -0.0001012813  -0.0000185552  -0.0000380506
        0.0003343904  -0.0002428924   0.0000629578  -0.0002351369  -0.0001607707
        0.0000797615   0.0001989827   0.0000484492  -0.0000999302   0.0014909739
       -0.0049902832  -0.0002011827  -0.0009176022  -0.0004242066  -0.0005358687
       -0.0202480046  -0.0119132056  -0.0115448861   0.0271477939  -0.1118694815
       -0.1289307747  -0.0580257059   0.0838938312  -0.1042610889   0.1073743612
        0.0505923330  -0.1803157125   0.0010975600   0.0021115096  -0.0001791988
        0.0001061935   0.0000464912  -0.0000241177  -0.0000555302   0.0000427547
        0.0000473388  -0.0000125569  -0.0000306691   0.0000308321  -0.0000247085
        0.0000014943  -0.0000651242  -0.0000022460  -0.0000143433   0.0000057261
       -0.0000170391  -0.0000206196   0.0000128333   0.0000088376  -0.0000147125
        0.0000033010  -0.0000009403   0.0000003000  -0.0000010308   0.0000011472
        0.0000040646   0.0000007626  -0.0000019455  -0.0000061780   0.0000028647
       -0.0000004350  -0.0000121096  -0.0000054840   0.0000018504  -0.0000072303
        0.0000006539  -0.0000130964  -0.0000074729  -0.0000013705   0.0000038632
       -0.0000221243   0.0000054986  -0.0000076096  -0.0000311754   0.0000193638
       -0.0000159722  -0.0000059906   0.0000086375  -0.0000114633   0.0000081049
        0.0000023462  -0.0000112983  -0.0000015180  -0.0000021920  -0.0000042959
        0.0000044621   0.0000023445  -0.0000047030  -0.0000008989  -0.0000086417
       -0.0000000721  -0.0000025567  -0.0000077590  -0.0000029547   0.0000027179
       -0.0000024126  -0.0000014069  -0.0000031707  -0.0000019213  -0.0000007689
        0.0000005900  -0.0000011123   0.0000005357  -0.0000000344  -0.0000006599
        0.0000007052  -0.0000005464  -0.0000009350   0.0000076532   0.0000067268
        0.0000027524  -0.0000004737   0.0000017744   0.0000018707  -0.0000006937
       -0.0000004434  -0.0000014667   0.0000032861   0.0000010256  -0.0000031714
        0.0000008421  -0.0000010221  -0.0000012138  -0.0000044282  -0.0000045459
        0.0000066350   0.0000013791  -0.0000036391   0.0000048508  -0.0000014468
       -0.0001494470  -0.0001425425  -0.0000924938   0.0000612553   0.0001224777
        0.0000110864  -0.0000638827  -0.0001047077  -0.0013091174   0.0014421697
       -0.0001234729
       -0.1762039786  -0.0517076268  -0.0453492014   0.6351241709   0.0231556270
       -0.0351589843  -0.2607906957   0.0723782243   0.1174824768  -0.0701402703
       -0.0257183032  -0.0209776816  -0.0018351454  -0.0029968007  -0.0011573583
       -0.0037051300   0.0184548900   0.0234224623  -0.0042150927  -0.0034058187
       -0.0010875924   0.0000415213   0.0021274127   0.0010839589   0.0002698048
       -0.0011942559   0.0003115243  -0.0001582058   0.0001901643   0.0000306875
        0.0002613122   0.0002789284   0.0003753739  -0.0000317723  -0.0004338895
        0.0000216593   0.0000055967   0.0001307158  -0.0000173614  -0.0000017739
        0.0005474469  -0.0003002266  -0.0005024369  -0.0007075600  -0.0006107871
        0.0000316317   0.0000127153   0.0000168611   0.0017529178  -0.0001669287
       -0.0014433406  -0.0001488346   0.0006014301   0.0002540999  -0.0002209608
        0.0001096667   0.0000877668   0.0000345977  -0.0000815583  -0.0002132519
       -0.0000673360   0.0000004864   0.0000822564   0.0000195316   0.0001655165
       -0.0000874768   0.0000709491  -0.0001248394   0.0000475904  -0.0009261575
        0.0008860357   0.0000411577   0.0011192581   0.0012456270  -0.0002948479
       -0.0032222524   0.0000292121  -0.0000409209   0.0032603696  -0.0002759722
       -0.0000582167  -0.0012238430  -0.0012479236   0.0002510554   0.0012074834
       -0.0007169433  -0.0000330549  -0.0011968939   0.0002024413   0.0001148756
        0.0011595725   0.0004390979  -0.0000876518  -0.0017782050   0.0015048962
       -0.0001279634  -0.0002033082   0.0004057341  -0.0000010254   0.0003104740
       -0.0003688430   0.0000027861  -0.0004018873   0.0000625068   0.0000170295
        0.0000758721   0.0002427897  -0.0000155182  -0.0000099881  -0.0001806875
        0.0000158339  -0.0000517997   0.0001286083  -0.0000476001   0.0004532728
       -0.0003026263  -0.0000061617   0.0002176748   0.0002697870  -0.0000084163
        0.0000447297  -0.0001594154   0.0000553667   0.0001045481   0.0000544632
        0.0000442917  -0.0000468862  -0.0000542531   0.0000064888   0.0000396724
        0.0000975100  -0.0000588576  -0.0001709488   0.0000182881  -0.0000395727
        0.0015240026  -0.0014067872   0.0002605692  -0.0009270174  -0.0006533237
        0.0003163639   0.0005278428  -0.0003821752   0.0000947056   0.0215160802
       -0.0108567860  -0.0188730545  -0.0035757167  -0.0024982520  -0.0017909414
       -0.0884350527  -0.0253527376  -0.0242812640   0.0029697620  -0.0008782791
       -0.0017268503  -0.0214410833  -0.0029365708  -0.0103737287  -0.0236585793
       -0.0077054510  -0.0032699006  -0.0020139441   0.0015556457   0.0019745644
       -0.0012460193   0.0005068142   0.0002289343   0.0003417836  -0.0001358961
       -0.0001475016  -0.0001791021   0.0002923427   0.0002218666   0.0000744223
       -0.0001653751  -0.0000055187  -0.0000904680  -0.0000412831  -0.0000237432
        0.0000797128   0.0000426536  -0.0000781977  -0.0000165158  -0.0000101827
       -0.0000225866  -0.0000038445   0.0000046987   0.0000081616  -0.0000058701
        0.0000092938   0.0000201648   0.0000153459   0.0000102836  -0.0000013840
        0.0000155130  -0.0000109000   0.0000566356  -0.0000019060   0.0000096653
        0.0000323978   0.0000415545   0.0000027931   0.0000151301  -0.0000530251
       -0.0000106388  -0.0000423131  -0.0000662205   0.0002257015  -0.0001871031
        0.0000124650   0.0000126177  -0.0000297229   0.0000239517  -0.0000112727
        0.0000539067   0.0000359281  -0.0000321268  -0.0000711875   0.0000492107
       -0.0000749826  -0.0000543788  -0.0000197421   0.0000108243  -0.0000146433
        0.0000132211  -0.0000026507  -0.0000353867  -0.0000184896  -0.0000125171
       -0.0000151058  -0.0000065978  -0.0000084935  -0.0000029632  -0.0000065871
       -0.0000041329  -0.0000082480   0.0000045971  -0.0000024323  -0.0000006534
       -0.0000027215   0.0000024880   0.0000145953  -0.0000065988   0.0000015188
        0.0000167082  -0.0000014839   0.0000061161   0.0000056957   0.0000007538
        0.0000009440  -0.0000286933   0.0000062626   0.0000262623  -0.0000042002
       -0.0000260572  -0.0000115162  -0.0000150643   0.0000260198   0.0000611270
        0.0000177153  -0.0000079405   0.0000858116   0.0000611075   0.0002213405
       -0.0003432774  -0.0004500120  -0.0002612042   0.0000472273   0.0002051370
       -0.0002389534  -0.0000839972  -0.0002216783  -0.0035401870   0.0168212320
        0.0216291328
       -0.0464477989  -0.0826521854  -0.0228767268   0.0231556270   0.3423409591
        0.2413831439   0.0225983975  -0.0795500890  -0.0415711812   0.0138548197
        0.0190335761   0.0222558625  -0.0035780811   0.0047249878  -0.0034602611
        0.0192379139  -0.0139920901  -0.0144154426  -0.0017513213  -0.0020293043
       -0.0005006663  -0.0003174638   0.0009147999   0.0005442192   0.0000934324
       -0.0003551046  -0.0000042401  -0.0000721058  -0.0000042399  -0.0000024008
        0.0001341609   0.0000311807   0.0000242872   0.0000196127  -0.0001137429
        0.0000608115  -0.0000176169   0.0000372300   0.0000034964   0.0000524024
        0.0001847686  -0.0001626690  -0.0001705419  -0.0002505645  -0.0000349778
       -0.0000081406   0.0000342038  -0.0000019147   0.0007628900   0.0000651573
       -0.0007000728  -0.0000961844   0.0003397578   0.0000091820  -0.0000413638
       -0.0001056611   0.0001633368  -0.0001628079   0.0001870842  -0.0002196200
        0.0002751262  -0.0000008694   0.0000037693  -0.0001423812  -0.0000192344
       -0.0000061721   0.0002087286   0.0000045690  -0.0000067595  -0.0008319616
        0.0004966694   0.0000397950   0.0009989374   0.0010187776  -0.0002577219
       -0.0025985317  -0.0000930192   0.0000422663   0.0026323983  -0.0001286293
       -0.0000643096  -0.0009782116  -0.0010403653   0.0002129924   0.0009230671
       -0.0005416337  -0.0000244418  -0.0008910889   0.0000817227   0.0000892357
        0.0009269293   0.0004244324  -0.0000653312  -0.0013947178   0.0011398505
       -0.0001204439  -0.0001302732   0.0002612498   0.0000072941   0.0002476201
       -0.0002509868  -0.0000003236  -0.0003356662   0.0000465997   0.0000188236
        0.0000682802   0.0002430469  -0.0000113215  -0.0000034294  -0.0001843745
        0.0000121377  -0.0000462164   0.0001082270  -0.0000421436   0.0002819872
       -0.0002395904  -0.0000049060   0.0001988796   0.0002452016  -0.0000073277
        0.0000220228  -0.0001626596   0.0000636009   0.0001067826   0.0000548805
        0.0000407184  -0.0000554471  -0.0000600502   0.0000042060   0.0000408134
        0.0001021692  -0.0000607476  -0.0001745450  -0.0000008860  -0.0000487575
        0.0011494315  -0.0010298855   0.0002225110  -0.0007184322  -0.0004652718
        0.0002188756   0.0003626031  -0.0003072531   0.0000761515  -0.0518193514
       -0.0206152587  -0.0187160517  -0.0018818234   0.0049567815  -0.0033966163
        0.0244120908  -0.1542219298  -0.1314386368  -0.0203360850  -0.0111940173
       -0.0117681852   0.0146890952   0.0088666929   0.0058245515  -0.0101650427
       -0.0028482143  -0.0022529569   0.0162408092  -0.0067475796  -0.0109396130
        0.0005971728   0.0000031891  -0.0000822584  -0.0000592356  -0.0003291003
       -0.0003899441  -0.0011173149   0.0000500040   0.0003676556  -0.0001005227
       -0.0000605280  -0.0000453256   0.0000339677  -0.0000051396   0.0000624630
       -0.0000145355   0.0000274698   0.0000043112  -0.0000104866  -0.0000209379
       -0.0000058295  -0.0000017162   0.0000044806   0.0000043106  -0.0000059766
        0.0000061770   0.0000024893   0.0000027534  -0.0000045792  -0.0000076034
        0.0000174580  -0.0000130796   0.0000236549  -0.0000060784   0.0000044280
        0.0000319869   0.0000067462  -0.0000213291  -0.0000019697   0.0000153805
       -0.0000343249   0.0000125808  -0.0000720173   0.0001092834   0.0000299359
       -0.0000082204  -0.0000110474   0.0000150893   0.0000081429  -0.0000023071
        0.0000399524   0.0000121560  -0.0000176267  -0.0000143216   0.0000327018
       -0.0000324947  -0.0000282514  -0.0000107639   0.0000042013  -0.0000183617
        0.0000096546  -0.0000038502  -0.0000305118  -0.0000096891   0.0000014037
       -0.0000084199  -0.0000003752  -0.0000052584   0.0000007143  -0.0000011495
       -0.0000019062  -0.0000007430   0.0000037177  -0.0000005771   0.0000016289
       -0.0000000116   0.0000018097   0.0000074037  -0.0000034424   0.0000016783
        0.0000093143  -0.0000006553   0.0000053183   0.0000030545   0.0000003895
        0.0000019942  -0.0000152068   0.0000061195   0.0000136014  -0.0000052415
       -0.0000096296  -0.0000057766  -0.0000108236   0.0000187859   0.0000286932
        0.0000116079  -0.0000017666   0.0000181758   0.0000307793  -0.0003430019
       -0.0012760271  -0.0012772206   0.0001121493   0.0001325537   0.0000654762
        0.0003187608   0.0006028667   0.0004763098   0.0020523048  -0.0059113236
       -0.0073970139
       -0.0434719054  -0.0241507687  -0.0811076266  -0.0351589843   0.2413831439
        0.4405308740   0.0548505358  -0.0500995753  -0.1133001549   0.0272257523
        0.0297032370   0.0302063014  -0.0026451737  -0.0033711463   0.0022997771
        0.0228374168  -0.0149448951  -0.0252660404  -0.0014511499  -0.0018293241
       -0.0004090232  -0.0002338226   0.0008091144   0.0003735139   0.0001463890
       -0.0002696703   0.0000308504  -0.0000602273  -0.0000708144  -0.0000666073
        0.0000823096   0.0000247095   0.0000017119   0.0000211948  -0.0001019216
        0.0000825930  -0.0000001519   0.0000312348  -0.0000036986  -0.0000088388
        0.0001915842  -0.0001315821  -0.0001223046  -0.0001967595  -0.0000416518
       -0.0000041330   0.0000200231  -0.0000138145   0.0004039684   0.0001429907
       -0.0005032934  -0.0000540299   0.0001548998  -0.0000421962   0.0000064769
       -0.0001257819   0.0001961521  -0.0001290628   0.0001605427  -0.0001710253
        0.0002460402   0.0000106920  -0.0000014020  -0.0001324172  -0.0000558305
        0.0000161376   0.0001668079   0.0000530471  -0.0000195406  -0.0004563176
        0.0002264046   0.0000846623   0.0005958461   0.0005628416  -0.0001524692
       -0.0013779070  -0.0001070978   0.0000502246   0.0014394832  -0.0000248314
       -0.0000337668  -0.0005096710  -0.0006030023   0.0001053255   0.0004871308
       -0.0003281086  -0.0000116976  -0.0004527760   0.0000042020   0.0000503012
        0.0005290024   0.0002691254  -0.0000352821  -0.0007392415   0.0006124633
       -0.0000672309  -0.0000831521   0.0001327594   0.0000007099   0.0001560958
       -0.0001117954  -0.0000052635  -0.0001955197   0.0000340783   0.0000046139
        0.0000310478   0.0001572845  -0.0000044889  -0.0000267631  -0.0001182794
        0.0000106126  -0.0000181049   0.0000899404  -0.0000200521   0.0001342311
       -0.0001127045  -0.0000041585   0.0000677858   0.0000847720   0.0000001857
        0.0000300743  -0.0000843107   0.0000476378   0.0000499823   0.0000164581
        0.0000286375  -0.0000295535  -0.0000320053   0.0000043611   0.0000073152
        0.0000461388  -0.0000335528  -0.0000935438   0.0000161524  -0.0000386275
        0.0006145814  -0.0005377446   0.0000835423  -0.0004142185  -0.0002499616
        0.0001023613   0.0002875323  -0.0001704457   0.0001358965  -0.0660378956
       -0.0219301696  -0.0209701584  -0.0001334469  -0.0035525788   0.0034371379
        0.0355275744  -0.1236548940  -0.2035216389  -0.0156751243  -0.0097128330
       -0.0095741406  -0.0172530725  -0.0044313125  -0.0061787741   0.0178197957
        0.0078255572   0.0080868487   0.0201147746  -0.0091881655  -0.0129064490
       -0.0007193650  -0.0000718911   0.0006210535  -0.0001674692  -0.0000304292
        0.0000291687   0.0010763960  -0.0006822719  -0.0003380447  -0.0000566092
       -0.0000449218   0.0000393145   0.0000169977   0.0000090073   0.0000790677
       -0.0000173404   0.0000520797   0.0000147009  -0.0000140038  -0.0000013185
       -0.0000011069  -0.0000014732   0.0000023812   0.0000066552  -0.0000078533
        0.0000066366   0.0000059948   0.0000070705  -0.0000013602  -0.0000005873
        0.0000151209  -0.0000085014   0.0000222229  -0.0000087205   0.0000006745
        0.0000286031   0.0000183221  -0.0000322701  -0.0000086152   0.0000254501
       -0.0000200310   0.0000288580  -0.0000991116   0.0000201366   0.0000586898
       -0.0000061824   0.0000064241  -0.0000018407   0.0000106168   0.0000005826
        0.0000270092   0.0000129838  -0.0000079414  -0.0000126138   0.0000200062
       -0.0000140905  -0.0000343186  -0.0000141710   0.0000147805  -0.0000071879
        0.0000104212   0.0000102090  -0.0000132814  -0.0000118946  -0.0000057459
       -0.0000055993  -0.0000093240  -0.0000095026   0.0000000163   0.0000008091
       -0.0000117843  -0.0000020879   0.0000119430  -0.0000066036  -0.0000002106
        0.0000080432   0.0000051973   0.0000032978   0.0000005976   0.0000050262
        0.0000072417   0.0000004663   0.0000095907  -0.0000020358   0.0000050091
        0.0000057722  -0.0000086368   0.0000116645   0.0000100242   0.0000019974
       -0.0000064917  -0.0000080556  -0.0000023582   0.0000139087   0.0000136342
        0.0000113383   0.0000032080   0.0000114737   0.0000290669  -0.0000632815
       -0.0001849736   0.0004261056  -0.0001191025   0.0002128243   0.0002027452
        0.0000361138  -0.0012019265  -0.0013564003   0.0031066095  -0.0106495044
       -0.0111837843
       -0.0322508465   0.0025358855   0.0082349825  -0.2607906957   0.0225983975
        0.0548505358   0.6475791184   0.0359052444  -0.0347826974  -0.2537938608
       -0.0517651912  -0.0335460153  -0.0361818731  -0.0069493762  -0.0032173189
        0.0105841220  -0.0465299608  -0.0590655045   0.0082462912   0.0047972023
        0.0028111803   0.0000801364  -0.0031157471  -0.0021949027  -0.0003524380
        0.0019296054  -0.0005725025   0.0002812715  -0.0000236649   0.0000674539
       -0.0004301528  -0.0004149832  -0.0005149127   0.0000605952   0.0006444674
        0.0000361058   0.0000076950  -0.0001560894   0.0000134664  -0.0001188496
       -0.0007931463   0.0004099025   0.0007674905   0.0009789748   0.0009587195
       -0.0000806060   0.0000156643  -0.0000250957  -0.0034671251   0.0008476141
        0.0027213833   0.0001736762  -0.0013289754  -0.0002271950   0.0001310028
        0.0000860043   0.0002017643   0.0002166807   0.0000093287   0.0003388794
       -0.0000415798  -0.0000020281  -0.0001143445  -0.0000731639  -0.0002153791
        0.0001285375  -0.0002044356   0.0002366198  -0.0001296441   0.0015993525
       -0.0012301239  -0.0002040787  -0.0020765214  -0.0020358322   0.0004586124
        0.0057681830   0.0000080556   0.0000172378  -0.0059227887  -0.0001400345
        0.0001579728   0.0021498197   0.0024880082  -0.0004694532  -0.0018310738
        0.0010557745   0.0000453765   0.0013034889   0.0002112277  -0.0001915713
       -0.0019027020  -0.0012796471   0.0001374454   0.0029076441  -0.0022587996
        0.0002164674   0.0000679902  -0.0001916232  -0.0000134584  -0.0004958328
        0.0003093245   0.0000080822   0.0007744171  -0.0000753801  -0.0000433274
       -0.0001909269  -0.0007466360   0.0000281172  -0.0000053675   0.0005653395
       -0.0000263405   0.0001402743  -0.0002085565   0.0001209975   0.0001342232
        0.0004773659  -0.0000036287  -0.0006043515  -0.0007504298   0.0000094349
        0.0000267305   0.0005775972  -0.0002811688  -0.0003864936  -0.0002065176
       -0.0001359966   0.0002222014   0.0002354410  -0.0000174741  -0.0001415956
       -0.0003660325   0.0001886748   0.0006084143   0.0001275159   0.0002049563
       -0.0025778185   0.0022286027  -0.0004399783   0.0014906337   0.0007953910
       -0.0004123974  -0.0001537652   0.0006734305  -0.0001381045  -0.0525873479
       -0.0088046944  -0.0002705252   0.0002927300  -0.0002486849   0.0005399725
        0.0209874626   0.0514779650   0.0583813753   0.0008802470   0.0015319602
        0.0013477326  -0.0010781671  -0.0004252579   0.0007165227  -0.0030850630
       -0.0010549446  -0.0007742851  -0.0435630962   0.0012013794   0.0049115212
       -0.0038868655   0.0005550614   0.0017328100   0.0000572141  -0.0010707335
       -0.0019488372  -0.0012295141  -0.0011584416   0.0002127109   0.0000733574
       -0.0001419847  -0.0000431887  -0.0001718466   0.0000056703   0.0000366849
       -0.0000611737   0.0000230307   0.0000910854   0.0000257217   0.0000142738