96
 energy: -152.954062846333 gnorm: 0.000041942124 xtb: 6.7.1 (edcfbbe)
C            5.28588425708949       -5.07781552290728       -1.03757733616464
C            5.83420840014169       -4.61436927344166        0.14689662724945
C            5.58845653170338       -3.32434808183027        0.57522062851733
C            4.79101325363869       -2.47032281934895       -0.18601646625489
N            4.52522682024304       -1.16929032677056        0.25518466980358
C            5.52652341445835       -0.42843599711678        0.89290126175555
C            5.21624918312209        0.41794507721686        1.95778225338537
C            6.20440201075097        1.16900285997980        2.56207347032097
C            7.51736012199031        1.08072735127301        2.12927225439819
C            7.83447512591634        0.22975130333589        1.08353365688877
C            6.85075002845604       -0.51694990370546        0.46480708155477
C            3.26021451452285       -0.60836921363592        0.05644125122842
C            3.13446913798384        0.75957604511798       -0.15286604390710
C            1.87219203178119        1.32806956357223       -0.30330625631548
C            0.71987874673291        0.51792556517353       -0.32931076068688
C            0.87865767399919       -0.87131353381432       -0.17062864314700
C            2.13231845612698       -1.42340536816201        0.06576437128467
N           -0.23288322997903       -1.69115591502777       -0.24606443903163
C            0.02348970866379       -3.09152996150282       -0.32373719749086
C           -0.10219573027559       -3.90175176460874        0.79776499220016
C            0.20077957766934       -5.24869439588370        0.70986014520975
C            0.63459785301220       -5.78835187077509       -0.48974499633276
C            0.75893244900724       -4.98047928704416       -1.60729536138496
C            0.45333649688868       -3.63382417049210       -1.52769556022131
C           -1.53226606855542       -1.23421642246380       -0.21290371844943
C           -2.56711676057430       -2.17777973548735       -0.16651709671778
C           -3.87590325366861       -1.76699011183251       -0.02108013930667
C           -4.20394166322981       -0.40752186914064        0.12737248752851
C           -3.15485322465803        0.51470148862825        0.02802926909886
C           -1.81772755951400        0.15321206596168       -0.22466638991127
B           -0.65569271374354        1.12706096987431       -0.51404464372662
C           -0.63195854862161        2.59733601223470       -0.98861681689895
C           -1.71017055472296        3.27187509094151       -1.57345838216452
C           -1.65853873117203        4.60711604472004       -1.90421336320378
C           -0.50244783474447        5.32945245620842       -1.63611501125714
C            0.60430245303143        4.69261942296461       -1.12379712540485
C            0.57607310904248        3.31887576924999       -0.84741018064173
N            1.74434542353071        2.69362498819351       -0.44327979432061
C            2.91597548230436        3.46908974533202       -0.20566880363113
C            3.68682257355323        3.93647595299930       -1.26314524521917
C            4.84603468915166        4.64693280783391       -1.00804112335722
C            5.24321864107417        4.88646408224562        0.29711311608948
C            4.47516426764028        4.42055738649364        1.35072275644777
C            3.31199367463286        3.71431957322055        1.10274801197330
O           -3.39515593973907        1.82888259769016        0.22157045616055
C           -4.64445624114655        2.33840039980549        0.35917602795815
C           -4.68099009686823        3.73471596277015        0.43998314106949
C           -5.88663804930267        4.38784570894618        0.53740764700414
C           -7.06903595507599        3.65488389009636        0.54468593575622
C           -7.02627363346201        2.28044104670164        0.48016486440577
C           -5.82168453964496        1.56688163760063        0.40517051663049
B           -5.63951695934759        0.02990154758840        0.36680673709197
C           -6.63197220267696       -1.15334548118946        0.52051558391068
C           -7.98651985239488       -1.07108367121464        0.86895090517141
C           -8.80109482612614       -2.17900635590373        0.94969686898393
C           -8.28312112141676       -3.44008697857919        0.68059375454795
C           -6.95186035489456       -3.57415578413710        0.36020753439858
C           -6.12795571521498       -2.44790882962489        0.29253138799625
O           -4.82716459528975       -2.73092036742347        0.00493219588744
C            4.25500817177466       -2.93787498020886       -1.38629216929999
C            4.49694382182698       -4.23240939149404       -1.80029005048398
H            5.47421864116334       -6.08902692311843       -1.36491169118982
H            6.45060138084031       -5.26602238681855        0.74877551533980
H            6.00706346515084       -2.96953677628258        1.50577201599852
H            4.19547070332888        0.48081252554428        2.30428462454633
H            5.94865682370856        1.82146343101406        3.38398746014992
H            8.28781870922312        1.66845384394822        2.60482837216059
H            8.85534407729811        0.15396654359060        0.73865502479688
H            7.09900986173959       -1.17006769014834       -0.35911857322906
H            4.02437021491612        1.36682944581337       -0.19719088670712
H            2.24834188703380       -2.47774832206723        0.25864603763494
H           -0.43323372305023       -3.46881125841870        1.73011196191380
H            0.10379736822966       -5.87734179218806        1.58241640909086
H            0.87669803531757       -6.83847786104161       -0.55263399480250
H            1.09472441453677       -5.40012885930576       -2.54356770550557
H            0.55114217412941       -2.99191865324969       -2.39052631151678
H           -2.36438210836195       -3.23436555059982       -0.22979762019869
H           -2.61051933349792        2.71647381870460       -1.78118184594416
H           -2.51232684864218        5.09427764463274       -2.35234448272128
H           -0.45944330044205        6.38843570036027       -1.84709711453978
H            1.50564340103014        5.26053890865167       -0.94717667012826
H            3.37280269297309        3.73587562602813       -2.27698979122473
H            5.44456605420016        5.00863233508988       -1.83090970183024
H            6.15231308037918        5.43500766244349        0.49228298735284
H            4.78305909995686        4.60734595032643        2.36852569837224
H            2.70687477619927        3.34137272391100        1.91574097312635
H           -3.74492557610575        4.27111574000211        0.40810305200610
H           -5.91483469707310        5.46594380039817        0.59564565662683
H           -8.01895423658081        4.16616219985340        0.60119968201235
H           -7.95545453737775        1.73322435625334        0.47187323310839
H           -8.40473690698855       -0.10373733693768        1.09685085273911
H           -9.84094352926010       -2.06988198570367        1.22098973872240
H           -8.91710072734679       -4.31284686984628        0.73322596938303
H           -6.51427292281654       -4.54143075252930        0.16489002514168
H            3.64841523763294       -2.27772106243905       -1.98817537321155
H            4.07392499333024       -4.58081206826391       -2.73100744511952
