$hessian                                                                        
        0.2385132365   0.0128114670   0.2277860736  -0.0770557250  -0.0391928481
       -0.0503038763   0.0144157263  -0.0175976038   0.0244483676  -0.0162501855
       -0.0147988321  -0.0193708123  -0.0003530348   0.0010332079   0.0009504376
       -0.0002886262  -0.0000023107  -0.0001390255   0.0001119810  -0.0001147557
        0.0001900775  -0.0001934801  -0.0000497556   0.0000046203   0.0000930395
        0.0000933619  -0.0001226241   0.0001076150   0.0000127916   0.0001578530
       -0.0002059805   0.0002360634  -0.0000911942  -0.0002217019  -0.0003818314
       -0.0001910833  -0.0000798889  -0.0001931184   0.0001398622   0.0000802095
        0.0001622403   0.0000945662  -0.0000120633   0.0000119129   0.0000185529
        0.0000019208  -0.0000042170   0.0000052744   0.0000082489   0.0000026855
        0.0000053761   0.0000010390   0.0000002284  -0.0000011113   0.0000123642
        0.0000277466   0.0000028899  -0.0000068229  -0.0000196402   0.0000019507
        0.0000066765   0.0000026771   0.0000000036   0.0000031729  -0.0000018933
        0.0000009765  -0.0000005636  -0.0000041649  -0.0000004527  -0.0000024695
        0.0000062288   0.0000017372   0.0000069171   0.0000006518   0.0000001987
       -0.0000080178   0.0000005174  -0.0000025350  -0.0000082311  -0.0000162917
       -0.0000003109  -0.0000018656   0.0000111996  -0.0000012289   0.0000015066
       -0.0000025096   0.0000029570  -0.0000012092   0.0000008907  -0.0000013745
       -0.0000005142   0.0000009459  -0.0000002540   0.0000005444   0.0000018567
        0.0000017708  -0.0000009418  -0.0000038418  -0.0000007175  -0.0000013945
       -0.0000013491  -0.0000003687   0.0000123162  -0.0000036913   0.0000031603
        0.0001236655  -0.0001353333  -0.0000187348  -0.0001645570  -0.0000507231
       -0.0000191559   0.0000224696  -0.0000167793   0.0000135478  -0.0000055984
        0.0000002185  -0.0000066516  -0.0000093695   0.0000124053  -0.0000120547
       -0.0000040973   0.0000017643   0.0000071294   0.0000011321   0.0000010510
        0.0000009073   0.0000054794  -0.0000013576  -0.0000016848  -0.0000010781
        0.0000008608   0.0000068136   0.0000039065   0.0000050135  -0.0000070928
       -0.0000007946  -0.0000055909   0.0000057795   0.0000022261   0.0000004260
        0.0000003426   0.0000006427  -0.0000004022  -0.0000002088   0.0000008522
        0.0000014465   0.0000006195   0.0000005899  -0.0000045060  -0.0000001297
        0.0000398143   0.0002136717   0.0000211835  -0.0041783321   0.0415448903
       -0.0151147215  -0.1128586022  -0.0171705034  -0.1174697919  -0.0455648361
        0.0448447302  -0.0271785421  -0.0042948546  -0.0123208738  -0.0082366007
        0.0061745862   0.0012499363  -0.0033712949  -0.0000153529   0.0000008634
        0.0000153130  -0.0000048404  -0.0000018040  -0.0000030062  -0.0000039896
       -0.0000164088  -0.0000170488  -0.0000030443   0.0000204277   0.0000022136
       -0.0000436120   0.0000224129  -0.0000921413   0.0000235269  -0.0000348828
       -0.0000511754  -0.0000083063   0.0000044809  -0.0000123270   0.0000023107
        0.0000005698  -0.0000043277   0.0000019940  -0.0000011984  -0.0000007754
       -0.0000016308   0.0000007028   0.0000000449  -0.0000017374  -0.0000005501
       -0.0000002515  -0.0000010043  -0.0000017657  -0.0000007079   0.0000000303
        0.0000005396  -0.0000025084   0.0000005373  -0.0000003261  -0.0000001556
        0.0000004280  -0.0000009478  -0.0000004939   0.0000000331  -0.0000002233
       -0.0000006549   0.0000014319   0.0000004956   0.0000006474  -0.0000000700
        0.0000009636  -0.0000013044  -0.0000022746   0.0000013977  -0.0000013314
        0.0000066691  -0.0000028515  -0.0000236242   0.0000063883  -0.0000002103
        0.0000061422  -0.0000039353  -0.0000013201   0.0000018596   0.0000035553
       -0.0000030964   0.0000004263   0.0000008607  -0.0000025767   0.0000015918
        0.0000001598  -0.0000039298   0.0000012958  -0.0000021976  -0.0000031434
       -0.0000030451  -0.0000011705   0.0000000249  -0.0000002210  -0.0000016291
        0.0000003723  -0.0000004409  -0.0000004574   0.0000000971  -0.0000000892
       -0.0000008267   0.0000018401   0.0000016356   0.0000097823  -0.0000148642
       -0.0000077218   0.0062569039   0.0009240777  -0.0032935673  -0.0041955748
       -0.0010875299  -0.0087236465
        0.0128114670   0.6709833563  -0.0220369998  -0.0772222071  -0.2656204445
       -0.1221123295   0.0115083763  -0.0687072231   0.0234686728  -0.0138513385
       -0.0098369730  -0.0271147190   0.0003833854  -0.0015438627   0.0024125400
       -0.0003268918  -0.0000482396  -0.0008204487   0.0001391432  -0.0001015637
        0.0002181489  -0.0001319638   0.0000471403  -0.0001106113   0.0000191362
        0.0001115947  -0.0001897903   0.0001561037   0.0000023583   0.0002443918
       -0.0001202609   0.0001927108   0.0000290552  -0.0003005667   0.0000480351
        0.0002191857  -0.0001444344  -0.0005468425   0.0002298096   0.0001019916
        0.0001772901   0.0001076687   0.0000786184  -0.0000420781   0.0000066696
       -0.0000443202  -0.0000099781  -0.0000314124  -0.0000206941   0.0000147808
       -0.0000013063  -0.0000180001  -0.0000062810  -0.0000029004  -0.0000014326
       -0.0000278099  -0.0000013242   0.0000031546   0.0000231374  -0.0000012447
       -0.0000128424  -0.0000021164   0.0000001154   0.0000022864  -0.0000037380
       -0.0000014850  -0.0000016079   0.0000010913  -0.0000000781  -0.0000015607
       -0.0000018788  -0.0000009912  -0.0000013211  -0.0000007801  -0.0000005953
        0.0000053289   0.0000006289   0.0000013222   0.0000062873   0.0000116272
        0.0000029402   0.0000016537  -0.0000093274   0.0000012280  -0.0000050538
       -0.0000006840  -0.0000044191  -0.0000000503   0.0000000468   0.0000034300
       -0.0000009645  -0.0000013297   0.0000012657  -0.0000012349  -0.0000019456
       -0.0000006516   0.0000016350   0.0000028114   0.0000023225   0.0000102600
        0.0000052611   0.0000029088  -0.0000217930   0.0000100441  -0.0000057421
        0.0001974739  -0.0001025220  -0.0000074730  -0.0003047934   0.0000229174
       -0.0000023673   0.0000066393  -0.0000662755  -0.0000066591  -0.0000511066
        0.0000128597   0.0000315211  -0.0000331351   0.0000253234  -0.0000278312
        0.0000006712  -0.0000124853   0.0000043873   0.0000093082  -0.0000095216
        0.0000012393  -0.0000134315   0.0000008767   0.0000069218   0.0000123779
       -0.0000163505  -0.0000168104   0.0000391982   0.0000482469  -0.0000233713
       -0.0000081528  -0.0000094130   0.0000066942   0.0000074599   0.0000191602
       -0.0000059621  -0.0000082924  -0.0000191330   0.0000014627  -0.0000011831
       -0.0000047344  -0.0000025790  -0.0000012117  -0.0000040810   0.0000098834
       -0.0000099071   0.0003939198   0.0000093140   0.0135114344   0.0226065724
        0.0233684747   0.0204014981  -0.0947954757   0.0414603365   0.0450039045
       -0.2430884982   0.0987859847  -0.0011235123  -0.0003191501  -0.0011376208
        0.0009544374  -0.0040408798   0.0027409399   0.0000234451   0.0000018309
       -0.0000775540   0.0000064251   0.0000231853   0.0000051271   0.0000329939
       -0.0000093361  -0.0000152749   0.0000187902  -0.0000060927   0.0000234280
        0.0000832101  -0.0000183305  -0.0000264863  -0.0000443506  -0.0002679425
        0.0000174546   0.0000198241  -0.0000192105   0.0000154920  -0.0000185212
        0.0000022705   0.0000086486  -0.0000025131   0.0000018126  -0.0000007642
        0.0000001425  -0.0000014040  -0.0000008180   0.0000004134   0.0000002955
       -0.0000002361  -0.0000000567   0.0000002914  -0.0000000024   0.0000009221
       -0.0000011520   0.0000029183  -0.0000006821  -0.0000008829   0.0000000583
       -0.0000008846  -0.0000010236   0.0000008122  -0.0000016388  -0.0000022067
       -0.0000003045  -0.0000035705  -0.0000008700  -0.0000022020  -0.0000087703
       -0.0000022728   0.0000022199   0.0000115190   0.0000077579   0.0000192429
       -0.0000193043  -0.0000109647  -0.0000222985   0.0000076903   0.0000150177
        0.0000329700   0.0000004267  -0.0000044668   0.0000046264   0.0000046652
       -0.0000076238  -0.0000021088   0.0000062480  -0.0000060737  -0.0000007389
        0.0000029955  -0.0000024602   0.0000018654   0.0000017783   0.0000091498
       -0.0000120744  -0.0000034227  -0.0000063409   0.0000073985  -0.0000004757
       -0.0000076152   0.0000043143  -0.0000033930  -0.0000091914   0.0000020066
       -0.0000022019  -0.0000021471  -0.0000005754  -0.0000632287   0.0000201738
        0.0000285730   0.0009969043  -0.0042426844   0.0032143945  -0.0126353452
       -0.0012116677  -0.0229412244
        0.2277860736  -0.0220369998   0.5297461340  -0.0478904096  -0.0524454792
       -0.1293385994   0.0229276920  -0.0272326530   0.0439849847  -0.0173257073
       -0.0266567498  -0.0391383787  -0.0002342833   0.0021876007   0.0015915391
       -0.0005619080   0.0000621992  -0.0001971381   0.0002247197  -0.0002498891
        0.0004201532  -0.0004027121  -0.0000970651   0.0000222657   0.0001972381
        0.0001803961  -0.0002348636   0.0002176116   0.0000526481   0.0003418537
       -0.0004560085   0.0005719620  -0.0002755547  -0.0004289148  -0.0007959663
       -0.0003353557  -0.0001597528  -0.0004812823   0.0003391728   0.0001696171
        0.0003137804   0.0002241112  -0.0000022143   0.0000069904   0.0000313957
       -0.0000150387  -0.0000180556  -0.0000057847   0.0000124981   0.0000036075
        0.0000028565  -0.0000055614  -0.0000004128  -0.0000017116   0.0000096655
        0.0000006190  -0.0000029604  -0.0000030862   0.0000037453   0.0000048512
       -0.0000019324   0.0000013151   0.0000005144   0.0000036374  -0.0000058572
       -0.0000002650  -0.0000013688  -0.0000031740  -0.0000003423  -0.0000004430
        0.0000044133   0.0000013214   0.0000053358   0.0000026481   0.0000006437
       -0.0000011332  -0.0000023666  -0.0000022791  -0.0000032519   0.0000025647
        0.0000038228   0.0000008909   0.0000014420  -0.0000033648  -0.0000003177
        0.0000003579   0.0000014840  -0.0000004195  -0.0000004721  -0.0000004681
       -0.0000005459   0.0000006055  -0.0000004059   0.0000001258   0.0000016512
        0.0000011318  -0.0000004417  -0.0000008177   0.0000008654  -0.0000021820
       -0.0000017605  -0.0000020320   0.0000185619  -0.0000086068   0.0000003206
        0.0002348792  -0.0002436595  -0.0000403669  -0.0003238757  -0.0001457594
       -0.0000266831   0.0000013878  -0.0000006039   0.0000517492   0.0000325771
       -0.0000060539  -0.0000384399  -0.0000189802   0.0000154713  -0.0000127472
       -0.0000033914   0.0000057097   0.0000020255  -0.0000030754   0.0000015532
        0.0000043326   0.0000172426  -0.0000026822  -0.0000095749  -0.0000112226
        0.0000085887   0.0000171927   0.0000049788   0.0000118375  -0.0000192467
       -0.0000037424  -0.0000126429   0.0000101694   0.0000036089  -0.0000023287
       -0.0000005341   0.0000014017   0.0000013308  -0.0000007783   0.0000023927
        0.0000051234   0.0000012348  -0.0000003567  -0.0000130654  -0.0000020751
        0.0000710789   0.0004750770   0.0000451160  -0.0114502334   0.0745647573
       -0.0287336217  -0.1206587269  -0.0284241624  -0.2640582514  -0.0269846018
        0.0988505009  -0.0901924469  -0.0093821143  -0.0224645244  -0.0140498623
       -0.0036408998   0.0032668506   0.0016338570  -0.0000341357  -0.0000075952
        0.0000378293  -0.0000119781  -0.0000062658  -0.0000025850  -0.0000099194
       -0.0000394330  -0.0000358447  -0.0000240024   0.0000406114  -0.0000042889
       -0.0001422581   0.0001080774  -0.0001862144   0.0000286594  -0.0001394496
       -0.0000469398  -0.0000070949   0.0000047954  -0.0000041351  -0.0000050981
        0.0000026156   0.0000029148   0.0000004414   0.0000022151   0.0000007694
       -0.0000015620   0.0000017631   0.0000005201  -0.0000008838   0.0000008826
        0.0000000596   0.0000001521  -0.0000000214  -0.0000004063   0.0000008866
        0.0000002377  -0.0000018924   0.0000005861   0.0000003665  -0.0000009820
        0.0000008686   0.0000009208  -0.0000005528   0.0000008727   0.0000010581
       -0.0000001240   0.0000018869   0.0000005122  -0.0000001013  -0.0000001731
        0.0000040817   0.0000010459  -0.0000027631   0.0000099454   0.0000051417
        0.0000143586  -0.0000041979  -0.0000523706   0.0000125058  -0.0000038715
        0.0000074911  -0.0000079585  -0.0000016371   0.0000091375   0.0000031403
       -0.0000032697   0.0000025341  -0.0000000293  -0.0000043859   0.0000040114
       -0.0000001009  -0.0000080360   0.0000044799  -0.0000024861  -0.0000041585
       -0.0000035073  -0.0000024888   0.0000002607   0.0000013791  -0.0000031275
        0.0000011010  -0.0000002348  -0.0000004442   0.0000010951  -0.0000000453
       -0.0000013514   0.0000050216   0.0000049005   0.0000169363  -0.0000232674
       -0.0000221236  -0.0034838661   0.0025885094   0.0017912309  -0.0083039349
       -0.0017807380  -0.0132720636
       -0.0770557250  -0.0772222071  -0.0478904096   0.2448682612   0.0171081441
        0.2342628831  -0.0651318270   0.0601863768  -0.0435641615  -0.0062278427
        0.0134188152  -0.0096518339   0.0033321582   0.0013163717  -0.0047579298
        0.0000842354  -0.0004134640  -0.0010414490  -0.0001161874   0.0000328450
       -0.0000077320  -0.0000910202   0.0001194222   0.0000332195   0.0000590723
       -0.0000200730   0.0000468737  -0.0000810729   0.0001013960  -0.0000402214
        0.0001893015  -0.0000618782   0.0001767981  -0.0003427346  -0.0001018516
       -0.0006833506  -0.0002856014  -0.0002197843   0.0003768882   0.0001137875
        0.0002339273   0.0001111195   0.0000052748   0.0000076856   0.0000224697
       -0.0000037606   0.0000068233   0.0000225651   0.0000151596  -0.0000012244
       -0.0000054791  -0.0000045268   0.0000004172  -0.0000039123   0.0000222928
        0.0000208680   0.0000051227  -0.0000050885  -0.0000099808  -0.0000126288
        0.0000014702   0.0000022837   0.0000049035   0.0000052295  -0.0000035854
       -0.0000014584  -0.0000038564  -0.0000064436  -0.0000022259  -0.0000036067
        0.0000095087   0.0000014820   0.0000083428   0.0000013547  -0.0000017823
       -0.0000132531   0.0000004384   0.0000009056  -0.0000085285  -0.0000127233
       -0.0000027590  -0.0000003786   0.0000075127   0.0000021145   0.0000028539
       -0.0000009355   0.0000061819  -0.0000000844   0.0000003833   0.0000003111
       -0.0000008077   0.0000016509  -0.0000015003   0.0000022959   0.0000011942
        0.0000021343   0.0000020488  -0.0000030987  -0.0000000207  -0.0000088551
        0.0000053082   0.0000022785   0.0000048807   0.0000094580   0.0000037019
        0.0001773102  -0.0001916778  -0.0000530017  -0.0002294220  -0.0000121554
        0.0000773395   0.0000473171  -0.0000849100  -0.0000052283  -0.0000437777
        0.0000039764   0.0000168889   0.0000042601   0.0000022500  -0.0000173918
       -0.0000047806  -0.0000077429   0.0000162352   0.0000031985  -0.0000000309
       -0.0000032579  -0.0000042362   0.0000011409   0.0000022171   0.0000096842
       -0.0000069741  -0.0000032621   0.0000223616   0.0000196824  -0.0000061884
       -0.0000073764  -0.0000022446   0.0000155120   0.0000048397   0.0000047384
       -0.0000041844   0.0000011137  -0.0000016062  -0.0000029718  -0.0000001841
        0.0000037157   0.0000024869  -0.0000024011  -0.0000086832   0.0000025601
       -0.0000259178   0.0002935107   0.0000621100  -0.0029209669  -0.0030391981
        0.0033097647  -0.0094387444  -0.0107266649  -0.0189872382   0.0015415166
        0.0047237700   0.0022819398  -0.0949377277   0.0021148329  -0.1113290816
        0.0018494629  -0.0072620393   0.0028413740  -0.0000112110  -0.0000284080
        0.0000083020  -0.0000053009  -0.0000141170  -0.0000079130   0.0000041493
       -0.0000204485  -0.0000120660   0.0000264360   0.0000106799  -0.0000098279
       -0.0000442853   0.0000382238  -0.0000978198   0.0000462706  -0.0000870505
       -0.0000618389   0.0000001842  -0.0000058737  -0.0000303372   0.0000004957
       -0.0000000104  -0.0000013701   0.0000015682  -0.0000001345   0.0000013728
       -0.0000017148   0.0000012458   0.0000007546  -0.0000017807  -0.0000004602
        0.0000007789  -0.0000002588  -0.0000015974   0.0000006410  -0.0000001372
       -0.0000005447  -0.0000049449   0.0000000468   0.0000020067  -0.0000015801
        0.0000004544  -0.0000003586  -0.0000004783  -0.0000009886  -0.0000008119
       -0.0000015121  -0.0000008353   0.0000012405  -0.0000002402  -0.0000062850
       -0.0000039085  -0.0000048925   0.0000028145  -0.0000022809   0.0000009106
        0.0000043176  -0.0000125322  -0.0000266908  -0.0000082999   0.0000161896
        0.0000104578   0.0000031610   0.0000037880  -0.0000050319   0.0000055294
       -0.0000004882  -0.0000012582   0.0000030691   0.0000006714   0.0000002862
        0.0000004445   0.0000011370  -0.0000000818   0.0000000195  -0.0000041649
       -0.0000064673   0.0000011827   0.0000009549  -0.0000005339  -0.0000016244
       -0.0000019057  -0.0000005134   0.0000003866  -0.0000025687  -0.0000017956
        0.0000032098   0.0000006886  -0.0000019994   0.0000297471  -0.0000307803
       -0.0000203228   0.0000062209   0.0000180897   0.0004546707   0.0045655770
       -0.0002150959  -0.0058083786
       -0.0391928481  -0.2656204445  -0.0524454792   0.0171081441   0.6555478129
       -0.0116511292   0.0223520699  -0.2845585963   0.0616796874   0.0397002566
        0.0216821820   0.0754478662  -0.0010608616   0.0021364835  -0.0049367061
        0.0008300991   0.0000554609   0.0011681178  -0.0003281787   0.0002362823
       -0.0004933667   0.0004028084  -0.0000279842   0.0001351664  -0.0001409705
       -0.0002476336   0.0003830190  -0.0002608991  -0.0000169363  -0.0005682392
        0.0004399459  -0.0005764022   0.0001115340   0.0003829147   0.0001543549
        0.0000191679   0.0004862974   0.0008222016  -0.0006076840  -0.0002296628
       -0.0003358204  -0.0001819330  -0.0000697789   0.0000208520  -0.0000424795
        0.0000581479   0.0000245889  -0.0000093280  -0.0000039870   0.0000055309
        0.0000226966   0.0000071138   0.0000089662   0.0000110741  -0.0000408459
        0.0000234732   0.0000118879   0.0000043508  -0.0000374302   0.0000069763
        0.0000158917  -0.0000022091  -0.0000054086  -0.0000186092   0.0000217288
        0.0000048639   0.0000133587   0.0000184382   0.0000054815   0.0000068397
       -0.0000166984  -0.0000026856  -0.0000164412  -0.0000050636   0.0000019574
        0.0000127074   0.0000092690   0.0000057648   0.0000035664  -0.0000116641
       -0.0000139671  -0.0000025501  -0.0000024586  -0.0000015543   0.0000087749
        0.0000037326   0.0000000593   0.0000013933  -0.0000058375  -0.0000065802
        0.0000018845  -0.0000000425  -0.0000012413  -0.0000013516   0.0000014517
       -0.0000035861  -0.0000044358  -0.0000015240  -0.0000075486  -0.0000057420
       -0.0000105936  -0.0000208722   0.0000184450  -0.0000267934  -0.0000071438
       -0.0003650553   0.0003892442   0.0000843206   0.0005765653  -0.0001806300
       -0.0000052718  -0.0000798600   0.0003554894  -0.0000075250   0.0001570396
       -0.0000264583  -0.0000434830  -0.0000000518  -0.0000138912   0.0000329511
        0.0000299864  -0.0000101359   0.0000075479  -0.0000048923   0.0000100704
       -0.0000037752   0.0000342124  -0.0000147576  -0.0000109209  -0.0000329742
        0.0000240618   0.0000377697  -0.0001216624  -0.0001561063   0.0000531464
        0.0000275616   0.0000260450  -0.0000294636  -0.0000206963  -0.0000428291
        0.0000199903   0.0000074085   0.0000201009  -0.0000014248  -0.0000110598
       -0.0000194112   0.0000099487   0.0000065178   0.0000331388  -0.0000170565
        0.0000410433  -0.0004746684   0.0000055437  -0.0024877880  -0.0626566878
        0.0013727661  -0.0384993157   0.0301107993  -0.0739525581  -0.0070855435
       -0.0263416359  -0.0102539897   0.0026564040  -0.0442818232   0.0045141859
        0.0046094277  -0.0267629409   0.0094174472   0.0000285984   0.0000529431
        0.0000405534   0.0000010093  -0.0000035848  -0.0000169225  -0.0000500488
        0.0000491111   0.0000256159  -0.0000275203  -0.0000311653  -0.0000110502
        0.0000612357  -0.0000675359   0.0002411424  -0.0000906721   0.0001592980
        0.0002983352  -0.0000305963   0.0000147314   0.0000275550   0.0000186910
       -0.0000083943  -0.0000161774   0.0000007511  -0.0000077965  -0.0000004029
        0.0000067925  -0.0000037636   0.0000006456   0.0000053356   0.0000004868
       -0.0000005025   0.0000003501   0.0000013290   0.0000003170  -0.0000034795
       -0.0000006725   0.0000025110  -0.0000021458  -0.0000001987   0.0000015722
       -0.0000019682   0.0000033276   0.0000006038   0.0000015400   0.0000045364
        0.0000045254   0.0000027289  -0.0000015709   0.0000049320   0.0000125251
        0.0000098307   0.0000137169   0.0000000336   0.0000006750  -0.0000117211
        0.0000285329   0.0000374777   0.0000545009  -0.0000312887   0.0000148603
       -0.0000255179  -0.0000089431  -0.0000057932  -0.0000013513  -0.0000128902
        0.0000062438   0.0000114048  -0.0000188315   0.0000138066  -0.0000044068
       -0.0000008633   0.0000042280  -0.0000127317   0.0000028777  -0.0000158670
        0.0000107967   0.0000052018   0.0000033873  -0.0000156330   0.0000050627
        0.0000147518  -0.0000096510   0.0000033444   0.0000167723   0.0000035933
       -0.0000031074   0.0000044417   0.0000093264  -0.0000062715  -0.0000015207
       -0.0000224952   0.0001145508  -0.0006439713  -0.0001807989   0.0000743505
        0.0011239453   0.0003391778
       -0.0503038763  -0.1221123295  -0.1293385994   0.2342628831  -0.0116511292
        0.5465052894  -0.0405496138   0.1283745817  -0.1298332014  -0.0119281715
        0.0248817631  -0.0257093028  -0.0054148775  -0.0022759207  -0.0014685461
       -0.0008461948   0.0013539204  -0.0014765763  -0.0002805270   0.0000071125
       -0.0000578917  -0.0000969082  -0.0000368552  -0.0001075613   0.0001021252
       -0.0000171155   0.0000718030  -0.0001240878   0.0000290270  -0.0000989808
        0.0002814852   0.0001470882   0.0000292580   0.0003834913   0.0005059035
        0.0007078122  -0.0001775701  -0.0001326478  -0.0000561687   0.0001212993
        0.0001450332  -0.0000350275   0.0000641298  -0.0000348619   0.0000125341
       -0.0000352203   0.0000039442   0.0000334954   0.0000088230   0.0000013915
       -0.0000131120  -0.0000200916   0.0000040320   0.0000010747   0.0000324640
       -0.0000164383   0.0000036250   0.0000025669   0.0000268904  -0.0000315764
       -0.0000152977  -0.0000002578   0.0000124493   0.0000114084  -0.0000094348
       -0.0000056800  -0.0000090897  -0.0000116102  -0.0000053508  -0.0000039981
        0.0000146910   0.0000010810   0.0000113753   0.0000038178  -0.0000043628
       -0.0000126535  -0.0000022098   0.0000046061  -0.0000030845   0.0000079951
       -0.0000006562   0.0000042550  -0.0000051437   0.0000057184   0.0000001800
        0.0000013278   0.0000073368   0.0000018071  -0.0000003375   0.0000049370
       -0.0000014479   0.0000017992  -0.0000022954   0.0000040579  -0.0000005787
        0.0000023787   0.0000066725   0.0000002972   0.0000032204  -0.0000087384
        0.0000076454   0.0000055399  -0.0000346499   0.0000174815  -0.0000148095
       -0.0000099245  -0.0001212045  -0.0000421436   0.0000585773   0.0003471038
        0.0000117231   0.0000681127  -0.0003011126  -0.0000103328  -0.0001187602
        0.0000130973   0.0000261958   0.0000025177   0.0000027488  -0.0000470002
       -0.0000183094  -0.0000063469   0.0000213625   0.0000037685  -0.0000049615
        0.0000023722  -0.0000114546   0.0000075067   0.0000022296   0.0000202906
       -0.0000124498  -0.0000101157   0.0001117543   0.0001259119  -0.0000488529
       -0.0000297509  -0.0000154135   0.0000386664   0.0000121485   0.0000183263
       -0.0000178694  -0.0000017945  -0.0000048930  -0.0000006374   0.0000077978
        0.0000204436  -0.0000028099  -0.0000125776  -0.0000438748   0.0000115006
       -0.0001811229  -0.0002806312   0.0000708142   0.0029749888  -0.0020675312
        0.0015472121  -0.0172167483  -0.0212860219  -0.0285463307   0.0031529383
        0.0108135756   0.0051588679  -0.1113488995   0.0047104437  -0.2399201775
        0.0024577514  -0.0112053938   0.0051563707  -0.0000390606  -0.0000415603
        0.0000554097  -0.0000192273  -0.0000184444  -0.0000030565  -0.0000003645
        0.0000008881   0.0000212849   0.0000352957   0.0000098819  -0.0000189888
       -0.0000692494   0.0000653345  -0.0000662341   0.0001295537   0.0001474058
       -0.0001202525  -0.0000002095  -0.0000067437  -0.0000285254  -0.0000047555
        0.0000019396   0.0000093749   0.0000008222   0.0000044044   0.0000048879
       -0.0000022615   0.0000033556   0.0000017030  -0.0000020166   0.0000002521
        0.0000018482   0.0000015265  -0.0000007363   0.0000019454   0.0000005425
       -0.0000018047  -0.0000071526  -0.0000000277   0.0000050974  -0.0000048254
        0.0000013966   0.0000017271  -0.0000008851  -0.0000016830  -0.0000008504
       -0.0000030313  -0.0000038496   0.0000027333  -0.0000031282  -0.0000156677
       -0.0000109981  -0.0000092415   0.0000138060  -0.0000040641   0.0000111380
       -0.0000089741  -0.0000220992   0.0000023484   0.0000065518   0.0000317272
        0.0000217473   0.0000003608   0.0000101558  -0.0000000346   0.0000135061
       -0.0000029771  -0.0000034934   0.0000102351  -0.0000059044   0.0000040085
        0.0000013134  -0.0000040927   0.0000063829   0.0000023739  -0.0000038296
       -0.0000136761  -0.0000028459  -0.0000003749   0.0000075971  -0.0000057058
       -0.0000085392   0.0000034823  -0.0000013255  -0.0000102059  -0.0000043939
        0.0000076189   0.0000034040  -0.0000035916   0.0000241169  -0.0000280814
       -0.0000055101   0.0004131425   0.0000487413   0.0006494867  -0.0058391672
       -0.0001039370  -0.0030601293
        0.0144157263   0.0115083763   0.0229276920  -0.0651318270   0.0223520699
       -0.0405496138   0.2326088487   0.0161347817   0.2207314983  -0.1072355471
        0.0107153720  -0.1059397813  -0.0044600622   0.0119171593  -0.0147139758
        0.0007590177   0.0012557960  -0.0006497705  -0.0007104786   0.0000956753
       -0.0003843655   0.0002337879   0.0000781833  -0.0000190910  -0.0001031449
       -0.0001460333   0.0002272110  -0.0000843926  -0.0000206975  -0.0002904306
        0.0006531570  -0.0001406967  -0.0000884558  -0.0012251000  -0.0018806840
        0.0000995384  -0.0007480122  -0.0008105938   0.0007210408   0.0001641739
        0.0003436027   0.0003162823  -0.0000722881   0.0000517751   0.0000172034
        0.0000670763   0.0000253136   0.0000232353   0.0000065930  -0.0000049672
        0.0000143951   0.0000202405  -0.0000085864  -0.0000123692  -0.0000028473
        0.0000500471   0.0000077241  -0.0000053477  -0.0000522232   0.0000073316
        0.0000200929   0.0000050834  -0.0000055665  -0.0000079182   0.0000136581
        0.0000040401   0.0000039069   0.0000077234   0.0000027539  -0.0000015946
       -0.0000063542  -0.0000004194  -0.0000033463  -0.0000047163   0.0000012898
       -0.0000102685   0.0000059976  -0.0000023985  -0.0000067407  -0.0000407188
       -0.0000076251  -0.0000081604   0.0000233465  -0.0000003087   0.0000067761
       -0.0000020738  -0.0000001029  -0.0000016189   0.0000033174  -0.0000070984
        0.0000019036  -0.0000014635   0.0000000187  -0.0000016134   0.0000023881
       -0.0000014254  -0.0000031826  -0.0000051816  -0.0000043648  -0.0000065857
        0.0000017026  -0.0000067953   0.0000580310  -0.0000018507   0.0000321823
        0.0002583302  -0.0002282336  -0.0000448400  -0.0002994052  -0.0004646037
       -0.0001280546   0.0000762484   0.0002147432  -0.0000291461  -0.0000140780
       -0.0000141407   0.0000395345   0.0000624105  -0.0000181386   0.0000583279
        0.0000217355   0.0000102545  -0.0000179143   0.0000157703   0.0000068663
       -0.0000219532  -0.0000036341  -0.0000124979   0.0000200162   0.0000138389
       -0.0000028598  -0.0000041314  -0.0001171455  -0.0001568255   0.0000822898
        0.0000370754   0.0000156974  -0.0000414353  -0.0000110777  -0.0000130502
        0.0000229657   0.0000023316   0.0000031794  -0.0000000613  -0.0000096112
       -0.0000222570   0.0000025129   0.0000145733   0.0000582760  -0.0000089638
        0.0002570218   0.0001607235   0.0000077584  -0.0085627196  -0.0327312414
       -0.0145868155  -0.0128765995   0.0131406176  -0.0168657364   0.0053311264
       -0.0019534532  -0.0034363352  -0.0031411044   0.0124367700  -0.0079967544
       -0.0550261744  -0.0596114376  -0.0364391127  -0.0000439269   0.0000128648
        0.0000788224  -0.0000472003   0.0000067856  -0.0000561200  -0.0000233552
        0.0000131690   0.0000159512  -0.0000548679  -0.0000190503   0.0000049095
       -0.0002062965  -0.0000983246   0.0000677371   0.0000084353  -0.0006396145
        0.0003798646   0.0000003386   0.0000120551  -0.0000278381   0.0000116067
       -0.0000027244  -0.0000160652   0.0000017715  -0.0000075779  -0.0000038688
        0.0000027311  -0.0000031580  -0.0000015893   0.0000009295  -0.0000008893
       -0.0000011369  -0.0000023153  -0.0000013328  -0.0000009731  -0.0000018359
        0.0000025483   0.0000020854  -0.0000004440  -0.0000038428   0.0000049247
       -0.0000020098  -0.0000032764   0.0000005005   0.0000005147  -0.0000007601
        0.0000017366   0.0000021453  -0.0000016116   0.0000033717   0.0000048481
        0.0000026066   0.0000001955  -0.0000184919  -0.0000047372  -0.0000202705
        0.0000402586  -0.0000252046  -0.0000622286  -0.0000559141  -0.0000352840
       -0.0000357494   0.0000147720  -0.0000078287  -0.0000193100  -0.0000214240
        0.0000102644   0.0000021656  -0.0000108175   0.0000146752  -0.0000087855