$hessian                                                                        
        0.5886572034   0.1709964177  -0.1098874074  -0.1986486616  -0.1280104094
       -0.0915396687  -0.0550770712  -0.0170963806   0.0157427757  -0.0009244982
       -0.0075212764  -0.0186939028  -0.0024272346  -0.0006012925   0.0021445284
        0.0001217792  -0.0003448371  -0.0009252344   0.0000887722  -0.0000156358
        0.0001265442   0.0000788257   0.0000166701   0.0000218398   0.0000034641
        0.0000799404  -0.0000556239   0.0000844422  -0.0001239479  -0.0000741522
       -0.0000841226   0.0000927438   0.0000853873   0.0004653517   0.0004992319
        0.0003383237   0.0001723015  -0.0000421532   0.0000336320   0.0001538612
       -0.0000128503   0.0000468287   0.0000640517  -0.0000220626  -0.0000239599
       -0.0000087983  -0.0000205549  -0.0000147507   0.0000519202  -0.0000510361
        0.0000292231  -0.0000179295  -0.0000070583   0.0000120999   0.0000803669
       -0.0000182239   0.0000648517   0.0001886449  -0.0001201578  -0.0000143169
       -0.0001867556   0.0000415660   0.0000118376   0.0000899316  -0.0000190695
        0.0000055321  -0.0000870306   0.0000374244  -0.0000243395  -0.0000823210
       -0.0000175809   0.0000029249  -0.0000701815   0.0000615899  -0.0000213942
        0.0000588788  -0.0000709953   0.0000436880  -0.0000862983   0.0000376956
       -0.0000631374   0.0000049445   0.0000456117   0.0000102141   0.0000010639
       -0.0000187766  -0.0000011692  -0.0000080645   0.0000120021  -0.0000193690
        0.0000027633   0.0000192299   0.0000024217   0.0000083889   0.0000049509
        0.0000136399   0.0000005871  -0.0000100350  -0.0000073602   0.0000080007
        0.0000593972  -0.0000255355   0.0000175416   0.0000346237  -0.0000228478
       -0.0002309288   0.0000301757   0.0000296521   0.0002550978   0.0001641134
        0.0000445752   0.0001183768  -0.0000569859  -0.0000587486   0.0000554441
        0.0001019541  -0.0000529397  -0.0000270641   0.0000185715  -0.0000016107
       -0.0000074606   0.0000496646   0.0000063378  -0.0000039043  -0.0000184478
        0.0000074406   0.0000263157  -0.0000165462  -0.0000404104   0.0000274379
        0.0000085062   0.0000030959  -0.0002860349  -0.0000649002   0.0001750842
       -0.0000843454   0.0000952602  -0.0000269625  -0.0000319653   0.0000590050
        0.0000716318   0.0001467460  -0.0000043978  -0.0000504274  -0.0000156291
       -0.0000307975   0.0000566625  -0.0000037926  -0.0000122837  -0.0000128023
       -0.0003589451  -0.0004384985   0.0000907120   0.0018453214   0.0147923297
        0.0262793735  -0.0952653644   0.0216110478   0.0779509145  -0.2386642666
       -0.0396596511   0.1065189594   0.0034027179   0.0015363372   0.0015806265
       -0.0030247333  -0.0031789805   0.0039828325  -0.0000597038   0.0000645599
       -0.0000034835  -0.0000130229   0.0000369018  -0.0000027158  -0.0000130290
        0.0000110373  -0.0000134563  -0.0000024810   0.0000081518   0.0000129343
       -0.0000053489   0.0000145083  -0.0000354502   0.0000615289  -0.0000379459
        0.0000448802  -0.0000225652   0.0000099532  -0.0000128819  -0.0000092479
        0.0000173570  -0.0000143269  -0.0000054689   0.0000321484   0.0000099473
        0.0000178529   0.0000182853   0.0000029972   0.0000216731  -0.0000093264
        0.0000097387   0.0000130554  -0.0000186304  -0.0000019005   0.0000001525
       -0.0000060278  -0.0000001558   0.0000035771  -0.0000127288   0.0000052444
        0.0000002358  -0.0000156410  -0.0000054726  -0.0000029395  -0.0000113752
       -0.0000133361  -0.0000014583  -0.0000056424  -0.0000112409   0.0000132970
       -0.0000148485   0.0000175718   0.0000045530  -0.0000379514   0.0000238326
       -0.0000077043  -0.0000339961  -0.0000296927  -0.0000023803   0.0000066496
        0.0000013630   0.0000060913   0.0000044722  -0.0000110703   0.0000077463
        0.0000008986  -0.0000089762  -0.0000087329   0.0000047963   0.0000078120
       -0.0000089190  -0.0000217926  -0.0000087853  -0.0000920394   0.0000477586
        0.0000420259   0.0000752295  -0.0000548832  -0.0000933892  -0.0000093399
        0.0000142451   0.0000014282  -0.0000000727   0.0000121656  -0.0000172729
        0.0000014713  -0.0000030828   0.0000046704  -0.0001481403  -0.0001641478
        0.0000831340  -0.0030915855  -0.0031461693   0.0043943479   0.0027105754
       -0.0095899365  -0.0182544407
        0.1709964177   0.3105322703   0.1933827854  -0.0916111116  -0.1456957034
       -0.0909240391  -0.0453638687  -0.0010276416   0.0327837773  -0.0085889749
       -0.0248100300  -0.0271548235   0.0002910245  -0.0003713510   0.0016540960
        0.0000801420  -0.0002690222  -0.0004297312   0.0003093432  -0.0001682570
       -0.0000742203  -0.0000245838   0.0001152914   0.0002002999   0.0000712844
        0.0001182526  -0.0001564339   0.0000685966  -0.0001846447  -0.0000355935
       -0.0001250270   0.0000825532   0.0001883790  -0.0006618043   0.0003030460
       -0.0001910061   0.0004054113  -0.0000414329   0.0000187414  -0.0001760317
        0.0003487706   0.0000697184   0.0001208227   0.0000010371  -0.0000142475
        0.0000165093  -0.0000257695  -0.0000379197  -0.0000598633   0.0000538878
       -0.0000030538   0.0001752024   0.0000001002   0.0000253289  -0.0002057072
       -0.0001558633   0.0000172929   0.0001772290   0.0001379515  -0.0000324007
       -0.0001451103   0.0000237617  -0.0000014897   0.0000454937   0.0000360741
        0.0000004495  -0.0000096518   0.0000100762  -0.0000066215   0.0000227466
        0.0000344414   0.0000007757  -0.0000740957  -0.0000229910  -0.0000039599
        0.0000394230  -0.0000540342   0.0000262043   0.0000243590  -0.0000496125
       -0.0000078407   0.0000028093   0.0000204238  -0.0000013503   0.0000040915
       -0.0000099211   0.0000022473   0.0000009824   0.0000071173  -0.0000005948
       -0.0000002426  -0.0000005814  -0.0000022509   0.0000001694   0.0000030487
        0.0000010681  -0.0000073453  -0.0000068729  -0.0000051423  -0.0000343802
       -0.0000408696   0.0000106226   0.0000189357   0.0000111072  -0.0000075330
        0.0000521152  -0.0002108421   0.0000051830   0.0000706841   0.0001933084
        0.0000484680   0.0000414882  -0.0000691718   0.0000253983   0.0000076233
        0.0000162709  -0.0000201345  -0.0000020080  -0.0000043029   0.0000049032
       -0.0000003095   0.0000049871   0.0000040611   0.0000008060  -0.0000085872
       -0.0000004139   0.0000034727  -0.0000038737  -0.0000015084   0.0000002031
       -0.0000050156  -0.0000019489  -0.0000155514  -0.0000002078   0.0000196084
       -0.0000227124   0.0000500584   0.0000262689   0.0000360170   0.0000333410
       -0.0000483508   0.0000452092  -0.0000111129  -0.0000028892  -0.0000118306
       -0.0000006609   0.0000098191  -0.0000090736   0.0000074349  -0.0000199097
        0.0000530596  -0.0005995612   0.0001649486   0.0419946061   0.0192745207
       -0.0061675448  -0.0145620610  -0.1079728561  -0.0902807773  -0.0397817689
       -0.0435756513   0.0152255945  -0.0089013479  -0.0083857955  -0.0076293469
       -0.0028714058   0.0054748422  -0.0019008853   0.0000208684   0.0000042141
       -0.0000983882   0.0000138939   0.0000172083   0.0000046554  -0.0000203506
        0.0000013420  -0.0000210714   0.0000003259  -0.0000004124   0.0000008687
        0.0000025701  -0.0000063607  -0.0000089481   0.0000242023  -0.0000293589
        0.0000288920  -0.0000043444   0.0000022837  -0.0000066587  -0.0000042998
        0.0000052652   0.0000022823  -0.0000007485   0.0000041940   0.0000047036
        0.0000018759   0.0000030543   0.0000013923   0.0000025330  -0.0000016014
        0.0000018609  -0.0000000389  -0.0000010911  -0.0000011713   0.0000004157
       -0.0000007589   0.0000006591   0.0000003533  -0.0000022335   0.0000010056
       -0.0000001765  -0.0000020517  -0.0000006994  -0.0000004929  -0.0000019585
       -0.0000028587   0.0000003307  -0.0000007697  -0.0000020553   0.0000003772
       -0.0000023056   0.0000053542   0.0000088193  -0.0000217673   0.0000077333
       -0.0000014645  -0.0000091763  -0.0000098333  -0.0000035668  -0.0000021969
       -0.0000037418   0.0000003624  -0.0000003821   0.0000001952  -0.0000001761
       -0.0000004325  -0.0000009002  -0.0000020534  -0.0000006255   0.0000026954
       -0.0000036291  -0.0000013665   0.0000034648  -0.0000364567   0.0000063180
        0.0000164898   0.0000228129   0.0000408134  -0.0000083787  -0.0000263173
        0.0000212541   0.0000040509   0.0000002822   0.0000036210   0.0000030611
       -0.0000033186  -0.0000033463   0.0000067697  -0.0001098328  -0.0000840719
        0.0000359472  -0.0032581006   0.0054422062  -0.0017073804   0.0014649341
       -0.0084912438  -0.0170120737
       -0.1098874074   0.1933827854   0.5382719132  -0.0274594884  -0.0597649456
       -0.1265600800  -0.0309859446   0.0101702845   0.0445352437  -0.0190247197
       -0.0255271218  -0.0368582872   0.0024715186   0.0003621518   0.0010203352
        0.0000536696  -0.0001192880   0.0000947906   0.0006299939  -0.0003107817
       -0.0003407557  -0.0001216693   0.0002460111   0.0004248574   0.0001258336
        0.0001677776  -0.0002562409   0.0000635827  -0.0002454446   0.0000115183
       -0.0001819991   0.0000657824   0.0003514152  -0.0017527387  -0.0000904700
       -0.0006035771   0.0007219753   0.0000517224  -0.0000194272  -0.0004861638
        0.0005254072   0.0001215874   0.0002645721   0.0000064935   0.0000041067
       -0.0000337419  -0.0000793560  -0.0000552001  -0.0000438616   0.0000713857
       -0.0000122676   0.0001386175  -0.0000243374   0.0000256320  -0.0002622734
       -0.0001259522  -0.0000370583  -0.0000130891   0.0002503135  -0.0000225834
        0.0000756891  -0.0000291715  -0.0000056572  -0.0000686163   0.0000431324
       -0.0000077346   0.0001004757  -0.0000584711   0.0000233987   0.0001234340
        0.0001038029  -0.0000013643  -0.0000613893  -0.0000895085   0.0000148468
        0.0000488354   0.0000538274  -0.0000090269   0.0000552412  -0.0001241222
        0.0000374747   0.0000002040   0.0000165599  -0.0000137125   0.0000027390
       -0.0000041641   0.0000039303   0.0000071448   0.0000012981   0.0000155575
       -0.0000035886  -0.0000192234  -0.0000041270  -0.0000084112   0.0000078752
       -0.0000101215  -0.0000090391  -0.0000115516  -0.0000026174   0.0000193484
       -0.0000490378   0.0000265180  -0.0000928567   0.0000416098  -0.0000121432
        0.0003401215  -0.0003550050  -0.0000190659  -0.0002174340   0.0002392160
        0.0000579984   0.0000838354  -0.0000993438   0.0000574942  -0.0000356131
       -0.0000927885   0.0000403661   0.0000420468  -0.0000361010  -0.0000039897
        0.0000110408  -0.0000266752  -0.0000061480   0.0000050789   0.0000001164
       -0.0000068807  -0.0000200649  -0.0000035741   0.0000395422  -0.0000372881
        0.0000167424  -0.0000026940   0.0001050181   0.0000244952  -0.0000672444
       -0.0000610190   0.0000176945   0.0000052745   0.0000723709   0.0000042576
       -0.0001142245  -0.0000524517  -0.0000138670   0.0000588700   0.0000132531
        0.0000063524  -0.0000160791   0.0000045140   0.0000119214   0.0000100130
        0.0002142586  -0.0008272540   0.0003654452   0.0725210338   0.0182545171
       -0.0323085463   0.0142122362  -0.1218842265  -0.2670110063   0.1065124994
        0.0154474889  -0.0971980448  -0.0176911911  -0.0175056445  -0.0136893583
        0.0045086416  -0.0019101471   0.0012513279   0.0001808699  -0.0000702836
       -0.0001870913   0.0000467432  -0.0000136577   0.0000028080  -0.0000335787
       -0.0000092488  -0.0000299604   0.0000066492  -0.0000102294  -0.0000069777
        0.0000018478  -0.0000175774   0.0000099512   0.0000104247  -0.0000318097
        0.0000174043   0.0000121856  -0.0000077059   0.0000010441   0.0000022081
       -0.0000118821   0.0000232781   0.0000025731  -0.0000248953  -0.0000025445
       -0.0000124507  -0.0000134198   0.0000004659  -0.0000177606   0.0000054276
       -0.0000049925  -0.0000090963   0.0000132207  -0.0000002990   0.0000018367
        0.0000051532   0.0000013427  -0.0000002096   0.0000061596  -0.0000013472
        0.0000001448   0.0000067620   0.0000059638   0.0000020730   0.0000063743
        0.0000060244   0.0000020545   0.0000049657   0.0000066957  -0.0000103753
        0.0000092553  -0.0000121421   0.0000152828  -0.0000046206  -0.0000095199
        0.0000087471   0.0000066467   0.0000024184  -0.0000074764  -0.0000018220
       -0.0000082269  -0.0000052587  -0.0000029344   0.0000083565  -0.0000043581
       -0.0000005394   0.0000023860   0.0000053193  -0.0000063862  -0.0000013103
        0.0000010639   0.0000148220   0.0000135943   0.0000569558  -0.0000033780
        0.0000210445  -0.0000459366   0.0000910953   0.0000068003   0.0000204606
       -0.0000150307  -0.0000170305   0.0000116167  -0.0000177098   0.0000177231
        0.0000026041  -0.0000099283  -0.0000073188  -0.0001063039  -0.0000504971
        0.0000410583   0.0038834792  -0.0019806010   0.0013545535   0.0010409011
       -0.0080291736  -0.0128483456
       -0.1986486616  -0.0916111116  -0.0274594884   0.5730503098   0.1667654080
       -0.1025620856  -0.2737747404  -0.0692409354   0.0787757003  -0.0000824398
        0.0401116502   0.0720126945   0.0036009368  -0.0007269586  -0.0030698970
       -0.0000461233   0.0008458027   0.0017181325  -0.0005264283   0.0001545925
        0.0000847724  -0.0000377580  -0.0001824188  -0.0004017506  -0.0000749437
       -0.0002466004   0.0002386292  -0.0002571131   0.0003933964   0.0000906248
        0.0002713919  -0.0001920871  -0.0003886097  -0.0000034013  -0.0008803222
        0.0001419007  -0.0005600195   0.0000221632  -0.0000343234   0.0000175088
       -0.0000037250  -0.0001314960  -0.0002819876  -0.0000625937   0.0000450952
        0.0000552338   0.0002042270   0.0000280826  -0.0000536445   0.0000656730
       -0.0000538654   0.0000507763   0.0000429340  -0.0000287854   0.0000058839
        0.0001223309  -0.0000143995  -0.0002990681   0.0000678619   0.0000270680
        0.0003037014  -0.0000575936  -0.0000044414  -0.0001575511   0.0000045110
       -0.0000013885   0.0000888034  -0.0000590917   0.0000330373   0.0000208583
       -0.0000026984   0.0000366452   0.0001314256  -0.0000434276   0.0000252224
       -0.0000935435   0.0001108295  -0.0000662092   0.0000790760  -0.0000548545
        0.0001002002   0.0000309374  -0.0000156721  -0.0000014253   0.0000350107
       -0.0000353827   0.0000230047   0.0000172195   0.0000080966   0.0000188139
       -0.0000112739  -0.0000175238  -0.0000190508  -0.0000254092  -0.0000056213
       -0.0000339380  -0.0000472779  -0.0000202316  -0.0000209015  -0.0000486340
       -0.0001144939   0.0000379681   0.0000887413  -0.0001175474   0.0000560459
        0.0003964884   0.0001878880   0.0000063062  -0.0002672317  -0.0003251753
        0.0000621051  -0.0001229492   0.0002127656  -0.0001123713  -0.0000962567
       -0.0003229890   0.0001607209   0.0000794523   0.0000385824  -0.0000768644
       -0.0000135767  -0.0001055691   0.0000158618   0.0000081589   0.0000388272
       -0.0000180687  -0.0000391976  -0.0000213984   0.0000445861  -0.0000548281
        0.0000748268  -0.0000127443   0.0003139703  -0.0000473807  -0.0000593642
       -0.0001418647  -0.0000674191   0.0000442346   0.0002659398  -0.0000397663
       -0.0000258763   0.0000021632  -0.0000512949   0.0000626632  -0.0000151091
        0.0000427665  -0.0000672967   0.0000207343   0.0000731210  -0.0000102082
        0.0001914870   0.0011229247  -0.0005088726  -0.0505372711  -0.0220749729
        0.0018123492   0.0388572088  -0.0170437005  -0.0628648064  -0.0211506174
       -0.0163648887  -0.0094965486  -0.0504917186   0.0162590443   0.0409521601
       -0.0212793434  -0.0054839781   0.0085544359  -0.0001023661   0.0000394288
        0.0002582291  -0.0000318617  -0.0000129452  -0.0000230215   0.0000320038
        0.0000293358   0.0000654237   0.0000050183   0.0000060816  -0.0000081731
        0.0000284913   0.0000239140  -0.0000169043  -0.0000623631   0.0000046072
       -0.0000534861  -0.0000152868   0.0000064951  -0.0000218006  -0.0000090881
        0.0000033109  -0.0000066442   0.0000091343   0.0000096014  -0.0000076473
       -0.0000074889   0.0000050270  -0.0000049422   0.0000020908  -0.0000038755
        0.0000039026  -0.0000085240   0.0000144497  -0.0000072133  -0.0000042448
       -0.0000022933  -0.0000144146  -0.0000103360  -0.0000009745  -0.0000015779
       -0.0000010623   0.0000081056  -0.0000073570   0.0000071634   0.0000013341
        0.0000107509  -0.0000014862  -0.0000098848  -0.0000277049  -0.0000042917
       -0.0000133449  -0.0000170611  -0.0000135223   0.0000126913   0.0000079302
       -0.0000031585   0.0000074374   0.0000193897  -0.0000282580   0.0000407175
        0.0000388565  -0.0000026900   0.0000058526  -0.0000240329   0.0000145927
       -0.0000162717  -0.0000162078  -0.0000059860  -0.0000059584   0.0000084997
        0.0000220491  -0.0000337839   0.0000111373  -0.0000547229   0.0000170144
       -0.0000902744  -0.0001017788   0.0000686238  -0.0000304305  -0.0000023956
        0.0000038107   0.0000212681   0.0000043879   0.0000015320  -0.0000117020
       -0.0000070560  -0.0000281929  -0.0000227291   0.0001746509   0.0000501425
        0.0000893660  -0.0004543478  -0.0002285814  -0.0001901656   0.0018892987
       -0.0013342059   0.0024047530
       -0.1280104094  -0.1456957034  -0.0597649456   0.1667654080   0.3142911804
        0.2031738428  -0.0323757696  -0.0689938414  -0.0146152165   0.0143046468
        0.0166384361   0.0201909154   0.0014158862   0.0038490765  -0.0065086979
       -0.0004558668   0.0001989103  -0.0002139736  -0.0003174347   0.0002258928
        0.0001524952   0.0000548953  -0.0000614869  -0.0001709510  -0.0000453878
       -0.0000733615   0.0001102806   0.0000460476   0.0000999760   0.0000730617
        0.0001741517  -0.0001524225  -0.0000850486  -0.0005852966  -0.0004689782
       -0.0007906320   0.0002681488   0.0000972310   0.0000629112  -0.0002308450
        0.0001865229   0.0000909501   0.0000172266  -0.0000198674   0.0000031748
        0.0000098105   0.0000546712  -0.0000370575  -0.0000499091   0.0000858085
       -0.0000304485   0.0001076249   0.0000115827   0.0000043070  -0.0001064949
       -0.0000516984  -0.0000045739  -0.0000568055   0.0001480984  -0.0000117219
        0.0000780589  -0.0000115375  -0.0000063612  -0.0000521141   0.0000403621
       -0.0000050249   0.0000523260  -0.0000042017   0.0000117099   0.0000554216
        0.0000114948   0.0000148109   0.0000322773  -0.0000626547   0.0000142441
       -0.0000318015   0.0000267950  -0.0000245880   0.0000521198  -0.0000230420
        0.0000414219   0.0000058494  -0.0000598146  -0.0000044709   0.0000107683
        0.0000041781   0.0000078971   0.0000108077  -0.0000085314   0.0000152393
       -0.0000056139  -0.0000114217  -0.0000092241  -0.0000112743  -0.0000133916
       -0.0000156045  -0.0000138074   0.0000067288   0.0000004521  -0.0000174914
       -0.0000922803   0.0000373419   0.0000056195  -0.0000619039   0.0000296698
        0.0003286898   0.0000022112  -0.0000400990  -0.0003162004   0.0000985234
        0.0000420680   0.0000285386  -0.0000024694  -0.0000430928  -0.0000700248
       -0.0002496447   0.0001444506   0.0000729353  -0.0000068988  -0.0000298941
        0.0000040218  -0.0000808128  -0.0000045026   0.0000120320   0.0000185100
       -0.0000200007  -0.0000478369  -0.0000101521   0.0000693561  -0.0000713251
        0.0000481996   0.0000003658   0.0002550494   0.0000497805  -0.0001472366
       -0.0000290820  -0.0001418014  -0.0000221353   0.0001453888  -0.0001081566
        0.0000234403  -0.0000643943   0.0000001198   0.0000196454   0.0000350722
        0.0000525229  -0.0000912746  -0.0000055755   0.0000655529   0.0000065512
        0.0003294814   0.0000022179   0.0001103090  -0.0229180414  -0.0133673813
        0.0044239497   0.0093059836  -0.0205430603  -0.0464330360  -0.0051002508
       -0.0034088705  -0.0018586364   0.0154837869  -0.0829330512  -0.1000237448
       -0.0165817453  -0.0034464991   0.0068115527   0.0000098465  -0.0000047016
        0.0000081871  -0.0000127716   0.0000058155  -0.0000108910  -0.0000038768
        0.0000121283   0.0000147033  -0.0000011125  -0.0000033506  -0.0000171248
       -0.0000056998   0.0000006163  -0.0000108810  -0.0000583296  -0.0000034250
       -0.0000235148   0.0000072989  -0.0000025954  -0.0000043275  -0.0000048356
       -0.0000032256   0.0000106590   0.0000052689  -0.0000096647  -0.0000027143
       -0.0000141303  -0.0000079525  -0.0000030412  -0.0000111915   0.0000020587
       -0.0000019541  -0.0000105765   0.0000166351  -0.0000045696  -0.0000031903
       -0.0000000864  -0.0000055910  -0.0000074648   0.0000080881  -0.0000058042
       -0.0000011306   0.0000127722   0.0000013183   0.0000031642   0.0000050416
        0.0000093035  -0.0000010438  -0.0000010056  -0.0000102937  -0.0000142978
        0.0000065126  -0.0000138057   0.0000067301   0.0000132126  -0.0000058720
       -0.0000048884  -0.0000036424   0.0000227207  -0.0000139331   0.0000058863
        0.0000023763  -0.0000070460  -0.0000004960  -0.0000025864   0.0000015621
       -0.0000100228  -0.0000030327   0.0000047624  -0.0000131403   0.0000004973
        0.0000191787  -0.0000026451   0.0000162675  -0.0000359855   0.0000604284
        0.0000322788  -0.0000019783  -0.0001309991   0.0000164734   0.0000234582
        0.0000040424   0.0000142463   0.0000042969  -0.0000009594  -0.0000007875
       -0.0000031057  -0.0000064996  -0.0000256625  -0.0000178971   0.0000019383
        0.0000399372  -0.0001645167  -0.0000909384   0.0003799025  -0.0015838406
        0.0039905281  -0.0050906378
       -0.0915396687  -0.0909240391  -0.1265600800  -0.1025620856   0.2031738428
        0.5591716162   0.1396438598   0.0156471960  -0.1381405845   0.0263662825
       -0.0024252469  -0.0290421323   0.0003527435  -0.0055790126  -0.0016446091
        0.0015979802  -0.0003577845  -0.0015606845   0.0001219980   0.0004049035
       -0.0000741407   0.0000024678  -0.0000019401  -0.0000262154  -0.0000306671
        0.0000836658   0.0000329637   0.0000335714  -0.0001377151  -0.0001171234
        0.0000145376  -0.0002973649   0.0000464954  -0.0000365581   0.0002081852
        0.0005280555  -0.0000530597  -0.0000866991   0.0000873660  -0.0000870348
        0.0002369194  -0.0000104111   0.0000334752  -0.0000260033  -0.0000122100
       -0.0000362237  -0.0000265364   0.0000031429  -0.0000227092   0.0000251674
       -0.0000070951  -0.0000671198  -0.0000130515   0.0000030717  -0.0000232226
       -0.0000332248  -0.0000423612  -0.0001593223   0.0001069149   0.0000112896
        0.0001639768  -0.0000243083  -0.0000066593  -0.0000583154   0.0000419529
       -0.0000071194   0.0000653654   0.0000096035   0.0000134175   0.0000766981
       -0.0000134306   0.0000012008   0.0000711502  -0.0000649770   0.0000192697
       -0.0000840962   0.0000330004  -0.0000469917   0.0000759118   0.0000437268
        0.0000386592  -0.0000125322  -0.0001108258  -0.0000109314  -0.0000096532
        0.0000444550  -0.0000005769   0.0000020796  -0.0000355779   0.0000117687
       -0.0000018318  -0.0000068091   0.0000013693  -0.0000039162  -0.0000222311
       -0.0000075829   0.0000125382   0.0000307937   0.0000181982   0.0000171851
       -0.0000309553   0.0000192036  -0.0000576612   0.0000171892  -0.0000036273
        0.0001083340  -0.0000625192  -0.0000555794  -0.0001044167   0.0005118085
       -0.0000613729   0.0003136642  -0.0000758435  -0.0001967407  -0.0000353160
       -0.0002295633   0.0001803123   0.0001085677  -0.0000181998  -0.0000384252
        0.0000123049  -0.0000851072  -0.0000271773   0.0000111308   0.0000225410
       -0.0000147916  -0.0000541932  -0.0000006979   0.0000793943  -0.0000975184
        0.0000716195   0.0000376993  -0.0000806329  -0.0000204579   0.0000092444
       -0.0000348425   0.0000007143  -0.0001807018  -0.0000126962  -0.0000827980
        0.0006799314   0.0000536873   0.0000689200  -0.0001222596  -0.0000116404
        0.0000331647  -0.0001130773   0.0000152669   0.0000739046  -0.0000355773
       -0.0000531008  -0.0002934034   0.0000617977  -0.0012610471   0.0029143688
        0.0018206694  -0.0151399163  -0.0234951206  -0.0261091453   0.0095675148
        0.0075296930   0.0052589797   0.0411090526  -0.0997735796  -0.2460198248
       -0.0103485573  -0.0019769337   0.0053443928   0.0000804174  -0.0000311518
       -0.0000717674  -0.0000035762  -0.0000028570  -0.0000039809   0.0000060842
       -0.0000028190   0.0000118288   0.0000185723  -0.0000238388  -0.0000165286
       -0.0000080147  -0.0000380670   0.0000354068  -0.0000338100  -0.0000093566
       -0.0000181739   0.0000204726  -0.0000045562   0.0000074433   0.0000047587
       -0.0000129842   0.0000097996   0.0000047155  -0.0000358171  -0.0000058914
       -0.0000240057  -0.0000210138  -0.0000029976  -0.0000320143   0.0000087206
       -0.0000093646  -0.0000108957   0.0000224722   0.0000007381  -0.0000014756
        0.0000025493   0.0000002159  -0.0000043255   0.0000159998  -0.0000090266
        0.0000000213   0.0000174212   0.0000065386   0.0000036608   0.0000097965
        0.0000117369   0.0000034011   0.0000037053   0.0000038985  -0.0000119005
        0.0000138131  -0.0000103989   0.0000290950   0.0000065903  -0.0000134525
        0.0000002160   0.0000100856   0.0000149665  -0.0000057234  -0.0000115461
       -0.0000263949  -0.0000127813  -0.0000043551   0.0000090357  -0.0000046653
       -0.0000043800   0.0000069100   0.0000116941  -0.0000175070  -0.0000073759
        0.0000198433   0.0000090722   0.0000076248  -0.0000789670   0.0000915627
        0.0001298210   0.0001108903  -0.0002727505  -0.0003341870   0.0000719095
       -0.0000109919  -0.0000007175  -0.0000038961   0.0000257634  -0.0000514335
        0.0000002195   0.0000168745  -0.0000571996   0.0000797038   0.0001375577
       -0.0001587870  -0.0000837483   0.0004497308   0.0005993620   0.0019823350
       -0.0053400163  -0.0032413484
       -0.0550770712  -0.0453638687  -0.0309859446  -0.2737747404  -0.0323757696
        0.1396438598   0.5980360078   0.1811652763  -0.0978704149  -0.0814548757
       -0.0134207515   0.0027306452  -0.0213722649   0.0104838163   0.0353986194
       -0.0022773721  -0.0038314857   0.0021095383   0.0006996033  -0.0003507187
       -0.0001451913   0.0000436062   0.0000384099   0.0002993576   0.0000625759
        0.0002330623  -0.0001991546   0.0000030902  -0.0005162311   0.0002131745
       -0.0014899593   0.0015025395   0.0013227422  -0.0001202250   0.0030662275
        0.0027767313   0.0004827518   0.0002329152  -0.0000068355   0.0000094566
        0.0001611444  -0.0000036451   0.0001828186  -0.0000130616  -0.0000445394
       -0.0000017565  -0.0000761762  -0.0000199486  -0.0000434186   0.0000111504
        0.0000148797   0.0000650890  -0.0000056337   0.0000260179  -0.0001245915
       -0.0001314364  -0.0000102187   0.0001746272   0.0000591921  -0.0000361069
       -0.0001740282   0.0000345287  -0.0000009989   0.0000782478   0.0000251214
       -0.0000049477  -0.0000247141   0.0000480873  -0.0000165700   0.0000417563
        0.0000002359  -0.0000253365  -0.0000635305  -0.0000238972  -0.0000068840
        0.0000172285  -0.0000631951   0.0000324456   0.0000180582   0.0000153813
       -0.0000443281  -0.0000246009  -0.0000267102  -0.0000010148  -0.0000229653
        0.0000353720  -0.0000147908  -0.0000044682  -0.0000132414   0.0000030001
        0.0000028576  -0.0000027816   0.0000105567   0.0000112527   0.0000039166
        0.0000219013   0.0000281193   0.0000202705   0.0000222559  -0.0000032910
       -0.0000222406  -0.0000017701  -0.0000245361   0.0000450531  -0.0000533917
       -0.0003835369  -0.0002165397  -0.0000850560   0.0003485456   0.0004952350
        0.0000874747   0.0001784092  -0.0001503721  -0.0000907960   0.0000391112
        0.0000506753   0.0000653807   0.0000048823  -0.0000062570   0.0000062635
        0.0000141932   0.0000081226  -0.0000420011   0.0000039885   0.0000152872
       -0.0000039978  -0.0000098201   0.0000378017   0.0000107954  -0.0000249542
        0.0000030740   0.0000282784  -0.0004143254  -0.0000396465   0.0001589109
        0.0006069285   0.0001565591   0.0001953117  -0.0001606746   0.0000135676
       -0.0000358686  -0.0000698302   0.0000018314  -0.0000533188   0.0000071792
        0.0000227789  -0.0000413655   0.0000052297  -0.0000142671  -0.0000446619
       -0.0002812275  -0.0013910090   0.0004510182   0.0329876372   0.0068448996
       -0.0151442914  -0.0217810238   0.0089218704   0.0311039508  -0.0014978943
       -0.0046311037  -0.0008403256  -0.0061150212  -0.0006535141   0.0054287813
       -0.1665185164  -0.1056579009  -0.0759054826   0.0000950818   0.0000601736
       -0.0001640966   0.0000030287   0.0000384877   0.0000114326  -0.0000239575
        0.0000020922  -0.0000321867  -0.0000478090   0.0000976175   0.0001193111
        0.0000220698   0.0000907825  -0.0001010995   0.0002638956  -0.0000703096
        0.0001114448   0.0000186034  -0.0000154450   0.0000274690   0.0000070916
       -0.0000113729   0.0000108265  -0.0000035101  -0.0000261479   0.0000022936
       -0.0000091136  -0.0000171031   0.0000013359  -0.0000175579   0.0000090351
       -0.0000083372  -0.0000013831   0.0000041625   0.0000059038  -0.0000007126
        0.0000044680   0.0000090954   0.0000014961   0.0000110007  -0.0000041465
        0.0000001858   0.0000035577   0.0000109680  -0.0000018153   0.0000017935
       -0.0000031112   0.0000017224   0.0000162175   0.0000216348  -0.0000098524
        0.0000208913   0.0000054717   0.0000332502   0.0000168670   0.0000151464
        0.0000507648  -0.0000121901   0.0000076067   0.0000175315  -0.0000161243
       -0.0000277143  -0.0000055327  -0.0000003448   0.0000222911  -0.0000107001
        0.0000059592   0.0000186838   0.0000143657  -0.0000038657  -0.0000163982