$hessian                                                                        
        0.5239510120  -0.2485446690  -0.0349558443  -0.1027822357   0.0485324395
       -0.0934116416  -0.0130083626   0.0124276549  -0.0263116337   0.0013672572
       -0.0053065743   0.0080851708  -0.0372331071   0.0232450820   0.0135487552
       -0.1509824037   0.0435339835   0.1435375490  -0.0017717505   0.0032322886
        0.0002246037  -0.0005314957   0.0007580141  -0.0000768021   0.0002749620
       -0.0001278158   0.0000372461  -0.0000084589  -0.0000767509  -0.0001453711
       -0.0000296299   0.0000221248   0.0000826361  -0.0000093503   0.0000252407
        0.0000149393   0.0000017521   0.0000047471   0.0000063108   0.0000007697
       -0.0000102671  -0.0000033629   0.0000013787   0.0000025950  -0.0000010715
       -0.0000099605  -0.0000070003  -0.0000036272   0.0000024283   0.0000037913
        0.0000001989  -0.0000063919   0.0000054413  -0.0000041202   0.0000104912
       -0.0000021248   0.0000004881  -0.0000084971  -0.0000027421  -0.0000034205
       -0.0000027979  -0.0000064695  -0.0000007780  -0.0000149680   0.0000032979
       -0.0000026982  -0.0000082822   0.0000022294  -0.0000001785   0.0000225180
        0.0000076432   0.0000102694  -0.0000145633   0.0000122378  -0.0000067889
       -0.0000346841  -0.0001608060   0.0000189401   0.0001667711  -0.0001760305
       -0.0002056529  -0.0014695794   0.0012406705   0.0000652437  -0.2247539055
        0.1210618544  -0.0187209506   0.0043678008  -0.0043972222   0.0143939143
       -0.0020591679   0.0061509601  -0.0002326648   0.0044784698  -0.0015030236
       -0.0059645986  -0.0000046167   0.0000393160  -0.0000071208   0.0000327391
        0.0000268876   0.0000029882  -0.0000000253   0.0000129080   0.0000039936
       -0.0000015866  -0.0000025226  -0.0000005405   0.0000061445   0.0000029935
        0.0000011676   0.0000026652  -0.0000023621   0.0000001651  -0.0000005343
       -0.0000012921   0.0000013248  -0.0000021025   0.0000009569   0.0000000741
       -0.0000001084  -0.0000032661   0.0000000988  -0.0000014813  -0.0000040678
       -0.0000018547   0.0000028975  -0.0000022132  -0.0000063845   0.0000599902
       -0.0000181384   0.0000310282
       -0.2485446690   0.2768110316  -0.0590124338   0.0378383667  -0.0853961413
        0.0932515783   0.0210576558  -0.0132532564   0.0137796558  -0.0054895160
       -0.0016810430   0.0039212757   0.0158186224  -0.0065758033  -0.0139896956
        0.0530947296  -0.0693424977  -0.0566947545   0.0025841397   0.0028958287
        0.0025788564   0.0012942268  -0.0002404405  -0.0010760082   0.0001982087
       -0.0000373657   0.0001453995   0.0001118836   0.0001525837   0.0000040502
       -0.0000479306  -0.0000606454  -0.0000151294   0.0000128339  -0.0000109636
       -0.0000108460  -0.0000089584  -0.0000111293  -0.0000051352   0.0000012344
        0.0000072347   0.0000047060  -0.0000037182  -0.0000049689  -0.0000001216
        0.0000090717   0.0000076890   0.0000040506   0.0000027568  -0.0000009900
        0.0000007280   0.0000030169  -0.0000041459   0.0000032170  -0.0000040646
        0.0000012764   0.0000006388   0.0000046324   0.0000014935   0.0000010247
        0.0000055586   0.0000041650   0.0000021858   0.0000130488  -0.0000032969
        0.0000013971   0.0000030673  -0.0000032571  -0.0000013161  -0.0000172683
       -0.0000060749  -0.0000093775   0.0000028700  -0.0000028274   0.0000002070
        0.0001709891   0.0001350868  -0.0000610439  -0.0004280926  -0.0000152567
        0.0002826691   0.0008931251  -0.0010129561  -0.0001811393   0.1211545722
       -0.1107003288   0.0133958583  -0.0014467786   0.0022133065  -0.0049460710
        0.0061306455   0.0038421642   0.0011947759  -0.0043934774   0.0023003166
        0.0074369298   0.0000231487  -0.0000306072   0.0000076423   0.0000234964
        0.0000081411   0.0000097759  -0.0000039061  -0.0000087175  -0.0000037916
        0.0000016559   0.0000041943  -0.0000006457  -0.0000043202  -0.0000028046
       -0.0000010064  -0.0000054060   0.0000019557  -0.0000004943  -0.0000020431
        0.0000014139  -0.0000015286   0.0000000510  -0.0000000871  -0.0000009506
       -0.0000006451   0.0000045277  -0.0000002742   0.0000018324   0.0000047197
        0.0000023723  -0.0000022756  -0.0000010715   0.0000053026  -0.0000523707
        0.0000095477  -0.0000225339
       -0.0349558443  -0.0590124338   0.6375961482  -0.0255568002   0.0520382889
       -0.2806267355  -0.0754282152   0.0451162105   0.0164184843   0.0079136672
        0.0018450028  -0.0611380643   0.0633041560  -0.0457938158   0.0306605602
        0.0762776343  -0.0148092076  -0.2530539390  -0.0033044952   0.0025953185
        0.0034564733   0.0020292961  -0.0005007792   0.0006644172  -0.0009458366
        0.0000636910   0.0002286674   0.0006399410   0.0000049276   0.0005502479
        0.0001925107   0.0003879080  -0.0006743895   0.0000033684  -0.0001198914
       -0.0000591134  -0.0000342558   0.0000228143  -0.0000107136  -0.0000015737
        0.0000016617  -0.0000060463   0.0000045286   0.0000053594   0.0000000938
        0.0000023191   0.0000065249  -0.0000010258   0.0000006431   0.0000008127
       -0.0000018263  -0.0000061286  -0.0000123347   0.0000077078   0.0000063090
        0.0000011883  -0.0000008292  -0.0000034623  -0.0000037328   0.0000060613
        0.0000046816   0.0000020962  -0.0000004021  -0.0000006139  -0.0000059839
       -0.0000026633  -0.0000004492  -0.0000060215  -0.0000015496  -0.0000017766
        0.0000089381  -0.0000060302   0.0000120694  -0.0000129184   0.0000146655
       -0.0006922371   0.0001465302   0.0003828257   0.0005278233   0.0002111778
       -0.0010003115   0.0001376709  -0.0000289907   0.0004668576  -0.0186950126
        0.0136375030  -0.0452764567  -0.0055778309   0.0075306765  -0.0249905914
        0.0001614376   0.0009998786   0.0012775667   0.0139427927  -0.0042719481
       -0.0248143596   0.0000403076   0.0000277588  -0.0000454740  -0.0000020641
       -0.0000933611  -0.0000317848   0.0000028542   0.0000020921   0.0000062719
        0.0000021916  -0.0000027248   0.0000027225  -0.0000010881  -0.0000034177
        0.0000002104  -0.0000069360  -0.0000024243  -0.0000003111  -0.0000054942
       -0.0000009507  -0.0000036129  -0.0000071128  -0.0000000194  -0.0000004723
       -0.0000047445   0.0000047159   0.0000001206  -0.0000011945   0.0000085345
        0.0000037435  -0.0000042679  -0.0000035197   0.0000026686   0.0000312322
        0.0000148654   0.0000001878
       -0.1027822357   0.0378383667  -0.0255568002   0.5115964703  -0.2385090331
       -0.0499749709  -0.2517389906   0.1349799883  -0.0473450758  -0.0377834236
        0.0168514758   0.0627419340  -0.0262930237   0.0181626942  -0.0256180860
        0.0396573142  -0.0227030176  -0.0111385198  -0.0006180761   0.0003122004
        0.0012402835  -0.0004481814   0.0000063262  -0.0003144325   0.0003393653
       -0.0002168194  -0.0001721068  -0.0003603996   0.0000678472  -0.0003169853
       -0.0000980717  -0.0003523027   0.0004216407   0.0000120530   0.0000933499
       -0.0000039069   0.0000347043  -0.0000027352   0.0000139346  -0.0000061831
        0.0000035445  -0.0000073648   0.0000082549  -0.0000068202   0.0000019861
       -0.0000101421  -0.0000100717  -0.0000006795  -0.0000081231  -0.0000015424
       -0.0000023440   0.0000103938   0.0000011847   0.0000045089  -0.0000154851
       -0.0000008990  -0.0000072903   0.0000101288   0.0000068290   0.0000053287
       -0.0000144488  -0.0000009401  -0.0000052010  -0.0000063566   0.0000071050
       -0.0000013977   0.0000054460   0.0000040694   0.0000016304   0.0000035903
       -0.0000126334  -0.0000071147   0.0000015412   0.0000074363  -0.0000039639
        0.0006723858  -0.0000116913  -0.0004417457  -0.0005623503   0.0000560892
        0.0015740177   0.0016791232   0.0009172670   0.0013350590  -0.0093428215
        0.0096333339  -0.0224220562  -0.1159479005   0.0330711798   0.1148780513
       -0.0088859400   0.0060447509  -0.0026516833   0.0009004926   0.0036556319
        0.0037594405   0.0000063183  -0.0000020875  -0.0000400028   0.0000032268
        0.0000869848   0.0000195843  -0.0000015727   0.0000038168   0.0000091440
       -0.0000080213   0.0000014326   0.0000010155   0.0000023315   0.0000074431
        0.0000025085   0.0000044690  -0.0000006084   0.0000033255   0.0000050452
       -0.0000007292   0.0000027441   0.0000035584   0.0000012517   0.0000016957
        0.0000003421  -0.0000059927   0.0000004129  -0.0000051073  -0.0000032630
       -0.0000001775   0.0000065251   0.0000007500   0.0000039069  -0.0000262254
        0.0000188379   0.0000097525
        0.0485324395  -0.0853961413   0.0520382889  -0.2385090331   0.2694603908
       -0.0522977972   0.1243191218  -0.1276179807   0.0373806358   0.0240899284
       -0.0079382987  -0.0442423347   0.0168129903  -0.0188604661   0.0177872637
       -0.0290852308   0.0174774675   0.0172203033   0.0002214590  -0.0002759839
       -0.0007012119   0.0002135296  -0.0001837614   0.0003248835  -0.0002496744
        0.0001919413   0.0001162751   0.0002563048  -0.0000915155   0.0003370769
        0.0002851036   0.0003739112  -0.0003850438   0.0000119437  -0.0000473992
       -0.0000286448  -0.0000156822   0.0000062574  -0.0000083760   0.0000098773
       -0.0000057378   0.0000045324  -0.0000045401   0.0000048704  -0.0000000246
        0.0000047652   0.0000090836   0.0000004723   0.0000103884   0.0000024818
        0.0000032528  -0.0000099678  -0.0000003202   0.0000007021   0.0000153950
       -0.0000000949   0.0000064530  -0.0000086957  -0.0000079190  -0.0000006667
        0.0000103776  -0.0000003407   0.0000035656   0.0000032725  -0.0000057652
       -0.0000002303  -0.0000048842  -0.0000060724  -0.0000007141   0.0000059746
        0.0000106589   0.0000099629  -0.0000000904  -0.0000012283   0.0000053678
       -0.0004584678   0.0000698614   0.0000220200   0.0019289905  -0.0001377235
       -0.0010532688  -0.0015374868   0.0058336819   0.0001993207   0.0065522672
       -0.0056034134   0.0144939448   0.0332723422  -0.0475172856  -0.0429409034
        0.0095363888  -0.0053133126   0.0024026969   0.0037620616   0.0056460763
       -0.0006509720  -0.0000024546   0.0000020418   0.0000212790   0.0000100615
       -0.0000730068  -0.0000238084  -0.0000043731   0.0000000973  -0.0000073635
        0.0000051368   0.0000004411  -0.0000015692  -0.0000008846  -0.0000056160
       -0.0000018666  -0.0000064423  -0.0000001292  -0.0000026667  -0.0000068489
        0.0000000399  -0.0000043956  -0.0000059499  -0.0000006927  -0.0000016570
       -0.0000028910   0.0000062350  -0.0000011855   0.0000041938   0.0000030741
       -0.0000002425  -0.0000069367  -0.0000006545  -0.0000088980   0.0000462207
       -0.0000077519  -0.0000144562
       -0.0934116416   0.0932515783  -0.2806267355  -0.0499749709  -0.0522977972
        0.6573038015   0.0194959022  -0.0048805010  -0.0941293584   0.0130073158
       -0.0125355443   0.0325539523  -0.0259510788   0.0193385977  -0.0162702232
        0.0387775452  -0.0133523589  -0.0670066420   0.0009874640  -0.0009762014
       -0.0010948202  -0.0010137460   0.0003501839  -0.0002103870   0.0005505645
       -0.0000001731  -0.0000515160  -0.0003141363  -0.0000010675  -0.0003342088
       -0.0001064962  -0.0001325827   0.0004032077   0.0000087657   0.0000576569
        0.0000318544   0.0000055618  -0.0000267932  -0.0000017091   0.0000086811
        0.0000041165   0.0000092339  -0.0000038959  -0.0000041173   0.0000005779
       -0.0000011364   0.0000008785   0.0000026277   0.0000103751   0.0000092605
        0.0000044045  -0.0000065415   0.0000119049  -0.0000049512   0.0000163294
        0.0000021999   0.0000076573  -0.0000088662  -0.0000023250  -0.0000078191
        0.0000180251  -0.0000093711   0.0000062935   0.0000018770  -0.0000009849
        0.0000010736   0.0000059763   0.0000000577   0.0000012478  -0.0000139879
       -0.0000060855  -0.0000057024  -0.0000150778   0.0000024613  -0.0000101036
        0.0004671161   0.0000500686  -0.0002499427   0.0002812931  -0.0008097038
        0.0005476578   0.0037329615  -0.0007983857  -0.0029230541  -0.0024999375
        0.0019684647  -0.0034536823   0.1149522709  -0.0430918116  -0.2172281834
       -0.0223234848   0.0143215008  -0.0038013270   0.0033827653  -0.0004233838
       -0.0034842563  -0.0000463176  -0.0000233794   0.0000544766   0.0000136963
        0.0000340601   0.0000200379  -0.0000057809  -0.0000137099  -0.0000091515
        0.0000003416   0.0000055967  -0.0000004732  -0.0000028564  -0.0000020091
       -0.0000000068  -0.0000018005   0.0000016104  -0.0000005185  -0.0000025768
        0.0000014342   0.0000006657   0.0000037830   0.0000006819  -0.0000003707
        0.0000060969   0.0000011483   0.0000010668   0.0000038192  -0.0000023362
        0.0000000371  -0.0000020626   0.0000060264   0.0000056161  -0.0000321346
       -0.0000288655  -0.0000503467
       -0.0130083626   0.0210576558  -0.0754282152  -0.2517389906   0.1243191218
        0.0194959022   0.5058524663  -0.2444937753  -0.0165445524  -0.1289316651
        0.0422757813   0.0751257239   0.0331218150  -0.0269016410   0.0369767932
       -0.0381925453   0.0190451885   0.0224499651   0.0028392482   0.0016104026
       -0.0050297825  -0.0001198719  -0.0000002998  -0.0002415673  -0.0002173902
        0.0001497298   0.0001284043   0.0004180311  -0.0001768104   0.0005580999
        0.0002945234   0.0002870120  -0.0009060518   0.0000481854  -0.0001045180
        0.0001000803  -0.0000047736   0.0000842319  -0.0000123411  -0.0000220795
        0.0000047651   0.0000001450   0.0000192535   0.0000160365   0.0000076886
        0.0000021359   0.0000108013  -0.0000008853  -0.0000060827  -0.0000112516
        0.0000020841   0.0000234052  -0.0000242945  -0.0000041712  -0.0000425475
       -0.0000096887  -0.0000061093   0.0000389379   0.0000098871   0.0000052456
       -0.0000137731   0.0000114063  -0.0000029028   0.0000121226  -0.0000105668
       -0.0000021785   0.0000000760  -0.0000184797   0.0000038892   0.0000619812
       -0.0000117518   0.0000661807   0.0000261406  -0.0000322915   0.0000225743
       -0.0020411649  -0.0007734023   0.0010827892  -0.0007071130   0.0034278468
       -0.0028628393  -0.0275483354   0.0160209804   0.0166327384   0.0019526463
        0.0034037607  -0.0014952385  -0.0160452326   0.0101713855   0.0010195207
       -0.0657937949   0.0308122825  -0.0718416274  -0.0004191724  -0.0000018146
        0.0004010844  -0.0000451088  -0.0000555200   0.0001264121   0.0000480834
       -0.0000738912   0.0000377527  -0.0000199752   0.0000298640  -0.0000050914
       -0.0000010129  -0.0000254537  -0.0000015913  -0.0000143329  -0.0000185537
       -0.0000051265  -0.0000219680  -0.0000074882  -0.0000077768  -0.0000261433
       -0.0000047456  -0.0000074337  -0.0000236941   0.0000018718  -0.0000082733
       -0.0000189357   0.0000151944  -0.0000073644   0.0000081100  -0.0000031543
       -0.0000037065   0.0000018315  -0.0000419461  -0.0000654889   0.0002550726
        0.0000361326   0.0002472416
        0.0124276549  -0.0132532564   0.0451162105   0.1349799883  -0.1276179807
       -0.0048805010  -0.2444937753   0.2727954122  -0.0675196814   0.0354986369
       -0.0646023343  -0.0184541210  -0.0204646306   0.0165229933  -0.0129935053
        0.0196823020  -0.0144380146  -0.0136397182   0.0013227588   0.0026153760
        0.0024827290   0.0006823582   0.0002343605  -0.0009649976  -0.0000930677
        0.0000118370   0.0002955013   0.0001917178   0.0001388945  -0.0001254088
       -0.0000427183  -0.0000282185   0.0001865960   0.0000236471   0.0000914167
       -0.0000511637   0.0000466974  -0.0000260334   0.0000117229  -0.0000048454
        0.0000219567   0.0000037433   0.0000107641  -0.0000122263   0.0000033268
        0.0000030368  -0.0000046755   0.0000012831  -0.0000116724  -0.0000003210
       -0.0000026210   0.0000202205   0.0000015504   0.0000093666  -0.0000149423
        0.0000036658  -0.0000043896   0.0000063961   0.0000094354   0.0000069745
       -0.0000093281  -0.0000008871  -0.0000019796  -0.0000043464   0.0000078395
        0.0000015649   0.0000211651   0.0000110460   0.0000044000  -0.0000569246
       -0.0000176497  -0.0000412849   0.0000219844  -0.0000010503  -0.0000036970
        0.0009865643   0.0002930420  -0.0006996551  -0.0000690654  -0.0020098833
        0.0024748415   0.0177328156  -0.0072457522  -0.0105604816   0.0035586704
        0.0046604770   0.0027454740   0.0071526415  -0.0038171835  -0.0006303691
        0.0307884828  -0.0642068795   0.0777762618   0.0001020062  -0.0001340770
       -0.0003744269   0.0000386710   0.0000024678  -0.0000408619   0.0000425432
       -0.0000268256  -0.0000406288   0.0000064023  -0.0000211288  -0.0000059733
       -0.0000044610   0.0000152290  -0.0000026813   0.0000061614   0.0000124547
        0.0000009943   0.0000104352   0.0000037021   0.0000031008   0.0000140506
        0.0000033311   0.0000022760   0.0000133851   0.0000008457   0.0000039772
        0.0000088305  -0.0000093229   0.0000030475  -0.0000086198   0.0000063528
        0.0000008835  -0.0000020358   0.0000265736   0.0000348243  -0.0001205559
       -0.0000165594  -0.0001309524
       -0.0263116337   0.0137796558   0.0164184843  -0.0473450758   0.0373806358
       -0.0941293584  -0.0165445524  -0.0675196814   0.6441257206   0.1268007050
       -0.0501455176  -0.2444067710  -0.0086588350   0.0146889513  -0.0623321085
        0.0190935364  -0.0119595087  -0.0084070658  -0.0019367745   0.0019730652
       -0.0021546633   0.0001354403  -0.0000610883   0.0002112074  -0.0000105048
       -0.0001672882  -0.0001416548  -0.0001042774   0.0000452500  -0.0000908082
       -0.0000183548  -0.0002872674   0.0001581989   0.0000367832   0.0000672504
        0.0000240002  -0.0000103534  -0.0000320141  -0.0000151183   0.0000179653
        0.0000016312   0.0000081066  -0.0000131719  -0.0000039512  -0.0000034659
        0.0000083385   0.0000096171   0.0000029289   0.0000201675   0.0000070658
        0.0000028813  -0.0000123762   0.0000104305  -0.0000017787   0.0000195616
        0.0000042921   0.0000031578  -0.0000178605  -0.0000041515  -0.0000076317
        0.0000205001  -0.0000047529   0.0000057512   0.0000028891  -0.0000078238
       -0.0000017228  -0.0000082851  -0.0000008785  -0.0000052908  -0.0000287225
        0.0000050238  -0.0000155254  -0.0000329472   0.0000017737  -0.0000078238
        0.0005233795   0.0000220293  -0.0000981473  -0.0008143869   0.0007698865
        0.0010642950   0.0077304735  -0.0063367481   0.0031578577  -0.0017256596
        0.0027999308  -0.0043837490   0.0209199381  -0.0128499057   0.0002882634
       -0.0719317808   0.0780997541  -0.2500157591   0.0003476572  -0.0003622663
        0.0006855610  -0.0000558851  -0.0000505087   0.0000513749  -0.0000176961
        0.0000661030   0.0000177807   0.0000016783   0.0000092177  -0.0000091585
        0.0000085590   0.0000071617  -0.0000007744   0.0000003877  -0.0000054512
        0.0000004877  -0.0000043322   0.0000012155   0.0000010601  -0.0000053308
        0.0000008239   0.0000007874  -0.0000058636  -0.0000008801  -0.0000010209
       -0.0000031546   0.0000066893   0.0000012296   0.0000005043   0.0000109995
        0.0000053874   0.0000007852  -0.0000072388   0.0000072555  -0.0000714347
        0.0000384685  -0.0000123812
        0.0013672572  -0.0054895160   0.0079136672  -0.0377834236   0.0240899284
        0.0130073158  -0.1289316651   0.0354986369   0.1268007050   0.3677573439
       -0.1657821916  -0.0460969284  -0.0813280750   0.0358306433  -0.0813739677
       -0.0154638356   0.0122497169  -0.0227705595   0.0009510253  -0.0003720289
        0.0145697556   0.0011147848   0.0002229209  -0.0033895572  -0.0003541191
       -0.0005151776  -0.0002575952  -0.0002554490   0.0005093988  -0.0009212445
       -0.0013156744  -0.0018415325   0.0010928434  -0.0002487743   0.0000361613
       -0.0000495138  -0.0000241451  -0.0001154134   0.0000145572   0.0000407302
       -0.0000134761   0.0000006008  -0.0000014378  -0.0000461765  -0.0000040758
       -0.0000260502  -0.0000431500  -0.0000081882  -0.0000188621   0.0000186455
       -0.0000079319  -0.0000341179   0.0000226091  -0.0000077213   0.0000326271
        0.0000141995   0.0000045645  -0.0000343581  -0.0000208093  -0.0000054540
       -0.0000010490  -0.0000161910  -0.0000029708  -0.0000459363   0.0000482896
       -0.0000091473  -0.0000238058   0.0000136595  -0.0000158733   0.0000132289
        0.0000272453  -0.0000598438  -0.0000038100   0.0000658383  -0.0000280699
        0.0017399136   0.0010056400   0.0005056806  -0.0191604954   0.0001012496
        0.0113506225  -0.0901532083   0.0539929196  -0.0148654320   0.0006435420
       -0.0003607330   0.0003048711  -0.0015896782   0.0057211723   0.0001284706
        0.0042182159  -0.0012055372  -0.0056762539  -0.0012771382   0.0057632591
       -0.0000384651   0.0002934204   0.0001210821  -0.0004105833  -0.0000184543
        0.0002207635  -0.0000161219   0.0000131760  -0.0000533773   0.0000145661
       -0.0000098633   0.0000498737   0.0000017724   0.0000210131   0.0000348531
        0.0000091946   0.0000333681   0.0000067954   0.0000105984   0.0000372817
        0.0000016233   0.0000125774   0.0000398804   0.0000012338   0.0000143585
        0.0000208902  -0.0000300087   0.0000107686  -0.0000148862  -0.0000197360
        0.0000110367   0.0000380290   0.0000026421   0.0000604325  -0.0002574152
        0.0002540542   0.0001765392
       -0.0053065743  -0.0016810430   0.0018450028   0.0168514758  -0.0079382987
       -0.0125355443   0.0422757813  -0.0646023343  -0.0501455176  -0.1657821916
        0.2157329822  -0.0553752633   0.0301167824  -0.0767874103   0.0827576079
        0.0199336766  -0.0127574983   0.0133207314  -0.0028871315   0.0013691093
       -0.0055122141   0.0018480244   0.0008689702   0.0019192837   0.0001679570
       -0.0000597691  -0.0001178697   0.0002667981  -0.0001528501   0.0001774592
       -0.0004825985   0.0003241027  -0.0006770307   0.0000288979  -0.0001644340
        0.0002621985  -0.0000475315   0.0000658981  -0.0000271424  -0.0000388345
        0.0000217050   0.0000051004   0.0000076360   0.0000222209   0.0000035030
        0.0000160148   0.0000249349   0.0000044568  -0.0000006215  -0.0000156793
        0.0000044202   0.0000342939  -0.0000292804  -0.0000244289  -0.0000394057
       -0.0000132922  -0.0000080023   0.0000368594   0.0000257712  -0.0000136189
       -0.0000047777   0.0000120929   0.0000012123   0.0000230425  -0.0000266575
        0.0000073997   0.0000179417  -0.0000023487   0.0000061954  -0.0000476539
       -0.0000310449   0.0000246121   0.0000002448  -0.0000657703   0.0000105285
       -0.0026219409  -0.0015124944   0.0027144913  -0.0018961048   0.0069314054
       -0.0103710213   0.0612563803  -0.0688293217   0.0217004703  -0.0004536356
        0.0001783813  -0.0000789164   0.0057744391   0.0040739694   0.0009780726
       -0.0044471263   0.0017627146   0.0076915185   0.0056558805   0.0034635309
        0.0010777422  -0.0001885390  -0.0000702690   0.0001841258  -0.0000329770
       -0.0000634369   0.0000655778  -0.0000011071   0.0000291996  -0.0000097655
        0.0000057584  -0.0000319454  -0.0000027208  -0.0000125309  -0.0000199363
       -0.0000063576  -0.0000198332  -0.0000043694  -0.0000100280  -0.0000238540
        0.0000016802   0.0000018676  -0.0000202243   0.0000021293  -0.0000099756
       -0.0000072051   0.0000171616  -0.0000041999   0.0000101532   0.0000197820
       -0.0000046537   0.0000154813  -0.0000182709  -0.0000112312   0.0000188794
       -0.0000699863   0.0001819243
        0.0080851708   0.0039212757  -0.0611380643   0.0627419340  -0.0442423347
        0.0325539523   0.0751257239  -0.0184541210  -0.2444067710  -0.0460969284
       -0.0553752633   0.6098881846  -0.0430877647   0.0584405896  -0.2563962734
       -0.0679205135   0.0414127335   0.0155749647   0.0087566588   0.0001130752
       -0.0390347154  -0.0032779390   0.0001392749   0.0002710380   0.0002131121
        0.0007224623   0.0006907289  -0.0002588416  -0.0000334991  -0.0003636651
       -0.0001184594   0.0005497213   0.0010582965  -0.0001072016  -0.0000274427
       -0.0000940008   0.0000074255  -0.0000734421   0.0000231157   0.0000021927
       -0.0000188060   0.0000128200  -0.0000081019  -0.0000195100   0.0000009826
       -0.0000225588  -0.0000248821  -0.0000035604   0.0000003532   0.0000160061
        0.0000017549  -0.0000384088   0.0000162575  -0.0000064606   0.0000431287
        0.0000009770   0.0000130919  -0.0000253254  -0.0000213890  -0.0000080352
       -0.0000091294  -0.0000186219   0.0000005924  -0.0000153902   0.0000209336
        0.0000065537  -0.0000188301   0.0000242156   0.0000135404   0.0000442680
        0.0000033207   0.0000325699  -0.0000021647   0.0001154842  -0.0000364754
        0.0026801549   0.0014358070  -0.0017787774   0.0065524023  -0.0105598340
        0.0045068272  -0.0177560792   0.0249346084  -0.0362806216   0.0002184431
        0.0000637480  -0.0007604841  -0.0000436038   0.0008846793   0.0011253456
        0.0139673422  -0.0045582494  -0.0262598452   0.0001780701   0.0010182617
        0.0006996165  -0.0002308104  -0.0001413864   0.0003515294   0.0000079967
       -0.0001942436  -0.0000619286   0.0000328841  -0.0000522866  -0.0000175054
       -0.0000034330   0.0000242355  -0.0000001631   0.0000176766   0.0000225852
        0.0000033609   0.0000273258   0.0000049130   0.0000028929   0.0000264564
       -0.0000013208   0.0000040978   0.0000223478  -0.0000053380   0.0000052238
        0.0000131516  -0.0000218217  -0.0000000999   0.0000038236  -0.0000383068
       -0.0000135449   0.0000132282   0.0000744083  -0.0000334840   0.0002602127
       -0.0000774744  -0.0001466050
       -0.0372331071   0.0158186224   0.0633041560  -0.0262930237   0.0168129903
       -0.0259510788   0.0331218150  -0.0204646306  -0.0086588350  -0.0813280750
        0.0301167824  -0.0430877647   0.4321316470  -0.2126447065   0.0343341996
       -0.2297644654   0.1253683930  -0.0481226170  -0.0458700361   0.0102877820
        0.0313500254  -0.0173825467   0.0045184638   0.0118083370  -0.0015613773
        0.0009135208  -0.0010106537  -0.0013533607  -0.0014427632  -0.0004733684
        0.0001669564  -0.0000115994   0.0005840784  -0.0000460093   0.0002259874
        0.0001566604   0.0001242033   0.0000265326   0.0000314148  -0.0000234227
       -0.0000009938   0.0000052767   0.0000246067  -0.0000096310   0.0000129753
       -0.0000075250  -0.0000154025  -0.0000024839  -0.0000247525  -0.0000155769
        0.0000028266   0.0000384191   0.0000019226  -0.0000183471  -0.0000495363
       -0.0000115968  -0.0000038517   0.0000448751   0.0000226946  -0.0000016945
       -0.0000425843   0.0000054231  -0.0000049324   0.0000015208   0.0000142928
        0.0000103449   0.0000043284   0.0000048180   0.0000196126   0.0000409912
       -0.0000292040   0.0000681354   0.0000269953   0.0000218902  -0.0000062193
       -0.0000579132  -0.0010858213   0.0000800131   0.0038090615  -0.0006691342
        0.0000051814  -0.0208813597   0.0176405414  -0.0170291879   0.0010145562
        0.0037434392   0.0031755910  -0.0001347066   0.0002138173  -0.0007374557
        0.0010164800   0.0036952349   0.0029440417  -0.0095823073   0.0068640848
       -0.0030016588  -0.0003549146   0.0002464109   0.0001588882  -0.0001255836
       -0.0000153630  -0.0000241394  -0.0000165485  -0.0000108623  -0.0000183652
       -0.0000083974  -0.0000017010  -0.0000078316   0.0000010146   0.0000051445
       -0.0000050372   0.0000060266   0.0000002558  -0.0000074050   0.0000001618
       -0.0000037854   0.0000016880   0.0000015082  -0.0000008118  -0.0000031917
       -0.0000025639  -0.0000071888  -0.0000056908   0.0000026260  -0.0000234492
       -0.0000189504   0.0000124278   0.0000018091  -0.0000657904   0.0005538960
       -0.0001066321   0.0002131041
        0.0232450820  -0.0065758033  -0.0457938158   0.0181626942  -0.0188604661
        0.0193385977  -0.0269016410   0.0165229933   0.0146889513   0.0358306433
       -0.0767874103   0.0584405896  -0.2126447065   0.2422912272  -0.0760944625
        0.1165630127  -0.1244329031   0.0358544891   0.0146850046  -0.0231282534
       -0.0238611948   0.0006012543  -0.0027014562   0.0024267762  -0.0009348616
        0.0005189423  -0.0007635783  -0.0005403913   0.0001932946   0.0003367255
        0.0000752707  -0.0001940914   0.0000946943  -0.0000748194  -0.0000776210
       -0.0000946673  -0.0000157771  -0.0000250218  -0.0000045355   0.0000406988
       -0.0000131811  -0.0000069324   0.0000005761   0.0000001677  -0.0000009654
       -0.0000129089  -0.0000103339  -0.0000063115  -0.0000025096   0.0000040744
       -0.0000031753  -0.0000200483   0.0000095870   0.0000048425   0.0000274944
        0.0000054799   0.0000012896  -0.0000272646  -0.0000184251   0.0000073193
        0.0000053971  -0.0000029019  -0.0000062012  -0.0000261180   0.0000105132
       -0.0000032054   0.0000058192   0.0000078319  -0.0000076857  -0.0000141056
        0.0000229326  -0.0000398070   0.0000177065  -0.0000056635   0.0000165600
        0.0000957659   0.0003829385  -0.0000970837  -0.0005710693   0.0012044254
        0.0000034906   0.0156948376  -0.0126544376   0.0137530038   0.0036250736
        0.0054910833  -0.0003470577   0.0001707019  -0.0001943357   0.0003855169
        0.0037324479   0.0050877402  -0.0004999645   0.0096568088  -0.0060975185
        0.0024944882   0.0000438134   0.0000362987  -0.0001474228  -0.0002187155
       -0.0000649988  -0.0000586659   0.0000086715  -0.0000125331   0.0000036170
       -0.0000048817   0.0000174900   0.0000063548   0.0000062692   0.0000139675
        0.0000061734   0.0000141293   0.0000034583   0.0000062553   0.0000164011
        0.0000037379   0.0000044591   0.0000175010  -0.0000003787   0.0000101944
        0.0000104868  -0.0000130942   0.0000064875  -0.0000054461  -0.0000023768