 Entering Gaussian System
 *********************************************
 Gaussian 98:
 frequency output generated by the xtb code
 *********************************************
                         Standard orientation:
 --------------------------------------------------------------------
  Center     Atomic     Atomic              Coordinates (Angstroms)
  Number     Number      Type              X           Y           Z
 --------------------------------------------------------------------
    1          8             0        5.436289    1.881885   -1.385945
    2          6             0        5.828623    0.896855   -0.786754
    3          6             0        7.202405    0.836993   -0.228478
    4          6             0        7.845102    2.036445    0.086607
    5          6             0        9.114712    2.029089    0.635631
    6          6             0        9.766942    0.828415    0.874527
    7          6             0        9.147362   -0.369808    0.549252
    8          6             0        7.877868   -0.355711    0.009318
    9         16             0        7.107366   -1.880595   -0.513297
   10          8             0        7.357396   -2.041008   -1.930692
   11          8             0        7.521304   -2.970309    0.339021
   12          6             0        5.371217   -1.541465   -0.292331
   13          6             0        4.487700   -2.564381   -0.012629
   14          6             0        3.131046   -2.300571    0.067397
   15          6             0        2.643738   -1.010697   -0.155092
   16          6             0        1.202130   -0.731271   -0.095780
   17          6             0        0.609160    0.136308   -1.012323
   18          6             0       -0.747830    0.386930   -0.961084
   19          6             0       -1.559098   -0.206778    0.003285
   20         14             0       -3.426186    0.136725    0.028753
   21          6             0       -4.280061   -0.882647   -1.323736
   22          6             0       -5.658812   -1.077606   -1.287425
   23          6             0       -6.306363   -1.795483   -2.276809
   24          6             0       -5.581469   -2.337488   -3.325822
   25          6             0       -4.208950   -2.158655   -3.374851
   26          6             0       -3.567792   -1.438309   -2.382146
   27          6             0       -4.152230   -0.360813    1.709322
   28          6             0       -4.423483    0.583156    2.695207
   29          6             0       -4.948562    0.207351    3.919274
   30          6             0       -5.212672   -1.126977    4.180427
   31          6             0       -4.949862   -2.080638    3.210352
   32          6             0       -4.425675   -1.697894    1.988811
   33          6             0       -3.689084    1.989530   -0.281091
   34          6             0       -4.722633    2.452423   -1.089749
   35          6             0       -4.916751    3.806872   -1.296888
   36          6             0       -4.075659    4.727857   -0.694638
   37          6             0       -3.039708    4.285233    0.111818
   38          6             0       -2.850879    2.929815    0.313676
   39          6             0       -0.957363   -1.062163    0.921169
   40          6             0        0.397916   -1.326809    0.874575
   41          6             0        3.550941    0.006913   -0.441413
   42          6             0        4.920325   -0.242267   -0.506410
   43          1             0        7.323926    2.962561   -0.104977
   44          1             0        9.598333    2.963191    0.876736
   45          1             0       10.756234    0.822067    1.305037
   46          1             0        9.627330   -1.322677    0.709664
   47          1             0        4.881731   -3.557328    0.138971
   48          1             0        2.442090   -3.104113    0.276970
   49          1             0        1.212872    0.594064   -1.782436
   50          1             0       -1.190512    1.060306   -1.681194
   51          1             0       -6.229783   -0.662738   -0.468265
   52          1             0       -7.377630   -1.934424   -2.231201
   53          1             0       -6.084407   -2.898487   -4.100790
   54          1             0       -3.637675   -2.582952   -4.188800
   55          1             0       -2.496161   -1.306813   -2.426466
   56          1             0       -4.225428    1.626791    2.496778
   57          1             0       -5.154253    0.955920    4.671737
   58          1             0       -5.624158   -1.422796    5.135074
   59          1             0       -5.156386   -3.123429    3.407593
   60          1             0       -4.229358   -2.446235    1.233539
   61          1             0       -5.380178    1.740105   -1.567270
   62          1             0       -5.724898    4.146160   -1.929833
   63          1             0       -4.225161    5.786268   -0.854782
   64          1             0       -2.378415    4.999497    0.582455
   65          1             0       -2.036912    2.591501    0.939713
   66          1             0       -1.562532   -1.524118    1.687417
   67          1             0        0.843199   -1.980035    1.610642
   68          1             0        3.209716    1.019260   -0.599355
 --------------------------------------------------------------------
     1 basis functions        1 primitive gaussians
     1 alpha electrons        1 beta electrons
 
 Harmonic frequencies (cm**-1), IR intensities (km*mol⁻¹),
 Raman scattering activities (A**4/amu), Raman depolarization ratios,
 reduced masses (AMU), force constants (mDyne/A) and normal coordinates:
                      1                      2                      3
                        a                      a                      a 
 Frequencies --     9.6480                13.8291                19.3583
 Red. masses --    12.6952                11.4844                12.2926
 Frc consts  --     0.0000                 0.0000                 0.0000
 IR Inten    --     0.5423                 0.4849                 0.5388
 Raman Activ --     0.0000                 0.0000                 0.0000
 Depolar     --     0.0000                 0.0000                 0.0000
 Atom AN      X      Y      Z        X      Y      Z        X      Y      Z
   1   8     0.06   0.13   0.26     0.03  -0.05  -0.10     0.11  -0.10  -0.21
   2   6     0.04   0.05   0.13     0.03  -0.03  -0.06     0.05  -0.05  -0.10
   3   6     0.04  -0.03   0.10     0.05  -0.03  -0.11     0.01  -0.04  -0.01
   4   6     0.08  -0.08   0.18     0.09  -0.03  -0.20     0.00  -0.03  -0.02
   5   6     0.09  -0.15   0.16     0.11  -0.03  -0.25    -0.03  -0.02   0.05
   6   6     0.07  -0.19   0.05     0.10  -0.04  -0.21    -0.06  -0.02   0.15
   7   6     0.03  -0.15  -0.04     0.05  -0.04  -0.13    -0.05  -0.03   0.16
   8   6     0.02  -0.07  -0.01     0.03  -0.04  -0.08    -0.02  -0.04   0.08
   9  16    -0.05  -0.02  -0.19    -0.03  -0.07   0.05    -0.00  -0.08   0.15
  10   8    -0.06   0.10  -0.15    -0.09  -0.14   0.03     0.08  -0.12   0.13
  11   8    -0.05  -0.10  -0.24    -0.02  -0.01   0.08    -0.07  -0.02   0.18
  12   6    -0.02   0.02  -0.07    -0.00   0.00   0.07    -0.01  -0.02  -0.01
  13   6    -0.04   0.01  -0.15    -0.02   0.03   0.14    -0.03   0.01   0.01
  14   6    -0.03   0.04  -0.12    -0.01   0.06   0.16    -0.03   0.03  -0.03
  15   6    -0.00   0.06  -0.02     0.01   0.06   0.11    -0.00   0.03  -0.09
  16   6     0.00   0.08   0.00     0.01   0.08   0.12     0.00   0.06  -0.09
  17   6     0.01   0.14   0.06     0.02   0.06   0.09    -0.00   0.04  -0.10
  18   6     0.01   0.14   0.06     0.02   0.06   0.08    -0.00   0.05  -0.09
  19   6     0.00   0.08   0.02     0.01   0.08   0.08     0.01   0.08  -0.07
  20  14    -0.01   0.06   0.01    -0.00   0.04   0.04    -0.00   0.08  -0.07
  21   6     0.04  -0.03   0.03     0.09   0.02  -0.02     0.00   0.03  -0.03
  22   6     0.05  -0.09   0.02     0.09  -0.03  -0.08     0.01  -0.02  -0.00
  23   6     0.09  -0.17   0.05     0.15  -0.04  -0.11     0.02  -0.05   0.02
  24   6     0.13  -0.19   0.09     0.21  -0.01  -0.09     0.01  -0.04   0.01
  25   6     0.12  -0.13   0.09     0.21   0.04  -0.03     0.01   0.01  -0.02
  26   6     0.08  -0.05   0.06     0.15   0.05   0.00     0.00   0.04  -0.04
  27   6     0.00   0.05   0.01    -0.06  -0.02  -0.02     0.08   0.01  -0.03
  28   6    -0.01   0.06   0.00    -0.15  -0.04  -0.02     0.16  -0.02   0.03
  29   6     0.00   0.06   0.01    -0.20  -0.08  -0.05     0.26  -0.06   0.05
  30   6     0.02   0.06   0.02    -0.17  -0.09  -0.09     0.26  -0.06   0.03
  31   6     0.03   0.06   0.03    -0.09  -0.07  -0.09     0.17  -0.03  -0.02
  32   6     0.02   0.05   0.03    -0.03  -0.03  -0.05     0.08   0.00  -0.05
  33   6    -0.07   0.02  -0.04    -0.05   0.02   0.04    -0.09   0.04  -0.00
  34   6    -0.07  -0.04  -0.08    -0.06   0.00   0.04    -0.21   0.01   0.13
  35   6    -0.12  -0.05  -0.11    -0.11  -0.00   0.06    -0.29   0.01   0.18
  36   6    -0.18  -0.00  -0.10    -0.15   0.02   0.08    -0.27   0.03   0.10
  37   6    -0.18   0.06  -0.06    -0.14   0.04   0.09    -0.15   0.06  -0.03
  38   6    -0.13   0.07  -0.03    -0.09   0.04   0.07    -0.06   0.07  -0.08
  39   6    -0.01   0.03  -0.03     0.01   0.11   0.11     0.01   0.10  -0.05
  40   6    -0.01   0.03  -0.03     0.01   0.11   0.13     0.01   0.09  -0.06
  41   6     0.02   0.07   0.06     0.02   0.03   0.05     0.02   0.01  -0.12
  42   6     0.01   0.04   0.04     0.01   0.00   0.03     0.02  -0.02  -0.08
  43   1     0.03  -0.01   0.08     0.03  -0.01  -0.07     0.01  -0.01  -0.03
  44   1     0.03  -0.05   0.07     0.04  -0.01  -0.09    -0.01  -0.01   0.01
  45   1     0.02  -0.07   0.01     0.03  -0.01  -0.07    -0.02  -0.00   0.06
  46   1     0.00  -0.05  -0.04     0.01  -0.01  -0.03    -0.02  -0.01   0.06
  47   1    -0.02  -0.00  -0.07    -0.01   0.01   0.05    -0.02   0.00   0.02
  48   1    -0.01   0.01  -0.05    -0.01   0.02   0.06    -0.01   0.01  -0.01
  49   1     0.01   0.05   0.03     0.01   0.01   0.02    -0.00   0.01  -0.04
  50   1     0.00   0.05   0.03     0.01   0.01   0.02    -0.00   0.01  -0.03
  51   1     0.01  -0.02  -0.00     0.01  -0.02  -0.03     0.00  -0.01   0.00
  52   1     0.03  -0.06   0.01     0.04  -0.02  -0.05     0.01  -0.03   0.01
  53   1     0.05  -0.07   0.03     0.08  -0.00  -0.03     0.01  -0.02   0.01
  54   1     0.04  -0.04   0.03     0.07   0.02  -0.00     0.00   0.01  -0.01
  55   1     0.02  -0.00   0.02     0.04   0.02   0.01    -0.00   0.02  -0.02
  56   1    -0.01   0.02  -0.00    -0.05  -0.01   0.00     0.05  -0.01   0.01
  57   1    -0.00   0.02   0.00    -0.08  -0.03  -0.02     0.09  -0.02   0.03
  58   1     0.01   0.02   0.01    -0.06  -0.03  -0.03     0.10  -0.03   0.02
  59   1     0.01   0.02   0.01    -0.02  -0.02  -0.03     0.05  -0.01  -0.01
  60   1     0.01   0.01   0.01     0.01  -0.00  -0.01     0.00   0.01  -0.03
  61   1    -0.01  -0.02  -0.03    -0.01  -0.00   0.01    -0.07  -0.00   0.06
  62   1    -0.03  -0.03  -0.04    -0.03  -0.01   0.02    -0.11  -0.00   0.08
  63   1    -0.06  -0.00  -0.03    -0.05   0.00   0.03    -0.10   0.01   0.04
  64   1    -0.07   0.03  -0.01    -0.05   0.02   0.03    -0.04   0.02  -0.03
  65   1    -0.04   0.03  -0.00    -0.03   0.02   0.02     0.01   0.03  -0.05
  66   1    -0.00  -0.00  -0.02     0.00   0.04   0.03     0.01   0.04  -0.01
  67   1    -0.00  -0.01  -0.02     0.00   0.04   0.04     0.00   0.03  -0.01
  68   1     0.01   0.03   0.04     0.01   0.01   0.00     0.01   0.00  -0.05
                      4                      5                      6
                        a                      a                      a 
 Frequencies --    23.9081                25.1334                28.1104
 Red. masses --    10.9365                11.1710                10.5543
 Frc consts  --     0.0000                 0.0000                 0.0000
 IR Inten    --     1.0098                 1.0163                 0.4977
 Raman Activ --     0.0000                 0.0000                 0.0000
 Depolar     --     0.0000                 0.0000                 0.0000
 Atom AN      X      Y      Z        X      Y      Z        X      Y      Z
   1   8    -0.08   0.10   0.28     0.03  -0.06  -0.16    -0.04   0.06   0.12
   2   6    -0.02   0.04   0.15     0.01  -0.03  -0.08    -0.02   0.03   0.06
   3   6     0.02   0.01   0.04    -0.02  -0.00  -0.01     0.00   0.02   0.01
   4   6     0.06   0.01   0.00    -0.07   0.01   0.06     0.03   0.01  -0.02
   5   6     0.10  -0.01  -0.11    -0.10   0.02   0.14     0.05   0.01  -0.08
   6   6     0.12  -0.02  -0.18    -0.09   0.03   0.15     0.05   0.00  -0.10
   7   6     0.08  -0.01  -0.14    -0.05   0.02   0.09     0.03   0.01  -0.06
   8   6     0.03   0.01  -0.03    -0.01   0.01   0.01     0.00   0.01  -0.01
   9  16    -0.00   0.02   0.02     0.05   0.02  -0.11    -0.03   0.02   0.04
  10   8    -0.06  -0.01   0.01     0.06   0.09  -0.08    -0.03  -0.03   0.03
  11   8     0.03   0.02   0.01     0.05  -0.02  -0.12    -0.02   0.03   0.06
  12   6     0.01   0.01   0.07     0.02  -0.02  -0.07    -0.01   0.02   0.03
  13   6     0.01  -0.00   0.04     0.03  -0.03  -0.05    -0.02   0.02   0.01
  14   6     0.01  -0.02   0.04     0.03  -0.03  -0.04    -0.02   0.02  -0.00
  15   6     0.00  -0.02   0.08     0.02  -0.04  -0.05    -0.02   0.02   0.00
  16   6    -0.00  -0.03   0.05     0.02  -0.04  -0.03    -0.02   0.01  -0.02
  17   6     0.01  -0.01   0.06     0.01  -0.06  -0.04    -0.00   0.02  -0.02
  18   6     0.01  -0.03   0.03     0.01  -0.05  -0.02    -0.00   0.02  -0.04
  19   6    -0.01  -0.06  -0.01     0.03  -0.01   0.02    -0.02   0.01  -0.06
  20  14    -0.02  -0.08  -0.04     0.05   0.00   0.02    -0.02   0.05  -0.09
  21   6    -0.02  -0.02  -0.04     0.06  -0.02   0.01    -0.02  -0.00  -0.03
  22   6    -0.01  -0.10   0.01     0.06  -0.06   0.01    -0.04   0.14  -0.11
  23   6    -0.02  -0.03  -0.03     0.09  -0.10   0.03    -0.03   0.02  -0.04
  24   6    -0.04   0.11  -0.12     0.11  -0.11   0.04     0.01  -0.23   0.12
  25   6    -0.05   0.19  -0.17     0.10  -0.06   0.04     0.03  -0.36   0.19
  26   6    -0.04   0.12  -0.13     0.08  -0.02   0.03     0.02  -0.24   0.12
  27   6     0.00  -0.01  -0.01    -0.04   0.04  -0.00    -0.01   0.00  -0.07
  28   6     0.11   0.02  -0.00    -0.16   0.08  -0.07     0.20  -0.04   0.03
  29   6     0.14   0.07   0.02    -0.27   0.13  -0.11     0.20  -0.06   0.03
  30   6     0.05   0.09   0.04    -0.26   0.14  -0.07    -0.02  -0.04  -0.08
  31   6    -0.06   0.07   0.04    -0.13   0.09   0.01    -0.23   0.00  -0.19
  32   6    -0.09   0.02   0.02    -0.02   0.05   0.04    -0.23   0.03  -0.18
  33   6    -0.02  -0.05  -0.03     0.04   0.01   0.04     0.02   0.05  -0.00
  34   6    -0.19  -0.06   0.19    -0.11   0.04   0.26    -0.01   0.11   0.08
  35   6    -0.21  -0.06   0.18    -0.13   0.04   0.31     0.02   0.13   0.14
  36   6    -0.05  -0.06  -0.04     0.02   0.02   0.14     0.09   0.08   0.13
  37   6     0.12  -0.05  -0.26     0.18  -0.01  -0.08     0.12   0.01   0.05
  38   6     0.14  -0.05  -0.25     0.18  -0.02  -0.12     0.09  -0.00  -0.01
  39   6    -0.03  -0.08  -0.02     0.04   0.01   0.03    -0.03   0.00  -0.06
  40   6    -0.03  -0.07   0.01     0.04  -0.00   0.01    -0.03   0.00  -0.04
  41   6    -0.01   0.00   0.13     0.01  -0.04  -0.07    -0.01   0.02   0.03
  42   6    -0.00   0.02   0.12     0.01  -0.03  -0.08    -0.01   0.03   0.04
  43   1     0.01   0.00   0.02    -0.02  -0.00   0.01     0.01   0.00  -0.00
  44   1     0.04  -0.00  -0.04    -0.04   0.01   0.05     0.02   0.00  -0.03
  45   1     0.04  -0.01  -0.08    -0.03   0.01   0.06     0.02  -0.00  -0.04
  46   1     0.02  -0.00  -0.06    -0.01   0.01   0.03     0.01   0.00  -0.02
  47   1     0.01  -0.00   0.00     0.01  -0.01  -0.01    -0.00   0.01   0.00
  48   1     0.01  -0.01   0.00     0.01  -0.01  -0.01    -0.01   0.00  -0.01
  49   1     0.01   0.00   0.03    -0.00  -0.02  -0.02     0.00   0.01  -0.00
  50   1     0.01  -0.00   0.01     0.00  -0.02  -0.01     0.00   0.00  -0.01
  51   1     0.00  -0.06   0.02     0.01  -0.02   0.00    -0.02   0.09  -0.06
  52   1    -0.00  -0.03   0.00     0.03  -0.04   0.01    -0.01   0.04  -0.03
  53   1    -0.01   0.05  -0.05     0.04  -0.04   0.02     0.01  -0.09   0.05
  54   1    -0.02   0.09  -0.07     0.03  -0.02   0.02     0.02  -0.16   0.09
  55   1    -0.01   0.05  -0.05     0.02   0.00   0.01     0.01  -0.10   0.05
  56   1     0.05   0.00  -0.01    -0.05   0.02  -0.03     0.11  -0.02   0.03
  57   1     0.07   0.03   0.01    -0.11   0.05  -0.05     0.11  -0.03   0.03
  58   1     0.02   0.04   0.02    -0.10   0.05  -0.03    -0.01  -0.02  -0.03
  59   1    -0.04   0.02   0.02    -0.04   0.03   0.01    -0.12   0.01  -0.08
  60   1    -0.05  -0.00   0.00     0.02   0.00   0.03    -0.11   0.02  -0.07
  61   1    -0.09  -0.02   0.10    -0.07   0.02   0.11    -0.02   0.04   0.02
  62   1    -0.10  -0.02   0.10    -0.07   0.02   0.14    -0.00   0.05   0.06
  63   1    -0.02  -0.02  -0.01     0.00   0.01   0.05     0.03   0.03   0.05
  64   1     0.07  -0.01  -0.13     0.08  -0.01  -0.06     0.05  -0.01   0.01
  65   1     0.08  -0.01  -0.12     0.09  -0.01  -0.08     0.03  -0.02  -0.02
  66   1    -0.01  -0.03  -0.01     0.02   0.01   0.02    -0.01  -0.00  -0.02
  67   1    -0.01  -0.03   0.00     0.01   0.00   0.00    -0.01  -0.00  -0.01
  68   1    -0.00   0.00   0.05     0.00  -0.01  -0.02    -0.00   0.01   0.01
                      7                      8                      9
                        a                      a                      a 
 Frequencies --    31.4917                36.7677                38.9976
 Red. masses --    11.7620                11.4699                11.5775
 Frc consts  --     0.0000                 0.0000                 0.0000
 IR Inten    --     2.5654                 1.3729                 0.5842
 Raman Activ --     0.0000                 0.0000                 0.0000
 Depolar     --     0.0000                 0.0000                 0.0000
 Atom AN      X      Y      Z        X      Y      Z        X      Y      Z
   1   8    -0.02  -0.10  -0.21     0.09  -0.00  -0.08     0.16  -0.02  -0.08
   2   6    -0.04  -0.04  -0.10     0.03   0.01  -0.02     0.11  -0.00  -0.03
   3   6    -0.06  -0.01  -0.03     0.02  -0.01   0.01     0.09  -0.01   0.00
   4   6    -0.11   0.00   0.02     0.03  -0.03   0.05     0.09  -0.01   0.03
   5   6    -0.14   0.02   0.10     0.02  -0.07   0.08     0.08  -0.03   0.06
   6   6    -0.13   0.03   0.12    -0.00  -0.09   0.07     0.07  -0.03   0.07
   7   6    -0.08   0.02   0.06    -0.01  -0.07   0.02     0.07  -0.03   0.04
   8   6    -0.05   0.00  -0.01    -0.00  -0.03  -0.01     0.09  -0.01   0.01
   9  16    -0.04   0.02  -0.14    -0.08   0.02  -0.09     0.12   0.01  -0.05
  10   8    -0.08   0.13  -0.12    -0.16   0.12  -0.10     0.06   0.06  -0.04
  11   8     0.03  -0.04  -0.19    -0.02  -0.06  -0.18     0.10  -0.03  -0.08
  12   6    -0.02  -0.02  -0.01    -0.03   0.05   0.06     0.08   0.01   0.00
  13   6    -0.01  -0.01   0.06    -0.03   0.08   0.15     0.08   0.03   0.04
  14   6    -0.01  -0.01   0.10    -0.02   0.11   0.18     0.08   0.04   0.05
  15   6    -0.02  -0.02   0.08    -0.00   0.11   0.12     0.08   0.04   0.02
  16   6    -0.01  -0.02   0.09    -0.00   0.12   0.10     0.08   0.03   0.02
  17   6    -0.01  -0.03   0.08    -0.02  -0.01  -0.00     0.06  -0.03  -0.02
  18   6    -0.01  -0.02   0.09    -0.03  -0.05  -0.05     0.05  -0.06  -0.04
  19   6    -0.01  -0.00   0.10    -0.02   0.04   0.01     0.06  -0.03  -0.00
  20  14    -0.02  -0.02   0.09    -0.04   0.01  -0.03     0.09  -0.08   0.01
  21   6     0.07  -0.01   0.01    -0.05   0.01  -0.00    -0.03  -0.02   0.04
  22   6     0.06   0.00  -0.10    -0.05   0.06   0.01    -0.05   0.15   0.05
  23   6     0.12   0.05  -0.17    -0.08   0.05   0.03    -0.16   0.24   0.05
  24   6     0.19   0.09  -0.15    -0.10  -0.02   0.05    -0.23   0.17   0.03
  25   6     0.20   0.07  -0.04    -0.09  -0.06   0.04    -0.21  -0.01   0.03
  26   6     0.13   0.02   0.04    -0.07  -0.05   0.01    -0.11  -0.10   0.03
  27   6    -0.01  -0.00   0.06    -0.00  -0.06  -0.03     0.02  -0.02   0.00
  28   6     0.24  -0.02   0.14    -0.09  -0.10  -0.01     0.08  -0.01   0.01
  29   6     0.28  -0.00   0.16    -0.04  -0.18  -0.01    -0.04   0.03  -0.03
  30   6     0.06   0.03   0.10     0.10  -0.21  -0.03    -0.21   0.05  -0.07
  31   6    -0.20   0.04   0.01     0.18  -0.17  -0.05    -0.27   0.04  -0.08
  32   6    -0.23   0.03  -0.01     0.13  -0.09  -0.05    -0.15   0.00  -0.04
  33   6    -0.01  -0.02   0.01     0.01   0.01  -0.03    -0.02  -0.07  -0.02
  34   6     0.01  -0.05  -0.04    -0.05   0.03   0.05    -0.05  -0.14  -0.03
  35   6     0.03  -0.05  -0.10     0.02   0.03  -0.01    -0.15  -0.15  -0.02
  36   6     0.02  -0.03  -0.12     0.15   0.01  -0.15    -0.23  -0.09  -0.00
  37   6    -0.00  -0.01  -0.08     0.20  -0.01  -0.23    -0.20  -0.02   0.00
  38   6    -0.02  -0.00  -0.01     0.13  -0.01  -0.17    -0.10  -0.01  -0.00
  39   6    -0.01   0.01   0.11     0.00   0.18   0.13     0.09   0.04   0.04
  40   6    -0.01   0.01   0.11     0.01   0.22   0.18     0.09   0.07   0.05
  41   6    -0.03  -0.03   0.01     0.01   0.08   0.05     0.09   0.03  -0.01
  42   6    -0.03  -0.03  -0.03    -0.00   0.05   0.03     0.09   0.01  -0.01
  43   1    -0.03  -0.00   0.00     0.02  -0.01   0.02     0.03  -0.00   0.01
  44   1    -0.05   0.01   0.04     0.01  -0.02   0.03     0.02  -0.01   0.02
  45   1    -0.05   0.01   0.05    -0.00  -0.03   0.03     0.02  -0.01   0.03
  46   1    -0.02   0.01   0.02    -0.01  -0.02   0.00     0.02  -0.01   0.01
  47   1    -0.00  -0.00   0.02    -0.01   0.02   0.05     0.02   0.01   0.02
  48   1     0.00  -0.00   0.05    -0.01   0.04   0.07     0.02   0.01   0.02
  49   1    -0.00  -0.01   0.02    -0.01  -0.02  -0.01     0.01  -0.02  -0.01
  50   1    -0.00  -0.01   0.02    -0.01  -0.04  -0.04     0.01  -0.03  -0.02
  51   1     0.00  -0.01  -0.03    -0.01   0.03  -0.00     0.00   0.06   0.02
  52   1     0.03   0.02  -0.07    -0.02   0.02   0.01    -0.05   0.11   0.02
  53   1     0.07   0.04  -0.06    -0.03  -0.01   0.02    -0.09   0.07   0.01
  54   1     0.07   0.03  -0.00    -0.03  -0.03   0.02    -0.08  -0.02   0.01
  55   1     0.04   0.00   0.03    -0.02  -0.03   0.00    -0.03  -0.07   0.01
  56   1     0.12  -0.01   0.06    -0.05  -0.02   0.00     0.06  -0.01   0.01
  57   1     0.14  -0.01   0.07    -0.03  -0.06   0.00     0.00   0.01  -0.01
  58   1     0.03   0.01   0.03     0.04  -0.08  -0.01    -0.09   0.02  -0.03
  59   1    -0.11   0.02  -0.01     0.08  -0.06  -0.02    -0.12   0.02  -0.03
  60   1    -0.12   0.01  -0.02     0.06  -0.02  -0.02    -0.05  -0.00  -0.01
  61   1     0.01  -0.02  -0.01    -0.04   0.01   0.05     0.00  -0.05  -0.01
  62   1     0.01  -0.02  -0.04    -0.01   0.01   0.02    -0.05  -0.06  -0.01
  63   1     0.01  -0.01  -0.05     0.06   0.00  -0.06    -0.09  -0.03   0.00
  64   1    -0.00   0.00  -0.03     0.09  -0.01  -0.10    -0.08   0.01   0.00
  65   1    -0.01   0.01   0.00     0.05  -0.01  -0.07    -0.02   0.01   0.00
  66   1    -0.00   0.01   0.03     0.00   0.07   0.05     0.03   0.02   0.02
  67   1    -0.00   0.00   0.03     0.01   0.09   0.07     0.03   0.03   0.03
  68   1    -0.01  -0.01  -0.00     0.01   0.02   0.00     0.03   0.01  -0.01
                     10                     11                     12
                        a                      a                      a 
 Frequencies --    41.6013                46.2038                51.1083
 Red. masses --    10.9170                11.4571                12.5236
 Frc consts  --     0.0000                 0.0000                 0.0000
 IR Inten    --     0.2948                 0.9041                 0.3565
 Raman Activ --     0.0000                 0.0000                 0.0000
 Depolar     --     0.0000                 0.0000                 0.0000
 Atom AN      X      Y      Z        X      Y      Z        X      Y      Z
   1   8    -0.07  -0.00   0.08    -0.04   0.07   0.11    -0.17  -0.10   0.07
   2   6    -0.04  -0.01   0.05    -0.02   0.02   0.03    -0.08  -0.07   0.05
   3   6    -0.02  -0.00   0.02    -0.01   0.01   0.01    -0.07  -0.00   0.02
   4   6    -0.03   0.00   0.04    -0.01   0.01  -0.01    -0.12   0.03   0.02
   5   6    -0.02   0.00   0.01     0.00   0.01  -0.03    -0.11   0.08  -0.01
   6   6    -0.00   0.01  -0.04     0.00   0.01  -0.03    -0.04   0.11  -0.05
   7   6     0.01   0.01  -0.05    -0.01   0.01  -0.01     0.01   0.08  -0.06
   8   6    -0.00   0.00  -0.02    -0.02   0.01   0.01    -0.00   0.03  -0.02
   9  16    -0.01   0.02  -0.06     0.01  -0.02   0.06     0.08   0.00  -0.05
  10   8    -0.10   0.08  -0.06     0.14  -0.11   0.08    -0.04   0.08  -0.06
  11   8     0.06  -0.02  -0.11    -0.07   0.04   0.15     0.19  -0.01  -0.11
  12   6    -0.00  -0.01   0.06    -0.01  -0.01  -0.10     0.04  -0.09   0.07
  13   6     0.02  -0.02   0.09    -0.02  -0.03  -0.19     0.07  -0.12   0.10
  14   6     0.01  -0.03   0.11    -0.02  -0.04  -0.20     0.06  -0.16   0.10
  15   6    -0.00  -0.05   0.07    -0.02  -0.03  -0.13     0.01  -0.19   0.08
  16   6    -0.01  -0.06   0.04    -0.01  -0.02  -0.07     0.01  -0.18   0.04
  17   6     0.00  -0.13  -0.04    -0.04   0.02  -0.02     0.09  -0.11   0.06
  18   6     0.00  -0.13  -0.08    -0.03   0.04   0.05     0.11  -0.00   0.04
  19   6    -0.01  -0.05  -0.04     0.00   0.02   0.07     0.05   0.03   0.01
  20  14    -0.01  -0.06  -0.11     0.01   0.02   0.18     0.10   0.21  -0.02
  21   6     0.01  -0.03  -0.08     0.04   0.02   0.09     0.04   0.12   0.02
  22   6    -0.02   0.16  -0.22     0.01   0.23  -0.09     0.04   0.11   0.08
  23   6    -0.02   0.21  -0.26     0.03   0.31  -0.16     0.02   0.04   0.14
  24   6     0.02   0.05  -0.15     0.08   0.18  -0.05    -0.01  -0.01   0.15
  25   6     0.05  -0.16   0.00     0.12  -0.06   0.14    -0.02   0.01   0.09
  26   6     0.05  -0.20   0.03     0.10  -0.13   0.20     0.01   0.08   0.02
  27   6     0.02   0.03  -0.04    -0.01  -0.03   0.10     0.05   0.06  -0.04
  28   6    -0.06   0.10  -0.13    -0.10  -0.05   0.09    -0.01  -0.01   0.01
  29   6     0.02   0.17  -0.07    -0.12  -0.09   0.07    -0.03  -0.10  -0.03
  30   6     0.19   0.16   0.07    -0.04  -0.11   0.06     0.02  -0.13  -0.12
  31   6     0.26   0.09   0.16     0.05  -0.09   0.06     0.08  -0.06  -0.17
  32   6     0.17   0.03   0.10     0.06  -0.05   0.08     0.10   0.03  -0.13
  33   6    -0.01  -0.03  -0.03    -0.03  -0.00   0.04     0.01   0.13  -0.03
  34   6    -0.02  -0.01  -0.00    -0.09  -0.07   0.08    -0.03   0.05  -0.02
  35   6    -0.07   0.00   0.11    -0.08  -0.08  -0.04    -0.12   0.03  -0.05
  36   6    -0.12  -0.01   0.19    -0.01  -0.04  -0.21    -0.16   0.10  -0.08
  37   6    -0.10  -0.04   0.16     0.05   0.03  -0.25    -0.12   0.17  -0.10
  38   6    -0.05  -0.05   0.05     0.04   0.04  -0.12    -0.03   0.19  -0.07
  39   6    -0.02   0.02   0.04     0.03  -0.01   0.02    -0.03  -0.07  -0.02
  40   6    -0.02   0.01   0.07     0.02  -0.04  -0.05    -0.05  -0.17  -0.01
  41   6    -0.02  -0.04   0.06    -0.01  -0.01  -0.07    -0.02  -0.16   0.09
  42   6    -0.02  -0.02   0.05    -0.01  -0.00  -0.05    -0.01  -0.11   0.07
  43   1    -0.01  -0.00   0.02    -0.00   0.00  -0.00    -0.05   0.00   0.01
  44   1    -0.01   0.00   0.01     0.00   0.00  -0.01    -0.04   0.03  -0.00
  45   1     0.00   0.00  -0.02     0.00   0.00  -0.01    -0.01   0.04  -0.02
  46   1     0.01   0.00  -0.02    -0.00   0.00  -0.00     0.02   0.03  -0.03
  47   1     0.01  -0.00   0.03    -0.00  -0.01  -0.07     0.03  -0.03   0.03
  48   1     0.01  -0.01   0.04    -0.01  -0.02  -0.08     0.03  -0.05   0.03
  49   1     0.00  -0.06  -0.02    -0.02   0.01  -0.01     0.04  -0.04   0.02
  50   1     0.00  -0.06  -0.04    -0.02   0.02   0.03     0.05   0.02   0.02
  51   1    -0.02   0.08  -0.09    -0.01   0.09  -0.05     0.02   0.04   0.02
  52   1    -0.01   0.11  -0.11    -0.00   0.14  -0.09     0.01   0.01   0.05
  53   1     0.01   0.02  -0.05     0.03   0.07  -0.03    -0.01  -0.02   0.06
  54   1     0.02  -0.09   0.03     0.05  -0.05   0.07    -0.01  -0.01   0.03
  55   1     0.02  -0.10   0.04     0.04  -0.09   0.10     0.00   0.03  -0.01
  56   1    -0.05   0.03  -0.07    -0.04  -0.01   0.03    -0.01   0.00   0.02
  57   1    -0.01   0.06  -0.04    -0.05  -0.03   0.02    -0.02  -0.05   0.00
  58   1     0.08   0.06   0.03    -0.02  -0.04   0.01     0.00  -0.06  -0.04
  59   1     0.11   0.03   0.08     0.03  -0.03   0.01     0.03  -0.02  -0.07
  60   1     0.07  -0.01   0.05     0.04  -0.01   0.02     0.04   0.03  -0.05
  61   1     0.00   0.00  -0.02    -0.04  -0.03   0.06    -0.00   0.00   0.00
  62   1    -0.02   0.01   0.04    -0.04  -0.04  -0.00    -0.04  -0.01  -0.01
  63   1    -0.05  -0.00   0.08     0.00  -0.01  -0.09    -0.07   0.02  -0.03
  64   1    -0.04  -0.01   0.06     0.03   0.02  -0.11    -0.04   0.06  -0.04
  65   1    -0.01  -0.02   0.01     0.02   0.03  -0.04    -0.00   0.07  -0.02
  66   1    -0.01   0.02   0.02     0.02  -0.01   0.01    -0.02  -0.02  -0.02
  67   1    -0.01   0.02   0.04     0.01  -0.02  -0.03    -0.03  -0.07  -0.01
  68   1    -0.01  -0.01   0.01    -0.00  -0.00  -0.01    -0.01  -0.05   0.03
                     13                     14                     15
                        a                      a                      a 
 Frequencies --    59.1459                91.1701                94.7416
 Red. masses --    10.6691                12.5758                11.9366
 Frc consts  --     0.0000                 0.0000                 0.0000
 IR Inten    --     1.3341                 2.2762                 1.5935
 Raman Activ --     0.0000                 0.0000                 0.0000
 Depolar     --     0.0000                 0.0000                 0.0000
 Atom AN      X      Y      Z        X      Y      Z        X      Y      Z
   1   8    -0.10   0.12   0.27    -0.01   0.03  -0.08     0.15  -0.04  -0.12
   2   6    -0.05   0.03   0.09    -0.02   0.03  -0.06     0.05  -0.00   0.00
   3   6    -0.03   0.01   0.05    -0.05   0.02  -0.01     0.02  -0.00   0.09
   4   6    -0.03   0.00   0.08    -0.18   0.01   0.30    -0.01  -0.01   0.21
   5   6    -0.01  -0.01   0.02    -0.18  -0.00   0.31     0.02  -0.03   0.14
   6   6     0.02  -0.01  -0.06    -0.04   0.01  -0.05     0.11  -0.02  -0.09
   7   6     0.01  -0.00  -0.08     0.07   0.03  -0.32     0.13  -0.01  -0.17
   8   6    -0.01   0.01  -0.02     0.04   0.02  -0.26     0.08   0.00  -0.06
   9  16    -0.01  -0.01  -0.00     0.03  -0.07  -0.11    -0.03   0.04   0.07
  10   8     0.03  -0.06   0.01     0.03  -0.47  -0.03    -0.32  -0.01  -0.00
  11   8    -0.02   0.02   0.05    -0.01   0.18   0.23     0.11   0.03  -0.02
  12   6    -0.01  -0.01  -0.04     0.02   0.01  -0.10     0.02   0.07   0.22
  13   6    -0.00  -0.03  -0.07     0.02   0.02  -0.04     0.02   0.08   0.29
  14   6    -0.01  -0.05  -0.07     0.03   0.03   0.05     0.01   0.07   0.13
  15   6    -0.01  -0.06  -0.10     0.02   0.03   0.07    -0.01   0.02  -0.13
  16   6    -0.01  -0.06  -0.09     0.03   0.05   0.11    -0.03  -0.05  -0.24
  17   6    -0.07  -0.31  -0.29     0.04   0.08   0.12    -0.07  -0.04  -0.21
  18   6    -0.06  -0.28  -0.25     0.04   0.06   0.09    -0.07  -0.03  -0.15
  19   6     0.02   0.02   0.00     0.02   0.02   0.05    -0.04  -0.03  -0.12
  20  14     0.04   0.04   0.04     0.03  -0.02  -0.05    -0.04   0.02   0.10
  21   6     0.04   0.02   0.02     0.01  -0.01  -0.03    -0.02   0.02   0.06
  22   6     0.05  -0.06   0.05     0.01   0.00  -0.00    -0.02  -0.01   0.01
  23   6     0.06  -0.07   0.05    -0.02   0.01   0.01     0.03  -0.00  -0.03
  24   6     0.06   0.00   0.02    -0.04  -0.01   0.00     0.08   0.02  -0.01
  25   6     0.05   0.09  -0.02    -0.04  -0.02  -0.02     0.08   0.04   0.05
  26   6     0.04   0.09  -0.02    -0.01  -0.02  -0.04     0.03   0.04   0.08
  27   6     0.02   0.01   0.02     0.00  -0.00  -0.04     0.02  -0.00   0.08
  28   6     0.06  -0.01   0.05     0.01   0.00  -0.04    -0.01  -0.01   0.09
  29   6     0.03  -0.02   0.03     0.02   0.01  -0.04    -0.05  -0.02   0.07
  30   6    -0.04  -0.02  -0.01     0.03   0.01  -0.02    -0.07  -0.02   0.05
  31   6    -0.07   0.00  -0.04     0.02   0.01  -0.02    -0.04  -0.01   0.05
  32   6    -0.04   0.01  -0.02     0.00  -0.00  -0.03     0.00  -0.00   0.07
  33   6     0.01   0.02   0.02     0.02  -0.01  -0.03    -0.04   0.02   0.07
  34   6     0.03   0.00  -0.02     0.01  -0.01  -0.02    -0.02   0.00   0.04
  35   6     0.02   0.00  -0.03    -0.00  -0.00   0.01     0.01  -0.01  -0.02
  36   6    -0.02   0.02  -0.00    -0.01  -0.01   0.03     0.02   0.01  -0.06
  37   6    -0.04   0.03   0.03     0.00  -0.02   0.01    -0.00   0.02  -0.02
  38   6    -0.02   0.04   0.04     0.02  -0.02  -0.02    -0.03   0.03   0.04
  39   6     0.08   0.28   0.21     0.01   0.02   0.06    -0.01  -0.10  -0.21
  40   6     0.08   0.24   0.17     0.02   0.04   0.09    -0.02  -0.10  -0.26
  41   6    -0.03  -0.05  -0.09     0.01   0.02  -0.00    -0.01   0.01  -0.17
  42   6    -0.02  -0.02  -0.04     0.00   0.01  -0.08     0.01   0.03   0.01
  43   1    -0.02   0.00   0.04    -0.08   0.00   0.16    -0.02  -0.00   0.10
  44   1    -0.00  -0.00   0.01    -0.09  -0.00   0.17    -0.01  -0.01   0.07
  45   1     0.01  -0.00  -0.03    -0.01  -0.00  -0.03     0.04  -0.01  -0.05
  46   1     0.01  -0.00  -0.04     0.04   0.01  -0.15     0.05  -0.00  -0.09
  47   1     0.00  -0.01  -0.02     0.01   0.01  -0.01     0.01   0.03   0.13
  48   1    -0.00  -0.01  -0.02     0.01   0.01   0.03     0.01   0.02   0.05
  49   1    -0.03  -0.16  -0.13     0.02   0.03   0.04    -0.03  -0.00  -0.06
  50   1    -0.03  -0.14  -0.12     0.02   0.02   0.03    -0.02   0.00  -0.03
  51   1     0.01  -0.03   0.02     0.01   0.00   0.00    -0.02  -0.01  -0.00
  52   1     0.02  -0.04   0.02    -0.01   0.01   0.01     0.01  -0.01  -0.02
  53   1     0.02  -0.00   0.00    -0.02  -0.00   0.00     0.03   0.01  -0.01
  54   1     0.01   0.04  -0.01    -0.02  -0.01  -0.01     0.03   0.02   0.02
  55   1     0.01   0.04  -0.01    -0.00  -0.01  -0.02     0.01   0.02   0.04
  56   1     0.03  -0.00   0.02     0.00   0.00  -0.02     0.00  -0.00   0.03
  57   1     0.02  -0.01   0.02     0.01   0.00  -0.01    -0.02  -0.01   0.02
  58   1    -0.02  -0.01  -0.01     0.01   0.01  -0.01    -0.03  -0.01   0.01
  59   1    -0.04   0.00  -0.02     0.01   0.00  -0.00    -0.01  -0.00   0.01
  60   1    -0.02   0.01  -0.01    -0.00  -0.00  -0.01     0.01   0.00   0.02
  61   1     0.02  -0.00  -0.01     0.00  -0.00  -0.01    -0.01  -0.00   0.02
  62   1     0.01  -0.00  -0.02    -0.00   0.00   0.01     0.01  -0.01  -0.01
  63   1    -0.01   0.00  -0.00    -0.01  -0.00   0.01     0.01   0.00  -0.03
  64   1    -0.02   0.01   0.02     0.00  -0.01   0.01     0.00   0.01  -0.01
  65   1    -0.01   0.02   0.02     0.01  -0.01  -0.01    -0.01   0.01   0.02
  66   1     0.04   0.15   0.12    -0.00   0.00   0.01     0.00  -0.04  -0.06
  67   1     0.04   0.13   0.09     0.00   0.01   0.03    -0.00  -0.04  -0.08
  68   1    -0.02  -0.02  -0.03     0.00   0.01   0.01    -0.00  -0.01  -0.10
                     16                     17                     18
                        a                      a                      a 
 Frequencies --   115.4391               131.3572               131.5278
 Red. masses --    12.8078                12.6878                13.9724
 Frc consts  --     0.0000                 0.0000                 0.0000
 IR Inten    --     1.0673                 1.5276                 0.3656
 Raman Activ --     0.0000                 0.0000                 0.0000
 Depolar     --     0.0000                 0.0000                 0.0000
 Atom AN      X      Y      Z        X      Y      Z        X      Y      Z
   1   8     0.21  -0.30  -0.34     0.13   0.04  -0.25    -0.06  -0.13  -0.12
   2   6     0.05  -0.09   0.06     0.02   0.11  -0.04    -0.07  -0.02   0.05
   3   6    -0.01   0.00   0.22     0.02   0.06  -0.03    -0.09   0.02   0.07
   4   6    -0.04   0.02   0.21     0.10   0.01  -0.01    -0.09   0.02   0.04
   5   6     0.05   0.05  -0.00     0.09  -0.08   0.03    -0.05   0.02  -0.03
   6   6     0.18   0.07  -0.23     0.01  -0.12   0.05    -0.04   0.01  -0.09
   7   6     0.16   0.06  -0.13    -0.05  -0.07   0.01    -0.06   0.01  -0.04
   8   6     0.05   0.02   0.12    -0.03   0.02  -0.04    -0.09   0.01   0.04
   9  16     0.08   0.06   0.09    -0.14   0.11  -0.04    -0.23   0.03   0.11
  10   8     0.12   0.19   0.06    -0.02  -0.07   0.00    -0.34   0.07   0.04
  11   8     0.07  -0.02  -0.02    -0.28   0.11   0.10    -0.10  -0.01   0.00
  12   6     0.00  -0.05   0.01    -0.05   0.16  -0.06    -0.11   0.00   0.13
  13   6    -0.04  -0.09  -0.22     0.02   0.09  -0.12    -0.12  -0.04  -0.07
  14   6    -0.04  -0.08  -0.23     0.03   0.03  -0.04    -0.12  -0.04  -0.17
  15   6    -0.02  -0.03   0.00     0.00   0.04   0.13    -0.04   0.01  -0.04
  16   6    -0.03  -0.00   0.04    -0.02  -0.11   0.08    -0.00   0.06  -0.05
  17   6    -0.04  -0.03   0.02    -0.03  -0.23  -0.01     0.06   0.11  -0.03
  18   6    -0.05  -0.03   0.02    -0.04  -0.29  -0.07     0.07   0.13  -0.02
  19   6    -0.05   0.02   0.05    -0.02  -0.24  -0.02     0.11   0.09  -0.02
  20  14    -0.12   0.02  -0.01     0.07   0.04   0.02     0.22  -0.06  -0.02
  21   6    -0.06   0.02  -0.03     0.01   0.09  -0.00     0.15  -0.11   0.05
  22   6    -0.06  -0.01  -0.05     0.02   0.07   0.00     0.15  -0.03   0.11
  23   6    -0.03  -0.04  -0.04     0.04   0.01   0.03     0.05   0.08   0.09
  24   6    -0.01  -0.05  -0.02     0.06  -0.02   0.05    -0.03   0.12   0.02
  25   6    -0.01  -0.01  -0.01     0.05   0.03   0.04    -0.01   0.01  -0.01
  26   6    -0.04   0.02  -0.02     0.03   0.08   0.01     0.09  -0.11   0.01
  27   6    -0.10   0.01  -0.02     0.02   0.05   0.00     0.22  -0.04   0.01
  28   6    -0.08   0.00  -0.00     0.00   0.03   0.02     0.19  -0.01  -0.03
  29   6     0.00  -0.01   0.03    -0.00  -0.01   0.01     0.02   0.02  -0.09
  30   6     0.05  -0.01   0.05     0.01  -0.02  -0.03    -0.10   0.04  -0.12
  31   6     0.00  -0.01   0.03     0.03   0.00  -0.05     0.01   0.01  -0.06
  32   6    -0.08   0.01  -0.01     0.03   0.04  -0.03     0.17  -0.03  -0.00
  33   6    -0.06   0.02  -0.00     0.13   0.04  -0.03     0.11  -0.06  -0.04
  34   6    -0.05   0.05  -0.00     0.10  -0.03  -0.02     0.09  -0.10  -0.02
  35   6    -0.00   0.06  -0.01    -0.02  -0.04   0.00     0.02  -0.10   0.03
  36   6     0.02   0.04  -0.01    -0.10   0.01   0.03    -0.02  -0.08   0.07
  37   6     0.00   0.00  -0.00    -0.04   0.08  -0.01     0.02  -0.06   0.03
  38   6    -0.04  -0.00   0.00     0.08   0.09  -0.04     0.09  -0.05  -0.03
  39   6    -0.03   0.08   0.09    -0.04  -0.25  -0.02     0.07   0.09   0.00
  40   6    -0.03   0.06   0.08    -0.03  -0.19   0.03     0.05   0.07  -0.02
  41   6     0.01  -0.01   0.16    -0.06   0.13   0.23    -0.05   0.04   0.11
  42   6     0.00  -0.03   0.15    -0.05   0.18   0.10    -0.07   0.01   0.14
  43   1    -0.03   0.00   0.09     0.05   0.02  -0.00    -0.03   0.01   0.02
  44   1     0.01   0.02  -0.01     0.04  -0.03   0.01    -0.01   0.00  -0.02
  45   1     0.08   0.03  -0.14    -0.00  -0.05   0.03    -0.00   0.00  -0.05
  46   1     0.07   0.02  -0.08    -0.04  -0.03   0.00    -0.01   0.00  -0.02
  47   1    -0.02  -0.04  -0.11     0.03   0.03  -0.07    -0.04  -0.02  -0.04
  48   1    -0.02  -0.03  -0.12     0.01  -0.00  -0.04    -0.05  -0.01  -0.10
  49   1    -0.01  -0.02   0.00    -0.00  -0.07  -0.00     0.02   0.03  -0.01
  50   1    -0.01  -0.02  -0.00    -0.02  -0.10  -0.03     0.01   0.04   0.00
  51   1    -0.02  -0.00  -0.02     0.00   0.02  -0.00     0.06  -0.01   0.05
  52   1    -0.01  -0.02  -0.02     0.01  -0.00   0.01     0.01   0.04   0.04
  53   1     0.00  -0.02  -0.01     0.02  -0.02   0.02    -0.03   0.07  -0.00
  54   1     0.00  -0.00   0.00     0.02   0.00   0.02    -0.02   0.00  -0.02
  55   1    -0.01   0.01  -0.00     0.01   0.03   0.00     0.03  -0.05  -0.01
  56   1    -0.03   0.00  -0.00    -0.00   0.01   0.01     0.07  -0.01  -0.01
  57   1     0.01  -0.00   0.01    -0.01  -0.01   0.01    -0.01   0.01  -0.04
  58   1     0.04  -0.01   0.02     0.00  -0.01  -0.01    -0.08   0.02  -0.05
  59   1     0.01  -0.00   0.01     0.01  -0.00  -0.02    -0.02   0.01  -0.02
  60   1    -0.03   0.00  -0.01     0.01   0.02  -0.02     0.07  -0.01   0.01
  61   1    -0.02   0.02  -0.00     0.04  -0.02  -0.01     0.03  -0.03  -0.01
  62   1     0.00   0.02  -0.00    -0.02  -0.03   0.01     0.00  -0.03   0.01
  63   1     0.02   0.01  -0.01    -0.06   0.00   0.02    -0.03  -0.02   0.03
  64   1     0.01  -0.00  -0.00    -0.03   0.04  -0.00    -0.00  -0.01   0.01
  65   1    -0.02  -0.01   0.00     0.03   0.04  -0.02     0.03  -0.01  -0.02
  66   1    -0.00   0.03   0.04    -0.01  -0.07  -0.01     0.01   0.03  -0.00
  67   1    -0.01   0.02   0.03    -0.00  -0.05   0.01     0.02   0.02  -0.01
  68   1     0.01   0.00   0.08    -0.04   0.04   0.10    -0.01   0.01   0.05
                     19                     20                     21
                        a                      a                      a 
 Frequencies --   148.4920               155.8428               158.8861
 Red. masses --    12.3484                11.0961                11.0632
 Frc consts  --     0.0000                 0.0000                 0.0000
 IR Inten    --     3.1135                 1.5077                 3.4485
 Raman Activ --     0.0000                 0.0000                 0.0000
 Depolar     --     0.0000                 0.0000                 0.0000
 Atom AN      X      Y      Z        X      Y      Z        X      Y      Z
   1   8     0.10   0.09   0.00    -0.02  -0.01  -0.03     0.01   0.02   0.01
   2   6    -0.04   0.01  -0.02    -0.03  -0.00   0.00    -0.00   0.01  -0.00
   3   6    -0.12  -0.02   0.19    -0.05  -0.00   0.05    -0.01   0.00   0.02
   4   6    -0.09  -0.03   0.17    -0.05  -0.00   0.04    -0.00   0.00   0.01
   5   6     0.01  -0.03  -0.06    -0.02  -0.00  -0.02     0.01  -0.00  -0.01
   6   6     0.08  -0.03  -0.24    -0.00  -0.00  -0.08     0.00  -0.01  -0.01
   7   6    -0.01  -0.03  -0.07    -0.02  -0.00  -0.03    -0.01  -0.00   0.00
   8   6    -0.11  -0.02   0.17    -0.05  -0.01   0.04    -0.01   0.00   0.01
   9  16    -0.09   0.02   0.04    -0.01  -0.01  -0.05    -0.07   0.02   0.07
  10   8     0.32   0.24   0.07     0.25   0.04   0.00    -0.19   0.03   0.02
  11   8    -0.32  -0.12  -0.03    -0.16  -0.04  -0.00     0.01  -0.00   0.00
  12   6    -0.06   0.01  -0.14    -0.02  -0.02  -0.11    -0.02   0.02   0.06
  13   6    -0.01   0.05   0.14    -0.01  -0.00   0.01    -0.01   0.00   0.02
  14   6     0.00   0.05   0.24     0.00   0.02   0.13    -0.02  -0.01  -0.07
  15   6    -0.03  -0.01  -0.04     0.00   0.02   0.13    -0.00  -0.02  -0.11
  16   6    -0.02  -0.02   0.02     0.01   0.02   0.06     0.01  -0.01  -0.04
  17   6    -0.02   0.02   0.05     0.07  -0.01  -0.01    -0.03   0.02   0.02
  18   6    -0.01   0.02   0.09     0.06  -0.01  -0.13    -0.02   0.02   0.11
  19   6     0.01  -0.03   0.07     0.01   0.01  -0.16     0.04  -0.03   0.13
  20  14     0.06  -0.00  -0.00     0.02  -0.02  -0.02     0.09  -0.06   0.02
  21   6     0.06  -0.04   0.02    -0.04   0.12  -0.08     0.09   0.25  -0.23
  22   6     0.06  -0.01   0.05    -0.04   0.10  -0.09     0.09   0.28  -0.13
  23   6     0.02   0.03   0.04    -0.00  -0.01  -0.04     0.04   0.06   0.08
  24   6    -0.01   0.05   0.01     0.02  -0.10   0.03    -0.02  -0.19   0.17
  25   6    -0.00   0.00  -0.00     0.01  -0.02  -0.00    -0.04  -0.05  -0.03
  26   6     0.03  -0.04   0.01    -0.02   0.10  -0.06     0.02   0.19  -0.24
  27   6    -0.01   0.03  -0.02     0.27  -0.13   0.06    -0.14  -0.13  -0.11
  28   6    -0.01   0.02  -0.01     0.25  -0.07  -0.00    -0.09  -0.05  -0.17
  29   6     0.01  -0.01  -0.01     0.01   0.05  -0.07     0.05   0.05  -0.08
  30   6     0.03  -0.01  -0.03    -0.19   0.09  -0.07     0.12   0.06   0.06
  31   6     0.02   0.00  -0.05    -0.02   0.01   0.06    -0.02  -0.00   0.09
  32   6     0.00   0.03  -0.05     0.22  -0.11   0.12    -0.16  -0.10  -0.01
  33   6     0.11  -0.01  -0.09    -0.17   0.01   0.23     0.07  -0.02   0.17
  34   6     0.09  -0.03  -0.07    -0.14  -0.00   0.19     0.05  -0.12   0.14
  35   6    -0.00  -0.03   0.02     0.01  -0.02  -0.03     0.01  -0.15   0.00
  36   6    -0.07  -0.02   0.08     0.13  -0.01  -0.19    -0.00  -0.08  -0.10
  37   6    -0.00  -0.00   0.01    -0.00   0.00  -0.01    -0.01   0.02  -0.02
  38   6     0.09  -0.00  -0.08    -0.15   0.01   0.20     0.02   0.05   0.12
  39   6     0.00  -0.07   0.03    -0.06   0.02  -0.11     0.08  -0.02   0.10
  40   6     0.00  -0.06   0.01    -0.06   0.02   0.00     0.08  -0.01   0.02
  41   6    -0.07  -0.04  -0.29    -0.01   0.02   0.11    -0.02  -0.01  -0.14
  42   6    -0.06  -0.02  -0.25    -0.02  -0.00  -0.00    -0.01   0.00  -0.04
  43   1    -0.03  -0.01   0.07    -0.02  -0.00   0.02     0.00   0.00   0.00
  44   1     0.02  -0.01  -0.04    -0.00  -0.00  -0.01     0.00  -0.00  -0.01
  45   1     0.06  -0.01  -0.15     0.01  -0.00  -0.04     0.00  -0.00  -0.01
  46   1     0.01  -0.01  -0.05    -0.00  -0.00  -0.02    -0.00  -0.00   0.00
  47   1     0.01   0.03   0.09    -0.00  -0.00  -0.00     0.00   0.00   0.02
  48   1     0.01   0.03   0.15     0.00   0.01   0.06    -0.01  -0.00  -0.03
  49   1    -0.01   0.01   0.02     0.04  -0.01   0.01    -0.02   0.01  -0.00
  50   1    -0.01   0.02   0.04     0.03  -0.01  -0.05    -0.02   0.01   0.05
  51   1     0.02  -0.00   0.02    -0.02   0.04  -0.04     0.04   0.12  -0.04
  52   1     0.01   0.02   0.02     0.00  -0.01  -0.01     0.01   0.01   0.06
  53   1    -0.01   0.03   0.00     0.02  -0.06   0.03    -0.01  -0.13   0.11
  54   1    -0.01   0.00  -0.01     0.01  -0.02   0.01    -0.03  -0.05  -0.00
  55   1     0.01  -0.02  -0.00    -0.01   0.04  -0.02     0.00   0.07  -0.11
  56   1    -0.01   0.01  -0.00     0.10  -0.03  -0.01    -0.04  -0.02  -0.08
  57   1     0.00  -0.01   0.00    -0.02   0.03  -0.04     0.04   0.03  -0.03
  58   1     0.01  -0.01  -0.01    -0.13   0.05  -0.04     0.08   0.04   0.04
  59   1     0.01  -0.00  -0.02    -0.03   0.01   0.03    -0.00   0.00   0.06
  60   1     0.00   0.01  -0.02     0.08  -0.05   0.06    -0.07  -0.05   0.01
  61   1     0.04  -0.01  -0.03    -0.06  -0.00   0.08     0.02  -0.05   0.06
  62   1    -0.01  -0.01   0.01     0.02  -0.01  -0.03     0.00  -0.07  -0.01
  63   1    -0.05  -0.00   0.05     0.08  -0.01  -0.12    -0.00  -0.03  -0.06
  64   1    -0.01   0.00   0.01     0.01   0.00  -0.02    -0.01   0.03  -0.02
  65   1     0.03   0.00  -0.03    -0.06   0.01   0.08     0.01   0.04   0.05
  66   1     0.00  -0.03   0.00    -0.03   0.01  -0.04     0.04  -0.01   0.04
  67   1     0.00  -0.02  -0.00    -0.03   0.01   0.01     0.04  -0.00  -0.00
  68   1    -0.02  -0.02  -0.12    -0.00   0.01   0.05    -0.01  -0.01  -0.06
                     22                     23                     24
                        a                      a                      a 
 Frequencies --   177.5804               190.3796               201.9960
 Red. masses --    10.8045                11.9272                12.7351
 Frc consts  --     0.0000                 0.0000                 0.0000
 IR Inten    --     2.8000                 1.5834                 4.6643
 Raman Activ --     0.0000                 0.0000                 0.0000
 Depolar     --     0.0000                 0.0000                 0.0000
 Atom AN      X      Y      Z        X      Y      Z        X      Y      Z
   1   8     0.02   0.03  -0.08     0.03   0.06  -0.08    -0.24  -0.10  -0.14
   2   6    -0.01   0.05  -0.01    -0.00   0.06  -0.04    -0.09   0.04   0.00
   3   6    -0.00   0.04   0.00     0.00   0.08   0.01    -0.09   0.15   0.04
   4   6     0.06   0.01   0.01     0.13   0.01   0.02     0.10   0.05   0.06
   5   6     0.06  -0.06   0.01     0.14  -0.11   0.01     0.15  -0.19  -0.00
   6   6     0.02  -0.08   0.02     0.06  -0.16   0.04     0.00  -0.28  -0.03
   7   6    -0.04  -0.05  -0.00    -0.05  -0.09   0.02    -0.20  -0.16  -0.03
   8   6    -0.03   0.03  -0.01    -0.03   0.06  -0.01    -0.19   0.10  -0.01
   9  16    -0.04   0.08  -0.02    -0.03   0.15   0.06     0.02   0.13  -0.05
  10   8     0.01   0.01  -0.00    -0.17   0.05   0.02     0.20   0.07   0.00
  11   8    -0.09   0.08   0.04     0.14   0.20   0.08     0.28   0.31   0.10
  12   6    -0.00   0.06  -0.02     0.00   0.05   0.03    -0.02  -0.08  -0.05
  13   6     0.06   0.02   0.02     0.06  -0.01  -0.02    -0.03  -0.06   0.05
  14   6     0.05  -0.05   0.03     0.04  -0.10  -0.07    -0.02  -0.04   0.10
  15   6     0.01  -0.08   0.01    -0.01  -0.14  -0.13    -0.01  -0.04   0.05
  16   6    -0.00  -0.12  -0.02    -0.01  -0.14   0.02     0.00   0.02  -0.04
  17   6     0.04  -0.10  -0.03    -0.05  -0.07   0.12     0.07   0.05  -0.06
  18   6     0.06   0.01  -0.00    -0.03   0.01   0.23     0.07   0.10  -0.11
  19   6     0.04   0.08   0.03    -0.01   0.01   0.24     0.02   0.12  -0.13
  20  14     0.04   0.03  -0.04    -0.05   0.01  -0.04     0.01  -0.01   0.03
  21   6     0.22  -0.20   0.04    -0.05   0.02  -0.05    -0.03   0.03   0.02
  22   6     0.22  -0.13   0.16    -0.05   0.01  -0.08    -0.02   0.03   0.01
  23   6     0.06   0.07   0.13    -0.04  -0.03  -0.06     0.00   0.01   0.01
  24   6    -0.08   0.18  -0.02    -0.03  -0.07  -0.03     0.03  -0.00   0.03
  25   6    -0.05  -0.04  -0.06    -0.03  -0.03  -0.04     0.02   0.03   0.03
  26   6     0.12  -0.24  -0.01    -0.05   0.02  -0.06    -0.00   0.05   0.03
  27   6    -0.14   0.01  -0.11     0.19  -0.00   0.06    -0.07  -0.06  -0.01
  28   6    -0.12   0.03  -0.12     0.19  -0.00   0.06    -0.08  -0.05  -0.02
  29   6     0.03   0.03  -0.06     0.01   0.01  -0.01    -0.02  -0.01   0.02
  30   6     0.15   0.02  -0.00    -0.14   0.02  -0.09     0.03  -0.01   0.08
  31   6     0.00   0.02  -0.04     0.03   0.01  -0.03    -0.04  -0.02   0.08
  32   6    -0.14   0.01  -0.10     0.20  -0.00   0.05    -0.10  -0.06   0.04
  33   6    -0.22   0.03   0.16    -0.14   0.00  -0.10     0.09  -0.02  -0.02
  34   6    -0.20   0.08   0.16    -0.12   0.11  -0.08     0.09  -0.06  -0.04
  35   6     0.00   0.09  -0.01    -0.02   0.14  -0.02     0.01  -0.07   0.01
  36   6     0.16   0.05  -0.16     0.04   0.06   0.02    -0.05  -0.05   0.05
  37   6     0.00  -0.00   0.01     0.00  -0.04   0.00     0.01  -0.01  -0.00
  38   6    -0.20  -0.01   0.17    -0.10  -0.06  -0.06     0.09  -0.01  -0.04
  39   6    -0.01   0.02  -0.00     0.03  -0.01   0.21    -0.03   0.12  -0.11
  40   6    -0.03  -0.09  -0.03     0.02  -0.09   0.10    -0.04   0.07  -0.06
  41   6    -0.04  -0.02   0.03    -0.06  -0.10  -0.23     0.01  -0.06   0.07
  42   6    -0.03   0.05   0.01    -0.02   0.02  -0.11     0.00  -0.06   0.03
  43   1     0.03   0.01   0.01     0.07   0.02   0.02     0.08   0.04   0.04
  44   1     0.03  -0.02   0.00     0.06  -0.04   0.00     0.09  -0.08  -0.01
  45   1     0.00  -0.04   0.01     0.01  -0.07   0.02     0.00  -0.12  -0.02
  46   1    -0.03  -0.02  -0.00    -0.05  -0.04   0.00    -0.12  -0.08  -0.02
  47   1     0.04   0.01   0.01     0.04   0.01   0.01    -0.01  -0.02   0.02
  48   1     0.03  -0.02   0.01     0.02  -0.04  -0.01    -0.01  -0.01   0.04
  49   1     0.01  -0.04  -0.01    -0.03  -0.02   0.02     0.03   0.01  -0.01
  50   1     0.03   0.01  -0.00    -0.01   0.02   0.08     0.03   0.03  -0.04
  51   1     0.10  -0.05   0.07    -0.02   0.01  -0.03    -0.01   0.01  -0.00
  52   1     0.01   0.05   0.06    -0.01  -0.01  -0.02     0.00  -0.00  -0.00
  53   1    -0.06   0.11  -0.03    -0.00  -0.03  -0.00     0.01  -0.01   0.01
  54   1    -0.05  -0.01  -0.04    -0.00  -0.01  -0.01     0.01   0.01   0.01
  55   1     0.04  -0.10  -0.02    -0.01   0.01  -0.02    -0.00   0.02   0.01
  56   1    -0.05   0.01  -0.05     0.08  -0.00   0.03    -0.03  -0.01  -0.02
  57   1     0.03   0.01  -0.01    -0.01   0.00  -0.01     0.00   0.00  -0.00
  58   1     0.09   0.00   0.02    -0.11   0.01  -0.05     0.03   0.00   0.04
  59   1     0.01   0.00  -0.00    -0.01   0.00  -0.02    -0.01  -0.01   0.03
  60   1    -0.06   0.00  -0.03     0.08  -0.00   0.02    -0.04  -0.02   0.02
  61   1    -0.09   0.04   0.06    -0.05   0.05  -0.03     0.04  -0.03  -0.01
  62   1     0.02   0.04  -0.02     0.00   0.06  -0.00    -0.00  -0.03   0.01
  63   1     0.11   0.01  -0.11     0.03   0.02   0.02    -0.04  -0.01   0.03
  64   1     0.02  -0.01  -0.01     0.02  -0.03   0.01    -0.01   0.00  -0.00
  65   1    -0.08  -0.01   0.07    -0.03  -0.04  -0.02     0.03   0.00  -0.02
  66   1    -0.01   0.01  -0.00     0.02   0.00   0.07    -0.02   0.04  -0.04
  67   1    -0.02  -0.04  -0.01     0.01  -0.03   0.02    -0.03   0.02  -0.01
  68   1    -0.03  -0.01   0.01    -0.04  -0.04  -0.09     0.00  -0.02   0.03
                     25                     26                     27
                        a                      a                      a 
 Frequencies --   208.9604               216.6237               223.8662
 Red. masses --    10.8867                10.7623                11.4113
 Frc consts  --     0.0000                 0.0000                 0.0000
 IR Inten    --     3.7462                 3.0682                10.8323
 Raman Activ --     0.0000                 0.0000                 0.0000
 Depolar     --     0.0000                 0.0000                 0.0000
 Atom AN      X      Y      Z        X      Y      Z        X      Y      Z
   1   8    -0.03   0.00   0.01     0.06   0.03  -0.00    -0.07  -0.05   0.03
   2   6    -0.01  -0.01  -0.02     0.01   0.01   0.00    -0.01  -0.04   0.00
   3   6    -0.02   0.02   0.02     0.03  -0.02  -0.01    -0.02   0.00   0.02
   4   6     0.01   0.01   0.03     0.01  -0.01  -0.02    -0.01  -0.00   0.02
   5   6     0.03  -0.03  -0.01    -0.00   0.02   0.01    -0.00  -0.02  -0.01
   6   6     0.01  -0.04  -0.02     0.01   0.03   0.02    -0.01  -0.03  -0.02
   7   6    -0.04  -0.03   0.01     0.04   0.02   0.00    -0.03  -0.02   0.00
   8   6    -0.04   0.02   0.02     0.04  -0.01  -0.01    -0.04   0.00   0.02
   9  16    -0.00   0.02   0.05    -0.01   0.01  -0.01     0.07  -0.05   0.01
  10   8    -0.08   0.03   0.02    -0.02  -0.01  -0.01     0.08   0.00   0.01
  11   8     0.16   0.06   0.02    -0.10  -0.03  -0.01     0.29   0.04  -0.01
  12   6    -0.01  -0.04   0.00     0.01   0.04   0.01    -0.02  -0.08  -0.02
  13   6    -0.04  -0.02  -0.04     0.05   0.01   0.00    -0.13   0.00  -0.02
  14   6    -0.04   0.01  -0.04     0.04  -0.04  -0.01    -0.11   0.13   0.00
  15   6    -0.00   0.03  -0.03     0.00  -0.05  -0.01    -0.04   0.16   0.02
  16   6     0.01   0.06   0.06    -0.01  -0.06  -0.01    -0.05   0.14   0.04
  17   6    -0.02   0.05   0.08     0.01  -0.04   0.00    -0.13   0.05   0.01
  18   6    -0.03  -0.04   0.06     0.02   0.04   0.03    -0.16  -0.14  -0.02
  19   6    -0.01  -0.12   0.02     0.00   0.08   0.03    -0.09  -0.18   0.00
  20  14     0.02   0.00  -0.04    -0.03   0.03  -0.01    -0.03   0.01   0.00
  21   6    -0.18  -0.10   0.10    -0.02  -0.08   0.04     0.26  -0.09  -0.17
  22   6    -0.18  -0.20  -0.00    -0.02  -0.12   0.04     0.25  -0.02  -0.04
  23   6    -0.09  -0.12  -0.13    -0.02  -0.04  -0.02     0.06   0.04   0.06
  24   6    -0.02   0.03  -0.17    -0.03   0.05  -0.07    -0.12  -0.01  -0.04
  25   6    -0.01  -0.01   0.02    -0.02  -0.02  -0.00    -0.10  -0.13  -0.18
  26   6    -0.11  -0.10   0.14    -0.02  -0.10   0.05     0.09  -0.18  -0.25
  27   6     0.02   0.07  -0.07     0.00  -0.37  -0.06     0.04   0.04   0.10
  28   6     0.03   0.07  -0.08     0.07  -0.24  -0.18     0.04  -0.01   0.15
  29   6     0.04   0.04  -0.09     0.04   0.01  -0.12    -0.04  -0.04   0.12
  30   6     0.06   0.03  -0.14    -0.06   0.08   0.10    -0.12  -0.04   0.07
  31   6     0.06   0.04  -0.14    -0.09  -0.08   0.24    -0.01  -0.01   0.06
  32   6     0.05   0.06  -0.13    -0.07  -0.33   0.16     0.07   0.03   0.11
  33   6     0.18   0.08   0.27     0.12   0.14  -0.03     0.05   0.08   0.02
  34   6     0.12  -0.09   0.26     0.13   0.14  -0.05     0.05   0.08   0.01
  35   6     0.02  -0.14   0.03     0.01   0.14  -0.02     0.00   0.08  -0.01
  36   6    -0.01   0.00  -0.15    -0.11   0.21   0.03    -0.04   0.12  -0.02
  37   6    -0.03   0.19  -0.01    -0.03   0.24  -0.05    -0.03   0.14  -0.03
  38   6     0.07   0.23   0.21     0.08   0.24  -0.09     0.02   0.14  -0.01
  39   6     0.02  -0.07   0.05    -0.01   0.05   0.02    -0.04  -0.16  -0.01
  40   6     0.04   0.03   0.08    -0.03  -0.03  -0.00    -0.01   0.01   0.00
  41   6     0.01  -0.02  -0.12    -0.03  -0.02   0.00     0.04   0.06  -0.02
  42   6     0.01  -0.04  -0.08    -0.01   0.03   0.01     0.02  -0.06  -0.02
  43   1     0.01   0.01   0.01    -0.00  -0.01  -0.01    -0.00   0.00   0.01
  44   1     0.02  -0.01  -0.01    -0.01   0.01   0.00     0.00  -0.01  -0.01
  45   1     0.01  -0.02  -0.02    -0.00   0.01   0.01     0.00  -0.01  -0.01
  46   1    -0.02  -0.01   0.00     0.02   0.01   0.00    -0.01  -0.01  -0.00
  47   1    -0.02  -0.01  -0.01     0.03   0.01   0.00    -0.07  -0.01  -0.01
  48   1    -0.02   0.01  -0.01     0.02  -0.02  -0.00    -0.05   0.05   0.00
  49   1    -0.01   0.03   0.03     0.00  -0.02  -0.00    -0.05   0.03   0.01
  50   1    -0.02  -0.02   0.02     0.01   0.02   0.01    -0.07  -0.06  -0.01
  51   1    -0.08  -0.08  -0.00    -0.01  -0.05   0.01     0.11   0.01   0.01
  52   1    -0.03  -0.04  -0.06    -0.01  -0.01  -0.01     0.02   0.04   0.06
  53   1     0.01   0.05  -0.09    -0.01   0.05  -0.04    -0.07   0.01   0.00
  54   1     0.02   0.02   0.01    -0.00   0.00  -0.00    -0.07  -0.05  -0.07
  55   1    -0.03  -0.03   0.07    -0.00  -0.04   0.02     0.03  -0.08  -0.11
  56   1     0.01   0.02  -0.02     0.04  -0.08  -0.09     0.02  -0.00   0.06
  57   1     0.01   0.00  -0.02     0.03   0.05  -0.07    -0.02  -0.02   0.04
  58   1     0.02   0.00  -0.04    -0.03   0.07   0.04    -0.06  -0.02   0.00
  59   1     0.02   0.01  -0.04    -0.04  -0.01   0.12    -0.00  -0.00   0.00
  60   1     0.02   0.03  -0.05    -0.03  -0.14   0.08     0.03   0.01   0.03
  61   1     0.05  -0.06   0.11     0.05   0.04  -0.03     0.02   0.02   0.00
  62   1     0.00  -0.09  -0.01    -0.01   0.02  -0.01    -0.00   0.01  -0.00
  63   1    -0.01  -0.01  -0.10    -0.07   0.06   0.03    -0.02   0.03  -0.01
  64   1    -0.03   0.09  -0.03    -0.02   0.08  -0.01    -0.01   0.05  -0.01
  65   1     0.02   0.11   0.08     0.04   0.09  -0.03     0.01   0.06  -0.00
  66   1     0.01  -0.03   0.01    -0.01   0.02   0.01    -0.00  -0.07  -0.01
  67   1     0.02   0.02   0.03    -0.02  -0.02  -0.00     0.02   0.02   0.00
  68   1     0.01  -0.00  -0.05    -0.02  -0.01   0.00     0.04   0.03  -0.02
                     28                     29                     30
                        a                      a                      a 
 Frequencies --   230.5767               258.2124               267.6976
 Red. masses --    11.3818                12.2220                12.4986
 Frc consts  --     0.0000                 0.0000                 0.0000
 IR Inten    --     1.6150                 7.2742                 7.8180
 Raman Activ --     0.0000                 0.0000                 0.0000
 Depolar     --     0.0000                 0.0000                 0.0000
 Atom AN      X      Y      Z        X      Y      Z        X      Y      Z
   1   8     0.02   0.02  -0.04     0.10   0.11   0.02    -0.34  -0.07  -0.04
   2   6    -0.00   0.03   0.01     0.02   0.03  -0.04    -0.04   0.03  -0.05
   3   6     0.02   0.01  -0.02    -0.07   0.02   0.12    -0.03   0.07  -0.12
   4   6     0.02   0.00  -0.02    -0.08   0.03   0.11    -0.02   0.03  -0.02
   5   6     0.01   0.01   0.02     0.01   0.04  -0.11    -0.07  -0.06   0.11
   6   6     0.00   0.01   0.03    -0.02   0.02  -0.10    -0.06  -0.09  -0.07
   7   6     0.02   0.01  -0.01    -0.11   0.01   0.12    -0.08  -0.05  -0.16
   8   6     0.02   0.01  -0.02    -0.11   0.00   0.11    -0.11   0.02  -0.04
   9  16    -0.06   0.05  -0.03    -0.11  -0.03   0.08    -0.05  -0.05   0.11
  10   8    -0.02   0.00  -0.01    -0.35  -0.05   0.01     0.11   0.16   0.08
  11   8    -0.26  -0.03   0.01     0.05   0.01   0.02    -0.17  -0.16  -0.02
  12   6     0.02   0.07   0.02    -0.01  -0.03  -0.07     0.04  -0.02   0.12
  13   6     0.12  -0.01   0.05     0.02  -0.07  -0.18     0.04  -0.00   0.13
  14   6     0.10  -0.12   0.01     0.05  -0.03  -0.04     0.04   0.03  -0.07
  15   6     0.04  -0.15  -0.02     0.13   0.01   0.09     0.13   0.07  -0.07
  16   6     0.04  -0.12  -0.07     0.17   0.07   0.21     0.16   0.08  -0.12
  17   6     0.12  -0.02  -0.03     0.25   0.00   0.11     0.06   0.06  -0.06
  18   6     0.14   0.15   0.00     0.22  -0.09  -0.13     0.03  -0.09   0.07
  19   6     0.08   0.20  -0.02     0.10  -0.12  -0.24     0.12  -0.17   0.10
  20  14     0.00  -0.01  -0.00     0.09  -0.02  -0.02     0.10  -0.04   0.01
  21   6     0.01  -0.06  -0.13    -0.02   0.00   0.01    -0.07   0.00   0.02
  22   6    -0.00  -0.07  -0.16    -0.02   0.00  -0.01    -0.08  -0.03  -0.04
  23   6    -0.06  -0.08  -0.13    -0.00  -0.01  -0.02    -0.04  -0.04  -0.06
  24   6    -0.13  -0.14  -0.15     0.01  -0.01  -0.01    -0.01  -0.04  -0.05
  25   6    -0.13  -0.13  -0.17     0.01   0.01   0.00    -0.01  -0.00  -0.00
  26   6    -0.08  -0.11  -0.20    -0.02   0.01   0.01    -0.06   0.01   0.02
  27   6    -0.02   0.16   0.13    -0.04  -0.00   0.04    -0.01  -0.00   0.00
  28   6    -0.07   0.06   0.25    -0.10  -0.03   0.06    -0.04  -0.01   0.00
  29   6    -0.09  -0.07   0.22    -0.06  -0.04   0.09    -0.01  -0.01   0.02
  30   6    -0.07  -0.09   0.12     0.01  -0.04   0.13     0.02  -0.01   0.03
  31   6    -0.01   0.01   0.04    -0.05  -0.01   0.08    -0.02  -0.00   0.01
  32   6     0.00   0.15   0.09    -0.09   0.01   0.06    -0.04   0.00   0.01
  33   6     0.13   0.03   0.09    -0.07   0.01  -0.05    -0.08   0.02  -0.05
  34   6     0.11  -0.05   0.08    -0.06   0.08  -0.03    -0.08   0.12  -0.02
  35   6     0.02  -0.08   0.02    -0.01   0.10  -0.01    -0.02   0.14  -0.01
  36   6    -0.04  -0.00  -0.02     0.02   0.08  -0.01     0.02   0.12  -0.03
  37   6    -0.00   0.09  -0.01    -0.02   0.02  -0.01    -0.03   0.04  -0.01
  38   6     0.09   0.10   0.05    -0.07   0.00  -0.03    -0.10   0.02  -0.03
  39   6     0.03   0.18  -0.01     0.05  -0.07  -0.15     0.27  -0.13   0.06
  40   6     0.00   0.00  -0.04     0.08   0.04   0.11     0.30   0.01  -0.06
  41   6    -0.03  -0.06   0.06     0.08  -0.02  -0.16     0.14   0.08   0.11
  42   6    -0.02   0.05   0.05     0.05  -0.03  -0.20     0.10  -0.01   0.10
  43   1     0.01   0.00  -0.01    -0.03   0.01   0.05     0.01   0.02   0.00
  44   1    -0.00   0.00   0.01     0.03   0.01  -0.08    -0.03  -0.03   0.08
  45   1    -0.00   0.00   0.02     0.01   0.00  -0.07    -0.01  -0.04  -0.03
  46   1     0.01   0.00  -0.01    -0.04   0.00   0.06    -0.03  -0.02  -0.07
  47   1     0.07   0.01   0.02     0.01  -0.02  -0.07     0.01   0.00   0.05
  48   1     0.04  -0.05   0.00     0.00   0.00   0.00    -0.01   0.02  -0.06
  49   1     0.04  -0.02  -0.01     0.10   0.00   0.05    -0.01   0.04  -0.02
  50   1     0.06   0.06   0.00     0.09  -0.04  -0.07    -0.02  -0.03   0.03
  51   1    -0.00  -0.02  -0.05    -0.01  -0.00  -0.01    -0.03  -0.01  -0.02
  52   1    -0.02  -0.01  -0.02    -0.00  -0.01  -0.01    -0.01  -0.02  -0.03
  53   1    -0.05  -0.05  -0.03     0.01  -0.01  -0.00     0.01  -0.02  -0.02
  54   1    -0.04  -0.04  -0.05     0.01   0.00   0.00     0.01   0.01   0.00
  55   1    -0.02  -0.04  -0.08    -0.00   0.01   0.01    -0.02   0.01   0.01
  56   1    -0.03   0.03   0.11    -0.04  -0.00   0.02    -0.02  -0.00   0.00
  57   1    -0.03  -0.04   0.08    -0.01  -0.01   0.02    -0.00  -0.00   0.00
  58   1    -0.03  -0.05   0.03     0.03  -0.02   0.05     0.02  -0.01   0.01
  59   1     0.01  -0.00  -0.02    -0.01  -0.01   0.02    -0.01  -0.00   0.00
  60   1     0.01   0.05   0.01    -0.04  -0.00   0.02    -0.01   0.00   0.00
  61   1     0.04  -0.03   0.03    -0.03   0.04  -0.02    -0.04   0.05  -0.01
  62   1    -0.00  -0.05   0.00    -0.00   0.04  -0.00    -0.00   0.05  -0.00
  63   1    -0.03  -0.00  -0.02     0.02   0.02  -0.00     0.03   0.04  -0.01
  64   1    -0.01   0.04  -0.01     0.00  -0.01   0.00     0.00  -0.00   0.01
  65   1     0.03   0.05   0.02    -0.02  -0.01  -0.01    -0.03   0.00  -0.00
  66   1     0.00   0.07   0.00    -0.01  -0.03  -0.07     0.11  -0.06   0.03
  67   1    -0.02  -0.01  -0.01     0.00   0.02   0.06     0.13   0.02  -0.03
  68   1    -0.04  -0.02   0.03     0.02  -0.01  -0.06     0.05   0.03   0.04
                     31                     32                     33
                        a                      a                      a 
 Frequencies --   276.4824               300.6632               329.2476
 Red. masses --    13.2536                15.1976                14.2671
 Frc consts  --     0.0000                 0.0000                 0.0000
 IR Inten    --     1.8528                12.7503                23.2626
 Raman Activ --     0.0000                 0.0000                 0.0000
 Depolar     --     0.0000                 0.0000                 0.0000
 Atom AN      X      Y      Z        X      Y      Z        X      Y      Z
   1   8    -0.10  -0.02   0.07     0.08   0.32  -0.08    -0.36  -0.04  -0.17
   2   6     0.04  -0.08  -0.12    -0.07   0.16  -0.16    -0.05   0.16   0.01
   3   6     0.13  -0.03  -0.26    -0.10  -0.08  -0.14     0.01   0.25   0.03
   4   6     0.12  -0.04  -0.18    -0.15  -0.11  -0.02     0.19   0.18   0.11
   5   6    -0.06  -0.07   0.26    -0.17  -0.13   0.02     0.23   0.09   0.09
   6   6     0.06  -0.04   0.09    -0.08  -0.10  -0.14     0.12   0.03   0.05
   7   6     0.22  -0.02  -0.26    -0.09  -0.10  -0.08    -0.05   0.12   0.00
   8   6     0.15   0.01  -0.10    -0.12  -0.07   0.03    -0.05   0.15  -0.01
   9  16    -0.06   0.15   0.22     0.14  -0.18   0.26     0.10  -0.17   0.08
  10   8    -0.02   0.38   0.13     0.06   0.11   0.16    -0.04  -0.21   0.04
  11   8    -0.12   0.03   0.10     0.34  -0.24  -0.07    -0.12  -0.40  -0.20
  12   6    -0.06  -0.06   0.01     0.09   0.19   0.09     0.10   0.04   0.08
  13   6    -0.07  -0.08  -0.10     0.11   0.16  -0.01     0.07   0.03  -0.07
  14   6    -0.06  -0.06  -0.04     0.08   0.02  -0.17     0.06  -0.02  -0.02
  15   6    -0.02  -0.03   0.05    -0.01   0.02   0.03    -0.00  -0.03  -0.03
  16   6    -0.01   0.03   0.17    -0.04  -0.08   0.06    -0.03   0.01   0.08
  17   6     0.06   0.01   0.10     0.01  -0.08   0.03    -0.04   0.02   0.09
  18   6     0.05  -0.03  -0.09     0.03   0.02  -0.02    -0.05  -0.01  -0.02
  19   6    -0.04  -0.04  -0.17    -0.01   0.11  -0.00    -0.10  -0.02  -0.08
  20  14    -0.02   0.01  -0.02    -0.03   0.03  -0.01    -0.12   0.02  -0.02
  21   6     0.03   0.00  -0.00     0.01  -0.00  -0.00     0.03   0.00  -0.02
  22   6     0.04   0.02   0.03     0.01  -0.00   0.00     0.04   0.01   0.03
  23   6     0.02   0.02   0.04     0.00   0.00   0.00     0.02   0.02   0.04
  24   6     0.01   0.03   0.03    -0.00   0.00   0.00     0.01   0.04   0.03
  25   6     0.02   0.01   0.01    -0.00  -0.00  -0.00     0.02   0.00   0.01
  26   6     0.03  -0.00   0.00     0.00  -0.00  -0.00     0.04  -0.01  -0.00
  27   6    -0.00  -0.00   0.01    -0.00  -0.00  -0.00    -0.02  -0.00  -0.01
  28   6    -0.01  -0.01   0.01     0.01  -0.00   0.00     0.03   0.00  -0.00
  29   6    -0.01  -0.01   0.02     0.00   0.00   0.00     0.01   0.01  -0.01
  30   6    -0.00  -0.01   0.03    -0.01   0.00  -0.00    -0.02   0.01  -0.02
  31   6    -0.01  -0.00   0.02     0.00  -0.00   0.00     0.02  -0.00  -0.00
  32   6    -0.01  -0.00   0.02     0.01  -0.00   0.00     0.02  -0.01  -0.00
  33   6     0.01  -0.00   0.01     0.02  -0.00   0.01     0.01   0.01   0.03
  34   6     0.01  -0.02   0.00     0.02  -0.03   0.00     0.02  -0.03   0.00
  35   6     0.00  -0.02  -0.00     0.01  -0.04   0.00     0.01  -0.04  -0.01
  36   6    -0.00  -0.02   0.01    -0.00  -0.04   0.01    -0.01  -0.03   0.01
  37   6     0.00  -0.01   0.00     0.01  -0.02   0.00     0.01  -0.01  -0.00
  38   6     0.01  -0.01   0.00     0.03  -0.01   0.01     0.03  -0.00   0.01
  39   6    -0.12  -0.00  -0.09    -0.08   0.08   0.00    -0.12   0.02  -0.03
  40   6    -0.10   0.04   0.11    -0.10  -0.06   0.02    -0.10   0.05   0.06
  41   6    -0.02  -0.08  -0.15    -0.05   0.09   0.10     0.03  -0.09  -0.17
  42   6    -0.01  -0.08  -0.12    -0.04   0.16  -0.06     0.07   0.03   0.03
  43   1     0.05  -0.01  -0.07    -0.04  -0.03   0.00     0.08   0.07   0.05
  44   1    -0.07  -0.02   0.18    -0.06  -0.04   0.03     0.08   0.02   0.03
  45   1    -0.00  -0.01   0.07    -0.01  -0.02  -0.07     0.04  -0.03   0.01
  46   1     0.07  -0.01  -0.12    -0.03  -0.03  -0.03    -0.03   0.02  -0.00
  47   1    -0.02  -0.03  -0.04     0.05   0.05  -0.00     0.02   0.01  -0.04
  48   1    -0.02  -0.01  -0.01     0.04  -0.02  -0.10     0.03  -0.01   0.00
  49   1     0.04  -0.00   0.04     0.02  -0.04   0.01    -0.01   0.01   0.03
  50   1     0.03  -0.01  -0.04     0.03   0.01  -0.02     0.00  -0.00  -0.02
  51   1     0.02   0.01   0.01     0.00  -0.00   0.00     0.02   0.01   0.01
  52   1     0.01   0.01   0.01     0.00   0.00   0.00     0.01   0.00   0.02
  53   1     0.00   0.01   0.01    -0.00   0.00   0.00    -0.00   0.02   0.01
  54   1    -0.00   0.00  -0.00    -0.00  -0.00  -0.00    -0.00  -0.00  -0.00
  55   1     0.01  -0.00  -0.00     0.00  -0.00  -0.00     0.01  -0.01   0.00
  56   1    -0.01  -0.00   0.01     0.00  -0.00   0.00     0.01  -0.00   0.00
  57   1    -0.00  -0.00   0.00     0.00   0.00  -0.00     0.01   0.00  -0.00
  58   1     0.00  -0.00   0.01    -0.00   0.00  -0.00    -0.02   0.00  -0.01
  59   1    -0.00  -0.00   0.00     0.00  -0.00   0.00     0.01  -0.00   0.00
  60   1    -0.01  -0.00   0.01     0.00  -0.00   0.00     0.01  -0.00   0.00
  61   1     0.01  -0.01   0.00     0.01  -0.01   0.00     0.01  -0.01   0.00
  62   1     0.00  -0.01  -0.00     0.00  -0.01  -0.00     0.00  -0.01  -0.00
  63   1    -0.00  -0.01   0.00    -0.01  -0.01   0.00    -0.01  -0.01   0.01
  64   1    -0.00  -0.00  -0.00     0.00  -0.00  -0.00     0.00   0.00  -0.00
  65   1     0.00  -0.00  -0.00     0.01  -0.00   0.00     0.01  -0.00  -0.00
  66   1    -0.06  -0.00  -0.04    -0.04   0.04  -0.00    -0.04   0.01  -0.01
  67   1    -0.05   0.02   0.05    -0.05  -0.04   0.00    -0.05   0.02   0.03
  68   1    -0.00  -0.03  -0.06    -0.03   0.02   0.05     0.00  -0.03  -0.09
                     34                     35                     36
                        a                      a                      a 
 Frequencies --   353.6694               354.7615               356.7002
 Red. masses --     9.5887                11.5460                 8.8624
 Frc consts  --     0.0000                 0.0000                 0.0000
 IR Inten    --     0.1746                 1.0961                 0.1880
 Raman Activ --     0.0000                 0.0000                 0.0000
 Depolar     --     0.0000                 0.0000                 0.0000
 Atom AN      X      Y      Z        X      Y      Z        X      Y      Z
   1   8     0.04   0.02  -0.01    -0.11  -0.04   0.01    -0.02  -0.01   0.00
   2   6     0.03   0.03   0.02    -0.05  -0.05  -0.05    -0.01  -0.01  -0.01
   3   6     0.01   0.06   0.03    -0.02  -0.12  -0.07    -0.00  -0.02  -0.01
   4   6     0.07   0.07  -0.06    -0.13  -0.13   0.12    -0.02  -0.02   0.02
   5   6     0.02   0.05   0.06    -0.04  -0.09  -0.11    -0.01  -0.02  -0.02
   6   6    -0.02   0.02   0.03     0.05  -0.04  -0.06     0.01  -0.01  -0.01
   7   6    -0.00   0.04  -0.09     0.00  -0.07   0.18     0.00  -0.01   0.03
   8   6    -0.05   0.02   0.02     0.10  -0.04  -0.04     0.02  -0.01  -0.01
   9  16    -0.06  -0.07   0.05     0.12   0.14  -0.08     0.02   0.02  -0.01
  10   8    -0.01  -0.01   0.04     0.01   0.03  -0.06     0.00   0.01  -0.01
  11   8     0.08  -0.06  -0.03    -0.15   0.11   0.06    -0.02   0.02   0.01
  12   6    -0.06  -0.05  -0.07     0.12   0.10   0.13     0.02   0.02   0.02
  13   6    -0.10  -0.03  -0.09     0.19   0.05   0.14     0.03   0.01   0.02
  14   6    -0.07   0.06   0.09     0.12  -0.10  -0.17     0.02  -0.01  -0.02
  15   6     0.00   0.07   0.06    -0.00  -0.11  -0.10     0.00  -0.01  -0.01
  16   6    -0.00  -0.03  -0.00     0.00   0.05   0.01     0.00   0.01  -0.00
  17   6     0.00  -0.14  -0.10    -0.01   0.22   0.15    -0.01  -0.01  -0.01
  18   6     0.05   0.05   0.04    -0.08  -0.07  -0.06    -0.00   0.02   0.02
  19   6     0.06   0.11   0.09    -0.12  -0.21  -0.17    -0.01  -0.02  -0.02
  20  14     0.06   0.02   0.03    -0.12  -0.03  -0.04    -0.01  -0.01  -0.01
  21   6    -0.01  -0.02   0.02     0.02  -0.00  -0.02     0.01  -0.01   0.00
  22   6     0.03  -0.32   0.17     0.06  -0.14   0.14     0.02  -0.08   0.06
  23   6    -0.06   0.29  -0.22    -0.00   0.18  -0.04    -0.01   0.08  -0.04
  24   6    -0.01  -0.03  -0.02     0.03   0.05   0.05     0.00   0.00   0.01
  25   6     0.03  -0.30   0.18     0.06  -0.14   0.11     0.02  -0.08   0.05
  26   6    -0.08   0.31  -0.19     0.03   0.15  -0.09    -0.01   0.08  -0.05
  27   6     0.01  -0.00   0.00    -0.02   0.01  -0.00    -0.02   0.01  -0.01
  28   6    -0.08   0.01  -0.03    -0.07   0.02  -0.03     0.37  -0.04   0.15
  29   6     0.06  -0.01   0.02     0.09  -0.01   0.04    -0.35   0.04  -0.14
  30   6     0.01  -0.00   0.01    -0.02   0.00  -0.01    -0.01   0.00  -0.01
  31   6    -0.08   0.01  -0.03    -0.07   0.01  -0.03     0.37  -0.04   0.14
  32   6     0.06  -0.01   0.02     0.10  -0.01   0.03    -0.37   0.05  -0.14
  33   6    -0.00  -0.00  -0.01     0.01   0.00   0.01     0.00  -0.00  -0.00
  34   6    -0.03   0.00   0.02     0.00   0.00   0.02    -0.06   0.00   0.07
  35   6     0.02   0.00  -0.03     0.01  -0.00  -0.02     0.05  -0.00  -0.07
  36   6     0.01  -0.00   0.00    -0.01   0.01   0.00     0.00   0.00  -0.00
  37   6    -0.02  -0.00   0.03    -0.02   0.01   0.01    -0.06   0.00   0.07
  38   6     0.02  -0.01  -0.03     0.02   0.01  -0.01     0.05  -0.00  -0.07
  39   6     0.01  -0.04  -0.02    -0.03   0.05   0.00    -0.01  -0.03  -0.02
  40   6     0.00  -0.06  -0.01    -0.00   0.14   0.05     0.01   0.05   0.03
  41   6     0.02   0.04  -0.01    -0.04  -0.06   0.02    -0.00  -0.00   0.00
  42   6     0.02  -0.01  -0.01    -0.03   0.01   0.02    -0.00   0.00   0.01
  43   1     0.03   0.02  -0.04    -0.06  -0.04   0.09    -0.01  -0.01   0.01
  44   1     0.01   0.01   0.03    -0.01  -0.02  -0.06    -0.00  -0.00  -0.01
  45   1    -0.01  -0.01   0.02     0.02   0.01  -0.04     0.00   0.00  -0.01
  46   1     0.01   0.01  -0.05    -0.02  -0.02   0.10    -0.00  -0.00   0.02
  47   1    -0.04  -0.02  -0.05     0.08   0.03   0.08     0.01   0.00   0.01
  48   1    -0.03   0.03   0.05     0.05  -0.05  -0.09     0.01  -0.01  -0.01
  49   1    -0.00  -0.08  -0.05    -0.00   0.12   0.08    -0.00  -0.01  -0.01
  50   1     0.02   0.03   0.02    -0.02  -0.03  -0.03     0.00   0.02   0.01
  51   1     0.02  -0.20   0.11     0.04  -0.09   0.08     0.01  -0.05   0.03
  52   1    -0.03   0.19  -0.13    -0.01   0.10  -0.05    -0.01   0.05  -0.03
  53   1    -0.00  -0.01  -0.01     0.00   0.02   0.01     0.00   0.00   0.00
  54   1     0.03  -0.19   0.12     0.01  -0.10   0.06     0.01  -0.05   0.03
  55   1    -0.04   0.20  -0.13    -0.00   0.10  -0.06    -0.01   0.05  -0.03
  56   1    -0.05   0.00  -0.02    -0.05   0.01  -0.02     0.24  -0.03   0.10
  57   1     0.04  -0.00   0.02     0.06  -0.01   0.02    -0.23   0.03  -0.09
  58   1     0.01  -0.00   0.00    -0.01   0.00  -0.01    -0.01  -0.00  -0.00
  59   1    -0.05   0.01  -0.02    -0.05   0.01  -0.02     0.24  -0.03   0.09
  60   1     0.04  -0.01   0.02     0.06  -0.01   0.02    -0.23   0.03  -0.09
  61   1    -0.02   0.00   0.02    -0.00  -0.00   0.01    -0.04   0.00   0.05
  62   1     0.01   0.00  -0.02     0.01  -0.00  -0.01     0.03  -0.00  -0.05
  63   1     0.00  -0.00   0.00    -0.01   0.00   0.00     0.00   0.00  -0.00
  64   1    -0.01  -0.00   0.02    -0.01   0.01   0.01    -0.04   0.00   0.05
  65   1     0.01  -0.00  -0.02     0.01   0.01  -0.01     0.04  -0.00  -0.05
  66   1    -0.01  -0.03  -0.02     0.00   0.03   0.02    -0.00  -0.02  -0.01
  67   1    -0.00  -0.02  -0.00     0.00   0.05   0.03     0.01   0.03   0.02
  68   1     0.01   0.01  -0.02    -0.02  -0.02   0.02    -0.00  -0.00   0.00
                     37                     38                     39
                        a                      a                      a 
 Frequencies --   359.5864               362.4853               363.8837
 Red. masses --     8.8257                 9.4191                11.6145
 Frc consts  --     0.0000                 0.0000                 0.0000
 IR Inten    --     0.1043                 0.2656                16.6714
 Raman Activ --     0.0000                 0.0000                 0.0000
 Depolar     --     0.0000                 0.0000                 0.0000
 Atom AN      X      Y      Z        X      Y      Z        X      Y      Z
   1   8    -0.00   0.00   0.00     0.10   0.02  -0.03     0.35   0.14  -0.03
   2   6     0.01  -0.00  -0.01    -0.04   0.04   0.08    -0.00   0.10   0.14
   3   6     0.01   0.01  -0.00    -0.05  -0.01   0.07    -0.07   0.09   0.20
   4   6     0.01   0.01   0.00     0.00  -0.01  -0.08     0.11   0.12  -0.21
   5   6     0.01   0.01   0.01    -0.03  -0.01  -0.02    -0.01   0.07   0.03
   6   6     0.00   0.01  -0.00    -0.06  -0.02   0.05    -0.17  -0.00   0.13
   7   6    -0.00   0.01  -0.00     0.00  -0.01  -0.08    -0.03   0.03  -0.27
   8   6    -0.01   0.01   0.00    -0.02  -0.01  -0.01    -0.14   0.03   0.00
   9  16    -0.01  -0.01   0.01     0.02  -0.00  -0.03    -0.10  -0.08  -0.04
  10   8    -0.01   0.00   0.00     0.09  -0.04  -0.00     0.14  -0.08   0.01
  11   8     0.00  -0.01   0.00     0.03  -0.00  -0.03     0.08  -0.04  -0.08
  12   6    -0.01  -0.02  -0.02     0.00   0.06   0.08    -0.06  -0.02   0.06
  13   6    -0.02  -0.01  -0.00     0.03   0.02   0.04    -0.03  -0.03   0.17
  14   6    -0.01   0.01   0.01     0.00  -0.07  -0.04    -0.07  -0.17  -0.05
  15   6     0.00   0.02   0.01    -0.03  -0.09  -0.06    -0.04  -0.17  -0.10
  16   6     0.00  -0.00   0.00    -0.01   0.01  -0.01     0.00   0.02  -0.03
  17   6     0.02   0.07   0.06    -0.05  -0.18  -0.17     0.05   0.26   0.17
  18   6    -0.01  -0.09  -0.07     0.05   0.27   0.20    -0.03  -0.12  -0.10
  19   6     0.01   0.03   0.03    -0.02  -0.13  -0.10    -0.03  -0.19  -0.14
  20  14     0.01   0.01   0.01     0.01  -0.04  -0.04     0.01  -0.06  -0.04
  21   6    -0.00   0.01   0.00     0.00  -0.00  -0.00     0.00  -0.00  -0.00
  22   6    -0.01   0.05  -0.03    -0.00   0.04  -0.01     0.01  -0.01   0.03
  23   6     0.00  -0.04   0.02     0.01  -0.02   0.04     0.01   0.03   0.01
  24   6    -0.00  -0.01  -0.00     0.01   0.02   0.02     0.02   0.02   0.03
  25   6    -0.01   0.04  -0.03     0.01   0.04  -0.01     0.02  -0.01   0.02
  26   6     0.00  -0.04   0.03     0.02  -0.03   0.03     0.02   0.03  -0.01
  27   6     0.00  -0.00   0.00     0.01   0.00   0.00     0.01   0.01   0.00
[...]
  42   6     0.00   0.00  -0.00    -0.00  -0.00   0.00    -0.00  -0.00   0.00
  43   1     0.00  -0.00   0.00    -0.00   0.00  -0.00    -0.00   0.00  -0.00
  44   1    -0.00  -0.00  -0.00    -0.00  -0.00  -0.00     0.00   0.00   0.00
  45   1     0.00  -0.00   0.00    -0.00   0.00  -0.00    -0.00   0.00  -0.00
  46   1    -0.00   0.00  -0.00     0.00  -0.00   0.00    -0.00   0.00   0.00
  47   1    -0.00   0.01  -0.00     0.00  -0.00   0.00     0.00  -0.00   0.00
  48   1    -0.01  -0.01   0.00     0.00   0.00  -0.00     0.00   0.00  -0.00
  49   1     0.41   0.31  -0.53    -0.10  -0.08   0.13    -0.11  -0.08   0.13
  50   1    -0.17   0.26  -0.28     0.04  -0.06   0.07     0.04  -0.07   0.07
  51   1    -0.03   0.02   0.05    -0.04   0.03   0.06    -0.08   0.06   0.11
  52   1    -0.10  -0.01   0.00    -0.13  -0.02   0.01    -0.24  -0.03   0.01
  53   1    -0.07  -0.08  -0.11    -0.11  -0.12  -0.17    -0.19  -0.21  -0.29
  54   1     0.05  -0.04  -0.07     0.09  -0.07  -0.13     0.15  -0.11  -0.21
  55   1     0.05   0.01  -0.00     0.16   0.02  -0.01     0.26   0.03  -0.01
  56   1    -0.02  -0.08   0.02    -0.06  -0.30   0.06     0.00   0.02  -0.00
  57   1     0.02  -0.07  -0.07     0.07  -0.25  -0.25    -0.00   0.00   0.00
  58   1     0.05   0.04  -0.12     0.19   0.14  -0.44    -0.00  -0.00   0.00
  59   1     0.01   0.07  -0.01     0.06   0.28  -0.05     0.00   0.00  -0.00
  60   1    -0.01   0.02   0.02    -0.03   0.12   0.12    -0.00   0.00   0.00
  61   1     0.04   0.04   0.03    -0.08  -0.09  -0.06     0.17   0.18   0.12
  62   1     0.05  -0.02   0.04    -0.13   0.06  -0.10     0.24  -0.10   0.19
  63   1     0.01  -0.07   0.01    -0.04   0.25  -0.04     0.06  -0.44   0.07
  64   1    -0.02  -0.02  -0.01     0.10   0.11   0.07    -0.17  -0.18  -0.12
  65   1    -0.00   0.00  -0.00     0.07  -0.03   0.05    -0.12   0.05  -0.09
  66   1     0.12   0.09  -0.15    -0.03  -0.02   0.03    -0.04  -0.03   0.04
  67   1    -0.09   0.13  -0.14     0.01  -0.02   0.02     0.03  -0.04   0.04
  68   1     0.02  -0.07   0.01    -0.01   0.02  -0.00    -0.01   0.02  -0.00
                    190                    191                    192
                        a                      a                      a 
 Frequencies --  3082.4612              3084.9130              3090.9756
 Red. masses --     1.9176                 1.8790                 1.7767
 Frc consts  --     0.0000                 0.0000                 0.0000
 IR Inten    --    35.3042                21.6512                 0.1155
 Raman Activ --     0.0000                 0.0000                 0.0000
 Depolar     --     0.0000                 0.0000                 0.0000
 Atom AN      X      Y      Z        X      Y      Z        X      Y      Z
   1   8     0.00   0.00  -0.00    -0.00  -0.00   0.00    -0.00   0.00  -0.00
   2   6    -0.00  -0.00   0.00     0.00   0.00  -0.00     0.00  -0.00   0.00
   3   6     0.00  -0.00   0.00    -0.00  -0.00  -0.00     0.00  -0.00   0.00
   4   6     0.00  -0.00   0.00     0.00  -0.00   0.00     0.09  -0.16   0.03
   5   6     0.00   0.00   0.00     0.00   0.00   0.00     0.07   0.14   0.03
   6   6    -0.00   0.00  -0.00     0.00   0.00   0.00    -0.08   0.00  -0.04
   7   6    -0.00   0.00  -0.00    -0.00  -0.00  -0.00     0.01  -0.02   0.00
   8   6     0.00   0.00  -0.00    -0.00  -0.00   0.00    -0.00  -0.00  -0.00
   9  16    -0.00   0.00   0.00     0.00  -0.00  -0.00     0.00   0.00   0.00
  10   8     0.00  -0.00  -0.00    -0.00   0.00   0.00    -0.00  -0.00  -0.00
  11   8     0.00  -0.00   0.00    -0.00   0.00  -0.00    -0.00  -0.00  -0.00
  12   6     0.00  -0.00   0.00    -0.00   0.00  -0.00    -0.00  -0.00   0.00
  13   6     0.00  -0.00   0.00     0.00  -0.00   0.00    -0.00   0.00  -0.00
  14   6     0.00   0.00  -0.00     0.01   0.01  -0.00    -0.00  -0.00   0.00
  15   6    -0.00  -0.00   0.00     0.00  -0.00   0.00    -0.00   0.00   0.00
  16   6     0.00  -0.00  -0.00     0.01  -0.00  -0.00     0.00   0.00  -0.00
  17   6    -0.00   0.00  -0.00     0.04   0.03  -0.06     0.00   0.00  -0.00
  18   6    -0.00   0.00  -0.00    -0.02   0.03  -0.04    -0.00   0.00  -0.00
  19   6    -0.00   0.00  -0.00    -0.01   0.00  -0.00     0.00  -0.00   0.00
  20  14    -0.00  -0.00   0.00    -0.00  -0.00   0.00     0.00   0.00  -0.00
  21   6    -0.00  -0.00  -0.00     0.00   0.00   0.00     0.00   0.00   0.00
  22   6     0.02  -0.02  -0.03    -0.00   0.00   0.01    -0.00   0.00   0.00
  23   6     0.07   0.01  -0.00    -0.01  -0.00   0.00    -0.00  -0.00   0.00
  24   6     0.05   0.06   0.08    -0.01  -0.01  -0.01    -0.00  -0.00  -0.00
  25   6    -0.04   0.03   0.06     0.01  -0.00  -0.01     0.00  -0.00  -0.00
  26   6    -0.07  -0.01   0.00     0.01   0.00  -0.00     0.00   0.00  -0.00
  27   6    -0.00  -0.00   0.00     0.00   0.00  -0.00     0.00  -0.00  -0.00
  28   6    -0.01  -0.06   0.01     0.00   0.01  -0.00     0.00   0.00  -0.00
  29   6     0.01  -0.05  -0.05    -0.00   0.01   0.01    -0.00   0.00   0.00
  30   6     0.04   0.03  -0.09    -0.00  -0.00   0.01    -0.00  -0.00   0.00
  31   6     0.01   0.06  -0.01    -0.00  -0.00   0.00    -0.00  -0.00   0.00
  32   6    -0.01   0.03   0.03     0.00  -0.00  -0.00     0.00  -0.00  -0.00
  33   6    -0.00   0.00  -0.00     0.00  -0.00  -0.00    -0.00  -0.00  -0.00
  34   6     0.04   0.04   0.03    -0.01  -0.01  -0.01    -0.00  -0.00  -0.00
  35   6     0.06  -0.02   0.04    -0.01   0.00  -0.01    -0.00   0.00  -0.00
  36   6     0.01  -0.10   0.01    -0.00   0.02  -0.00    -0.00   0.00  -0.00
  37   6    -0.04  -0.04  -0.03     0.01   0.01   0.01     0.00   0.00   0.00
  38   6    -0.03   0.01  -0.02     0.00  -0.00   0.00    -0.00   0.00  -0.00
  39   6    -0.02  -0.01   0.02    -0.10  -0.08   0.13     0.00   0.00  -0.00
  40   6     0.01  -0.02   0.02     0.08  -0.12   0.13    -0.00   0.00  -0.00
  41   6     0.00  -0.00   0.00     0.00  -0.01   0.00    -0.00   0.01  -0.00
  42   6     0.00  -0.00  -0.00    -0.00  -0.00   0.00     0.00   0.00   0.00
  43   1    -0.00   0.00  -0.00    -0.00   0.00  -0.00    -0.32   0.58  -0.12
  44   1    -0.00  -0.00  -0.00    -0.00  -0.00  -0.00    -0.26  -0.51  -0.13
  45   1     0.00  -0.00   0.00    -0.00  -0.00  -0.00     0.31  -0.00   0.14
  46   1     0.00  -0.00   0.00     0.00  -0.00   0.00    -0.05   0.09  -0.02
  47   1    -0.00   0.00  -0.00    -0.01   0.01  -0.00     0.00  -0.00   0.00
  48   1    -0.01  -0.01   0.00    -0.03  -0.03   0.01     0.00   0.00  -0.00
  49   1     0.00   0.00  -0.00    -0.15  -0.12   0.19    -0.00  -0.00   0.00
  50   1     0.00  -0.00   0.00     0.07  -0.11   0.12     0.00  -0.00   0.00
  51   1    -0.07   0.05   0.10     0.01  -0.01  -0.02     0.00  -0.00  -0.00
  52   1    -0.22  -0.03   0.01     0.04   0.00  -0.00     0.00   0.00  -0.00
  53   1    -0.17  -0.19  -0.27     0.03   0.03   0.04     0.00   0.00   0.00
  54   1     0.14  -0.11  -0.20    -0.02   0.02   0.03    -0.00   0.00   0.00
  55   1     0.26   0.03  -0.01    -0.04  -0.00   0.00    -0.00  -0.00   0.00
  56   1     0.04   0.21  -0.04    -0.01  -0.04   0.01    -0.00  -0.00   0.00
  57   1    -0.05   0.18   0.18     0.01  -0.03  -0.03     0.00  -0.00  -0.00
  58   1    -0.13  -0.09   0.30     0.01   0.01  -0.03     0.00   0.00  -0.00
  59   1    -0.04  -0.21   0.04     0.00   0.02  -0.00     0.00   0.00  -0.00
  60   1     0.02  -0.09  -0.09    -0.00   0.00   0.00    -0.00   0.00   0.00
  61   1    -0.12  -0.13  -0.09     0.03   0.03   0.02     0.00   0.00   0.00
  62   1    -0.18   0.07  -0.14     0.03  -0.01   0.03     0.00  -0.00   0.00
  63   1    -0.05   0.32  -0.05     0.01  -0.05   0.01     0.00  -0.00   0.00
  64   1     0.13   0.14   0.09    -0.02  -0.02  -0.02    -0.00  -0.00  -0.00
  65   1     0.09  -0.04   0.07    -0.01   0.01  -0.01     0.00  -0.00   0.00
  66   1     0.06   0.04  -0.07     0.34   0.26  -0.43    -0.00  -0.00   0.00
  67   1    -0.04   0.07  -0.07    -0.27   0.40  -0.45     0.00  -0.00   0.00
  68   1    -0.00   0.00  -0.00    -0.01   0.02  -0.00     0.01  -0.04   0.01
                    193                    194                    195
                        a                      a                      a 
 Frequencies --  3094.3371              3095.7938              3096.4086
 Red. masses --     1.8274                 1.8111                 1.7887
 Frc consts  --     0.0000                 0.0000                 0.0000
 IR Inten    --     5.1684                 2.5068                 4.2534
 Raman Activ --     0.0000                 0.0000                 0.0000
 Depolar     --     0.0000                 0.0000                 0.0000
 Atom AN      X      Y      Z        X      Y      Z        X      Y      Z
   1   8     0.00  -0.00   0.00     0.00  -0.00   0.00     0.00   0.00   0.00
   2   6    -0.00   0.00  -0.00    -0.00   0.00  -0.00    -0.00   0.00  -0.00
   3   6    -0.00   0.00  -0.00    -0.00   0.00  -0.00     0.00   0.00   0.00
   4   6     0.00  -0.01   0.00    -0.07   0.13  -0.03     0.00  -0.00   0.00
   5   6    -0.01  -0.01  -0.00     0.02   0.04   0.01    -0.00  -0.00  -0.00
   6   6     0.02  -0.00   0.01    -0.17   0.00  -0.07     0.00   0.00   0.00
   7   6    -0.00   0.01  -0.00     0.05  -0.10   0.02     0.00  -0.00   0.00
   8   6    -0.00   0.00   0.00     0.00  -0.00   0.00    -0.00   0.00  -0.00
   9  16     0.00   0.00  -0.00     0.00   0.00  -0.00     0.00   0.00  -0.00
  10   8    -0.00   0.00   0.00    -0.00  -0.00   0.00    -0.00  -0.00   0.00
  11   8    -0.00   0.00  -0.00    -0.00   0.00  -0.00    -0.00  -0.00   0.00
  12   6     0.00  -0.00   0.00    -0.00  -0.00   0.00    -0.00   0.00  -0.00
  13   6     0.00  -0.01   0.00    -0.00   0.00  -0.00    -0.07   0.17  -0.03
  14   6     0.01   0.01  -0.00     0.00   0.00  -0.00    -0.12  -0.14   0.04
  15   6    -0.01   0.00   0.00    -0.00   0.00   0.00    -0.01  -0.00   0.00
  16   6     0.00   0.00  -0.00     0.00   0.00  -0.00     0.00  -0.00   0.00
  17   6     0.01   0.01  -0.02     0.00   0.00  -0.00    -0.00  -0.00   0.00
  18   6    -0.00   0.00  -0.00    -0.00   0.00  -0.00    -0.00   0.00  -0.00
  19   6    -0.00  -0.00   0.00    -0.00  -0.00   0.00    -0.00   0.00  -0.00
  20  14     0.00   0.00  -0.00    -0.00   0.00  -0.00     0.00  -0.00   0.00
  21   6    -0.00  -0.00   0.00    -0.00  -0.00  -0.00    -0.00   0.00   0.00
  22   6     0.00  -0.00  -0.00     0.00  -0.00  -0.00     0.00  -0.00  -0.00
  23   6     0.00   0.00  -0.00     0.00   0.00  -0.00     0.00   0.00  -0.00
  24   6     0.00   0.00   0.00     0.00   0.00   0.00     0.00   0.00   0.00
  25   6    -0.00   0.00   0.00    -0.00   0.00   0.00    -0.00   0.00   0.00
  26   6    -0.00  -0.00   0.00    -0.00  -0.00   0.00    -0.00  -0.00  -0.00
  27   6     0.00   0.00  -0.00     0.00   0.00  -0.00    -0.00   0.00  -0.00
  28   6    -0.00  -0.00   0.00    -0.00  -0.00   0.00     0.00   0.00  -0.00
  29   6     0.00  -0.00  -0.00     0.00  -0.00  -0.00     0.00  -0.00  -0.00
  30   6     0.00   0.00  -0.00     0.00   0.00  -0.00     0.00   0.00  -0.00
  31   6     0.00   0.00  -0.00     0.00   0.00  -0.00     0.00   0.00  -0.00
  32   6     0.00  -0.00  -0.00    -0.00   0.00   0.00    -0.00   0.00   0.00
  33   6    -0.00  -0.00   0.00     0.00   0.00   0.00    -0.00  -0.00  -0.00
  34   6     0.00   0.00   0.00     0.00   0.00   0.00     0.00   0.00   0.00
  35   6     0.00  -0.00   0.00     0.00  -0.00   0.00     0.00  -0.00   0.00
  36   6     0.00  -0.00   0.00     0.00  -0.00   0.00     0.00  -0.00   0.00
  37   6    -0.00  -0.00  -0.00    -0.00  -0.00  -0.00    -0.00  -0.00  -0.00
  38   6     0.00  -0.00   0.00     0.00  -0.00   0.00     0.00   0.00   0.00
  39   6    -0.00  -0.00   0.00    -0.00  -0.00   0.00    -0.00  -0.00   0.00
  40   6    -0.00   0.00  -0.00     0.00  -0.00   0.00     0.01  -0.01   0.01
  41   6    -0.08   0.25  -0.04    -0.01   0.02  -0.00    -0.00   0.02  -0.00
  42   6     0.00   0.01  -0.00     0.00   0.00  -0.00     0.00  -0.00   0.00
  43   1    -0.01   0.02  -0.00     0.26  -0.46   0.09    -0.00   0.00  -0.00
  44   1     0.03   0.05   0.01    -0.07  -0.14  -0.04     0.01   0.01   0.00
  45   1    -0.07   0.00  -0.03     0.60  -0.00   0.26    -0.01   0.00  -0.00
  46   1     0.02  -0.03   0.01    -0.19   0.37  -0.06    -0.00   0.01  -0.00
  47   1    -0.01   0.03  -0.00     0.00  -0.00   0.00     0.25  -0.63   0.10
  48   1    -0.04  -0.04   0.01    -0.00  -0.00   0.00     0.43   0.50  -0.13
  49   1    -0.05  -0.04   0.06    -0.01  -0.00   0.01     0.00   0.00  -0.00
  50   1     0.01  -0.01   0.01     0.00  -0.00   0.00     0.00  -0.00   0.00
  51   1    -0.00   0.00   0.00    -0.00   0.00   0.00    -0.00   0.00   0.00
  52   1    -0.00  -0.00   0.00    -0.00  -0.00   0.00    -0.00  -0.00   0.00
  53   1    -0.00  -0.00  -0.00    -0.00  -0.00  -0.00    -0.00  -0.00  -0.00
  54   1     0.00  -0.00  -0.00     0.00  -0.00  -0.00     0.00  -0.00  -0.00
  55   1     0.00   0.00  -0.00     0.00   0.00  -0.00     0.00   0.00   0.00
  56   1     0.00   0.00  -0.00     0.00   0.00  -0.00    -0.00  -0.00   0.00
  57   1    -0.00   0.00   0.00    -0.00   0.00   0.00    -0.00   0.00   0.00
  58   1    -0.00  -0.00   0.00    -0.00  -0.00   0.00    -0.00  -0.00   0.00
  59   1    -0.00  -0.00   0.00    -0.00  -0.00   0.00    -0.00  -0.00   0.00
  60   1    -0.00   0.00   0.00     0.00  -0.00  -0.00     0.00  -0.00  -0.00
  61   1    -0.00  -0.00  -0.00    -0.00  -0.00  -0.00    -0.00  -0.00  -0.00
  62   1    -0.00   0.00  -0.00    -0.00   0.00  -0.00    -0.00   0.00  -0.00
  63   1    -0.00   0.00  -0.00    -0.00   0.00  -0.00    -0.00   0.00  -0.00
  64   1     0.00   0.00   0.00     0.00   0.00   0.00     0.00   0.00   0.00
  65   1    -0.00  -0.00  -0.00    -0.00   0.00  -0.00    -0.00  -0.00  -0.00
  66   1     0.00   0.00  -0.00     0.00   0.00  -0.00     0.01   0.00  -0.01
  67   1     0.01  -0.01   0.01    -0.00   0.00  -0.00    -0.02   0.03  -0.04
  68   1     0.31  -0.89   0.14     0.03  -0.09   0.01     0.02  -0.06   0.01
                    196                    197                    198
                        a                      a                      a 
 Frequencies --  3101.8694              3105.1759              3107.6528
 Red. masses --     1.8628                 1.8857                 1.9182
 Frc consts  --     0.0000                 0.0000                 0.0000
 IR Inten    --    16.7265                18.8496                20.9166
 Raman Activ --     0.0000                 0.0000                 0.0000
 Depolar     --     0.0000                 0.0000                 0.0000
 Atom AN      X      Y      Z        X      Y      Z        X      Y      Z
   1   8     0.00  -0.00   0.00    -0.00  -0.00   0.00     0.00  -0.00   0.00
   2   6    -0.00   0.00  -0.00     0.00   0.00  -0.00    -0.00   0.00  -0.00
   3   6    -0.00  -0.00  -0.00     0.00   0.00   0.00    -0.00   0.00  -0.00
   4   6    -0.06   0.10  -0.02     0.00  -0.00   0.00    -0.03   0.04  -0.01
   5   6     0.08   0.15   0.04    -0.00  -0.01  -0.00     0.06   0.12   0.03
   6   6     0.01  -0.00   0.00    -0.01   0.00  -0.00     0.17  -0.00   0.07
   7   6    -0.08   0.16  -0.03    -0.00   0.00  -0.00     0.07  -0.15   0.02
   8   6     0.00   0.00   0.00     0.00   0.00   0.00    -0.00  -0.00  -0.00
   9  16    -0.00   0.00  -0.00     0.00  -0.00   0.00     0.00  -0.00   0.00
  10   8     0.00   0.00   0.00    -0.00   0.00   0.00    -0.00   0.00   0.00
  11   8     0.00   0.00   0.00     0.00   0.00  -0.00    -0.00   0.00  -0.00
  12   6     0.00   0.00  -0.00     0.01   0.00  -0.00     0.00  -0.00   0.00
  13   6     0.00  -0.00   0.00     0.07  -0.18   0.03     0.00  -0.01   0.00
  14   6    -0.00  -0.01   0.00    -0.13  -0.15   0.04    -0.01  -0.01   0.00
  15   6    -0.00   0.00   0.00    -0.01   0.00   0.00    -0.00   0.00   0.00
  16   6     0.00  -0.00   0.00     0.00  -0.00   0.00     0.00  -0.00   0.00
  17   6     0.00   0.00  -0.00     0.00  -0.00   0.00     0.00   0.00  -0.00
  18   6    -0.00   0.00  -0.00    -0.00   0.00  -0.00    -0.00   0.00  -0.00
  19   6    -0.00  -0.00   0.00    -0.00   0.00  -0.00    -0.00   0.00  -0.00
  20  14    -0.00   0.00   0.00    -0.00  -0.00   0.00    -0.00   0.00   0.00
  21   6     0.00   0.00   0.00     0.00   0.00   0.00     0.00  -0.00  -0.00
  22   6     0.00  -0.00  -0.00     0.00  -0.00  -0.00     0.00  -0.00  -0.00
  23   6     0.00   0.00  -0.00     0.00   0.00  -0.00     0.00   0.00  -0.00
  24   6    -0.00  -0.00  -0.00     0.00   0.00   0.00     0.00   0.00   0.00
  25   6     0.00  -0.00  -0.00     0.00  -0.00  -0.00    -0.00   0.00   0.00
  26   6     0.00  -0.00   0.00     0.00   0.00  -0.00    -0.00  -0.00  -0.00
  27   6     0.00   0.00  -0.00     0.00   0.00  -0.00     0.00  -0.00   0.00
  28   6     0.00   0.00  -0.00     0.00   0.00  -0.00    -0.00  -0.00   0.00
  29   6    -0.00   0.00   0.00    -0.00   0.00   0.00     0.00  -0.00  -0.00
  30   6     0.00   0.00  -0.00     0.00   0.00  -0.00     0.00   0.00  -0.00
  31   6    -0.00  -0.00   0.00     0.00   0.00  -0.00     0.00   0.00  -0.00
  32   6     0.00  -0.00  -0.00    -0.00   0.00   0.00    -0.00   0.00   0.00
  33   6     0.00  -0.00   0.00     0.00   0.00   0.00     0.00   0.00  -0.00
  34   6     0.00  -0.00  -0.00     0.00   0.00   0.00     0.00   0.00   0.00
  35   6    -0.00   0.00  -0.00     0.00  -0.00   0.00     0.00  -0.00   0.00
  36   6    -0.00   0.00  -0.00     0.00  -0.00   0.00     0.00  -0.00   0.00
  37   6     0.00   0.00   0.00    -0.00  -0.00  -0.00    -0.00  -0.00  -0.00
  38   6     0.00  -0.00   0.00     0.00  -0.00   0.00    -0.00   0.00  -0.00
  39   6    -0.00  -0.00   0.00    -0.00  -0.00   0.00    -0.00  -0.00   0.00
  40   6     0.00  -0.00   0.00     0.00  -0.00   0.01     0.00  -0.00   0.00
  41   6    -0.00   0.00  -0.00    -0.00   0.00  -0.00    -0.00   0.00  -0.00
  42   6     0.00   0.00  -0.00    -0.00   0.00  -0.00     0.00   0.00  -0.00
  43   1     0.18  -0.33   0.07    -0.01   0.01  -0.00     0.08  -0.15   0.03
  44   1    -0.26  -0.51  -0.13     0.02   0.03   0.01    -0.20  -0.39  -0.10
  45   1    -0.04   0.00  -0.02     0.03  -0.00   0.01    -0.56   0.00  -0.24
  46   1     0.29  -0.57   0.10     0.00  -0.01   0.00    -0.25   0.49  -0.08
  47   1    -0.00   0.00  -0.00    -0.24   0.62  -0.09    -0.01   0.03  -0.00
  48   1     0.02   0.02  -0.00     0.43   0.51  -0.13     0.02   0.02  -0.01
  49   1    -0.00  -0.00   0.00     0.00   0.00  -0.00    -0.00  -0.00   0.00
  50   1     0.00  -0.00   0.00     0.00  -0.00   0.00     0.00  -0.00   0.00
  51   1    -0.00   0.00   0.00    -0.00   0.00   0.00    -0.00   0.00   0.00
  52   1    -0.00  -0.00   0.00    -0.00  -0.00   0.00    -0.00  -0.00   0.00
  53   1     0.00   0.00   0.00    -0.00  -0.00  -0.00    -0.00  -0.00  -0.00
  54   1    -0.00   0.00   0.00    -0.00   0.00   0.00     0.00  -0.00  -0.00
  55   1    -0.00   0.00   0.00    -0.00  -0.00   0.00     0.00   0.00  -0.00
  56   1    -0.00  -0.00   0.00    -0.00  -0.00   0.00     0.00   0.00  -0.00
  57   1     0.00  -0.00  -0.00     0.00  -0.00  -0.00    -0.00   0.00   0.00
  58   1    -0.00  -0.00   0.00    -0.00  -0.00   0.00    -0.00  -0.00   0.00
  59   1     0.00   0.00   0.00    -0.00  -0.00   0.00    -0.00  -0.00   0.00
  60   1    -0.00   0.00   0.00     0.00  -0.00  -0.00     0.00  -0.00  -0.00
  61   1     0.00   0.00   0.00    -0.00  -0.00  -0.00    -0.00  -0.00  -0.00
  62   1     0.00  -0.00   0.00    -0.00   0.00  -0.00    -0.00   0.00  -0.00
  63   1     0.00  -0.00   0.00    -0.00   0.00  -0.00    -0.00   0.00  -0.00
  64   1    -0.00  -0.00  -0.00     0.00   0.00   0.00     0.00   0.00   0.00
  65   1    -0.00   0.00  -0.00    -0.00   0.00  -0.00     0.00  -0.00   0.00
  66   1     0.00   0.00  -0.00     0.00   0.00  -0.00     0.00   0.00  -0.00
  67   1    -0.00   0.00  -0.00    -0.01   0.02  -0.02    -0.00   0.00  -0.00
  68   1     0.01  -0.02   0.00     0.00  -0.02   0.00     0.00  -0.01   0.00
