$hessian                                                                        
        0.0174943617   0.0006040077   0.0000201499  -0.0319224995  -0.0005526884
       -0.0000200807   0.0177150688  -0.0000435453  -0.0000019980  -0.0012129777
        0.0024836525  -0.0000469104  -0.0006168632   0.0003193091   0.0000263875
        0.0004584012   0.0001415166   0.0001695529  -0.0002239579  -0.0000255355
        0.0001237205   0.0001190050   0.0000914551  -0.0000523833  -0.0001669580
       -0.0000549190  -0.0000269605   0.0001029724  -0.0002751066   0.0001220874
        0.0002961323   0.0001137722  -0.0001483174   0.0001711347  -0.0002483747
       -0.0000123276  -0.0003011408  -0.0000042958   0.0000933161  -0.0000024219
        0.0002079473  -0.0000541736  -0.0003777974  -0.0001362747   0.0001339397
        0.0002725034  -0.0002775970  -0.0000316708  -0.0001315129   0.0005209760
       -0.0000449881  -0.0001565964  -0.0001337426   0.0000674923  -0.0001489063
        0.0002028711  -0.0000182251   0.0002553689  -0.0000207568  -0.0000632271
       -0.0000451538  -0.0002902341   0.0000666936   0.0004468926   0.0002336395
       -0.0002032686   0.0000501354  -0.0001033694  -0.0002709648  -0.0005463658
       -0.0007582722   0.0013494153   0.0006886591   0.0006048707   0.0000536894
        0.0004699367   0.0000033685   0.0000013854   0.0006919499  -0.0006094623
       -0.0000556225  -0.0012189561  -0.0024770489   0.0000476487  -0.0006235195
       -0.0003238612  -0.0000265958   0.0004645066  -0.0001413784  -0.0001717957
       -0.0002268823   0.0000220604  -0.0001265873   0.0001222068  -0.0000904610
        0.0000527789  -0.0001674263   0.0000546855   0.0000265037   0.0001036492
        0.0002757739  -0.0001219849   0.0002962764  -0.0001141316   0.0001484770
        0.0001714981   0.0002488483   0.0000126352  -0.0003021118   0.0000046692
       -0.0000940460  -0.0000021389  -0.0002087924   0.0000540006  -0.0003794742
        0.0001375476  -0.0001345129   0.0002742598   0.0002786440   0.0000322013
       -0.0001314677  -0.0005232132   0.0000448407  -0.0001570347   0.0001346998
       -0.0000676749  -0.0001491534  -0.0002037284   0.0000183194   0.0002559977
        0.0000207917   0.0000636655  -0.0000453404   0.0002906030  -0.0000664307
        0.0004478527  -0.0002338771   0.0002037432   0.0000455365   0.0001049540
        0.0002732121  -0.0005424114   0.0007626420  -0.0013452948  -0.0000357138
        0.0000442351  -0.0000603027  -0.0000063206  -0.0000078324  -0.0000253132
        0.0000940728   0.0000051232   0.0000522591   0.0000001039  -0.0000761854
        0.0000174116  -0.0000193057   0.0000064583   0.0000058063  -0.0000108658
        0.0000040692   0.0000045899  -0.0000019984  -0.0000056850   0.0000016476
       -0.0000030213   0.0000023850   0.0000044694   0.0000030652   0.0000092615
        0.0000035123   0.0000148751   0.0000427422  -0.0000033935   0.0000533352
       -0.0000200900  -0.0000931322  -0.0009672868  -0.0004923232  -0.0001189125
        0.0000677591   0.0003004321   0.0002029889   0.0000677815  -0.0003009023
       -0.0002023314  -0.0000352987  -0.0000446775   0.0000593161  -0.0000061671
        0.0000075829   0.0000254871   0.0000945060  -0.0000055978  -0.0000524526
        0.0000001874   0.0000774110  -0.0000180470  -0.0000192479  -0.0000083136
       -0.0000058865  -0.0000108707  -0.0000040782  -0.0000052068  -0.0000019698
        0.0000057483  -0.0000015557  -0.0000029874  -0.0000023351  -0.0000044044
        0.0000030528  -0.0000092576  -0.0000035973   0.0000147655  -0.0000426601
        0.0000035400   0.0000534971   0.0000199723   0.0000933453  -0.0009611853
        0.0004818778   0.0001203476
        0.0006040077   1.1420508148   0.0411874418  -0.0005499474  -1.0723760713
       -0.0388165900  -0.0000366122  -0.0730234410  -0.0025795943   0.0036179393
        0.0052356924  -0.0002207841   0.0057156453  -0.0046270032  -0.0006994325
       -0.0056838509   0.0006126047  -0.0016910719   0.0028392969  -0.0035689031
       -0.0030013364  -0.0028861795   0.0015738799   0.0008740173  -0.0002020134
        0.0002479845   0.0001478996  -0.0003644357  -0.0008629559  -0.0000070651
        0.0001570253   0.0002036756   0.0000320670  -0.0000341724  -0.0000151363
        0.0000762731   0.0004602905   0.0002268825  -0.0001788440  -0.0001482540
       -0.0003795031   0.0001479884   0.0004608099   0.0005594471  -0.0001364485
       -0.0006128601   0.0004236052   0.0000774219  -0.0003316176  -0.0007804853
        0.0001050821   0.0002801305   0.0004901147  -0.0001899425  -0.0000081701
       -0.0003915508   0.0000919704   0.0000056698   0.0000841841  -0.0000289409
       -0.0000355543  -0.0001951603   0.0000407825   0.0004244414   0.0007002394
       -0.0000461897   0.0046406829  -0.0000558597   0.0013518765  -0.0026992322
        0.0041944974   0.0025641928  -0.0046018442  -0.0006198111  -0.0009552577
       -0.0000052257   0.0002172839   0.0002894827   0.0046063765  -0.0006213022
       -0.0009560134  -0.0036270275   0.0052486656  -0.0002211623  -0.0057119782
       -0.0046187660  -0.0006979038   0.0056788678   0.0006100388  -0.0016934398
       -0.0028407749  -0.0035631790  -0.0030020934   0.0028859995   0.0015698460
        0.0008718757   0.0002015062   0.0002484625   0.0001453747   0.0003647250
       -0.0008626807  -0.0000105680  -0.0001581764   0.0002052730   0.0000303614
        0.0000333350  -0.0000156430   0.0000747785  -0.0004613499   0.0002280764
       -0.0001813703   0.0001478750  -0.0003807054   0.0001457607  -0.0004606614
        0.0005611571  -0.0001388044   0.0006124766   0.0004230082   0.0000753842
        0.0003290057  -0.0007793940   0.0001013415  -0.0002794455   0.0004899728
       -0.0001922393   0.0000069948  -0.0003911745   0.0000880914  -0.0000029029
        0.0000847534  -0.0000310685   0.0000345387  -0.0001925456   0.0000375249
       -0.0004219651   0.0006992720  -0.0000478323  -0.0046374242  -0.0000659820
        0.0013509683   0.0027005647   0.0041935689   0.0025622220   0.0000303889
       -0.0001840161  -0.0000278947  -0.0001486028  -0.0000239253  -0.0000534194
       -0.0003079310  -0.0002817566   0.0000227908  -0.0000903624   0.0001642439
       -0.0000471042  -0.0000426257   0.0000483673  -0.0000081322  -0.0000490673
        0.0000136032  -0.0000322615  -0.0000556306   0.0000123529   0.0000349531
       -0.0000425714  -0.0000328728   0.0000029513  -0.0000065940  -0.0000709932
        0.0000104642   0.0000881189   0.0000613963  -0.0000465351  -0.0001808938
       -0.0000141510   0.0002451383  -0.0006678919  -0.0006853790   0.0011812782
       -0.0002397139  -0.0005067373   0.0003284390   0.0002379942  -0.0005076626
        0.0003286236  -0.0000258251  -0.0001827466  -0.0000159618   0.0001484322
       -0.0000227990  -0.0000553273   0.0003072556  -0.0002825842   0.0000215429
        0.0000897635   0.0001430396  -0.0000431069   0.0000419964   0.0000465150
       -0.0000108435   0.0000486761   0.0000143797  -0.0000344338   0.0000558475
        0.0000128451   0.0000320950   0.0000428897  -0.0000324520   0.0000336969
        0.0000071420  -0.0000701258   0.0000111355  -0.0000880058   0.0000615870
       -0.0000475705   0.0001823347  -0.0000136486   0.0002436358   0.0006583468
       -0.0006622275   0.0011796602
        0.0000201499   0.0411874418   0.0181219706  -0.0000194660  -0.0380170950
       -0.0287320514   0.0000018623  -0.0056096180   0.0067576507   0.0002327010
        0.0007806965   0.0024909827   0.0010923292  -0.0003979451   0.0000340949
       -0.0007768149  -0.0000107293  -0.0001538303   0.0004079351  -0.0003631859
       -0.0002881683  -0.0003215130  -0.0000075824   0.0000002600  -0.0002740313
        0.0002303289   0.0001361705  -0.0000160811  -0.0004042520  -0.0000712667
        0.0001893374   0.0001325571   0.0000177320   0.0001486387  -0.0001296906
        0.0000160388  -0.0001558161   0.0000437557   0.0000402947  -0.0000278036
        0.0000932875   0.0000210244  -0.0003234699  -0.0000149717   0.0000651622
        0.0002092723  -0.0001282646  -0.0000088327  -0.0001800052   0.0002859804
       -0.0000371090  -0.0000819382  -0.0000244860   0.0000154480  -0.0001308229
        0.0001004245   0.0000166045   0.0002071731  -0.0000221114  -0.0000388265
       -0.0000303907  -0.0002206156   0.0000688599   0.0003751350   0.0002285824
       -0.0000837242   0.0008442656  -0.0000424879   0.0004962544  -0.0005785527
        0.0006706400  -0.0007648299   0.0000826113   0.0001003674  -0.0000693654
       -0.0000070780  -0.0002960135  -0.0000182030  -0.0000749723   0.0001061546
       -0.0000673548  -0.0002379376   0.0007818248   0.0024906661  -0.0010874745
       -0.0003944821   0.0000354535   0.0007728550  -0.0000105178  -0.0001518308
       -0.0004066668  -0.0003610235  -0.0002854263   0.0003214801  -0.0000082457
        0.0000004165   0.0002750336   0.0002305774   0.0001373028   0.0000153476
       -0.0004080316  -0.0000702898  -0.0001899391   0.0001338995   0.0000179602
       -0.0001490146  -0.0001314313   0.0000165479   0.0001573321   0.0000432794
        0.0000415415   0.0000275982   0.0000938925   0.0000217414   0.0003263448
       -0.0000160742   0.0000668240  -0.0002113628  -0.0001296586  -0.0000085019
        0.0001804954   0.0002886764  -0.0000363556   0.0000826363  -0.0000258651
        0.0000170243   0.0001311176   0.0001014724   0.0000175727  -0.0002085475
       -0.0000220443  -0.0000383232   0.0000307713  -0.0002218594   0.0000698183
       -0.0003779483   0.0002298003  -0.0000843160  -0.0008407004  -0.0000392841
        0.0004959957   0.0005776458   0.0006662635  -0.0007668841   0.0000360614
        0.0000328150   0.0000526286   0.0000214101   0.0000272568  -0.0000193924
        0.0000060393  -0.0000128005  -0.0001044316   0.0000018513  -0.0000320074
       -0.0000174862  -0.0000033976  -0.0000066777  -0.0000099153  -0.0000017313
       -0.0000012179  -0.0000124526   0.0000016127  -0.0000043589   0.0000004311
        0.0000030856   0.0000042465   0.0000021772   0.0000012294   0.0000051256
       -0.0000053915   0.0000040346   0.0000116785  -0.0000261776  -0.0000927343
        0.0000495771   0.0000718321   0.0005960521   0.0003208349   0.0003174408
       -0.0000022954   0.0000655739  -0.0002218139   0.0000021002   0.0000657937
       -0.0002213975  -0.0000390834   0.0000321133   0.0000533405  -0.0000211116
        0.0000267617  -0.0000188258  -0.0000057398  -0.0000125793  -0.0001041104
       -0.0000014644  -0.0000219018  -0.0000194378   0.0000038683  -0.0000069644
       -0.0000091204   0.0000019226  -0.0000014943  -0.0000116464  -0.0000016822
       -0.0000045677   0.0000013883  -0.0000031769   0.0000040056  -0.0000103009
       -0.0000014093   0.0000047962  -0.0000050177  -0.0000039979   0.0000116503
       -0.0000257072   0.0000924058   0.0000495243   0.0000723536  -0.0005955710
        0.0003204801   0.0003191098
       -0.0319224995  -0.0005499474  -0.0000194660   0.1064209441   0.0006692024
        0.0000244985  -0.0621982214  -0.0000969744  -0.0000042583   0.0014081134
       -0.0254895445  -0.0024029082  -0.0008577281  -0.0011777670   0.0000677012
        0.0004167169   0.0000113938  -0.0001002377  -0.0001940550   0.0005431459
        0.0002903190  -0.0000569796  -0.0002165807  -0.0003371994   0.0003466586
       -0.0000821868  -0.0000412414  -0.0000520818   0.0004944614  -0.0001025011
       -0.0002866479  -0.0001731075   0.0001256088  -0.0001661485   0.0002498685
       -0.0000005323   0.0002606594  -0.0000285365  -0.0000771410   0.0000095396
       -0.0001840478   0.0000394785   0.0004140151   0.0001195140  -0.0001338797
       -0.0003048576   0.0002204219   0.0000563557   0.0001683469  -0.0004639869
        0.0000409285   0.0001428480   0.0000971008  -0.0000528780   0.0001469845
       -0.0001848589   0.0000139867  -0.0002660390   0.0000141991   0.0000723676
        0.0000203828   0.0003167437  -0.0000693005  -0.0004782406  -0.0003335339
        0.0001679310  -0.0003087620   0.0001416944   0.0002663200  -0.0009752358
       -0.0008111166  -0.0006181141  -0.0061677848  -0.0015421004   0.0000114876
        0.0024993671   0.0000003358   0.0000003064  -0.0061701665   0.0015489465
       -0.0000103729   0.0014439357   0.0254554495   0.0023991426  -0.0008508651
        0.0011839840  -0.0000671485   0.0004092173  -0.0000123031   0.0001020703
       -0.0001912959  -0.0005390305  -0.0002878586  -0.0000614063   0.0002151303
        0.0003369804   0.0003457310   0.0000816931   0.0000412916  -0.0000526515
       -0.0004917278   0.0001016297  -0.0002861375   0.0001728123  -0.0001256311
       -0.0001657364  -0.0002493691  -0.0000008025   0.0002608620   0.0000280015
        0.0000773615   0.0000091170   0.0001844697  -0.0000395810   0.0004138025
       -0.0001200168   0.0001336115  -0.0003049776  -0.0002205142  -0.0000569013
        0.0001676737   0.0004642487  -0.0000407253   0.0001428799  -0.0000978652
        0.0000528533   0.0001465333   0.0001852470  -0.0000142947  -0.0002653597
       -0.0000140839  -0.0000726448   0.0000201599  -0.0003160305   0.0000685818
       -0.0004762826   0.0003319143  -0.0001675121  -0.0003018657  -0.0001477413
       -0.0002687449  -0.0009773095   0.0008059951   0.0006146600   0.0001248716
       -0.0000325054   0.0000780895   0.0000079598  -0.0000289215   0.0000360001
        0.0000172940   0.0000658336  -0.0000366107   0.0000152464   0.0000193298
       -0.0000041406   0.0000178844  -0.0000106913  -0.0000050317   0.0000126408
       -0.0000148801  -0.0000006864   0.0000159439   0.0000016464  -0.0000051900
        0.0000135965   0.0000013620  -0.0000077219   0.0000032681  -0.0000053683
       -0.0000046479  -0.0000189475  -0.0000605131   0.0000040310   0.0000386655
       -0.0000042670   0.0000555626  -0.0006130329  -0.0002433852   0.0016784583
       -0.0002729115  -0.0014927207  -0.0004560109  -0.0002719750   0.0014929334
        0.0004550947   0.0001238849   0.0000328969  -0.0000738640   0.0000077401
        0.0000291925  -0.0000361531   0.0000168894  -0.0000653626   0.0000364452
        0.0000151984  -0.0000218629   0.0000052744   0.0000177805   0.0000168701
        0.0000045657   0.0000126362   0.0000148837   0.0000019323   0.0000158947
       -0.0000016110   0.0000048877   0.0000135680  -0.0000013432   0.0000089096
        0.0000032674   0.0000054597   0.0000059958  -0.0000187676   0.0000604876
       -0.0000043231   0.0000385177   0.0000044034  -0.0000561672  -0.0006122662
        0.0002451314  -0.0016782964
       -0.0005526884  -1.0723760713  -0.0380170950   0.0006692024   1.4592619920
        0.0594275950  -0.0001131536  -0.3145922249  -0.0153686208  -0.0220798295
       -0.0415049064  -0.0034346418  -0.0057197256   0.0058039360   0.0008053349
        0.0083620316  -0.0008141770   0.0021336548  -0.0039758455   0.0051782117
        0.0044588152   0.0047847492  -0.0020579218  -0.0008334052   0.0006918275
       -0.0006197130  -0.0002285905   0.0004238064   0.0019660883  -0.0000432096
       -0.0004943790  -0.0005704055   0.0000932281  -0.0002446838   0.0003411057
       -0.0000797953  -0.0002766836  -0.0003897740   0.0001606357   0.0002282152
        0.0003199656  -0.0001879379   0.0000423434  -0.0007064692   0.0000008221
        0.0004010672  -0.0003520236  -0.0000492257   0.0008043230   0.0004818943
       -0.0001000889  -0.0002079124  -0.0005803653   0.0002207288   0.0002858628
        0.0002993311  -0.0001393347  -0.0004685837  -0.0000543464   0.0001330526
        0.0001269573   0.0007288939  -0.0001543552  -0.0012374111  -0.0013428267
        0.0002272096  -0.0075096718  -0.0000171088  -0.0025387669   0.0037753519
       -0.0062377066  -0.0025060040   0.0017059946   0.0030585445   0.0007551000
        0.0000070125  -0.0004533713   0.0003105461  -0.0017098557   0.0030575808
        0.0007552054   0.0220746991  -0.0415548576  -0.0034385368   0.0057125917
        0.0057906542   0.0008019161  -0.0083547833  -0.0008092944   0.0021369802
        0.0039764815   0.0051669517   0.0044581122  -0.0047788445  -0.0020481318
       -0.0008298779  -0.0006849866  -0.0006176530  -0.0002262066  -0.0004268561
        0.0019514011  -0.0000357303   0.0004928881  -0.0005676031   0.0000926024
        0.0002419058   0.0003360347  -0.0000784921   0.0002837818  -0.0003926821
        0.0001643238  -0.0002301374   0.0003261795  -0.0001882179  -0.0000279825
       -0.0007155357   0.0000070315  -0.0004145822  -0.0003578881  -0.0000500406
       -0.0007968545   0.0004964740  -0.0000989413   0.0002089084  -0.0005836980
        0.0002227887  -0.0002812338   0.0003047191  -0.0001370060   0.0004571602
       -0.0000545332   0.0001324761  -0.0001227370   0.0007192052  -0.0001495016
        0.0012193867  -0.0013343423   0.0002223785   0.0075017455  -0.0000092429
       -0.0025398082  -0.0037745527  -0.0062285144  -0.0025034164   0.0000690616
        0.0002845127   0.0000838236   0.0002571545  -0.0000260909   0.0001218488
        0.0003784710   0.0003830846  -0.0000246164   0.0000998513  -0.0001910024
        0.0000568227   0.0000541189  -0.0000566186   0.0000227759   0.0000637696
       -0.0000240830   0.0000646762   0.0000745598  -0.0000158153  -0.0000542276
        0.0000567024   0.0000300614  -0.0000174552   0.0000084940   0.0000812860
       -0.0000149564  -0.0001349125  -0.0001077247   0.0000678541   0.0003139707
        0.0000389570  -0.0004281732  -0.0002581454   0.0008991524  -0.0009926787
        0.0002840159  -0.0001234097  -0.0007522885  -0.0002822368  -0.0001225910
       -0.0007530225  -0.0000640750   0.0002835648   0.0000666733  -0.0002571234
       -0.0000267025   0.0001228950  -0.0003782676   0.0003837234  -0.0000239896
       -0.0000997143  -0.0001808996   0.0000548584  -0.0000537966  -0.0000532203
        0.0000249434  -0.0000636318  -0.0000251523   0.0000660689  -0.0000749321
       -0.0000166335  -0.0000521285  -0.0000572069   0.0000296182  -0.0000362250
       -0.0000092794   0.0000802745  -0.0000191367   0.0001345650  -0.0001080829
        0.0000681493  -0.0003151028   0.0000386823  -0.0004268764   0.0002593706
        0.0008993344  -0.0009893060
       -0.0000200807  -0.0388165900  -0.0287320514   0.0000244985   0.0594275950
        0.0623004541  -0.0000093750  -0.0093152852  -0.0312089646  -0.0040449660
       -0.0056406798  -0.0020848286  -0.0006963625   0.0006598643  -0.0003913088
        0.0011856129  -0.0001074536   0.0002949549  -0.0006450431   0.0007563642
        0.0007837534   0.0004085240  -0.0000881085  -0.0000560016   0.0010155552
       -0.0006881274  -0.0001522496  -0.0000524754   0.0013497439   0.0000939584
       -0.0004879851  -0.0004399109   0.0001590240  -0.0004154053   0.0004721378
       -0.0000054741   0.0004932803  -0.0001209849  -0.0001301106   0.0000547918
       -0.0003225039  -0.0000272521   0.0010062137   0.0000858731  -0.0002542435
       -0.0007003123   0.0003778648   0.0000715958   0.0005206739  -0.0008957359
        0.0000620609   0.0002779592   0.0001217701  -0.0000377591   0.0004061248
       -0.0003533466  -0.0000220569  -0.0006462642   0.0000690717   0.0001430883
        0.0001049934   0.0006787035  -0.0001605672  -0.0011967038  -0.0007047200
        0.0001551155  -0.0012429773   0.0001391518  -0.0008579982   0.0020380011
       -0.0005038799   0.0001077955  -0.0005046663  -0.0010898135   0.0022810444
        0.0000082958   0.0013120455  -0.0005054845   0.0004952318  -0.0010962469
        0.0022788447   0.0040496061  -0.0056477326  -0.0020848789   0.0006874440
        0.0006561591  -0.0003946528  -0.0011814750  -0.0001071685   0.0002925409
        0.0006431348   0.0007533920   0.0007788451  -0.0004085142  -0.0000863357
       -0.0000568005  -0.0010177214  -0.0006888865  -0.0001555884   0.0000532902
        0.0013560699   0.0000920412   0.0004883683  -0.0004419387   0.0001576362
        0.0004155377   0.0004750354  -0.0000068553  -0.0004958604  -0.0001201825
       -0.0001333152  -0.0000550391  -0.0003226953  -0.0000300671  -0.0010109305
        0.0000881430  -0.0002583098   0.0007035988   0.0003806515   0.0000699087
       -0.0005211015  -0.0008997697   0.0000590951  -0.0002788773   0.0001242533
       -0.0000418737  -0.0004062027  -0.0003543510  -0.0000255854   0.0006480203
        0.0000694640   0.0001408708  -0.0001052845   0.0006805631  -0.0001630691
        0.0012003233  -0.0007064780   0.0001545096   0.0012397276   0.0001295450
       -0.0008578796  -0.0020357069  -0.0004972626   0.0001099466  -0.0000263773
        0.0000210471  -0.0000890787  -0.0000017425  -0.0000342587   0.0000557459
        0.0000302318   0.0000597910   0.0000166292   0.0000163886   0.0000282001
       -0.0000247996   0.0000084270   0.0000167369  -0.0000040993  -0.0000080170
        0.0000003301   0.0000127521  -0.0000068673   0.0000151469  -0.0000093832
       -0.0000115061  -0.0000126290  -0.0000076549  -0.0000085100  -0.0000170359
        0.0000213750  -0.0000223457  -0.0000464020   0.0000481079   0.0000513845
       -0.0000269660  -0.0001443281   0.0006363425   0.0001125946  -0.0011352430
       -0.0000229390  -0.0001577183   0.0003710330   0.0000233911  -0.0001588458
        0.0003702021   0.0000365065   0.0000224317  -0.0000904184   0.0000015497
       -0.0000327168   0.0000535614  -0.0000309683   0.0000592020   0.0000153659
       -0.0000176439  -0.0000029630  -0.0000189992  -0.0000097188   0.0000176081
       -0.0000066284   0.0000073500   0.0000010790   0.0000102344   0.0000069448
        0.0000158898  -0.0000125394   0.0000118137  -0.0000118547   0.0000307954
        0.0000090597  -0.0000161549   0.0000200187   0.0000223509  -0.0000461218
        0.0000466300  -0.0000499899  -0.0000263022  -0.0001457100  -0.0006345921
        0.0001126378  -0.0011354262
        0.0177150688  -0.0000366122   0.0000018623  -0.0621982214  -0.0001131536
       -0.0000093750   0.4591868806   0.0001008714   0.0000028416  -0.1488364181
       -0.0620803269  -0.0067830912  -0.0594141186   0.0066819118   0.0020573139
        0.0138774170   0.0025866560   0.0054221403  -0.0064552894   0.0084545257
        0.0033494382   0.0063056207  -0.0031362775  -0.0012912773   0.0005937834
       -0.0004312920  -0.0000466237   0.0001001878   0.0030571619  -0.0010105322
       -0.0010685219  -0.0010872828   0.0005905302  -0.0008771310   0.0010292395
       -0.0000637904   0.0007962818  -0.0002085277  -0.0003672390   0.0002733435
       -0.0004680028   0.0001497298   0.0016755084   0.0001234572  -0.0006182313
       -0.0012320921   0.0007525718   0.0003715159   0.0009153806  -0.0015506660
        0.0004175240   0.0004436500   0.0000696009  -0.0002416968   0.0005615226
       -0.0005525227   0.0001003509  -0.0011981011  -0.0000626460   0.0004137589
        0.0002287883   0.0016280240  -0.0004689743  -0.0022479702  -0.0020540971
        0.0011642456  -0.0106713767  -0.0000098542  -0.0018634173   0.0070330703
       -0.0139708790  -0.0085859524  -0.0241600997  -0.0263909337  -0.0020605832
        0.0294650452  -0.0000089958  -0.0000006641  -0.0241174142   0.0264163097
        0.0020590502  -0.1487371863   0.0620841984   0.0067708641  -0.0594152426
       -0.0066385988  -0.0020516580   0.0138781661  -0.0025901823  -0.0054337026
       -0.0064640633  -0.0084537387  -0.0033608099   0.0063126301   0.0031346141
        0.0012869618   0.0005927053   0.0004335533   0.0000461038   0.0000996679
       -0.0030590608   0.0010064218  -0.0010697398   0.0010900858  -0.0005926822
       -0.0008776967  -0.0010287833   0.0000443352   0.0007960390   0.0002102516
        0.0003658837   0.0002737836   0.0004678112  -0.0001500685   0.0016757480
       -0.0001210668   0.0006155042  -0.0012311170  -0.0007517851  -0.0003759690
        0.0009148877   0.0015506553  -0.0004185432   0.0004431275  -0.0000694752
        0.0002385368   0.0005614195   0.0005522059  -0.0001043588  -0.0011971594
        0.0000623714  -0.0004191384   0.0002277176  -0.0016276804   0.0004624486
       -0.0022460188   0.0020556673  -0.0011669379  -0.0106780764  -0.0000912048
        0.0018655403   0.0070440304   0.0139685916   0.0085865221   0.0001573748
       -0.0002975556   0.0004225560  -0.0002875925  -0.0001453983   0.0003568997
        0.0001815997   0.0003927872  -0.0001487407   0.0000109488   0.0000136873
        0.0000244796   0.0000318158  -0.0000281349  -0.0000083568   0.0001672685
       -0.0000993636   0.0000227478   0.0001575737  -0.0000461754  -0.0000184361
        0.0001189911   0.0000926027  -0.0000586807  -0.0000288578   0.0000284213
       -0.0000430409  -0.0003369261  -0.0003710158   0.0000204728   0.0003042776
        0.0001752361  -0.0004724859  -0.0005601375   0.0001432521  -0.0001880106
        0.0012982953   0.0005939650   0.0002414712   0.0012980838  -0.0005987225
       -0.0002495433   0.0001294017   0.0002992100  -0.0003577803  -0.0002877180
        0.0001476517  -0.0003615337   0.0001800204  -0.0003922943   0.0001456407
        0.0000115990  -0.0000414634  -0.0000077251   0.0000309653   0.0001387699
       -0.0000014935   0.0001681618   0.0001000838  -0.0000026331   0.0001583616
        0.0000462740   0.0000147838   0.0001192301  -0.0000927929   0.0000763797
       -0.0000283632  -0.0000287129   0.0000625489  -0.0003374209   0.0003714892
       -0.0000262469   0.0003047288  -0.0001758354   0.0004691274  -0.0005600990
       -0.0001426551   0.0001834924
       -0.0000435453  -0.0730234410  -0.0056096180  -0.0000969744  -0.3145922249
       -0.0093152852   0.0001008714   0.6559219467   0.0574445838  -0.0808652012
       -0.1003362179  -0.0127554980   0.0090426432   0.0040689384   0.0002914848
       -0.0039561468  -0.0003506911  -0.0029793232   0.0035958476  -0.0047753897
       -0.0035537421  -0.0044589443   0.0018774046   0.0004966008  -0.0006156833
        0.0005941106  -0.0000239653  -0.0002894323  -0.0018733263   0.0000244047
        0.0006618503   0.0005966316  -0.0002478948   0.0004633367  -0.0005462991
        0.0000188905  -0.0002477379   0.0003354185  -0.0000163301  -0.0001910652
        0.0000211643   0.0001041979  -0.0007372461   0.0003742790   0.0002452165
        0.0002290463  -0.0000322858  -0.0000582190  -0.0008436910   0.0003598473
        0.0000318219  -0.0000846803   0.0002606128  -0.0000927457  -0.0004604419
        0.0000451406   0.0001163474   0.0007573731  -0.0000396104  -0.0001709079
       -0.0001363230  -0.0009814609   0.0001946205   0.0014421643   0.0011836746
       -0.0001791975   0.0066597131  -0.0004936303   0.0027705024  -0.0018500412
        0.0044627409   0.0033587772  -0.0247959750  -0.0369563558  -0.0074309590
       -0.0000160588   0.0073885263   0.0026079118   0.0247978372  -0.0369926185
       -0.0074373900   0.0808741970  -0.1004273224  -0.0127700864  -0.0089949954
        0.0040877613   0.0002944373   0.0039374406  -0.0003497147  -0.0029807699
       -0.0035938695  -0.0047607717  -0.0035542655   0.0044536272   0.0018696500
        0.0004892700   0.0006130001   0.0005954282  -0.0000299012   0.0002896383
       -0.0018686046   0.0000158286  -0.0006631076   0.0005987366  -0.0002519400
       -0.0004650726  -0.0005448561   0.0000136661   0.0002435293   0.0003377057
       -0.0000233155   0.0001893597   0.0000196001   0.0000982570   0.0007341016
        0.0003779108   0.0002373567  -0.0002282146  -0.0000309363  -0.0000656401
        0.0008384467   0.0003604339   0.0000242140   0.0000850752   0.0002618448
       -0.0001010912   0.0004581280   0.0000461412   0.0001069189  -0.0007511999
       -0.0000372484  -0.0001776920   0.0001344119  -0.0009745165   0.0001853476
       -0.0014354775   0.0011808425  -0.0001838486  -0.0066458500  -0.0005205273
        0.0027675270   0.0018445078   0.0044458651   0.0033477266  -0.0001331873
       -0.0001912890  -0.0002717691   0.0001524347  -0.0001546614  -0.0000094253
       -0.0001812622  -0.0001979415   0.0000478091  -0.0000203175   0.0000638757
       -0.0000554482  -0.0000288729   0.0000315854  -0.0000174362  -0.0000528639
        0.0000238973  -0.0000530663  -0.0000436109   0.0000228438   0.0000507050
       -0.0000358344  -0.0000158279  -0.0000214933   0.0000036435  -0.0000382441
        0.0000148598   0.0000329495   0.0001260932  -0.0000294407   0.0000034327
       -0.0001684973   0.0001756979   0.0011182643  -0.0002867583   0.0001890875
       -0.0000521092  -0.0047672757  -0.0026977144   0.0000472781  -0.0047697788
       -0.0026984967   0.0001578017  -0.0001873945  -0.0002639228  -0.0001527791
       -0.0001518280  -0.0000147368   0.0001790046  -0.0001989801   0.0000438639
        0.0000169808  -0.0000125594  -0.0000409780   0.0000256976   0.0000346039
       -0.0000241151   0.0000509909   0.0000260615  -0.0000598234   0.0000437420
        0.0000249418   0.0000418294   0.0000367020  -0.0000137756   0.0000798281
       -0.0000020471  -0.0000357178   0.0000109941  -0.0000323392   0.0001264143
       -0.0000332387   0.0000000700  -0.0001662758   0.0001714017  -0.0011129401
       -0.0002878183   0.0001887449
       -0.0000019980  -0.0025795943   0.0067576507  -0.0000042583  -0.0153686208
       -0.0312089646   0.0000028416   0.0574445838   0.0930780189  -0.0085389581
       -0.0139060091  -0.0417307345  -0.0000008273   0.0038133672   0.0024701426
       -0.0006111198  -0.0006292085   0.0001043362   0.0004632988  -0.0004645614
       -0.0003467742  -0.0006499602   0.0000492583  -0.0002134196  -0.0004424979
        0.0002929582   0.0001017372   0.0000198072  -0.0006684150  -0.0000690193
        0.0002371163   0.0002169045  -0.0000904401   0.0002160777  -0.0002373831
        0.0000056686  -0.0002364509   0.0000842449   0.0000583345  -0.0000315199
        0.0001320219   0.0000278106  -0.0004832620  -0.0000053047   0.0001398950
        0.0003055156  -0.0001605724  -0.0000405579  -0.0002989845   0.0004117083
       -0.0000058520  -0.0001161010  -0.0000333468  -0.0000047073  -0.0002146400
        0.0001468744   0.0000156039   0.0003372555  -0.0000467744  -0.0000772220
       -0.0000600041  -0.0003526114   0.0000697490   0.0006119344   0.0003522097