104
 energy: -164.350267508134 gnorm: 0.000190055309 xtb: 6.7.1 (edcfbbe)
O           -0.00282713653999        6.43837070303981        0.02266778294546
C            0.00381407536685        5.22120734815162        0.01930911242128
C            1.18152827661743        4.32221057877349        0.02891264218554
C            2.52799650515343        4.63099295873858        0.04193344833806
C            3.44736513161935        3.59060817887677        0.04500021850240
C            3.02278855745178        2.26458499366779        0.03061451550911
N            3.97584802219805        1.21933481133553        0.02864262585120
C            4.79472785166678        1.04474372186536       -1.08349394742861
C            4.63745911514044        1.85096652888599       -2.21497482038538
C            5.45058204722700        1.69296609566953       -3.31882365153221
C            6.43267789099952        0.71703359184557       -3.32868534356472
C            6.56774100777961       -0.11044006526754       -2.23015358956256
C            5.75887629945642        0.03378546482261       -1.11168374505137
C            5.93459455856059       -0.93663396696156        0.03068382467040
C            5.78623077118939       -2.36551179333998       -0.45955956368282
C            4.67879917287989       -2.96462343256546       -1.01839487344039
C            4.76545096027904       -4.29837186568350       -1.39635209801247
C            5.94050475790377       -5.01215204153283       -1.21505827012856
C            7.05742574308121       -4.41310483662637       -0.65361181135383
C            6.97684797052173       -3.08274902156317       -0.27533464913351
C            7.96151853742570       -2.19678052693089        0.32878074449399
C            9.27728866586222       -2.41600082363768        0.70283849527273
C            9.99089984442170       -1.36862012487736        1.26436229938369
C            9.40338429163900       -0.12625744119930        1.45053042123074
C            8.08476825972617        0.09931520199399        1.07687760514796
C            7.37205596600027       -0.93855020307292        0.51774485351361
C            4.98810118153922       -0.66490124648907        1.17415076013076
C            5.05432238272154       -1.48097680229590        2.29463800106932
C            4.24240977364238       -1.26536663225159        3.39208253969901
C            3.36425396297978       -0.19506416366489        3.37930750657063
C            3.28524008721284        0.62715976545359        2.27358844913464
C            4.07380811004310        0.39130198903474        1.14314766481230
C            1.65813273216779        1.94978289316472        0.01718675774235
C            0.74737193182199        2.98172506245178        0.01872698129623
C           -0.71609049714478        2.97388786139465        0.00351426121699
C           -1.61585793559982        1.93205943632358        0.00006106544362
C           -2.98346568859380        2.23298830811044       -0.00478281303688
N           -3.92903397688049        1.18013846955808       -0.00449141960593
C           -4.04468045639127        0.36973962412391       -1.12974872794325
C           -3.25513153149602        0.60593615969117       -2.25928460078221
C           -3.35286969898946       -0.19989960708982       -3.37559689045821
C           -4.25007821989150       -1.25403147907293       -3.39930909102585
C           -5.06166486463245       -1.47005153260848       -2.30162695777030
C           -4.97705964487832       -0.67044828842405       -1.17061722780681
C           -5.93029869369690       -0.93522650576301       -0.03076925519623
C           -5.85668793747382       -2.38573800895324        0.40875954980695
C           -4.78138438002050       -3.06130996559402        0.94271827136199
C           -4.93831429732829       -4.40034967180791        1.27679532740525
C           -6.15020226327086       -5.04417896223776        1.07683344221795
C           -7.23493018243348       -4.36819065220578        0.54019960333957
C           -7.08426993211603       -3.03226351835418        0.20565558671408
C           -8.02197731236077       -2.07524370193333       -0.36376834725218
C           -9.34814039861972       -2.21191964053790       -0.74041719682702
C          -10.00669807134419       -1.10964569986522       -1.26270732128199
C           -9.35500588529616        0.10592923666173       -1.40745822627224
C           -8.02564964384618        0.24878162272824       -1.03131260780438
C           -7.36754879568252       -0.84396962315804       -0.51120308321534
C           -5.70275291502730       -0.01337877740690        1.14229024447819
C           -6.48366576959874       -0.18151784862803        2.27712849895033
C           -6.30590693043039        0.60796293276501        3.39744124614891
C           -5.31047007234102        1.57036669910308        3.39163841956369
C           -4.52481455688210        1.75184939290747        2.27166735270949
C           -4.72364724191429        0.98304210962680        1.12087950332261
C           -3.42233815106710        3.55426592621631       -0.00582066270301
C           -2.51415116541687        4.60443364207793        0.00018643026779
C           -1.16455998423767        4.30959022076326        0.00477778728742
H            2.85247943902309        5.66046391114340        0.05728921283737
H            4.50620568121435        3.80168748625476        0.05909659445630
H            3.86617768635433        2.60515522729312       -2.23451020420904
H            5.31028330834968        2.33457673158850       -4.17622755559693
H            7.07589267968603        0.59234838631886       -4.18629095859058
H            7.31373747727347       -0.89205188611325       -2.23317560950840
H            3.76221672579593       -2.41036811442387       -1.16094082835932
H            3.90707840102038       -4.78511977734561       -1.83627508966440
H            5.98553453002199       -6.04904620171908       -1.51605347263515
H            7.97029530867089       -4.97351798294324       -0.51511685506057
H            9.73931242965386       -3.38194055907017        0.56095073167061
H           11.01821735584139       -1.52171126035455        1.56246727556152
H            9.97838964796013        0.67571708748015        1.89039202829186
H            7.62920063103597        1.06836557513535        1.22226774862766
H            5.76142260407168       -2.29794289512631        2.29996660807391
H            4.30558457731097       -1.91500484827179        4.25163360881045
H            2.73866291509644        0.00786629933364        4.23602160666529
H            2.60966596036364        1.46824107132568        2.29210985161217
H            1.34608596274870        0.91666304476819        0.00156027733393
H           -1.29294138844697        0.90220005329355        0.00755425504729
H           -2.56393421986043        1.43435050831184       -2.26870202480049
H           -2.72656035348066        0.00303852547976       -4.23178634365087
H           -4.32836770075422       -1.89055549195001       -4.26739394696809
H           -5.78347279841787       -2.27396432189469       -2.31555344114701
H           -3.83632372229979       -2.56139510249090        1.09955314829692
H           -4.10655707532411       -4.94690197961080        1.69709099423007
H           -6.24970628178248       -6.08654835864232        1.34392427035569
H           -8.17683074131516       -4.87408737226401        0.38712632108148
H           -9.86011447585967       -3.15654849250606       -0.63024234413438
H          -11.04136162216557       -1.19796363297616       -1.56172783494703
H           -9.88775663564696        0.95175852245539       -1.81730046527302
H           -7.51995933110501        1.19694266333789       -1.14545119991960
H           -7.24269062176983       -0.95051742663718        2.27528322989443
H           -6.92782996138233        0.46505308418033        4.26780223985441
H           -5.13834980711907        2.18276262307456        4.26444970565729
H           -3.74283471806156        2.49504843322112        2.29209176955922
H           -4.48352840688294        3.75366327547379       -0.01019779035279
H           -2.84950177624587        5.63049284307037       -0.00501818648352
