$hessian                                                                        
        0.6439343436  -0.0088210057   0.0269252174  -0.1557052976   0.0467338762
        0.0399928685   0.0545842256   0.0208215949   0.0244932545  -0.0407862292
        0.0227265337   0.0205198941  -0.0015803224  -0.0042463559  -0.0043855950
        0.0002178772   0.0046120193   0.0047408467  -0.0011597393  -0.0024311909
       -0.0025635301  -0.0009373101   0.0010710754   0.0009570212  -0.0000730513
       -0.0005372666  -0.0005621474  -0.0003580169   0.0002408777   0.0002041074
        0.0002091717  -0.0001606210  -0.0001386608  -0.0001013194   0.0002619099
        0.0002564762   0.0006522599  -0.0002003317  -0.0001298415  -0.0012015230
        0.0010082390   0.0009334220  -0.0020349376  -0.0032814233  -0.0035875697
        0.0015714561  -0.0002753164  -0.0001519887  -0.0006286721   0.0004303806
        0.0003705040   0.0005270161   0.0002309123   0.0001623007  -0.0005808545
        0.0001208663   0.0000636879   0.0001302482  -0.0000046417   0.0000098951
        0.0001213028   0.0000787481  -0.0000021426  -0.0000029495  -0.0000186484
        0.0000007054   0.0000680434  -0.0000243596   0.0000036535  -0.0000680371
       -0.0000292934  -0.0000028223   0.0000376697   0.0000270383   0.0000086382
       -0.0000108111  -0.0000129173  -0.0000048263   0.0000015508  -0.0000088596
        0.0000118902   0.0000187583   0.0000216713  -0.0000060581  -0.0000204785
       -0.0000261614  -0.0000051280  -0.0000092731  -0.0000052677   0.0000049117
        0.0000030964  -0.0000070656   0.0000103329   0.0000002747  -0.0000009392
       -0.0000013760   0.0000083349   0.0000031777  -0.0000058913   0.0000020097
       -0.0000173527   0.0000042500  -0.0000037050   0.0000160171  -0.0000125375
       -0.0000091079  -0.0000140233   0.0000009372   0.0000002249   0.0000002075
        0.0000001528   0.0000223141   0.0000572374  -0.0000138608  -0.0001340579
        0.0000353556  -0.0000261440  -0.0001395154  -0.0000251982   0.0000100056
        0.0000136239  -0.0000574390   0.0000044006  -0.0000676606   0.0000417590
       -0.0000026463   0.0000366639  -0.0000380374   0.0000078603  -0.0000132966
        0.0000046218  -0.0000058544   0.0000008907   0.0000069712   0.0000084736
        0.0000182540  -0.0000181541  -0.0000056613  -0.0000286520   0.0000259201
       -0.0000178319  -0.0000046044   0.0000023959   0.0000092666   0.0000107227
        0.0000097500   0.0000096374   0.0000029705   0.0000002367   0.0000020237
        0.0000082884  -0.0000030246  -0.0000012003   0.0000058600   0.0000180400
        0.0000002746  -0.0000040229  -0.0000165377  -0.0000083353  -0.0000081569
        0.0000135199  -0.0000020172   0.0000054726   0.0000081404  -0.0000004917
        0.0000775878   0.0000243426   0.0000137637   0.0000026966   0.0000332602
        0.0000114383   0.0001154998  -0.0000876073   0.0000093137   0.0006210671
       -0.0003702844  -0.0001795453  -0.0007751894  -0.0003139029  -0.0003826406
        0.0031199567   0.0019414566   0.0023413129  -0.0372416939  -0.0589063018
       -0.0619424098  -0.3201130906   0.0367634604   0.0183941291  -0.1047701303
       -0.0746611977  -0.0799275206  -0.0190158601   0.0188064249   0.0175959989
       -0.0004687045  -0.0020455106  -0.0026372569   0.0000199312  -0.0000212042
       -0.0000272021  -0.0000088477  -0.0000248876  -0.0000268480   0.0000067762
       -0.0000012470  -0.0000042828   0.0000429059  -0.0000109837  -0.0000090704
        0.0000649011  -0.0000043062   0.0000000308   0.0000524504  -0.0000510169
       -0.0000210089  -0.0000269962  -0.0000165481   0.0000138016   0.0000075070
        0.0000101140   0.0000011009   0.0000050235  -0.0000042275   0.0000024769
       -0.0000065356   0.0000043862   0.0000007659  -0.0000072059  -0.0000105890
       -0.0000001941  -0.0000062020  -0.0000046765  -0.0000081694   0.0000006662
       -0.0000022168   0.0000028502   0.0000033793  -0.0000006339   0.0000040422
        0.0000017527   0.0000046763   0.0000056598   0.0000028924   0.0000020728
       -0.0000020038  -0.0000048253   0.0000006372   0.0000044659  -0.0000103460
       -0.0000055969   0.0000044627  -0.0000083881  -0.0000058576   0.0000000366
       -0.0000086274  -0.0000005545  -0.0000015585  -0.0000063643   0.0000069059
       -0.0000087283  -0.0000021450   0.0000027942   0.0000010176   0.0000003764
        0.0000013286   0.0000031121  -0.0000011603  -0.0000042600   0.0000057369
       -0.0000022039   0.0000006477  -0.0000032521  -0.0000011183   0.0000036875
       -0.0000126102  -0.0000024833  -0.0000171163   0.0000016021  -0.0000248182
        0.0000028752  -0.0000270642  -0.0000085851   0.0000167317  -0.0000147603
       -0.0002592097  -0.0016435424  -0.0022125423  -0.0179059614   0.0022408076
        0.0009487982
       -0.0088210057   0.3870113202   0.2735238010   0.1033574071  -0.1584808179
       -0.1047111024  -0.0222996935  -0.0347711777  -0.0376897099   0.0224633745
       -0.0070398334   0.0011113301  -0.0034815804  -0.0039020183  -0.0039972615
        0.0006004273   0.0036147044   0.0037651662  -0.0027419323  -0.0022497974
       -0.0025600914  -0.0005528606   0.0004709985   0.0003895492   0.0000379848
       -0.0002547456  -0.0002621332  -0.0001828247   0.0001132508   0.0000931035
        0.0001403226  -0.0000465064  -0.0000314984  -0.0000712763   0.0000756233
        0.0000693401   0.0002929431  -0.0000427490  -0.0000110657   0.0010384426
        0.0006703240   0.0007952532  -0.0028255768  -0.0030489370  -0.0034219910
        0.0021578498  -0.0001732904   0.0000102386  -0.0008353453   0.0004720652
        0.0003943149   0.0006130400   0.0002444571   0.0001975208  -0.0005349842
        0.0001111764   0.0000577244   0.0000546683   0.0000033440   0.0000075450
        0.0001234887   0.0000946560   0.0000153460  -0.0000073210  -0.0000332708
        0.0000004933   0.0000745186  -0.0000233894   0.0000042092  -0.0000701337
       -0.0000129261  -0.0000077460   0.0000295966   0.0000208590   0.0000051818
       -0.0000100288  -0.0000108309  -0.0000069451  -0.0000038116  -0.0000129418
        0.0000127623   0.0000177321   0.0000227362  -0.0000087778  -0.0000207108
       -0.0000253827  -0.0000113157  -0.0000087266  -0.0000050794   0.0000065799
        0.0000001721  -0.0000096829   0.0000103239   0.0000008258  -0.0000042337
       -0.0000010087   0.0000091046  -0.0000012357  -0.0000047888   0.0000045882
       -0.0000193046   0.0000008660  -0.0000045231   0.0000164741  -0.0000140518
       -0.0000131839  -0.0000181384  -0.0000010128   0.0000033925   0.0000009110
        0.0000012047   0.0000130234   0.0000356937  -0.0000138132  -0.0001339039
        0.0000630323  -0.0000310266  -0.0001429591  -0.0000496851   0.0000144203
        0.0000115393  -0.0000295166   0.0000076259  -0.0000664215   0.0000120576
        0.0000014294   0.0000235291  -0.0000180840   0.0000067219  -0.0000053622
        0.0000034532  -0.0000049066  -0.0000044640   0.0000194443   0.0000124890
        0.0000243609  -0.0000305978  -0.0000023676  -0.0000271517   0.0000345826
       -0.0000143044  -0.0000116356   0.0000021589   0.0000076972   0.0000113288
        0.0000119157   0.0000125810  -0.0000020080   0.0000017214   0.0000015404
        0.0000098483  -0.0000034436   0.0000005174   0.0000044722   0.0000276993
        0.0000026940  -0.0000093614  -0.0000245643  -0.0000140989  -0.0000229316
        0.0000268148  -0.0000054651   0.0000037007  -0.0000110261  -0.0000055029
        0.0000724146   0.0000213707   0.0000114803  -0.0000127501   0.0000330137
        0.0000119739   0.0001157088  -0.0001016608  -0.0000097722   0.0007404292
       -0.0003674647  -0.0001749496  -0.0009268643  -0.0004171842  -0.0005018562
        0.0051871160   0.0028880015   0.0034565743  -0.0163137210   0.0138285126
        0.0115049937  -0.0196621403  -0.0706655775  -0.0248815685  -0.0746367394
       -0.1307597667  -0.1027742286   0.0018069719  -0.0006279845  -0.0013228354
       -0.0016869778   0.0023228216  -0.0060401744   0.0000182504  -0.0000117052
       -0.0000177109  -0.0000058599  -0.0000209492  -0.0000236140  -0.0000026266
       -0.0000007803  -0.0000074211   0.0000159370  -0.0000166003  -0.0000192327
       -0.0000398701   0.0000298474   0.0000127274  -0.0000050415   0.0000008497
        0.0000232940  -0.0000350746  -0.0000089301   0.0000347995   0.0000102201
        0.0000123026   0.0000014842   0.0000053576   0.0000028703   0.0000023847
       -0.0000064624   0.0000027948   0.0000031037  -0.0000045623  -0.0000110960
        0.0000034840  -0.0000057710  -0.0000028155  -0.0000095712   0.0000015601
       -0.0000015292   0.0000010790   0.0000032293  -0.0000001263   0.0000011502
        0.0000012888   0.0000037248   0.0000055846   0.0000010951   0.0000024349
       -0.0000046297   0.0000000877   0.0000004830   0.0000048869  -0.0000086883
       -0.0000032292   0.0000054565  -0.0000062685  -0.0000020570   0.0000043335
       -0.0000055250   0.0000005406   0.0000045565  -0.0000002434   0.0000065802
       -0.0000064785   0.0000005315   0.0000001009   0.0000034348   0.0000013694
        0.0000017833   0.0000041575  -0.0000009504  -0.0000065231   0.0000087380
       -0.0000008433   0.0000012883  -0.0000021658   0.0000003462   0.0000019251
       -0.0000131416   0.0000017218  -0.0000166434   0.0000014019  -0.0000258136
        0.0000078543  -0.0000303090  -0.0000080836   0.0000207829  -0.0000106278
       -0.0020025502   0.0022250864  -0.0062474831   0.0192098278  -0.0012006135
       -0.0007208939
        0.0269252174   0.2735238010   0.3924812727   0.0969744287  -0.1084675699
       -0.1506391443  -0.0189035984  -0.0348239575  -0.0350609814   0.0202997068
        0.0011414867  -0.0041826180  -0.0036171204  -0.0040159584  -0.0045747634
        0.0006390570   0.0039753931   0.0041232137  -0.0028749208  -0.0024776987
       -0.0027582431  -0.0006234188   0.0005538101   0.0004592911   0.0000334849
       -0.0002982813  -0.0003006185  -0.0002113158   0.0001278945   0.0001135108
        0.0001579443  -0.0000602354  -0.0000399374  -0.0000796686   0.0000918715
        0.0000886515   0.0003428045  -0.0000558541  -0.0000227565   0.0009865838
        0.0007733323   0.0008984725  -0.0029952103  -0.0033443717  -0.0037026804
        0.0022835020  -0.0001831472   0.0000013081  -0.0008832023   0.0005009810
        0.0004221814   0.0006464097   0.0002610931   0.0002110222  -0.0005716947
        0.0001192590   0.0000681849   0.0000665358   0.0000088184   0.0000082740
        0.0001328021   0.0001006068   0.0000145872  -0.0000078765  -0.0000371727
        0.0000012079   0.0000763793  -0.0000240536   0.0000062705  -0.0000717901
       -0.0000133708  -0.0000110223   0.0000317393   0.0000210072   0.0000048982
       -0.0000108037  -0.0000115166  -0.0000047522  -0.0000063175  -0.0000148747
        0.0000150588   0.0000205086   0.0000269575  -0.0000064948  -0.0000250022
       -0.0000305230  -0.0000104619  -0.0000103487  -0.0000043101   0.0000084474
       -0.0000000122  -0.0000079640   0.0000123257  -0.0000019761  -0.0000024528
        0.0000043390   0.0000094627   0.0000008865  -0.0000025940   0.0000032415
       -0.0000209343   0.0000035732  -0.0000076860   0.0000189470  -0.0000138313
       -0.0000157840  -0.0000203852  -0.0000003449   0.0000023540   0.0000038809
        0.0000017117   0.0000143213   0.0000385498  -0.0000170607  -0.0001462501
        0.0000671960  -0.0000287017  -0.0001531239  -0.0000531050   0.0000154862
        0.0000113819  -0.0000318313   0.0000089890  -0.0000734955   0.0000137475
       -0.0000027141   0.0000275010  -0.0000232053   0.0000061771  -0.0000075129
        0.0000037907  -0.0000075482  -0.0000028848   0.0000174718   0.0000113079
        0.0000259703  -0.0000274689  -0.0000075826  -0.0000302140   0.0000350466
       -0.0000186737  -0.0000083300   0.0000038866   0.0000037669   0.0000115850
        0.0000130912   0.0000107945   0.0000000581   0.0000034788  -0.0000021124
        0.0000115954  -0.0000011713  -0.0000018254   0.0000073423   0.0000301675
       -0.0000033392  -0.0000105119  -0.0000253824  -0.0000136731  -0.0000210350
        0.0000258435  -0.0000066525   0.0000039185  -0.0000070625  -0.0000065305
        0.0000807027   0.0000233230   0.0000118006  -0.0000135487   0.0000349050
        0.0000086125   0.0001250924  -0.0001057605  -0.0000060040   0.0007938045
       -0.0003952648  -0.0001881757  -0.0009905224  -0.0004476006  -0.0005276767
        0.0054571577   0.0030829611   0.0036253465  -0.0190575426   0.0086454196
        0.0086960858  -0.0384243901  -0.0210837592  -0.0713089644  -0.0799218573
       -0.1027911417  -0.1424912843   0.0004828242  -0.0001945212   0.0006666971
       -0.0022730190  -0.0060688090   0.0019439634   0.0000193731  -0.0000148605
       -0.0000178692  -0.0000064432  -0.0000249355  -0.0000239738  -0.0000022866
       -0.0000032312  -0.0000060158   0.0000191600  -0.0000181803  -0.0000190399
       -0.0000356811   0.0000225314   0.0000210426  -0.0000056594  -0.0000081468
        0.0000270621  -0.0000393711  -0.0000100334   0.0000334389   0.0000092644
        0.0000130462   0.0000018920   0.0000053119   0.0000015952   0.0000045970
       -0.0000064454   0.0000021012   0.0000040140  -0.0000027851  -0.0000099117
        0.0000039631  -0.0000073475  -0.0000017252  -0.0000075422   0.0000002694
        0.0000007140   0.0000033054   0.0000045033   0.0000014670   0.0000026920
        0.0000003191   0.0000046362   0.0000075731   0.0000013301   0.0000047549
       -0.0000046650  -0.0000001008   0.0000015778   0.0000044041  -0.0000093385
       -0.0000041231   0.0000049247  -0.0000056999  -0.0000023174   0.0000027112
       -0.0000053856  -0.0000002132   0.0000023369  -0.0000000542   0.0000085140
       -0.0000112434   0.0000006005   0.0000011942  -0.0000009001   0.0000029931
        0.0000006124   0.0000013239  -0.0000006260  -0.0000052448   0.0000066884
       -0.0000005043   0.0000021938  -0.0000054414   0.0000009607   0.0000016904
       -0.0000156078   0.0000010851  -0.0000175908   0.0000015764  -0.0000264177
        0.0000092237  -0.0000325546  -0.0000068550   0.0000210775  -0.0000102991
       -0.0025894636  -0.0062207993   0.0018669315   0.0180518618  -0.0018738064
        0.0001676084
       -0.1557052976   0.1033574071   0.0969744287   0.6713370379  -0.0154894017
        0.0216630817  -0.1527851614  -0.0976210409  -0.1054328580  -0.0336002982
       -0.0178826718  -0.0204013244  -0.0052293657   0.0018230116   0.0010561418
        0.0008678370  -0.0012009297  -0.0011533905   0.0006676417   0.0010131210
        0.0010953575   0.0004139981  -0.0003329411  -0.0002928775   0.0000056569
        0.0001843806   0.0001881492   0.0001190905  -0.0000984474  -0.0000881359
       -0.0000836116   0.0000652807   0.0000557548   0.0001023927  -0.0000829919
       -0.0000730587  -0.0002556055   0.0000674237   0.0000312918   0.0004153778
       -0.0006686314  -0.0006559984   0.0006648231   0.0016821590   0.0018172379
       -0.0008432600   0.0001127982   0.0000558411   0.0002708495  -0.0001357223
       -0.0000954881  -0.0001954717  -0.0000567684  -0.0000593349   0.0001959233
       -0.0000763628  -0.0000669625  -0.0000685716  -0.0000025676  -0.0000134120
       -0.0000201855   0.0000145153  -0.0000038698   0.0000147936  -0.0000365122
        0.0000026718  -0.0000088687  -0.0000058057   0.0000103576   0.0000118254
       -0.0000894419   0.0000051883   0.0000295951   0.0000477614  -0.0000179614
       -0.0000290619   0.0000157784  -0.0000138024   0.0000043013   0.0000320025
       -0.0000233086  -0.0000441961  -0.0000462292   0.0000019837   0.0000241048
        0.0000333598  -0.0000139862   0.0000121473  -0.0000030146   0.0000146280
       -0.0000170806   0.0000017794  -0.0000123818   0.0000116029  -0.0000080147
        0.0000143306  -0.0000045142  -0.0000210541   0.0000105634   0.0000080343
        0.0000229039  -0.0000188814   0.0000006223  -0.0000183508   0.0000176684
        0.0000378751   0.0000253160   0.0000093298   0.0000062013  -0.0000560563
        0.0000292745  -0.0000058903   0.0000956367  -0.0000084706   0.0000053393
       -0.0001023960   0.0000173345   0.0000156290   0.0000989292  -0.0000121961
       -0.0000126562  -0.0000991766  -0.0000067840   0.0000172468   0.0000897535
       -0.0000037993   0.0000278753  -0.0000549920  -0.0000120596  -0.0000327729
       -0.0000183008  -0.0000114837  -0.0000007039  -0.0000367726  -0.0000184378
       -0.0000439699   0.0000499725  -0.0000031706   0.0000237579  -0.0000388187
       -0.0000098913   0.0000135509   0.0000070598   0.0000149972  -0.0000168756
       -0.0000040934  -0.0000132180   0.0000129591   0.0000091461   0.0000126546
       -0.0000041903   0.0000242274   0.0000065859   0.0000054003  -0.0000284655
       -0.0000159439   0.0000027682   0.0000217299   0.0000140648   0.0000389383
       -0.0000289186   0.0000118835   0.0000108685   0.0000613446   0.0000192286
       -0.0000099216   0.0000052785   0.0000070718   0.0000203001   0.0000361022
       -0.0000045602  -0.0000201976  -0.0000103939   0.0000078471  -0.0003274051
        0.0001164260   0.0000682427   0.0003480310   0.0001230476   0.0001651679
       -0.0027448945  -0.0015995459  -0.0019130782   0.0039001582   0.0007331081
        0.0013063920  -0.0371961083   0.0186986070   0.0161930887   0.0066153285
       -0.0086950656  -0.0083558607  -0.2982995439   0.0068969734  -0.0107638424
        0.0064544391   0.0085662167   0.0090013054   0.0000141818   0.0000032905
        0.0000052085   0.0000084337   0.0000188156   0.0000206844  -0.0000063791
        0.0000215272   0.0000203124  -0.0000137181   0.0000030076  -0.0000018658
        0.0000154180  -0.0000833343  -0.0000738569   0.0000253890  -0.0000534134
       -0.0000639297   0.0000156158  -0.0000152922  -0.0000133907  -0.0000038395
       -0.0000042452   0.0000005731  -0.0000005453   0.0000148854  -0.0000021040
       -0.0000032718  -0.0000094134   0.0000060993   0.0000070430  -0.0000022505
        0.0000082574   0.0000021260   0.0000028507   0.0000014035   0.0000015298
        0.0000043548  -0.0000012042  -0.0000037399   0.0000016687  -0.0000030886
       -0.0000060953  -0.0000054649   0.0000038463  -0.0000105143  -0.0000005769
       -0.0000038621   0.0000169878  -0.0000058585   0.0000032830   0.0000035713
        0.0000032622   0.0000016833  -0.0000027906   0.0000103819   0.0000041391
        0.0000085532   0.0000021501   0.0000065418   0.0000089985   0.0000035023
        0.0000005021   0.0000009726  -0.0000057332  -0.0000017088  -0.0000039965
       -0.0000018321  -0.0000044666  -0.0000063387   0.0000069382   0.0000022680
       -0.0000105530   0.0000027225  -0.0000045750  -0.0000002076  -0.0000161220
        0.0000024478  -0.0000183440   0.0000052356   0.0000006045   0.0000042934
        0.0000081402   0.0000095326  -0.0000105330  -0.0000088332  -0.0000005114
        0.0008126406  -0.0000291765   0.0000434827  -0.0059735299   0.0006461511
       -0.0002756225
        0.0467338762  -0.1584808179  -0.1084675699  -0.0154894017   0.3776220015
        0.2630447835  -0.0415200834  -0.1562853260  -0.1132189294  -0.0571922904
        0.0085547278   0.0032190150   0.0077015489   0.0114744013   0.0049126375
       -0.0017479035  -0.0065607979  -0.0063328372   0.0047361119   0.0039022843
        0.0044915665   0.0009338465  -0.0008393008  -0.0008229659  -0.0000688040
        0.0004787679   0.0004895202   0.0003599674  -0.0002330013  -0.0001886358
       -0.0002500995   0.0000867890   0.0000577610   0.0000932397  -0.0001844858
       -0.0001743837  -0.0004577097   0.0001642365   0.0001165088  -0.0018302828
       -0.0015056443  -0.0017493483   0.0049578846   0.0049294544   0.0063607929
       -0.0035409627   0.0001725135   0.0000142572   0.0013061267  -0.0007392149
       -0.0006064985  -0.0009760044  -0.0004030435  -0.0003205841   0.0008839207
       -0.0001605411  -0.0000900272  -0.0000714312  -0.0000070303  -0.0000088712
       -0.0002227077  -0.0001782989  -0.0000230901   0.0000164907   0.0000670391
       -0.0000041613  -0.0001229822   0.0000385593  -0.0000100626   0.0001212850
        0.0000640172   0.0000055651  -0.0000650724  -0.0000527125  -0.0000112108
        0.0000333709   0.0000094698   0.0000096802  -0.0000020208   0.0000043566
       -0.0000119598  -0.0000098561  -0.0000169967   0.0000083688   0.0000178019
        0.0000232486   0.0000084610   0.0000051716   0.0000088087  -0.0000102111
       -0.0000064864   0.0000080333  -0.0000108381   0.0000019780  -0.0000012159
        0.0000006779  -0.0000083042  -0.0000014051   0.0000063081  -0.0000018834
        0.0000220621  -0.0000062989   0.0000084428  -0.0000172956   0.0000140763
        0.0000044951   0.0000156791  -0.0000046523   0.0000024392   0.0000180679
       -0.0000046674  -0.0000378094  -0.0001096874   0.0000303595   0.0002548052
       -0.0000599824   0.0000459529   0.0002634893   0.0000408773  -0.0000204028
       -0.0000231176   0.0001120210  -0.0000110386   0.0001251701  -0.0000810421
        0.0000071405  -0.0000631113   0.0000713518  -0.0000133149   0.0000394652
       -0.0000043248   0.0000118125  -0.0000027064   0.0000024657  -0.0000075041
       -0.0000077964   0.0000073636   0.0000128215   0.0000252743  -0.0000192750
        0.0000202200   0.0000000544  -0.0000047259  -0.0000109674  -0.0000097797
       -0.0000122636  -0.0000115410  -0.0000011966   0.0000010168  -0.0000012360
       -0.0000077121  -0.0000005597   0.0000000717  -0.0000076760  -0.0000227751
       -0.0000008407   0.0000077684   0.0000173461   0.0000072988   0.0000022112
       -0.0000137263  -0.0000020047  -0.0000049392  -0.0000309831  -0.0000019977
       -0.0001402571  -0.0000353680  -0.0000292639   0.0000138961  -0.0000806513
       -0.0000064646  -0.0002099970   0.0001962890   0.0000033137  -0.0011979619
        0.0005911581   0.0002568088   0.0015184589   0.0006840105   0.0007545202
       -0.0090067506  -0.0047966247  -0.0061403944  -0.0019944848  -0.0309383387
       -0.0259066193   0.0585027661   0.0118042491   0.0145577170   0.0082163385
       -0.0124103892  -0.0128864216   0.0070068241  -0.0391500779  -0.0044158626
       -0.0077939801  -0.0121999358  -0.0138910202  -0.0000016512   0.0000177868
        0.0000220972   0.0000131342   0.0000261422   0.0000279901  -0.0000039239
        0.0000032508   0.0000060550  -0.0000524580   0.0000188658   0.0000175888
       -0.0000085268   0.0000518142   0.0000535729   0.0000718696  -0.0000174645
       -0.0000543577   0.0000393196   0.0000051397  -0.0000479321  -0.0000168077
       -0.0000256948  -0.0000011455  -0.0000085047   0.0000109353  -0.0000061176
        0.0000025918  -0.0000082035   0.0000029198   0.0000067124   0.0000051981
        0.0000076006   0.0000078116   0.0000063550   0.0000046851  -0.0000011897
        0.0000008296  -0.0000025631  -0.0000048113  -0.0000007877  -0.0000041872
       -0.0000037105  -0.0000068724  -0.0000025036  -0.0000098126  -0.0000042948
       -0.0000020005   0.0000098004  -0.0000056915  -0.0000030030   0.0000171820
        0.0000091249  -0.0000024749   0.0000053288   0.0000112414   0.0000031383
        0.0000098076   0.0000020651   0.0000075668   0.0000117831  -0.0000057533
        0.0000058582   0.0000020131  -0.0000023503  -0.0000011188  -0.0000025803
        0.0000012467  -0.0000043300  -0.0000063007   0.0000076512  -0.0000034246
       -0.0000059535   0.0000035881  -0.0000015215  -0.0000052223  -0.0000107521
        0.0000137186  -0.0000016699   0.0000296972  -0.0000025369   0.0000258202
       -0.0000067943   0.0000536989   0.0000078903  -0.0000064039   0.0000468086
       -0.0000561247  -0.0002799045  -0.0000582677   0.0001572260   0.0046152282
       -0.0031091333
        0.0399928685  -0.1047111024  -0.1506391443   0.0216630817   0.2630447835
        0.3819492774  -0.0489305580  -0.1169864110  -0.1676380958  -0.0600320589
        0.0058708024   0.0033382994   0.0067898020   0.0044928270   0.0122717309
       -0.0015906336  -0.0062955156  -0.0070297784   0.0047695921   0.0041489806
        0.0045096320   0.0009802128  -0.0010114769  -0.0007580880  -0.0000647665
        0.0005147155   0.0005166197   0.0003795897  -0.0002355153  -0.0002098900
       -0.0002596706   0.0000991600   0.0000646920   0.0001034396  -0.0001896234
       -0.0001997789  -0.0004970903   0.0001693180   0.0001280522  -0.0017201131
       -0.0015816984  -0.0017984079   0.0050806921   0.0059321260   0.0057990393
       -0.0036272609   0.0003009177  -0.0001067407   0.0013471686  -0.0007557206
       -0.0006304265  -0.0010134733  -0.0004257513  -0.0003231950   0.0009332341
       -0.0001726323  -0.0000944034  -0.0000879814   0.0000019335  -0.0000147267
       -0.0002221093  -0.0001770596  -0.0000251352   0.0000161548   0.0000627617
       -0.0000026489  -0.0001259236   0.0000399409  -0.0000063169   0.0001262189
        0.0000622212   0.0000026621  -0.0000644064  -0.0000528295  -0.0000132834
        0.0000324355   0.0000098821   0.0000117128  -0.0000044920   0.0000042348
       -0.0000111403  -0.0000097571  -0.0000188898   0.0000110709   0.0000175508
        0.0000209054   0.0000085677   0.0000073525   0.0000079128  -0.0000075534
       -0.0000056437   0.0000081984  -0.0000107472   0.0000027024  -0.0000023617
        0.0000062697  -0.0000063121  -0.0000031577   0.0000088042  -0.0000003865
        0.0000221588  -0.0000057833   0.0000074187  -0.0000190104   0.0000162212
        0.0000063988   0.0000150382  -0.0000037434   0.0000036106   0.0000161393
       -0.0000025828  -0.0000397808  -0.0001098050   0.0000286214   0.0002563297
       -0.0000626208   0.0000526416   0.0002673860   0.0000426518  -0.0000201015
       -0.0000265338   0.0001102324  -0.0000099604   0.0001248698  -0.0000799443
        0.0000050369  -0.0000629339   0.0000670760  -0.0000131917   0.0000358425
       -0.0000062757   0.0000115295  -0.0000031056  -0.0000026274  -0.0000079974
       -0.0000109085   0.0000128186   0.0000109096   0.0000230070  -0.0000236854
        0.0000206493   0.0000025524  -0.0000039160  -0.0000116082  -0.0000134431
       -0.0000134599  -0.0000110089  -0.0000008249   0.0000019646  -0.0000008252
       -0.0000087189   0.0000015304   0.0000015725  -0.0000065813  -0.0000247027
       -0.0000045432   0.0000055598   0.0000176328   0.0000121797   0.0000051331
       -0.0000181399   0.0000000525  -0.0000058380  -0.0000259777   0.0000004201
       -0.0001403186  -0.0000361489  -0.0000284954   0.0000129299  -0.0000787001
       -0.0000092989  -0.0002110485   0.0001959355   0.0000060919  -0.0012443958
        0.0005921918   0.0002915111   0.0015627147   0.0006542158   0.0008244177
       -0.0092278935  -0.0053712913  -0.0059201379  -0.0014338417  -0.0256888742
       -0.0313517264   0.0562496715   0.0119040123   0.0170240383   0.0086705903
       -0.0140195961  -0.0126149233  -0.0106373580  -0.0044010271  -0.0394963680
       -0.0074839146  -0.0128181999  -0.0123106284  -0.0000019488   0.0000168847
        0.0000241155   0.0000135923   0.0000268608   0.0000305094  -0.0000049571
        0.0000029558   0.0000084840  -0.0000533602   0.0000224995   0.0000135293
       -0.0000079871   0.0000560417   0.0000361764   0.0000715258  -0.0000150945
       -0.0000643639   0.0000387911   0.0000035199  -0.0000497876  -0.0000175694
       -0.0000258442  -0.0000018411  -0.0000080728   0.0000102239  -0.0000047512
        0.0000032469  -0.0000104713   0.0000047851   0.0000100297   0.0000058601
        0.0000090321   0.0000093486   0.0000057660   0.0000074259   0.0000006607
        0.0000013375  -0.0000015147  -0.0000010944  -0.0000008295  -0.0000042857
       -0.0000029305  -0.0000081015  -0.0000015470  -0.0000090059  -0.0000033715
       -0.0000024421   0.0000109450  -0.0000061175  -0.0000026539   0.0000167808
        0.0000081800  -0.0000017236   0.0000053455   0.0000112466   0.0000038514
        0.0000094538   0.0000007591   0.0000086055   0.0000107302  -0.0000059233
        0.0000062549   0.0000001244  -0.0000035642  -0.0000014580  -0.0000029145
       -0.0000009807  -0.0000045799  -0.0000077599   0.0000083697  -0.0000033858
       -0.0000072974   0.0000034472  -0.0000025380  -0.0000058829  -0.0000120609
        0.0000139467  -0.0000042294   0.0000302485  -0.0000020745   0.0000271487
       -0.0000002847   0.0000485333   0.0000046600  -0.0000059030   0.0000454041
        0.0000149830  -0.0000585411  -0.0002771411  -0.0007683899  -0.0030785846
        0.0045755364
        0.0545842256  -0.0222996935  -0.0189035984  -0.1527851614  -0.0415200834
       -0.0489305580   0.6282389446  -0.0164105785   0.0176819671  -0.2973613956
       -0.0000115021  -0.0166027008  -0.0376085878  -0.0268366812  -0.0297001717
        0.0006806289   0.0182199268   0.0187402284  -0.0106782608  -0.0095870433
       -0.0106741569  -0.0027091679   0.0026329935   0.0022682113  -0.0001035960
       -0.0013739037  -0.0014262832  -0.0009645961   0.0005899646   0.0004964334
        0.0006252879  -0.0003351809  -0.0002623838  -0.0003051352   0.0004666647
        0.0004488803   0.0016212510  -0.0002798537  -0.0000994116   0.0017253174
        0.0035563223   0.0038332981  -0.0115130131  -0.0140226375  -0.0155361676
        0.0078297080  -0.0008813213  -0.0002525335  -0.0028459626   0.0017409846
        0.0014891870   0.0021705273   0.0009587860   0.0006987692  -0.0021403301
        0.0004666037   0.0002806494   0.0002596787   0.0000136348   0.0000297588
        0.0005481236   0.0004447581   0.0000331382   0.0000048218  -0.0001860893
        0.0000198256   0.0003079448  -0.0001080034   0.0000330482  -0.0002890148
       -0.0002411506  -0.0000114492   0.0001829177   0.0001728439   0.0000089149
       -0.0001061624  -0.0000159754  -0.0000477017   0.0000057416   0.0000149583
        0.0000116240  -0.0000002640   0.0000190023  -0.0000269102  -0.0000523223
       -0.0000503648  -0.0000478634  -0.0000121279  -0.0000309531   0.0000434149
       -0.0000124893  -0.0000183239   0.0000174844   0.0000057569  -0.0000122588