$hessian                                                                        
        0.6505196871  -0.0066802051   0.0243256307  -0.1585805044   0.0477492915
        0.0410490172   0.0587763484   0.0212476345   0.0242733404  -0.0461446378
        0.0219121345   0.0192457208  -0.0014291080  -0.0005245396  -0.0005627241
        0.0000000144   0.0010043631   0.0009703896  -0.0006525232  -0.0003696546
       -0.0004023727  -0.0000415046   0.0000739387   0.0000664029  -0.0000308479
       -0.0000396308  -0.0000438910  -0.0000285589   0.0000169814   0.0000125729
       -0.0000021722   0.0000000850  -0.0000013753   0.0000213829  -0.0000037328
       -0.0000010665   0.0000185397  -0.0000125017  -0.0000094536   0.0006198578
       -0.0001719111  -0.0001289316  -0.0001332828   0.0001848424   0.0001783361
        0.0000314455  -0.0000099337  -0.0000072536  -0.0000088746   0.0000638124
        0.0000652939   0.0000187074   0.0000038613  -0.0000030648  -0.0000403165
       -0.0000087712  -0.0000157957   0.0000153728  -0.0000156681   0.0000036892
        0.0000005834   0.0000015420  -0.0000054608   0.0000026374  -0.0000010493
        0.0000003545  -0.0000009419   0.0000009965   0.0000022664  -0.0000002211
       -0.0000024017  -0.0000006260   0.0000022431   0.0000022847   0.0000012343
        0.0000024959  -0.0000013072   0.0000015311  -0.0000011049   0.0000016351
       -0.0000007986   0.0000034838   0.0000014016   0.0000004470  -0.0000062777
       -0.0000043365  -0.0000001944   0.0000008164  -0.0000001549   0.0000007216
       -0.0000007189  -0.0000016471   0.0000007989   0.0000029994   0.0000002548
        0.0000012673  -0.0000001336   0.0000010889  -0.0000009327  -0.0000003184
       -0.0000005377   0.0000001917   0.0000014778  -0.0000003151   0.0000009868
        0.0000016577   0.0000009692   0.0000009999  -0.0000003953   0.0000011083
       -0.0000007953  -0.0000006802   0.0000022322   0.0000010095  -0.0000021733
       -0.0000046401  -0.0000000285   0.0000049812   0.0000035198  -0.0000011447
       -0.0000042672   0.0000015706  -0.0000006612   0.0000003555   0.0000031713
        0.0000005301  -0.0000001026  -0.0000026467   0.0000008477   0.0000052927
        0.0000000527   0.0000026030  -0.0000004026  -0.0000022619  -0.0000010576
        0.0000042011  -0.0000026206   0.0000011219  -0.0000121799   0.0000039684
       -0.0000051448   0.0000035506   0.0000002265   0.0000028679  -0.0000010907
        0.0000011301   0.0000002493   0.0000040784  -0.0000016300   0.0000038698
        0.0000000661  -0.0000029525  -0.0000016651   0.0000012130   0.0000006931
        0.0000012916   0.0000015492   0.0000005443   0.0000017381   0.0000018211
       -0.0000029190   0.0000006696   0.0000020052  -0.0000017493   0.0000003612
        0.0000007664  -0.0000017979   0.0000010833   0.0000100852   0.0000054470
        0.0000031726  -0.0000075002   0.0000070646   0.0000011767  -0.0000188780
       -0.0000126416  -0.0000110337   0.0000122893  -0.0000086153  -0.0000073248
        0.0000524963  -0.0002619735  -0.0002657074  -0.0349630422  -0.0602118054
       -0.0615335872  -0.3262307435   0.0346345846   0.0178031657  -0.1039682362
       -0.0757799577  -0.0787668804  -0.0188377817   0.0187723611   0.0173882005
       -0.0004795111  -0.0019704717  -0.0024440592   0.0000059274   0.0000051967
        0.0000054662   0.0000038836   0.0000053397   0.0000050896   0.0000059542
        0.0000059087   0.0000053732   0.0000018042   0.0000040078   0.0000030265
        0.0000455049   0.0000173982   0.0000177858   0.0000573472  -0.0000433736
       -0.0000396646  -0.0000024155  -0.0000089017  -0.0000112479   0.0000001436
       -0.0000002655  -0.0000007887  -0.0000003912  -0.0000037458  -0.0000000245
       -0.0000011213  -0.0000003521  -0.0000000329  -0.0000010775  -0.0000013008
       -0.0000001916   0.0000000954  -0.0000006173   0.0000002723  -0.0000002105
       -0.0000012211   0.0000006785   0.0000001710  -0.0000013391   0.0000014264
        0.0000002105  -0.0000002080   0.0000004452  -0.0000000139  -0.0000009918
        0.0000005218  -0.0000028541  -0.0000008808   0.0000002450  -0.0000031001
       -0.0000010701  -0.0000002301  -0.0000020265  -0.0000010660  -0.0000007581
       -0.0000028030   0.0000004768  -0.0000000777  -0.0000012997   0.0000001201
        0.0000000490  -0.0000018820   0.0000007583  -0.0000001487  -0.0000000277
        0.0000010112  -0.0000001022  -0.0000025852   0.0000006204  -0.0000005454
       -0.0000023014   0.0000006047  -0.0000007189  -0.0000026177   0.0000006693
       -0.0000009272  -0.0000036949  -0.0000046295  -0.0000006604  -0.0000024768
       -0.0000010067  -0.0000007072  -0.0000135527  -0.0000068334  -0.0000092929
       -0.0004791730  -0.0017000698  -0.0021570830  -0.0181108877   0.0021479503
        0.0009907016
       -0.0066802051   0.3958092684   0.2738071216   0.1045034973  -0.1619756087
       -0.1058883853  -0.0210410813  -0.0342648044  -0.0362975769   0.0218273638
       -0.0095553749  -0.0013420524  -0.0005331976  -0.0012969245  -0.0010623078
       -0.0002601923   0.0002946727   0.0003059441  -0.0000468415  -0.0001189974
       -0.0001790570  -0.0000364969   0.0000360353   0.0000437613  -0.0000240400
       -0.0000086704  -0.0000140953  -0.0000060122  -0.0000092143  -0.0000136278
        0.0000014609  -0.0000167926  -0.0000199974   0.0000024805   0.0000035254
        0.0000009305   0.0000677745   0.0000172434   0.0000285029  -0.0001664033
        0.0001698672   0.0001724363  -0.0001379453  -0.0003846110  -0.0004369554
        0.0001241630  -0.0000018198   0.0000219541  -0.0000379043   0.0000349889
        0.0000340315   0.0000135780   0.0000224624   0.0000098008  -0.0000889230
       -0.0000011438  -0.0000117081   0.0000798755   0.0000071295   0.0000021034
       -0.0000234716  -0.0000325909  -0.0000137357   0.0000034920   0.0000099429
        0.0000001479  -0.0000064482  -0.0000027893  -0.0000008238   0.0000031562
       -0.0000070865  -0.0000006065  -0.0000030793  -0.0000025551  -0.0000000194
        0.0000005181   0.0000012645   0.0000007054  -0.0000005745   0.0000022905
       -0.0000024962  -0.0000040427  -0.0000037876  -0.0000005210   0.0000000945
        0.0000015463  -0.0000009696   0.0000001984   0.0000002720  -0.0000004041
       -0.0000018912  -0.0000034332   0.0000003846   0.0000025623  -0.0000008495
        0.0000005976  -0.0000003665   0.0000007691  -0.0000030142  -0.0000009659
       -0.0000029964   0.0000000590   0.0000020370  -0.0000006527   0.0000007164
        0.0000020642  -0.0000001343   0.0000016505   0.0000010634   0.0000016151
       -0.0000022255  -0.0000047901   0.0000042401   0.0000038130   0.0000095796
       -0.0000112844   0.0000006866   0.0000044704   0.0000130615  -0.0000012420
       -0.0000010235  -0.0000089386  -0.0000004300   0.0000039926   0.0000025478
        0.0000013072  -0.0000021388   0.0000009341   0.0000018667  -0.0000040281
       -0.0000016777  -0.0000020639  -0.0000004771  -0.0000007064   0.0000020885
       -0.0000040775   0.0000030514  -0.0000010734   0.0000056437  -0.0000027839
        0.0000055028  -0.0000025127  -0.0000002173  -0.0000004750  -0.0000004131
       -0.0000026544   0.0000005359  -0.0000046949   0.0000006154  -0.0000013388
        0.0000009551  -0.0000007466   0.0000026805  -0.0000012706  -0.0000000592
       -0.0000004031  -0.0000025510  -0.0000016295  -0.0000009238  -0.0000014090
        0.0000014625   0.0000021266  -0.0000006805   0.0000006275  -0.0000001657
       -0.0000056589   0.0000029273  -0.0000022389  -0.0000015718  -0.0000099604
        0.0000021430  -0.0000151228   0.0000227620   0.0000105966   0.0000396550
       -0.0000252488  -0.0000085751  -0.0000411528  -0.0000421677  -0.0000472132
        0.0010193882   0.0002883119   0.0003786746  -0.0178714595   0.0156313108
        0.0130667111  -0.0220993363  -0.0724924465  -0.0251871007  -0.0757577507
       -0.1350007980  -0.1030453055   0.0018292309  -0.0004841150  -0.0012285376
       -0.0016895842   0.0021111403  -0.0062298475   0.0000000723  -0.0000054880
       -0.0000068339   0.0000017030   0.0000016241  -0.0000004618  -0.0000046862
       -0.0000006232  -0.0000034245  -0.0000119643  -0.0000040310  -0.0000064306
       -0.0000502753   0.0000276910   0.0000073858   0.0000206219   0.0000138706
        0.0000098195   0.0000049720  -0.0000004480  -0.0000007561   0.0000006929
       -0.0000010166  -0.0000008467  -0.0000002036  -0.0000000339   0.0000000818
       -0.0000009577  -0.0000001084  -0.0000002418  -0.0000003904  -0.0000012733
        0.0000004569   0.0000002396  -0.0000001239  -0.0000004367   0.0000001422
       -0.0000012433  -0.0000004502   0.0000003516  -0.0000010611   0.0000003141
        0.0000011251  -0.0000005721  -0.0000003643   0.0000001275  -0.0000009130
        0.0000009215   0.0000005979   0.0000000930   0.0000004180   0.0000011042
        0.0000005131   0.0000001370  -0.0000002576   0.0000003175   0.0000011530
       -0.0000007512   0.0000003027   0.0000011134   0.0000007364  -0.0000013938
        0.0000025035   0.0000018445  -0.0000011994   0.0000025000  -0.0000012272
       -0.0000005897   0.0000014458   0.0000009622  -0.0000005762   0.0000019205
        0.0000003468  -0.0000003064   0.0000020840  -0.0000006746   0.0000002192
        0.0000002771   0.0000031097   0.0000012427   0.0000002047   0.0000009415
        0.0000015257   0.0000020103  -0.0000042306   0.0000056988   0.0000009389
       -0.0019723761   0.0021269552  -0.0062425828   0.0190717947  -0.0008786664
       -0.0006349235
        0.0243256307   0.2738071216   0.3904904713   0.0970460036  -0.1091028645
       -0.1512021835  -0.0175009978  -0.0338677394  -0.0332535290   0.0192882628
       -0.0013614699  -0.0071411355  -0.0005867169  -0.0010633826  -0.0013468079
       -0.0002625464   0.0003722525   0.0003235284  -0.0000867715  -0.0001881077
       -0.0001447803  -0.0000372366   0.0000514141   0.0000347444  -0.0000251032
       -0.0000133036  -0.0000132885  -0.0000086686  -0.0000117200  -0.0000072987
        0.0000024793  -0.0000195017  -0.0000167329   0.0000025972  -0.0000002279
        0.0000030379   0.0000690341   0.0000193025   0.0000259777  -0.0001306375
        0.0001769979   0.0001473842  -0.0001499185  -0.0004236298  -0.0003732118
        0.0001258721   0.0000099922   0.0000080660  -0.0000384055   0.0000426974
        0.0000323368   0.0000115205   0.0000209773   0.0000118653  -0.0000889565
       -0.0000027020  -0.0000098960   0.0000862678   0.0000062081   0.0000003508
       -0.0000218424  -0.0000288414  -0.0000136420   0.0000040647   0.0000076589
       -0.0000000773  -0.0000041413  -0.0000035332  -0.0000024722   0.0000014283
       -0.0000031362   0.0000041648  -0.0000018157  -0.0000019619  -0.0000024305
       -0.0000020146   0.0000021710   0.0000008521   0.0000018587  -0.0000001723
       -0.0000013333  -0.0000045965  -0.0000017307   0.0000017332   0.0000014704
        0.0000003992   0.0000000529  -0.0000019531  -0.0000000519   0.0000003618
       -0.0000004132   0.0000015692   0.0000016070  -0.0000048709   0.0000002118
        0.0000011600  -0.0000000327   0.0000003252   0.0000024346  -0.0000004523
        0.0000008529   0.0000008603  -0.0000023911   0.0000004091   0.0000010831
       -0.0000003299  -0.0000017126   0.0000010071   0.0000012912   0.0000009929
        0.0000013153  -0.0000040465   0.0000043899  -0.0000016471   0.0000077390
       -0.0000129181   0.0000034823   0.0000041944   0.0000120972   0.0000023317
       -0.0000018696  -0.0000058322   0.0000003384   0.0000043334   0.0000032795
       -0.0000035309  -0.0000000019   0.0000028095  -0.0000027989  -0.0000032297
       -0.0000023242   0.0000008281  -0.0000004531  -0.0000016412  -0.0000040319
       -0.0000040138   0.0000016124   0.0000005597   0.0000041233  -0.0000003003
       -0.0000015024  -0.0000017533  -0.0000010842  -0.0000020190  -0.0000006853
        0.0000009898  -0.0000015337   0.0000021364  -0.0000005947  -0.0000048030
       -0.0000001859  -0.0000007882  -0.0000026964  -0.0000016168   0.0000024787
       -0.0000027269   0.0000005240  -0.0000004082  -0.0000011153   0.0000023088
        0.0000009896  -0.0000006314  -0.0000013387  -0.0000015255  -0.0000028525
       -0.0000066634   0.0000017478  -0.0000032443  -0.0000032513  -0.0000119627
       -0.0000013158  -0.0000134274   0.0000263890   0.0000123443   0.0000386526
       -0.0000269930  -0.0000061431  -0.0000413293  -0.0000447182  -0.0000448931
        0.0010170818   0.0003042959   0.0003404531  -0.0197684560   0.0106614353
        0.0106812816  -0.0382030156  -0.0219347017  -0.0722249553  -0.0787632402
       -0.1030551157  -0.1414000959   0.0006731667  -0.0002792089   0.0006658415
       -0.0021601526  -0.0062454465   0.0020399139   0.0000002485  -0.0000069806
       -0.0000047429   0.0000024601  -0.0000002564   0.0000022349  -0.0000043381
       -0.0000022451  -0.0000004990  -0.0000118832  -0.0000049752  -0.0000043629
       -0.0000478664   0.0000190060   0.0000196805   0.0000225580   0.0000033959
        0.0000150932   0.0000027892  -0.0000028372  -0.0000024253  -0.0000000701
       -0.0000016537  -0.0000007277  -0.0000009818   0.0000005267  -0.0000003179
       -0.0000005673  -0.0000007358  -0.0000005215  -0.0000028868   0.0000002108
        0.0000011218  -0.0000006866   0.0000005700   0.0000024700  -0.0000006177
        0.0000012605   0.0000018145   0.0000007516   0.0000006601   0.0000008356
       -0.0000002612   0.0000006636   0.0000010637  -0.0000004652  -0.0000007373
        0.0000014211   0.0000009481   0.0000006546  -0.0000000241   0.0000013147
        0.0000003674  -0.0000010972   0.0000005727   0.0000000551  -0.0000014216
        0.0000016425   0.0000000652  -0.0000015391   0.0000011813  -0.0000000780
       -0.0000022057   0.0000009977  -0.0000003349  -0.0000028771  -0.0000015642
        0.0000013489  -0.0000009296   0.0000013180  -0.0000000899  -0.0000012469
        0.0000005177   0.0000004858  -0.0000002645   0.0000000700   0.0000009771
       -0.0000012715   0.0000033348   0.0000008691  -0.0000009029   0.0000015892
        0.0000010755   0.0000033396  -0.0000053718   0.0000049660   0.0000017274
       -0.0024584317  -0.0062196588   0.0020416281   0.0177111993  -0.0016192909
        0.0003345333
       -0.1585805044   0.1045034973   0.0970460036   0.6754783381  -0.0131212414
        0.0188142454  -0.1530258711  -0.0983198783  -0.1030049843  -0.0316323801
       -0.0177349072  -0.0193990415  -0.0062023865   0.0003093137  -0.0004899264
        0.0006599314   0.0011727058   0.0011961714  -0.0003990943  -0.0005441457
       -0.0005470903  -0.0000757960   0.0001571909   0.0001375762  -0.0000712436
       -0.0000490108  -0.0000562808  -0.0000623355   0.0000146817   0.0000069364
        0.0000209892  -0.0000032516  -0.0000005206   0.0000616264   0.0000422153
        0.0000503959   0.0000327880  -0.0000001570  -0.0000061091   0.0004257099
        0.0002002935   0.0002248173  -0.0009355518  -0.0003012159  -0.0003348051
        0.0001744240  -0.0000858500  -0.0000690457  -0.0000591899   0.0001057475
        0.0000982212   0.0000575869   0.0000480981   0.0000209638  -0.0001645649
       -0.0000057882  -0.0000228042   0.0001519660  -0.0000078013   0.0000041221
       -0.0000357651  -0.0000489555  -0.0000240060   0.0000082864   0.0000149306
       -0.0000020348  -0.0000104585  -0.0000053374   0.0000012000   0.0000074430
       -0.0000111580   0.0000008039  -0.0000027946  -0.0000021411   0.0000005024
        0.0000013572   0.0000019514  -0.0000002411  -0.0000002375   0.0000033299
       -0.0000029577  -0.0000039206  -0.0000042914   0.0000000866  -0.0000020521
        0.0000006173  -0.0000009344   0.0000004420   0.0000007985  -0.0000001155
       -0.0000019739  -0.0000024560   0.0000007964   0.0000016597   0.0000000567
        0.0000008261   0.0000001132   0.0000015225  -0.0000010702  -0.0000006196
       -0.0000016552   0.0000003507   0.0000009437  -0.0000003443   0.0000010911
        0.0000028783   0.0000003714   0.0000033693   0.0000024337   0.0000014278
       -0.0000016211  -0.0000044165   0.0000116757   0.0000027413   0.0000115385
       -0.0000251266   0.0000010830   0.0000131909   0.0000227745  -0.0000020496
       -0.0000048724  -0.0000116251  -0.0000014018   0.0000075599   0.0000095986
        0.0000008406  -0.0000030136   0.0000010647   0.0000004636   0.0000022421
       -0.0000031605   0.0000001999  -0.0000002997  -0.0000048515  -0.0000033394
       -0.0000036215   0.0000034387  -0.0000013215  -0.0000020091  -0.0000006898
       -0.0000009345  -0.0000000220  -0.0000009777  -0.0000006636  -0.0000020607
        0.0000023904  -0.0000001714   0.0000012346  -0.0000008703   0.0000014172
       -0.0000008742  -0.0000022408  -0.0000022084  -0.0000006851   0.0000020354
        0.0000003157   0.0000009844  -0.0000001448   0.0000008895   0.0000025407
       -0.0000013960   0.0000023116   0.0000019899  -0.0000030016  -0.0000015841
       -0.0000113691   0.0000037930  -0.0000047282   0.0000082600  -0.0000153910
        0.0000001892  -0.0000360009   0.0000521004   0.0000227787   0.0000631018
       -0.0000630692  -0.0000273778  -0.0001012008  -0.0000774033  -0.0000841138
       -0.0002767995  -0.0007108235  -0.0007185277   0.0037765972   0.0003326789
        0.0008528292  -0.0367290700   0.0190608768   0.0165542865   0.0066567964
       -0.0085002513  -0.0080543849  -0.3006589691   0.0045672278  -0.0106701638
        0.0065324748   0.0086720091   0.0088522311   0.0000095387  -0.0000029542
       -0.0000027665   0.0000070552   0.0000115952   0.0000119016  -0.0000005398
        0.0000137251   0.0000127217  -0.0000085326   0.0000048284   0.0000031471
        0.0000910073  -0.0000985495  -0.0000764858   0.0000059172  -0.0000180482
       -0.0000114680   0.0000127211  -0.0000025494  -0.0000040393  -0.0000008895
       -0.0000026170  -0.0000005955  -0.0000014641  -0.0000009994  -0.0000000351
       -0.0000015434  -0.0000006468  -0.0000004738  -0.0000006919  -0.0000011639
        0.0000002512   0.0000002613  -0.0000000919   0.0000003447  -0.0000003880
       -0.0000005771   0.0000004557  -0.0000001312  -0.0000012379   0.0000014599
        0.0000006136   0.0000001366   0.0000010784  -0.0000004067  -0.0000013061
        0.0000018255   0.0000004623  -0.0000005195   0.0000005497   0.0000005791
       -0.0000001417  -0.0000007814  -0.0000016190   0.0000002084  -0.0000004072
       -0.0000011638   0.0000007913   0.0000007836   0.0000001877  -0.0000005642
        0.0000001567  -0.0000007966  -0.0000001448  -0.0000003412   0.0000013380
        0.0000003970   0.0000004337   0.0000009772  -0.0000007884   0.0000007672
        0.0000004524   0.0000011922   0.0000018217  -0.0000001476   0.0000003859
        0.0000001513   0.0000011624   0.0000026560   0.0000019858  -0.0000000133
       -0.0000004067   0.0000012629  -0.0000229703   0.0000019666  -0.0000087368
        0.0008087031  -0.0000539281   0.0000161675  -0.0059650828   0.0004995477
       -0.0003156332
        0.0477492915  -0.1619756087  -0.1091028645  -0.0131212414   0.3854262454
        0.2648558262  -0.0429919883  -0.1614736395  -0.1145598751  -0.0573032946
        0.0125774821   0.0069977123   0.0025154756   0.0071273534  -0.0007650921
        0.0004584116  -0.0011025930  -0.0004232976   0.0002173987   0.0002230934
        0.0006447903   0.0000733837  -0.0000218832  -0.0000948818   0.0000362477
        0.0000316239   0.0000256850   0.0000232340  -0.0000032447   0.0000085385
        0.0000025695   0.0000021005   0.0000015228  -0.0000446753  -0.0000325789
       -0.0000281019  -0.0000086859   0.0000267523   0.0000313096  -0.0000378484
       -0.0002775911  -0.0006133310   0.0005212672   0.0002963759   0.0012680186
       -0.0002747836   0.0000262054  -0.0000489409   0.0000394137  -0.0000798537
       -0.0000686819  -0.0000603231  -0.0000734196  -0.0000349424   0.0002098327
       -0.0000215211  -0.0000057970  -0.0002231729   0.0000198673  -0.0000102437
        0.0000499826   0.0000761433   0.0000271809  -0.0000096852  -0.0000248449
        0.0000045305   0.0000174546   0.0000125574  -0.0000004741  -0.0000138473
        0.0000095428  -0.0000032499   0.0000050521   0.0000064116  -0.0000003001
        0.0000011745  -0.0000040244   0.0000027743  -0.0000018638  -0.0000003000
        0.0000003071   0.0000054910   0.0000057506  -0.0000010964  -0.0000041644
       -0.0000028404  -0.0000005031  -0.0000005731  -0.0000007199  -0.0000000348
       -0.0000012737  -0.0000012170  -0.0000000093   0.0000024273   0.0000007143
        0.0000006517  -0.0000025143   0.0000006982  -0.0000026997  -0.0000015072
       -0.0000008587  -0.0000002065   0.0000014320   0.0000001224   0.0000000262
       -0.0000013280   0.0000007420  -0.0000032614  -0.0000048176   0.0000017361
       -0.0000013298   0.0000011658  -0.0000163238  -0.0000016874  -0.0000160186
        0.0000313819  -0.0000026415  -0.0000252597  -0.0000268347   0.0000005849
        0.0000054345   0.0000113543   0.0000005088  -0.0000125925  -0.0000082649
       -0.0000005520   0.0000073953  -0.0000076901   0.0000016452  -0.0000024585
        0.0000061582  -0.0000018999  -0.0000005565   0.0000043183   0.0000037325
        0.0000072466  -0.0000047169   0.0000011173   0.0000017448   0.0000056023
        0.0000036436  -0.0000027333   0.0000011418  -0.0000022253   0.0000026552
       -0.0000012255   0.0000006224  -0.0000024848   0.0000019370  -0.0000013877
        0.0000007716   0.0000005546   0.0000009884  -0.0000007643   0.0000003095
       -0.0000014703   0.0000000830  -0.0000020029  -0.0000018046  -0.0000036559
        0.0000023655  -0.0000028700  -0.0000054771   0.0000028776  -0.0000009671
        0.0000178709  -0.0000128204   0.0000084645  -0.0000096898   0.0000273047
        0.0000003776   0.0000611093  -0.0000939805  -0.0000269101  -0.0001085195
        0.0000757759   0.0000371319   0.0000908690   0.0000998243   0.0000850757
       -0.0024341378  -0.0005090250  -0.0005607170  -0.0000632358  -0.0350312746
       -0.0289097172   0.0595780873   0.0139486654   0.0157710345   0.0084068602
       -0.0123354636  -0.0130945882   0.0045095373  -0.0391442121  -0.0042611932
       -0.0078449525  -0.0119706022  -0.0137120232  -0.0000110420   0.0000040733
        0.0000001534  -0.0000062788  -0.0000163411  -0.0000152366   0.0000023351
       -0.0000151598  -0.0000167237   0.0000082329  -0.0000020290   0.0000028435
       -0.0000108724   0.0000676176   0.0000610123   0.0000420258  -0.0000342312
       -0.0000438443  -0.0000252216   0.0000032681   0.0000046989   0.0000019889
        0.0000056908  -0.0000009840   0.0000011947  -0.0000033614   0.0000000789
        0.0000011288   0.0000013623  -0.0000000589  -0.0000006054  -0.0000003265
       -0.0000013711  -0.0000009755   0.0000009003  -0.0000017218  -0.0000009444
       -0.0000006529  -0.0000009312  -0.0000004515   0.0000002213  -0.0000005810
       -0.0000003420   0.0000002546  -0.0000021164   0.0000007535   0.0000009228
       -0.0000019133  -0.0000058028   0.0000015730  -0.0000012054  -0.0000047203
        0.0000003044   0.0000006603   0.0000022322   0.0000005450   0.0000015782
       -0.0000001617   0.0000008540  -0.0000010614   0.0000016250  -0.0000000590
        0.0000006536   0.0000024421   0.0000010069   0.0000013901  -0.0000001520
        0.0000009038   0.0000010734   0.0000006734  -0.0000007946  -0.0000002651
        0.0000014214  -0.0000015963  -0.0000005286   0.0000000137   0.0000058282
       -0.0000024609   0.0000026951  -0.0000083724  -0.0000034165  -0.0000146621
       -0.0000042901  -0.0000059402   0.0000127046   0.0000020507   0.0000114596
       -0.0001123789  -0.0003840006  -0.0001163003   0.0001328987   0.0045439241
       -0.0033008727
        0.0410490172  -0.1058883853  -0.1512021835   0.0188142454   0.2648558262
        0.3790881492  -0.0484384376  -0.1178080651  -0.1666380946  -0.0585635643
        0.0094033057   0.0078908077   0.0016708753  -0.0009032607   0.0072805540
        0.0004922150  -0.0004639650  -0.0010467629   0.0002603967   0.0005966688
        0.0002030347   0.0000608324  -0.0000948156  -0.0000046778   0.0000326388
        0.0000215063   0.0000321426   0.0000206859   0.0000059154   0.0000011184
        0.0000045835   0.0000012940   0.0000013111  -0.0000413199  -0.0000199316
       -0.0000340926  -0.0000083408   0.0000214247   0.0000310220  -0.0000651336
       -0.0005802501  -0.0002504775   0.0005543463   0.0011756238   0.0002654510
       -0.0002604068  -0.0000232983   0.0000012760   0.0000338102  -0.0000709012
       -0.0000648420  -0.0000582964  -0.0000629507  -0.0000385197   0.0001967945
       -0.0000221533  -0.0000054113  -0.0002053141   0.0000155037  -0.0000087194
        0.0000494458   0.0000753962   0.0000250079  -0.0000079201  -0.0000251949
        0.0000048060   0.0000195282   0.0000107287  -0.0000028037  -0.0000143825
        0.0000112750   0.0000017999   0.0000065993   0.0000058625  -0.0000016478
       -0.0000011815  -0.0000037969   0.0000036052   0.0000010030  -0.0000035328
        0.0000024736   0.0000059102   0.0000057281   0.0000016186  -0.0000011158
       -0.0000048840   0.0000011178  -0.0000008154  -0.0000025070   0.0000010704
        0.0000023319   0.0000013103   0.0000016817  -0.0000021667  -0.0000004879
        0.0000012195   0.0000005295  -0.0000014814   0.0000019869   0.0000009658
        0.0000012857   0.0000005602  -0.0000007378  -0.0000001398   0.0000003491
       -0.0000019328  -0.0000017940  -0.0000033061  -0.0000032764  -0.0000002574
        0.0000017042   0.0000018964  -0.0000150059  -0.0000053062  -0.0000176122
        0.0000273957   0.0000008720  -0.0000247741  -0.0000263512   0.0000048258
        0.0000040194   0.0000126107   0.0000020857  -0.0000122810  -0.0000075509
       -0.0000034845   0.0000080195  -0.0000065961  -0.0000008837  -0.0000036846
        0.0000046317   0.0000034033  -0.0000021783   0.0000021713   0.0000009107
        0.0000052567  -0.0000063996   0.0000047109  -0.0000010732   0.0000061848
        0.0000015057  -0.0000041622  -0.0000008214  -0.0000009003   0.0000004728
        0.0000005984   0.0000025384   0.0000020367  -0.0000006830  -0.0000019615
       -0.0000018953  -0.0000006219  -0.0000007574  -0.0000024336   0.0000014746
       -0.0000010184   0.0000011787  -0.0000018468   0.0000008302  -0.0000016379
        0.0000010862  -0.0000027909  -0.0000068473  -0.0000001137  -0.0000014058
        0.0000150566  -0.0000136775   0.0000081124  -0.0000118345   0.0000245366
       -0.0000013019   0.0000591740  -0.0000856829  -0.0000235093  -0.0000996769
        0.0000788902   0.0000287057   0.0000801733   0.0000728833   0.0000967888
       -0.0023528091  -0.0003887858  -0.0006612054   0.0004452599  -0.0288853829
       -0.0342348327   0.0565560455   0.0134733231   0.0179862487   0.0086378588
       -0.0140710231  -0.0119962807  -0.0107171868  -0.0042324280  -0.0394365438
       -0.0074413826  -0.0127750182  -0.0115474944  -0.0000107030   0.0000015700
        0.0000017604  -0.0000050625  -0.0000137942  -0.0000163606   0.0000016170
       -0.0000157208  -0.0000140063   0.0000083301   0.0000009144  -0.0000014230
       -0.0000057186   0.0000679836   0.0000428977   0.0000410483  -0.0000389773
       -0.0000411723  -0.0000257462   0.0000012203   0.0000030482   0.0000018942
        0.0000050565  -0.0000011489   0.0000012091  -0.0000031161  -0.0000006774
        0.0000015548  -0.0000000706   0.0000007820  -0.0000028093  -0.0000001901
        0.0000006633   0.0000007013  -0.0000005225   0.0000016667   0.0000014661
       -0.0000002965   0.0000010791   0.0000030513   0.0000001480  -0.0000004032
        0.0000007117   0.0000000192  -0.0000009108   0.0000017019   0.0000000923
       -0.0000010093  -0.0000052166   0.0000010735  -0.0000005615  -0.0000049141
       -0.0000007203   0.0000009676   0.0000016442  -0.0000004851   0.0000011801
        0.0000004027  -0.0000002968  -0.0000008641  -0.0000000909  -0.0000006124
        0.0000002841  -0.0000002009   0.0000002703   0.0000001777  -0.0000021977
        0.0000014963   0.0000020336   0.0000000398  -0.0000016105  -0.0000008888
        0.0000007879  -0.0000015830  -0.0000008209  -0.0000003347   0.0000059847
       -0.0000025171   0.0000022679  -0.0000080676  -0.0000039339  -0.0000133591
       -0.0000010475  -0.0000074386   0.0000105358   0.0000006539   0.0000131862
       -0.0000475842  -0.0001318807  -0.0003642157  -0.0006724174  -0.0032818912
        0.0046244353
        0.0587763484  -0.0210410813  -0.0175009978  -0.1530258711  -0.0429919883
       -0.0484384376   0.6379727115  -0.0157650456   0.0141470459  -0.3080001168
       -0.0091915023  -0.0238203021  -0.0278366009  -0.0160075230  -0.0173952382
       -0.0035535606   0.0046912796   0.0043229340  -0.0010188089  -0.0011809280
       -0.0012338469  -0.0002479649   0.0004110569   0.0003813274  -0.0003100653
       -0.0001576240  -0.0001856079  -0.0001405778  -0.0000334507  -0.0000506992
        0.0000216164  -0.0000705998  -0.0000685565   0.0000308279   0.0000049851
        0.0000098505   0.0003894469   0.0001438422   0.0001905678   0.0003593192
        0.0014386826   0.0014282764  -0.0031571388  -0.0026048895  -0.0028519854
        0.0009637451  -0.0001155637  -0.0000183926  -0.0001750072   0.0003363832
        0.0003043500   0.0002239526   0.0002118400   0.0001155160  -0.0006590717
        0.0000533631  -0.0000024077   0.0006362375  -0.0000221933   0.0000311187
       -0.0001492528  -0.0002147720  -0.0000898646   0.0000499654   0.0000528069
       -0.0000073187  -0.0000422065  -0.0000322736   0.0000044043   0.0000370686
       -0.0000324733   0.0000059361  -0.0000115149  -0.0000097778  -0.0000015247
        0.0000054397   0.0000126830  -0.0000023664   0.0000031788   0.0000087175
       -0.0000087454  -0.0000067570  -0.0000081168   0.0000010393  -0.0000066805
       -0.0000016091  -0.0000038771   0.0000041601   0.0000031669  -0.0000002091
       -0.0000014366   0.0000000085  -0.0000022347   0.0000034205   0.0000001686