$hessian                                                                        
        0.0710127048   0.2416290533   0.0295638972  -0.0767696354  -0.2258098878
       -0.0298631978   0.0154092629  -0.0202304265  -0.0022541010  -0.0066794990
       -0.0005922508   0.0000072698   0.0017020505   0.0002309340   0.0000098998
       -0.0012133740  -0.0018468489   0.0016851808   0.0000038861   0.0005325543
       -0.0001115303  -0.0003626345  -0.0000995955  -0.0000565595   0.0004500259
        0.0003546543  -0.0001090017  -0.0005178624   0.0007745267  -0.0000166023
        0.0020917882   0.0042172006   0.0009638905  -0.0019846420   0.0011684258
        0.0004362373   0.0007583447   0.0004291384   0.0000625779  -0.0024361944
       -0.0004556258  -0.0000253492   0.0028230496  -0.0019713657   0.0000483860
        0.0003212296   0.0011192327  -0.0001244582  -0.0001405758  -0.0006928532
       -0.0000235390  -0.0027270448   0.0017865182   0.0001509323   0.0018681660
        0.0001167038  -0.0000060650  -0.0006840743   0.0004936165  -0.0000405525
        0.0004126195   0.0001718938  -0.0000556999  -0.0002971120  -0.0000372189
        0.0000208450   0.0003771684  -0.0001397305  -0.0000102545  -0.0005902034
       -0.0005095872   0.0001382823   0.0013419842  -0.0002699923   0.0000204723
       -0.0002169725  -0.0009505829  -0.0001833403   0.0007998097  -0.0007745831
       -0.0002479618  -0.0026511929   0.0025272134   0.0004419859   0.0001202783
        0.0000660909  -0.0000096926  -0.0000881515   0.0001118275  -0.0000111306
       -0.0000082322   0.0000432787  -0.0000281280  -0.0000445564   0.0001428073
       -0.0000379052  -0.0021709184  -0.0013950958  -0.0001409532   0.0000396722
       -0.0000514607   0.0000207731  -0.0000037446  -0.0000590051  -0.0001910989
        0.0000233756  -0.0000133871   0.0000155444  -0.0000168713   0.0000185573
       -0.0000017211  -0.0000264512  -0.0000027259   0.0000030281  -0.0000167135
       -0.0000258511   0.0000041940   0.0000089121   0.0000005296  -0.0000039792
        0.0000929062   0.0000090627  -0.0000182650  -0.0000105778  -0.0000157450
       -0.0000223099
        0.2416290533   1.1733784542   0.1459274285  -0.2264533292  -1.1114843266
       -0.1355868592  -0.0137520258  -0.0721636247  -0.0094383183  -0.0196299154
        0.0118099478   0.0005988791   0.0090315428   0.0003557101   0.0002085062
       -0.0024292430  -0.0014831438   0.0000469107   0.0013639440  -0.0009756435
       -0.0000625977  -0.0009466448   0.0000594372   0.0000331404   0.0015985065
        0.0009783382  -0.0003012295  -0.0025329356   0.0028342535   0.0000955478
        0.0138044554  -0.0002793474   0.0012669579  -0.0032709740   0.0021488684
       -0.0002053793   0.0040680516   0.0039592160   0.0007151077  -0.0102870251
       -0.0020802634   0.0002771888   0.0126487871  -0.0086161188   0.0003172303
        0.0016707566   0.0055483065  -0.0006206409  -0.0006918521  -0.0033276155
       -0.0000634852  -0.0120493261   0.0077731353   0.0007809065   0.0081021566
        0.0006778768  -0.0000634900  -0.0030621345   0.0018302847  -0.0001089157
        0.0018455350   0.0005978580  -0.0002049518  -0.0012749632  -0.0001618800
        0.0000918267   0.0016357459  -0.0003936164  -0.0000899950  -0.0025052028
       -0.0019885455   0.0005594138   0.0064120221  -0.0026599238  -0.0003395191
       -0.0067305242  -0.0043003313  -0.0008309422   0.0006645536  -0.0008087462
       -0.0009393862   0.0043681053  -0.0016383107  -0.0014463754   0.0000489879
       -0.0000410728   0.0000137048   0.0000454808  -0.0000228018   0.0000469510
        0.0000420257  -0.0000252737  -0.0000613845  -0.0001202225   0.0000135694
       -0.0000331206  -0.0023436499   0.0003670519   0.0003035724  -0.0002233103
        0.0000112301  -0.0000070891  -0.0002475382  -0.0001223596  -0.0008864359
        0.0000857024   0.0000347085   0.0000183852  -0.0001139196   0.0001187891
       -0.0000375549  -0.0001198300  -0.0000016996  -0.0000007108  -0.0000831948
       -0.0001447335   0.0000329751   0.0000487810  -0.0000294066  -0.0000160565
       -0.0002584109   0.0000200464   0.0000046575   0.0000119785   0.0002317033
        0.0000051473
        0.0295638972   0.1459274285   0.0344193706  -0.0300584501  -0.1360085591
       -0.0479471311  -0.0032531734  -0.0089237288   0.0127046215  -0.0007420804
        0.0001481474   0.0011989280   0.0003411084  -0.0001576350   0.0003348481
       -0.0000064693   0.0008075656  -0.0000921640   0.0002347681  -0.0003649153
        0.0000066389   0.0000672538   0.0000572831  -0.0000282014   0.0000166232
       -0.0000043236   0.0000234477  -0.0000239939   0.0000369636   0.0000696299
        0.0027074582   0.0000674325   0.0013121573  -0.0003880680   0.0000455484
        0.0009471471   0.0004208239   0.0002746798   0.0000904895  -0.0004139826
       -0.0000447657  -0.0000195764   0.0001869424   0.0000561338   0.0000680892
        0.0000620341   0.0001795089  -0.0001595291  -0.0000303772  -0.0000884544
        0.0000249509   0.0000654830  -0.0000552540   0.0000429200  -0.0000973769
        0.0000083915   0.0000005093   0.0000337155  -0.0001149813   0.0000255990
       -0.0000382790  -0.0000844216   0.0000189156   0.0000277837  -0.0000043248
        0.0000042526  -0.0000353054   0.0000985846  -0.0000068180   0.0000499033
        0.0001120600  -0.0000219407   0.0005365768  -0.0000741214  -0.0001624535
       -0.0006923520  -0.0001983029  -0.0016108722   0.0001583936  -0.0003954623
       -0.0010636950   0.0016264685  -0.0012850032  -0.0003582433  -0.0000419817
       -0.0000052326   0.0000154028   0.0000405400  -0.0000378674   0.0000132115
        0.0000114050  -0.0000249562  -0.0000185326  -0.0000109559  -0.0000433619
       -0.0000112304  -0.0002232272   0.0001532907   0.0000072129  -0.0000447965
        0.0000343923  -0.0001000807  -0.0000015851  -0.0000004787  -0.0000062092
        0.0000102122   0.0000014763  -0.0000092418  -0.0000101213   0.0000144380
        0.0000088556  -0.0000137111  -0.0000044942  -0.0000069836  -0.0000152871
       -0.0000245606  -0.0000229183   0.0000107539  -0.0000064163  -0.0000203894
       -0.0000264036  -0.0000711762   0.0002692404  -0.0000041671  -0.0000005272
        0.0000597723
       -0.0767696354  -0.2264533292  -0.0300584501   0.1752828757   0.2904736234
        0.0371797046  -0.0766410499  -0.0447951651  -0.0044627279   0.0172129842
        0.0112344313   0.0007310248  -0.0047027554   0.0004146770  -0.0000609544
       -0.0003416841   0.0039974033  -0.0005845500  -0.0008780041   0.0000657497
       -0.0000214859   0.0005663406   0.0000861032  -0.0000313430  -0.0009061725
       -0.0006306432   0.0002192867   0.0011516404  -0.0016107615  -0.0000317706
       -0.0192954565  -0.0325704478  -0.0048851771  -0.0016881123  -0.0037714968
       -0.0005362814  -0.0014372465  -0.0015599422  -0.0004094774   0.0047970694
        0.0006053798  -0.0001834276  -0.0061186054   0.0045959241  -0.0001232855
       -0.0007366315  -0.0027081495   0.0003167310   0.0003210441   0.0016710071
        0.0000518724   0.0061969104  -0.0040487954  -0.0003858122  -0.0042696554
       -0.0002995227   0.0000327203   0.0015763433  -0.0011117865   0.0000872384
       -0.0009782124  -0.0004081100   0.0001293661   0.0006800731   0.0000842625
       -0.0000448677  -0.0008846810   0.0003215190   0.0000257964   0.0013397459
        0.0011533611  -0.0003093428  -0.0032000965  -0.0002455739  -0.0003402719
       -0.0033880514   0.0013852947   0.0001792889  -0.0025450573   0.0033224172
        0.0003639919  -0.0023198815   0.0002105598   0.0018644451  -0.0000732912
       -0.0000976120   0.0000192367   0.0000575622  -0.0001128645  -0.0000033327
       -0.0000071420  -0.0000391964   0.0000504959   0.0001020987  -0.0001879193
        0.0000482634  -0.0020242817   0.0007123512   0.0005802250   0.0001186193
        0.0000838208   0.0000159158   0.0000750800   0.0000909209   0.0004545594
       -0.0000314254   0.0000043029  -0.0000201678   0.0000442348  -0.0000463377
        0.0000100329   0.0000575420   0.0000037843  -0.0000000315   0.0000390178
        0.0000630157  -0.0000050275  -0.0000021331   0.0000138026   0.0000070338
       -0.0004074896  -0.0001104969   0.0000297746   0.0000275705   0.0002144393
        0.0001007810
       -0.2258098878  -1.1114843266  -0.1360085591   0.2904736234   1.4140185833
        0.1652346651  -0.0584121045  -0.2230049560  -0.0224884099   0.0370680520
       -0.0590115363  -0.0033794868  -0.0182432369  -0.0000795264  -0.0003286848
        0.0051491615   0.0043149082  -0.0016861919  -0.0020724657   0.0011279111
        0.0001018261   0.0017941057   0.0001623239  -0.0000538660  -0.0029622001
       -0.0016566107   0.0005569990   0.0048042225  -0.0053977707   0.0003218888
       -0.0424171857  -0.0186365656  -0.0053449207   0.0080314975  -0.0035233104
        0.0003593875  -0.0068732748  -0.0071655575  -0.0012812478   0.0174585748
        0.0035249326  -0.0004342039  -0.0209587263   0.0143626069  -0.0005523526
       -0.0027106836  -0.0092844163   0.0010591285   0.0011194764   0.0055557827
        0.0001410680   0.0198649533  -0.0128510984  -0.0013213250  -0.0133364267
       -0.0011136496   0.0001098364   0.0050051254  -0.0030242769   0.0001666260
       -0.0030386108  -0.0009952589   0.0003186155   0.0020933573   0.0002768716
       -0.0001548719  -0.0026955837   0.0006366159   0.0001509375   0.0040942307
        0.0032651447  -0.0008974467  -0.0113348036   0.0038426592   0.0003710309
        0.0095676862   0.0083598614   0.0013462857   0.0022940832  -0.0029625249
        0.0018127005  -0.0019587718   0.0008327071   0.0007054740  -0.0002338018
       -0.0000186576  -0.0000364413  -0.0000798872  -0.0000121787  -0.0000530777
       -0.0001462974   0.0000556664   0.0001063583   0.0000476164   0.0001569307
        0.0000138655   0.0026299853  -0.0001935035  -0.0004639486   0.0005182734
        0.0000089278  -0.0000175807   0.0004218082   0.0001759724   0.0014407852
       -0.0001339759  -0.0000678048  -0.0000449454   0.0001859795  -0.0002051125
        0.0000348165   0.0002061393   0.0000061357  -0.0000037870   0.0001436173
        0.0002422089  -0.0000345416  -0.0000653698   0.0000618943   0.0000419241
        0.0003151716  -0.0000841841   0.0000607247   0.0001965534  -0.0002158185
        0.0001309460
       -0.0298631978  -0.1355868592  -0.0479471311   0.0371797046   0.1652346651
        0.0897807337   0.0031490026  -0.0259644817  -0.0499542767  -0.0045797173
       -0.0001941107   0.0004598281   0.0019160935   0.0004273083  -0.0018799892
        0.0004457872  -0.0015658103   0.0003485609   0.0003242393   0.0000217663
        0.0001314580  -0.0002354642  -0.0000416805   0.0000327958   0.0002832181
        0.0001783255  -0.0001049098  -0.0006949251   0.0004250901  -0.0002632958
       -0.0102491451  -0.0034193827   0.0001790481   0.0019962157  -0.0002155252
       -0.0025556761  -0.0008444361  -0.0000374567  -0.0004555074  -0.0006340341
       -0.0001912100   0.0002191152   0.0021738245  -0.0024850481   0.0000427656
        0.0003087494   0.0010307625   0.0000344249  -0.0001226024  -0.0006132792
       -0.0001135030  -0.0031819160   0.0020877916   0.0000580661   0.0023718373
        0.0001098254  -0.0000069760  -0.0008756148   0.0009009282  -0.0000563861
        0.0005900637   0.0004644670  -0.0001390413  -0.0004338074  -0.0000485665
        0.0000273187   0.0005628292  -0.0004379819   0.0000397240  -0.0007909511
       -0.0009004095   0.0001826286  -0.0007905839  -0.0003399056   0.0003479506
        0.0010223744  -0.0000385221   0.0067711765   0.0000519945   0.0010005452
        0.0054110415   0.0002469851   0.0000248335  -0.0000599278   0.0000275167
        0.0000291992  -0.0000025122  -0.0000285927   0.0000340792  -0.0000149343
       -0.0000209887   0.0000214215  -0.0000053457   0.0000040211   0.0000686426
        0.0000408323   0.0005562488  -0.0002291362   0.0005713698   0.0001053179
       -0.0001282031   0.0004398783  -0.0000517025  -0.0000107694  -0.0001656597
       -0.0000196948  -0.0000205569   0.0000148043   0.0000250971  -0.0000189320
        0.0000154457   0.0000147668  -0.0000026499   0.0000090245   0.0000197037
        0.0000139084  -0.0000200080  -0.0000118630  -0.0000050551   0.0000103582
        0.0000314020   0.0002929237  -0.0011040403   0.0000222440   0.0001290492
       -0.0003192290
        0.0154092629  -0.0137520258  -0.0032531734  -0.0766410499  -0.0584121045
        0.0031490026   0.5293762769   0.0102493799   0.0138699765  -0.1166335530
        0.0907731963  -0.0051253826  -0.0696393667   0.0178893137  -0.0005239869
        0.0115274158   0.0119677282  -0.0027988093  -0.0058617448   0.0030524681
       -0.0004045889   0.0041785057   0.0005902979  -0.0003260801  -0.0074149066
       -0.0022002526   0.0006454453   0.0081728179  -0.0123354368   0.0019511865
       -0.2251641744  -0.0349779942  -0.0124156980  -0.0559762516   0.0187471537
        0.0012493526   0.0082607191   0.0027837775   0.0011304047   0.0117856515
        0.0027295896  -0.0020515745  -0.0349644739   0.0379488498  -0.0005506524
       -0.0061192936  -0.0209428979   0.0022371614   0.0028206997   0.0126469676
        0.0001439651   0.0480278794  -0.0306452767  -0.0026742651  -0.0350122137
       -0.0022285290   0.0002533866   0.0131862484  -0.0114620768   0.0010080645
       -0.0085603622  -0.0053988587   0.0017127157   0.0062611195   0.0006298425
       -0.0003904725  -0.0080228897   0.0048391055  -0.0003223452   0.0115887546
        0.0116384524  -0.0030465439   0.0065520568   0.0014236417   0.0001299708
       -0.0333094143  -0.0330427640  -0.0047330193   0.0058444215  -0.0024123561
        0.0078278728  -0.0002946149  -0.0000970049   0.0001077245   0.0000645333
        0.0000723127  -0.0000694720   0.0000888292   0.0000152032   0.0000748538
       -0.0004044088  -0.0000303672   0.0000527217  -0.0000532377   0.0000663535
        0.0000427027   0.0009804981  -0.0016274807  -0.0001534900  -0.0007315763
       -0.0002533688   0.0002154148   0.0006772683   0.0002953121   0.0036452262
        0.0000339053   0.0001506944  -0.0000306892  -0.0000494862   0.0000154426
        0.0001341854   0.0000512172  -0.0000108064  -0.0000645984  -0.0000527114
        0.0000148244  -0.0000848217   0.0000600064   0.0000613420  -0.0001209033
       -0.0002360226   0.0000116922  -0.0003785199   0.0001936649   0.0012166597
       -0.0000622476
       -0.0202304265  -0.0721636247  -0.0089237288  -0.0447951651  -0.2230049560
       -0.0259644817   0.0102493799   0.5737693808   0.0421693755   0.0622570859
       -0.1696479110   0.0036471301   0.0462209104   0.0048735149  -0.0000110406
       -0.0106153744  -0.0101001148   0.0018619198   0.0057477299  -0.0029600972
        0.0000351432  -0.0036867966  -0.0003555887   0.0002212806   0.0061252965
        0.0033216935  -0.0010709216  -0.0115451992   0.0109158608  -0.0001760454
       -0.0462316332  -0.0756681172  -0.0023143344   0.0163514676   0.0057327048
        0.0017796615   0.0092952704   0.0062675581  -0.0002544716  -0.0263010243
       -0.0061365635   0.0007399682   0.0379445076  -0.0282814200   0.0011686976
        0.0045958503   0.0143434513  -0.0025352227  -0.0019691314  -0.0086113528
        0.0000869558  -0.0399773071   0.0258298198   0.0025080129   0.0278498755
        0.0018833406  -0.0001594474  -0.0103200691   0.0082292164  -0.0006696102
        0.0065446977   0.0035675092  -0.0011358618  -0.0046721036  -0.0005026149
        0.0003061337   0.0060552948  -0.0030742574   0.0000720824  -0.0089002050
       -0.0084166015   0.0022129832   0.0107107284  -0.0112061172  -0.0029507169
       -0.0352391893  -0.0114345218  -0.0046640708   0.0164564504  -0.0278402481
       -0.0046111428  -0.0005840179  -0.0000487206   0.0000918946  -0.0000200024
       -0.0000467057   0.0001246903  -0.0000274382   0.0000392510   0.0000254997
       -0.0000446097   0.0000612710  -0.0001760732  -0.0001422090   0.0001218544
       -0.0001043951   0.0000758857   0.0005608331   0.0007414714   0.0009987035
        0.0000219405  -0.0001707347  -0.0007023743  -0.0002892612  -0.0029742399
        0.0000580480  -0.0000364594   0.0000710661  -0.0000779854   0.0001139928
       -0.0000797639  -0.0001382114   0.0000077114   0.0000340291  -0.0000570386
       -0.0001558162   0.0000518334  -0.0000181498  -0.0000960914   0.0000532470
       -0.0014204716  -0.0002868065   0.0002189099   0.0001789506   0.0007030633
        0.0007243176
       -0.0022541010  -0.0094383183   0.0127046215  -0.0044627279  -0.0224884099
       -0.0499542767   0.0138699765   0.0421693755   0.1056748742   0.0060429039
       -0.0019958069  -0.0374347662  -0.0026655370  -0.0017518792   0.0003324009
        0.0010044621   0.0008835866  -0.0014035334  -0.0007520376   0.0001401074
       -0.0006841693   0.0003564990  -0.0000773985  -0.0000231322  -0.0004499203
       -0.0005489947  -0.0001756294   0.0009747807   0.0006007064   0.0048815754
       -0.0073013349  -0.0055332370  -0.0430091312   0.0023469465   0.0012493303
        0.0021914450   0.0011550030  -0.0011934430   0.0033503186  -0.0002507858
        0.0000286792  -0.0005979313  -0.0004031725   0.0010482554  -0.0001793876
       -0.0001025572  -0.0004853809   0.0000283766   0.0000389604   0.0002759986
        0.0000722053   0.0011202845  -0.0006105887   0.0000585207  -0.0008602443
       -0.0000297528  -0.0000476997   0.0003081348  -0.0003451471  -0.0000318422
       -0.0002133800  -0.0001619204   0.0000674473   0.0001702463   0.0000145386
       -0.0000033436  -0.0002070063   0.0001723773   0.0000073596   0.0003018601
        0.0003342585  -0.0000431834   0.0006127673  -0.0020716154   0.0028999720
       -0.0073768367  -0.0027372423   0.0005186903  -0.0013126871   0.0016215078
        0.0028292756   0.0002458705   0.0000436550   0.0004038779   0.0000000851
        0.0000046221   0.0000460994   0.0000285674   0.0000650541   0.0003236309
        0.0000148147  -0.0000918385  -0.0004464315   0.0000057440  -0.0000393818
       -0.0000365431   0.0001178855   0.0005006779  -0.0012480927   0.0000855123
        0.0000439349  -0.0001229088   0.0000037044   0.0000039330   0.0000591814
        0.0000044423   0.0000035494  -0.0000213900  -0.0000089334   0.0000060384
       -0.0000084896  -0.0000053899  -0.0000005888  -0.0000040443  -0.0000063715
       -0.0000036157   0.0000196122   0.0000084859   0.0000022514   0.0000050024
       -0.0003100904  -0.0000890981   0.0000335223   0.0001251764   0.0004812203
       -0.0010320830
       -0.0066794990  -0.0196299154  -0.0007420804   0.0172129842   0.0370680520
       -0.0045797173  -0.1166335530   0.0622570859   0.0060429039   0.5713001621
        0.0016570107  -0.0249097304  -0.2300879310  -0.0129238568   0.0151656995
       -0.0520972759  -0.0407723332   0.0097591120   0.0176393911  -0.0113748927
        0.0014839993  -0.0118987343  -0.0008800301   0.0005849083   0.0171727986
        0.0127891494  -0.0037280446  -0.0637749651   0.0403024409  -0.0024813654
       -0.0694910781   0.0153915588   0.0030606641   0.0016119640  -0.0065849436
       -0.0009605507   0.0009978896   0.0099563590   0.0015558108  -0.0284523308
       -0.0064979862   0.0016275885   0.0480439889  -0.0399949680   0.0012852116
        0.0062001546   0.0198502704  -0.0032500370  -0.0027256432  -0.0120494349
        0.0001080827  -0.0548742617   0.0353262457   0.0032706984   0.0388107029
        0.0024621404  -0.0002932778  -0.0143875350   0.0122559561  -0.0010799588
        0.0092308977   0.0055949152  -0.0017587810  -0.0066693852  -0.0006928273
        0.0004187614   0.0086085227  -0.0049689876   0.0002833972  -0.0125693013
       -0.0124421837   0.0032261995   0.0080231455  -0.0063407303  -0.0006648264
       -0.0002006953   0.0040409589  -0.0009966521  -0.0714885838  -0.0830005376
        0.0014713777   0.0008726642   0.0009900769   0.0000831540  -0.0003472796
        0.0001146692   0.0002891924   0.0001366251  -0.0000297085   0.0000207827
       -0.0006282722  -0.0001169349  -0.0001670930   0.0008474502  -0.0019763489
        0.0003610883  -0.0002703995   0.0001433732   0.0000044384  -0.0004639477
        0.0000333204  -0.0001402592  -0.0007469437  -0.0003941135  -0.0040681578
        0.0000024089  -0.0001470791   0.0000458720   0.0000144617   0.0000279440
       -0.0001370474  -0.0000977617   0.0000060630   0.0000525452   0.0000205155
       -0.0000656062   0.0000837205  -0.0000835449  -0.0000985950   0.0001167513
        0.0000138929   0.0002016194   0.0002020173  -0.0020916983   0.0005128039
       -0.0006463976
       -0.0005922508   0.0118099478   0.0001481474   0.0112344313  -0.0590115363
       -0.0001941107   0.0907731963  -0.1696479110  -0.0019958069   0.0016570107
        0.5600804934  -0.0373334500  -0.0553098294  -0.0747781825   0.0043215864
       -0.0207448837   0.0046586869   0.0010798260  -0.0063366368  -0.0021837230
        0.0027625067   0.0026792922  -0.0001546040  -0.0000619550  -0.0014317718
       -0.0059262198   0.0026702195   0.0346734500  -0.0095858954  -0.0003044812
        0.0317196559   0.0096523844  -0.0007728864  -0.0059971275   0.0036679327
       -0.0005814963  -0.0010761990  -0.0050986785  -0.0006760935   0.0178634042
        0.0037286247  -0.0010634653  -0.0306166815   0.0258092946  -0.0007171055
       -0.0040459859  -0.0128263868   0.0021303344   0.0017835894   0.0077646169
       -0.0000841300   0.0352820612  -0.0227058980  -0.0021217135  -0.0250330691
       -0.0015800465   0.0001441693   0.0092748691  -0.0079445566   0.0007000786
       -0.0059525126  -0.0036321397   0.0011627312   0.0043197197   0.0004381655
       -0.0002737563  -0.0055719808   0.0032487420  -0.0001901156   0.0081204857
        0.0080450343  -0.0020965825  -0.0046542420   0.0045318054   0.0005704070
       -0.0010843282  -0.0045862283   0.0008702138  -0.0816496598  -0.2641581663
        0.0319391633  -0.0003049040   0.0003110635  -0.0008082696  -0.0013339866
       -0.0001294141  -0.0000030403   0.0001504510  -0.0000568140  -0.0003402778
        0.0014207530  -0.0002237586   0.0000843784   0.0026573167   0.0004529737
       -0.0006185295   0.0000129047  -0.0002360959   0.0000508928  -0.0001049659
       -0.0000182316   0.0002409952   0.0004984664   0.0002675346   0.0026347497
       -0.0000004895   0.0000913380  -0.0000493832  -0.0000090173  -0.0000170909
        0.0000805768   0.0000477142  -0.0000125346  -0.0000378938  -0.0000127894
        0.0000355383  -0.0000476466   0.0000509662   0.0000655499  -0.0000871674
        0.0000087299  -0.0000750406  -0.0002651202  -0.0023651559  -0.0000705733
       -0.0008664992
        0.0000072698   0.0005988791   0.0011989280   0.0007310248  -0.0033794868
        0.0004598281  -0.0051253826   0.0036471301  -0.0374347662  -0.0249097304
       -0.0373334500   0.1002310628   0.0125976978   0.0047394942  -0.0445891331
        0.0086988305   0.0026432980  -0.0006695696  -0.0002700133   0.0027236827
        0.0041296063   0.0005089601   0.0000159134  -0.0003076519  -0.0012002798
        0.0011573042   0.0046265335  -0.0020546442  -0.0010096883   0.0023598956
        0.0031728291   0.0014699170   0.0019937900  -0.0004783829  -0.0007735851
        0.0052300311   0.0000242466  -0.0002987400   0.0001855322   0.0014856799
        0.0001840787  -0.0002842980  -0.0028152953   0.0026197028   0.0000447793
       -0.0004029908  -0.0013739785   0.0000752812   0.0001583124   0.0008140517
        0.0000369422   0.0034264046  -0.0022230066  -0.0000715588  -0.0024449298
       -0.0001365944   0.0000252390   0.0009191929  -0.0007679203   0.0000015483
       -0.0005948010  -0.0003497899   0.0000983954   0.0004410475   0.0000517016
       -0.0000445350  -0.0005496676   0.0003103098  -0.0000253127   0.0008020301
        0.0007875645  -0.0001748234  -0.0003513503   0.0008540936  -0.0002488255
       -0.0008276360  -0.0011806163  -0.0015024792   0.0099637063   0.0270070170
       -0.0314622475   0.0000127261  -0.0006789693  -0.0013038275   0.0003421225
        0.0000443178   0.0000566116  -0.0000567621  -0.0002537204  -0.0009590244
       -0.0001913385   0.0000103067   0.0000314599  -0.0005508125  -0.0005345322
       -0.0015113919  -0.0000432301   0.0000962489  -0.0001941491  -0.0000913750
        0.0002313178  -0.0007852335   0.0000976443   0.0000438956   0.0001812534
       -0.0000008260   0.0000111682  -0.0000154870   0.0000017044  -0.0000018762
       -0.0000107786   0.0000065978   0.0000010013  -0.0000267700  -0.0000013807
        0.0000081393  -0.0000239760   0.0000032989   0.0000054345  -0.0000238714
        0.0000352672  -0.0000507789   0.0002495076  -0.0004757647   0.0002707648
        0.0004534848
        0.0017020505   0.0090315428   0.0003411084  -0.0047027554  -0.0182432369
        0.0019160935  -0.0696393667   0.0462209104  -0.0026655370  -0.2300879310
       -0.0553098294   0.0125976978   0.5881829573   0.0119630977  -0.0297266595
       -0.0983295962  -0.0703327603   0.0240665611  -0.0504974392  -0.0141297461
        0.0071634807   0.0173709715   0.0016327579  -0.0012978625  -0.0539866013
        0.0114936868   0.0001006728  -0.1035452154   0.0778533350  -0.0189796709
        0.0175241418   0.0044985984  -0.0009557869  -0.0014574830   0.0015939045
       -0.0001792465  -0.0033189888  -0.0072905600  -0.0010468637   0.0219946947
        0.0050819679  -0.0010276660  -0.0350186223   0.0278594598  -0.0009759902
       -0.0042715689  -0.0133246443   0.0024189273   0.0018669863   0.0081012990
       -0.0001258548   0.0388058736  -0.0250612832  -0.0023344042  -0.0273306654
       -0.0017184831   0.0001614372   0.0100706836  -0.0086411842   0.0007675755
       -0.0064515837  -0.0039226458   0.0012365939   0.0046536252   0.0004852218
       -0.0002883543  -0.0060109569   0.0034883505  -0.0001950746   0.0088030526
        0.0087594000  -0.0022601043  -0.0073522329   0.0055347538   0.0006914969
        0.0020653687  -0.0002505439   0.0009542679  -0.0144973886  -0.0062575211
        0.0078229920   0.0070721428   0.0116385525  -0.0046611596  -0.0056956561
       -0.0001501313   0.0003978821   0.0008861441   0.0000025960  -0.0001405760
       -0.0054894338   0.0000789236   0.0009414594   0.0057483395  -0.0105119602
        0.0024211307   0.0001549975  -0.0001737261  -0.0000526125   0.0000154799
       -0.0000745852   0.0000816730   0.0005470459   0.0002507708   0.0028929697
        0.0000064011   0.0001070934  -0.0000211560  -0.0000170500  -0.0000146606
        0.0001016971   0.0000752168   0.0000007547  -0.0000355893  -0.0000215890
        0.0000442111  -0.0000589404   0.0000649680   0.0000737812  -0.0000851365
        0.0000698101  -0.0000688663  -0.0001401277   0.0000411729  -0.0003186015
        0.0001786562
        0.0002309340   0.0003557101  -0.0001576350   0.0004146770  -0.0000795264
        0.0004273083   0.0178893137   0.0048735149  -0.0017518792  -0.0129238568
       -0.0747781825   0.0047394942   0.0119630977   0.5760278128  -0.1028860851
       -0.0536290592  -0.2248208887   0.0469309459  -0.0578970625   0.0157526723
       -0.0008342794   0.0016594593  -0.0375734508   0.0071513345   0.0529624681
        0.0163039911  -0.0069174429   0.0622072565  -0.2207085967   0.0339563350
        0.0030264722  -0.0029044399  -0.0001951260   0.0011185119   0.0002816794
        0.0002084901  -0.0001413059  -0.0006552548  -0.0001274694   0.0013563172
        0.0003817628  -0.0000531057  -0.0022490810   0.0018997049  -0.0000375021
       -0.0003019631  -0.0011207217   0.0001155150   0.0001174828   0.0006827059
        0.0000062067   0.0024838968  -0.0015959046  -0.0001309357  -0.0017339324
       -0.0001233726   0.0000060366   0.0006569964  -0.0004780268   0.0000350807
       -0.0004079159  -0.0001926617   0.0000646562   0.0002872996   0.0000354476
       -0.0000197582  -0.0003727798   0.0001608839   0.0000017284   0.0005629432
        0.0004942088  -0.0001321898  -0.0006391216   0.0004585138   0.0000204223
       -0.0003886867  -0.0001328414  -0.0003693160  -0.0265094083  -0.0078072066
        0.0030342126  -0.0099304102  -0.0239126696   0.0068481152   0.0006658935
        0.0018097298   0.0018335674   0.0000484445  -0.0004970252   0.0001378014
       -0.0008186717   0.0018477851   0.0021412251   0.0099164704  -0.0243277089
        0.0055134344  -0.0000136467   0.0000785681   0.0000061494   0.0001099942
        0.0000090975  -0.0000122206   0.0000243732   0.0000135257   0.0001828647
       -0.0000148529  -0.0000012235  -0.0000021295   0.0000068081  -0.0000121454
        0.0000076746   0.0000131228   0.0000007265  -0.0000036502   0.0000075399
        0.0000107105  -0.0000066132  -0.0000024124   0.0000090912  -0.0000024034
        0.0000409332   0.0000143156   0.0000104611   0.0002034608   0.0002196897
        0.0002606813
        0.0000098998   0.0002085062   0.0003348481  -0.0000609544  -0.0003286848
       -0.0018799892  -0.0005239869  -0.0000110406   0.0003324009   0.0151656995
        0.0043215864  -0.0445891331  -0.0297266595  -0.1028860851   0.1509726042
        0.0173304157   0.0471877358  -0.0655035383   0.0160561607  -0.0016665268
        0.0020078959  -0.0017092295   0.0065947527  -0.0085782335  -0.0097386302
       -0.0034278847   0.0039335026  -0.0110842462   0.0324678798  -0.0584429669
       -0.0001802574   0.0001333042   0.0040873372  -0.0004681398   0.0000786340
       -0.0000657060   0.0001046532   0.0001281953  -0.0000385087  -0.0002653290
        0.0000127880   0.0000787857   0.0002925199  -0.0001865452  -0.0000459545
        0.0000368229   0.0001219011  -0.0000105431  -0.0000075885  -0.0000696573
       -0.0000022290  -0.0003373201   0.0001681256   0.0000276164   0.0001946279
        0.0000076704  -0.0000294122  -0.0000835796   0.0000511519   0.0000025220
        0.0000476113   0.0000153866   0.0000128558  -0.0000466812  -0.0000039217
        0.0000129186   0.0000447096  -0.0000099756   0.0000238031  -0.0000712108
       -0.0000568903   0.0000001520   0.0001774538  -0.0000743408   0.0000032908