$hessian                                                                        
        0.3349638666   0.1985399762  -0.1705528056  -0.1110567312  -0.0231359998
        0.0864042692   0.0214701384   0.0414308525   0.0107125598  -0.0262400501
       -0.0101369474   0.0265727335  -0.0004962502   0.0004777390  -0.0012290177
       -0.0000459221  -0.0002210289  -0.0000650118  -0.0000157100   0.0003288013
        0.0005161685   0.0003019680  -0.0003335126  -0.0003155632  -0.0004922228
        0.0001607633   0.0004462004   0.0001739611  -0.0002661153  -0.0005865286
        0.0001091591   0.0000084401   0.0000256676  -0.0002731560  -0.0001017079
       -0.0000516543   0.0000185500   0.0000483442   0.0000034022  -0.0002076577
       -0.0000434837  -0.0000229272   0.0002220704  -0.0000285129   0.0000265866
       -0.0000057822   0.0000985901   0.0000080023   0.0002567085  -0.0001154243
        0.0000139149  -0.0000503627   0.0000245764   0.0000042823  -0.0001531100
        0.0000066631  -0.0000249414   0.0001512384  -0.0000517633   0.0000834271
       -0.0001780956  -0.0000757258   0.0000744826   0.0003720596   0.0000117149
        0.0000401345  -0.0003788102   0.0000573114  -0.0000788804   0.0001588043
       -0.0001074234   0.0001484431  -0.0000937325  -0.0000082604  -0.0000003419
        0.0000055098  -0.0000141791   0.0000121947   0.0000225107   0.0000331634
       -0.0000270177   0.0000601115  -0.0000532660   0.0000526909  -0.0000971752
        0.0000041884  -0.0000175758   0.0000683180   0.0000167990  -0.0000322299
        0.0000449945   0.0001183863  -0.0001157843   0.0000258398  -0.0000929330
        0.0000684857   0.0000104670   0.0000340095  -0.0000315515   0.0000157039
       -0.0000296444   0.0000071966  -0.0000086667   0.0000190812  -0.0000058605
        0.0000040578  -0.0000209527   0.0000141682  -0.0000351444   0.0000385334
       -0.0000098636  -0.0001654813   0.0000710201  -0.0001086833   0.0001465294
        0.0000521728  -0.0000442634   0.0002768916   0.0000706632   0.0000135220
       -0.0000117202  -0.0000760021  -0.0000124198   0.0002415491   0.0000402833
       -0.0000005105  -0.0002564179   0.0000611199   0.0000118325   0.0000323687
       -0.0000982800   0.0000009862  -0.0002750642   0.0000885478   0.0000244211
        0.0000595511   0.0001602533   0.0002054167   0.0001947316  -0.0001044725
       -0.0003027127   0.0003009419   0.0001680219   0.0002709768  -0.0002500425
        0.0001735054   0.0000986132   0.0001010946  -0.0000158714  -0.0000264720
       -0.0000977580   0.0000841430   0.0000375865   0.0000247056   0.0000177855
       -0.0000975881   0.0000489428  -0.0001346484   0.0000616768  -0.0000893873
       -0.0000196209  -0.0002425129  -0.0037332637  -0.0444387894  -0.0389569511
       -0.1597114510  -0.1021981127   0.0840660475  -0.0472666225  -0.0442967524
       -0.0241932170  -0.0093444569   0.0002299442   0.0178067049   0.0050511994
       -0.0037488549   0.0011950766  -0.0001137540   0.0001441421  -0.0000046239
        0.0000125055  -0.0000128848  -0.0000092446  -0.0000162629  -0.0000185638
       -0.0000082519   0.0000171709   0.0000167665  -0.0000063928   0.0000044826
        0.0000067755   0.0000003675  -0.0000008694  -0.0000019919  -0.0000010502
       -0.0000079217   0.0000005526   0.0000059728   0.0000013157   0.0000046298
        0.0000002846   0.0000011395  -0.0000039258   0.0000030919   0.0000081669
       -0.0000036993   0.0000023047  -0.0000002430   0.0000032099   0.0000001266
       -0.0000005394  -0.0000001364  -0.0000044613   0.0000000661  -0.0000020780
        0.0000020974   0.0000002770   0.0000000687  -0.0000047140  -0.0000019249
        0.0000040272  -0.0000038220  -0.0000039548   0.0000046017   0.0000026445
        0.0000000187  -0.0000080089   0.0000031975  -0.0000024440  -0.0000061459
       -0.0000066963  -0.0000066152  -0.0000009785  -0.0000129484   0.0000062597
        0.0000069539  -0.0000014368   0.0000020997  -0.0000031713  -0.0000024931
       -0.0000022668  -0.0000015408  -0.0000002807  -0.0000016280  -0.0000073432
        0.0000012000   0.0000038730  -0.0000093297   0.0000100146   0.0000032481
       -0.0000143887  -0.0000002972   0.0000041913  -0.0000014647  -0.0000093330
        0.0000099037  -0.0000147170   0.0000167198   0.0000092372  -0.0000187515
       -0.0000026979   0.0001177066  -0.0000276011   0.0000312798   0.0051107383
       -0.0032801879   0.0015049676  -0.0090582743  -0.0094619272   0.0066194892
        0.1985399762   0.5432631620   0.1236367308   0.0107374166  -0.0866939282
       -0.0626605305   0.0157890323   0.0084752870  -0.0217859558  -0.0092961927
       -0.0042318628   0.0198262090  -0.0006354361  -0.0011356602  -0.0014219448
        0.0000423232  -0.0007641990  -0.0002520030  -0.0001860075   0.0001297016
        0.0002493364   0.0002443312  -0.0001158451  -0.0000447586  -0.0003664350
        0.0001654294   0.0003268702   0.0001941235  -0.0000985065  -0.0002228776
        0.0002021850  -0.0000177567   0.0000606120  -0.0005246862  -0.0001787627
       -0.0001045960   0.0000532041   0.0001438897   0.0000229800  -0.0004409156
       -0.0000857030  -0.0000519416   0.0004239244  -0.0000614818   0.0000496511
       -0.0000206190   0.0001844310   0.0000074070   0.0005043149  -0.0001959456
        0.0000314634  -0.0000981483   0.0000180070   0.0000037645  -0.0003183119
        0.0000119529  -0.0000492721   0.0003193873  -0.0001020001   0.0001669731
       -0.0003889565  -0.0001626090   0.0001690262   0.0008131125   0.0000285469
        0.0000857461  -0.0008488994   0.0001213873  -0.0001779888   0.0003603580
       -0.0002443937   0.0003368672  -0.0002086053  -0.0000140684  -0.0000014644
        0.0000038259  -0.0000274976   0.0000246025   0.0000538857   0.0000835967
       -0.0000687023   0.0001409592  -0.0001290341   0.0001257634  -0.0002259185
        0.0000040869  -0.0000409550   0.0001558697   0.0000349752  -0.0000686818
        0.0001076371   0.0002662623  -0.0002645529   0.0000576938  -0.0002068189
        0.0001568131   0.0000229537   0.0000766445  -0.0000717996   0.0000338052
       -0.0000656186   0.0000185679  -0.0000196977   0.0000423626  -0.0000102920
        0.0000070323  -0.0000459496   0.0000346558  -0.0000811875   0.0000883217
       -0.0000212097  -0.0003589579   0.0001519136  -0.0002405391   0.0003060554
        0.0001002745  -0.0000872155   0.0005102725   0.0001754686   0.0000251963
       -0.0000211702  -0.0001659933  -0.0000230161   0.0004377546   0.0000863912
        0.0000000590  -0.0004529525   0.0000928413   0.0000165270   0.0000409002
       -0.0001369746   0.0000056168  -0.0005005505   0.0001449199   0.0000347253
       -0.0001650893   0.0000946996  -0.0000872613   0.0002834781  -0.0000000895
       -0.0002751922   0.0007078466   0.0004603219   0.0007577949  -0.0006111270
        0.0003873949   0.0001999619   0.0003718660  -0.0000483923  -0.0000215409
       -0.0003497093   0.0002749876   0.0002353122  -0.0000744264  -0.0002500131
       -0.0002695698   0.0001064785   0.0000828779   0.0000582574   0.0000943616
        0.0003151180  -0.0005064657  -0.0184351958  -0.0521718090  -0.0244210589
       -0.1362646868  -0.1965674055   0.0759434248  -0.0441818243  -0.2107578846
       -0.1181920397  -0.0101217734   0.0011675171   0.0185797650  -0.0036417435
       -0.0018454376  -0.0047894684   0.0000771105  -0.0001831508   0.0000003610
        0.0000552647   0.0000010224  -0.0000049463  -0.0000161982  -0.0000442160
       -0.0000218282   0.0000381087   0.0000252155   0.0000018948   0.0000059116
        0.0000084823   0.0000049678   0.0000021644  -0.0000118595   0.0000015344
       -0.0000148542   0.0000023100   0.0000135724   0.0000043908   0.0000100758
       -0.0000012957   0.0000031907  -0.0000121806   0.0000073327   0.0000214456
       -0.0000109964   0.0000071122   0.0000020971   0.0000071407   0.0000010583
       -0.0000013251   0.0000020460  -0.0000068166   0.0000002840  -0.0000085163
        0.0000051220   0.0000016492   0.0000030045  -0.0000100207  -0.0000037447
        0.0000096550  -0.0000056860  -0.0000072940   0.0000098121   0.0000078812
        0.0000018265  -0.0000218934   0.0000052067  -0.0000032240  -0.0000127062
       -0.0000123639  -0.0000111263  -0.0000001302  -0.0000272043   0.0000149447
        0.0000159930  -0.0000018213   0.0000056634  -0.0000098186  -0.0000053248
       -0.0000056886  -0.0000057505  -0.0000035589  -0.0000031920  -0.0000147159
       -0.0000029588   0.0000148336  -0.0000245694   0.0000326876   0.0000043037
       -0.0000190698   0.0000133766   0.0000041915   0.0000160343  -0.0000350716
        0.0000046362  -0.0000040092   0.0000112266  -0.0000012754  -0.0000286346
        0.0000020698   0.0000359624  -0.0000940952  -0.0000306244  -0.0035658206
       -0.0017724845  -0.0044929206   0.0005086222   0.0020168757  -0.0004107484
       -0.1705528056   0.1236367308   0.5537701253   0.1246210907  -0.0010932667
       -0.2694462692  -0.0184782200  -0.0664821468  -0.0427076761   0.0251255094
        0.0202903254  -0.0311566311  -0.0003741115  -0.0020366211   0.0004690091
        0.0002899278  -0.0004087454  -0.0001418660  -0.0002480585  -0.0006457973
       -0.0008132797  -0.0000463924   0.0003725711   0.0005407462   0.0004179819
       -0.0001372123  -0.0004878657  -0.0000319763   0.0003865627   0.0008730989
       -0.0000056918  -0.0000250435   0.0000350076  -0.0000503538  -0.0000139115
       -0.0000283843   0.0000223860   0.0000547108   0.0000356690  -0.0000795110
       -0.0000228021  -0.0000123795   0.0000419220  -0.0000100285   0.0000001596
       -0.0000227274   0.0000075291   0.0000165892   0.0000562099   0.0000108844
       -0.0000009868  -0.0000118077  -0.0000231730  -0.0000031016  -0.0000595724
        0.0000032287  -0.0000122125   0.0000718352  -0.0000103983   0.0000265786
       -0.0000904104  -0.0000418517   0.0000323732   0.0001965577   0.0000057745
        0.0000174199  -0.0002189059   0.0000360454  -0.0000337223   0.0000909663
       -0.0000751789   0.0000821553  -0.0000476653   0.0000023155  -0.0000039599
       -0.0000041767  -0.0000064111   0.0000009512   0.0000187788   0.0000271338
       -0.0000246986   0.0000372327  -0.0000387367   0.0000379445  -0.0000655516
        0.0000068161  -0.0000068180   0.0000436803   0.0000070442  -0.0000123556
        0.0000285467   0.0000704053  -0.0000696199   0.0000152781  -0.0000574668
        0.0000428240   0.0000056916   0.0000244295  -0.0000192088   0.0000082084
       -0.0000170220   0.0000063343  -0.0000057392   0.0000117832  -0.0000014301
        0.0000021737  -0.0000110416   0.0000093978  -0.0000219769   0.0000280256
       -0.0000050330  -0.0000885709   0.0000409877  -0.0000490317   0.0000666856
        0.0000146756  -0.0000151476   0.0000129150   0.0000487650  -0.0000086654
        0.0000010371  -0.0000312208   0.0000077518   0.0000067202   0.0000215297
        0.0000004877  -0.0000027985  -0.0000069125  -0.0000008277   0.0000048330
        0.0000302122   0.0000102465  -0.0000148118  -0.0000094555  -0.0000202545
       -0.0003369731  -0.0002156294  -0.0005293628  -0.0000367407   0.0001878416
        0.0003058990   0.0002176724   0.0002037359   0.0003860294  -0.0002675726
        0.0000868366   0.0000134964   0.0002483862  -0.0000455031   0.0000186533
       -0.0002080235   0.0001721888   0.0001964548  -0.0001658105  -0.0003112702
       -0.0000770887   0.0001633859   0.0002658252   0.0000015730   0.0003062278
        0.0003709376  -0.0002197642  -0.0111409622   0.0202871689   0.0435521708
        0.0463861373   0.0147960213  -0.1126674630  -0.0242712426  -0.1181486206
       -0.1212827644   0.0069791062  -0.0000652673  -0.0103261079   0.0015084185
       -0.0043604056   0.0005596498   0.0002206433  -0.0003795751   0.0000499890
        0.0000805231   0.0000117771   0.0000279454   0.0000149728  -0.0000332620
       -0.0000426274   0.0000157886   0.0000140274  -0.0000024312   0.0000046783
        0.0000030535   0.0000026763   0.0000056041  -0.0000057147   0.0000019621
       -0.0000045506  -0.0000040865   0.0000065662   0.0000037871   0.0000026657
        0.0000008446   0.0000014955  -0.0000006770   0.0000058543   0.0000084777
       -0.0000030315   0.0000027008   0.0000002201   0.0000032998   0.0000012375
        0.0000002074  -0.0000043510  -0.0000049160   0.0000020655   0.0000009817
        0.0000028286   0.0000026970  -0.0000047719  -0.0000043180  -0.0000018247
        0.0000021777  -0.0000044000  -0.0000020393  -0.0000016688   0.0000010633
        0.0000005215  -0.0000022504   0.0000029853  -0.0000011332  -0.0000021623
       -0.0000005178  -0.0000025276  -0.0000012685  -0.0000045872   0.0000031035
        0.0000038412   0.0000007494   0.0000030107  -0.0000049238   0.0000000797
       -0.0000013044  -0.0000048304  -0.0000033744  -0.0000058763  -0.0000018812
       -0.0000064827   0.0000108878   0.0000006835   0.0000201126   0.0000006806
        0.0000117387   0.0000235166  -0.0000020153   0.0000191959  -0.0000170495
       -0.0000064542   0.0000325023  -0.0000149048  -0.0000092724   0.0000021675
        0.0000122699  -0.0001476654   0.0000797317  -0.0000174894   0.0014219599
       -0.0049050377   0.0003557600   0.0183369970   0.0180137475  -0.0112608633
       -0.1110567312   0.0107374166   0.1246210907   0.3447521341   0.2073386689
       -0.1782124327  -0.0742461310  -0.0733301804  -0.0295381602  -0.0048429101
       -0.0162897936  -0.0124647460   0.0013482991  -0.0064063875   0.0026120844
       -0.0001606530  -0.0005835864   0.0000963487  -0.0003816637  -0.0000007929
       -0.0001625511   0.0001442821   0.0002801650   0.0000460052   0.0000689451
        0.0000084621  -0.0000132755   0.0000527915   0.0000960916   0.0003050821
        0.0000204887   0.0000106630   0.0000335146  -0.0000753675  -0.0000420614
       -0.0000290166   0.0000649178   0.0000035218   0.0000054604  -0.0000587993
        0.0000021865  -0.0000155805   0.0000799765  -0.0000163070   0.0000128484
        0.0000011885   0.0000039839   0.0000071575   0.0000914048  -0.0000104548
       -0.0000002130  -0.0000037015   0.0000056961   0.0000025906   0.0000288419
       -0.0000033514   0.0000053858  -0.0000455030   0.0000079486  -0.0000343211
        0.0000648970   0.0000244208  -0.0000350220  -0.0001243035  -0.0000041061
       -0.0000154255   0.0001383769  -0.0000199177   0.0000267524  -0.0000554105
        0.0000513698  -0.0000606428   0.0000261931  -0.0000014943  -0.0000002114
        0.0000075017   0.0000040888  -0.0000037401  -0.0000141697  -0.0000219917
        0.0000184749  -0.0000270275   0.0000264546  -0.0000271503   0.0000439803
       -0.0000028936   0.0000080147  -0.0000351366   0.0000037958   0.0000018711
       -0.0000228661  -0.0000510513   0.0000541186  -0.0000110491   0.0000332327
       -0.0000266924  -0.0000042207  -0.0000133963   0.0000156140  -0.0000052796
        0.0000096908  -0.0000028489   0.0000038641  -0.0000068174   0.0000020981
        0.0000018328   0.0000093263  -0.0000053011   0.0000147760  -0.0000160239
        0.0000037577   0.0000584163  -0.0000271358   0.0000484278  -0.0000416844
       -0.0000043255   0.0000196273   0.0000543280   0.0000093206   0.0000040590
        0.0000074056  -0.0000252560  -0.0000014569   0.0000489020   0.0000067879
        0.0000012075  -0.0000511187   0.0000040101   0.0000023447   0.0000019318
       -0.0000120548   0.0000004217  -0.0000478969  -0.0000006863   0.0000011472
       -0.0002766286  -0.0000797642  -0.0002599384   0.0002640096  -0.0000521418
       -0.0001130198  -0.0002362346  -0.0000552804  -0.0003331003   0.0003519758
        0.0000544567  -0.0002347224  -0.0000082664   0.0000542714  -0.0000270262
       -0.0000623271  -0.0000023583   0.0000276157   0.0000119763  -0.0000125663
       -0.0000637035  -0.0000762727   0.0001796701   0.0000818458   0.0002382063
       -0.0000795442   0.0006987415  -0.0022806008   0.0080791246   0.0046174095
       -0.0223886088  -0.0178693943   0.0226497709   0.0023480709  -0.0006197937
       -0.0043071557  -0.1385193273  -0.1160881286   0.0585338679   0.0024570550
        0.0097125391   0.0076980073   0.0000062033  -0.0000280377   0.0001391420
        0.0000277767   0.0000085995   0.0000056085   0.0000112435   0.0000446456
       -0.0000079478  -0.0000336200   0.0000092992  -0.0000033743  -0.0000171520
       -0.0000012024  -0.0000023611  -0.0000050360   0.0000021222  -0.0000010591
        0.0000015080  -0.0000000541  -0.0000005692  -0.0000008862   0.0000058037
       -0.0000011912   0.0000008581   0.0000030011  -0.0000010851  -0.0000028179
        0.0000007006  -0.0000008816  -0.0000094171  -0.0000004139   0.0000008890
       -0.0000024441  -0.0000065499   0.0000043629  -0.0000017980   0.0000011615
        0.0000004036  -0.0000007129   0.0000004832   0.0000025552  -0.0000018605
        0.0000002510   0.0000017940  -0.0000014489  -0.0000001968   0.0000005087
       -0.0000001804   0.0000008618   0.0000030837  -0.0000088901  -0.0000030004
        0.0000030681   0.0000004422   0.0000029796   0.0000014123  -0.0000017805
        0.0000025771  -0.0000004850  -0.0000019382   0.0000015524  -0.0000015782
       -0.0000012886   0.0000028883  -0.0000026657   0.0000010138  -0.0000073231
       -0.0000032292  -0.0000055058   0.0000067613   0.0000154344  -0.0000117570
        0.0000005029   0.0000219505   0.0000177957   0.0000221222   0.0000000854
        0.0000047866  -0.0000029129   0.0000075256   0.0000196828   0.0000001386
        0.0000060821  -0.0000385204  -0.0000827296  -0.0000123429   0.0001937957
        0.0004901295  -0.0002570828   0.0022248684  -0.0054824872   0.0038066385
       -0.0231359998  -0.0866939282  -0.0010932667   0.2073386689   0.5429976396
        0.1038165669  -0.0392430707  -0.2433386209  -0.1488027291  -0.0404792265
       -0.0528463011   0.0176596408  -0.0048760323   0.0035673850   0.0016795451
        0.0012260419   0.0004345810  -0.0002281677  -0.0006843419   0.0003980073
        0.0003653564   0.0003067786   0.0002018165  -0.0005083375  -0.0002253743
        0.0000874848   0.0002904713   0.0000198560  -0.0001722285  -0.0002706954
       -0.0001135327   0.0000254521  -0.0000187301   0.0005847750   0.0001192723
        0.0000877645  -0.0000546613  -0.0001726613  -0.0000221278   0.0004773265
        0.0001112566   0.0000479138  -0.0004719943   0.0000514988  -0.0000565624
        0.0000596858  -0.0001993241  -0.0000163357  -0.0005382967   0.0001619790
       -0.0000346717   0.0000825409  -0.0000058619  -0.0000011115   0.0002992331
       -0.0000159751   0.0000558203  -0.0003372175   0.0000911694  -0.0001686854
        0.0004146232   0.0001599703  -0.0001637417  -0.0008428944  -0.0000266420
       -0.0000911214   0.0008986806  -0.0001219660   0.0001687617  -0.0003797644
        0.0002703604  -0.0003580563   0.0002326982   0.0000129045   0.0000025162
       -0.0000032995   0.0000209519  -0.0000179027  -0.0000548629  -0.0001009822
        0.0000850817  -0.0001468690   0.0001449423  -0.0001447971   0.0002536168
       -0.0000051979   0.0000325576  -0.0001796488  -0.0000301111   0.0000682635
       -0.0001206081  -0.0003103599   0.0003028213  -0.0000709971   0.0002499905
       -0.0001858518  -0.0000230710  -0.0000957637   0.0000857630  -0.0000366000
        0.0000729525  -0.0000261120   0.0000202002  -0.0000460269   0.0000096359
       -0.0000086380   0.0000566328  -0.0000364942   0.0000886148  -0.0001058880
        0.0000278336   0.0003858104  -0.0001605977   0.0002386035  -0.0003206848
       -0.0000882440   0.0000822262  -0.0005263505  -0.0001784451  -0.0000225912
        0.0000382797   0.0001823557   0.0000108833  -0.0004565522  -0.0000999697
        0.0000050664   0.0004552259  -0.0000691055  -0.0000123493  -0.0000581238
        0.0000994717  -0.0000147307   0.0005326256  -0.0000747782   0.0000089997
       -0.0000189010  -0.0000011469   0.0001760049   0.0002633313  -0.0003239199
       -0.0001948146  -0.0007939048  -0.0001025593  -0.0004307472   0.0003246929
       -0.0002961912  -0.0002424099  -0.0003888979  -0.0000214920  -0.0001428318
        0.0002862928  -0.0002377817  -0.0002142122  -0.0000592361   0.0002854776
        0.0000102520   0.0002426132  -0.0002903829  -0.0001323317  -0.0013144302
       -0.0017545743  -0.0001693302   0.0066855997  -0.0164453942  -0.0257057102
        0.0066945225   0.0306278088   0.0197695133   0.0097893139  -0.0043688534
       -0.0224513065  -0.1161923456  -0.1675421992   0.0602411061  -0.0002270785
       -0.0035062126  -0.0039561291  -0.0002481634  -0.0001057917   0.0001269603
       -0.0000101001   0.0000045893   0.0000136749   0.0000130968   0.0001264682
        0.0000254227  -0.0000802399  -0.0000486489   0.0000172092  -0.0000222946
       -0.0000131511  -0.0000047455  -0.0000063676   0.0000142271  -0.0000028209
        0.0000231649   0.0000033898  -0.0000157063  -0.0000060337   0.0000014335
       -0.0000039771  -0.0000000151   0.0000174092  -0.0000129098  -0.0000277272
        0.0000121984  -0.0000099140  -0.0000217103  -0.0000090469   0.0000010664
       -0.0000026779  -0.0000134656   0.0000183337  -0.0000048231   0.0000077011
       -0.0000052533  -0.0000044567   0.0000012038   0.0000143261   0.0000021538
       -0.0000100658   0.0000098708   0.0000075755  -0.0000088604  -0.0000069645
        0.0000001471   0.0000192673  -0.0000026945  -0.0000121788   0.0000053102
        0.0000184645   0.0000178007   0.0000042399   0.0000290493  -0.0000103739
       -0.0000138255   0.0000014030  -0.0000067648   0.0000107209   0.0000027058
        0.0000048389   0.0000130063   0.0000019693   0.0000110792   0.0000051031
        0.0000000400  -0.0000226512   0.0000412404  -0.0000045394   0.0000035081
        0.0000176579   0.0000510049  -0.0000299303  -0.0000209560   0.0000268878
        0.0000000290  -0.0000170711   0.0000288027   0.0000017565   0.0000104944
       -0.0000202631   0.0001043161  -0.0001188208   0.0000770020   0.0004567720
        0.0002230036  -0.0004592890  -0.0057478716  -0.0007406355   0.0006909081
        0.0864042692  -0.0626605305  -0.2694462692  -0.1782124327   0.1038165669
        0.5516665895   0.0088814132  -0.0901036860  -0.1600257651  -0.0393713525
       -0.0264445822   0.0428835322   0.0045281434   0.0033197874   0.0002563097
       -0.0002534016   0.0005725714   0.0006473041   0.0001927468   0.0007955278
        0.0007504577   0.0000559783  -0.0002101633  -0.0010897880  -0.0004297782
        0.0001356359   0.0005336696   0.0000003851  -0.0004664228  -0.0009088685
       -0.0001211042   0.0000663089  -0.0000328261   0.0004198852   0.0000869464
        0.0000745368  -0.0000735466  -0.0001298349   0.0000027699   0.0003827142
        0.0000623024   0.0000594797  -0.0003598895   0.0000672017  -0.0000482893
        0.0000263889  -0.0001160979  -0.0000044826  -0.0004165396   0.0001124670
       -0.0000280691   0.0000708326   0.0000223699  -0.0000040601   0.0002337383
       -0.0000068552   0.0000381826  -0.0002546496   0.0000714943  -0.0001245399
        0.0003116354   0.0001204836  -0.0001328222  -0.0006464311  -0.0000241317
       -0.0000687452   0.0006890280  -0.0000933743   0.0001456438  -0.0002905925
        0.0001979363  -0.0002781343   0.0001706472   0.0000075314   0.0000033711
       -0.0000000806   0.0000148460  -0.0000165391  -0.0000449289  -0.0000767658
        0.0000628661  -0.0001187040   0.0001101551  -0.0001077020   0.0001906872
        0.0000008777   0.0000299750  -0.0001318757  -0.0000275358   0.0000566271
       -0.0000874389  -0.0002248680   0.0002225041  -0.0000499883   0.0001819198
       -0.0001372729  -0.0000175261  -0.0000667002   0.0000609425  -0.0000283780
        0.0000559405  -0.0000172380   0.0000149697  -0.0000360438   0.0000080689
       -0.0000058364   0.0000386401  -0.0000311042   0.0000655086  -0.0000754564
        0.0000210985   0.0002850032  -0.0001163410   0.0001846117  -0.0002434192
       -0.0000677922   0.0000630097  -0.0003779834  -0.0001666287  -0.0000147320
        0.0000152368   0.0001509319   0.0000111148  -0.0003221765  -0.0000735365
       -0.0000002041   0.0003128888  -0.0000311841  -0.0000054904  -0.0000228079
        0.0000486485  -0.0000134737   0.0003747088  -0.0000746833   0.0000016418
        0.0003680087   0.0001851002   0.0006134809  -0.0000146312  -0.0003060535
       -0.0001733703  -0.0007524851  -0.0003792978  -0.0008864148   0.0010102887
       -0.0002399977   0.0000902902  -0.0005576949   0.0000874745   0.0000361395
        0.0004348038  -0.0003995809  -0.0004058923   0.0001889433   0.0005371058
        0.0002490165  -0.0002476116  -0.0004785519  -0.0001165000  -0.0002499265
        0.0003191565   0.0008495076   0.0034259874  -0.0284584011  -0.0425782328
        0.0505122784   0.0654767194  -0.0167104612   0.0072782840  -0.0041646061
       -0.0170543846   0.0579030150   0.0606718529  -0.0729676847  -0.0040594749
       -0.0220484377  -0.0177978089  -0.0003933237   0.0004924270   0.0001505000
       -0.0000222043  -0.0000109844   0.0000387723  -0.0000058348  -0.0000189719
       -0.0000319608   0.0000205174  -0.0000033517  -0.0000136951  -0.0000020364
       -0.0000067665  -0.0000029622  -0.0000079546   0.0000173708  -0.0000019934
        0.0000154327  -0.0000011955  -0.0000106818  -0.0000052641  -0.0000045594
        0.0000005745  -0.0000019523   0.0000137536  -0.0000074931  -0.0000215314
        0.0000102167  -0.0000076143  -0.0000085736  -0.0000076022   0.0000005648
        0.0000011847  -0.0000083610   0.0000076835  -0.0000008907   0.0000101364
       -0.0000030209  -0.0000016919  -0.0000047041   0.0000095285   0.0000041501
       -0.0000094306   0.0000043792   0.0000075476  -0.0000098965  -0.0000063916
       -0.0000004335   0.0000199842  -0.0000022859  -0.0000012154   0.0000068027
        0.0000123751   0.0000130416  -0.0000020059   0.0000228788  -0.0000103617
       -0.0000150660   0.0000003024  -0.0000046843   0.0000099278   0.0000028454
        0.0000058530   0.0000090542   0.0000036166   0.0000076310   0.0000040564
        0.0000033852  -0.0000053538   0.0000388922  -0.0000153821   0.0000064563
        0.0000260272   0.0000469995   0.0000027893  -0.0000161451   0.0000710855
       -0.0000007107  -0.0000257596   0.0000292869  -0.0000040130   0.0000198159
       -0.0000324138   0.0001889714  -0.0000589012   0.0000691296  -0.0002795627
       -0.0003401161  -0.0003090781   0.0035182859   0.0002989937   0.0015754893
        0.0214701384   0.0157890323  -0.0184782200  -0.0742461310  -0.0392430707
        0.0088814132   0.3231175622   0.1874728064  -0.1739739503  -0.1474180870
       -0.1141407274   0.0498629921  -0.0071795178  -0.0210426244  -0.0060836316
       -0.0024778275  -0.0008494407  -0.0000981244   0.0006138937   0.0005797618
        0.0009356918  -0.0000099216  -0.0002765728  -0.0010861726  -0.0004818652
        0.0002053358   0.0007056273   0.0000248112  -0.0002729809  -0.0004977310
        0.0004706163  -0.0000185461   0.0001404589  -0.0012301709  -0.0002948372
       -0.0002389763   0.0001247439   0.0002916648   0.0000397354  -0.0010060724
       -0.0001575556  -0.0001223754   0.0010273158  -0.0001845200   0.0001215938
       -0.0000351489   0.0004457429   0.0000373107   0.0011966047  -0.0004806173
        0.0000387470  -0.0002106125   0.0000258733   0.0000122519  -0.0007007209
        0.0000260705  -0.0001075168   0.0006740111  -0.0002394936   0.0003548475
       -0.0008222294  -0.0003524051   0.0003568169   0.0017146215   0.0000508547
        0.0001794684  -0.0017616180   0.0002656991  -0.0003740677   0.0007685984
       -0.0005128003   0.0007020485  -0.0004501996  -0.0000455605   0.0000020725
        0.0000241441  -0.0000684443   0.0000569480   0.0000997273   0.0001576434
       -0.0001335114   0.0002745539  -0.0002599258   0.0002546724  -0.0004506322
        0.0000191711  -0.0000870630   0.0003030912   0.0000785615  -0.0001489425
        0.0002385761   0.0005347253  -0.0005309029   0.0001130995  -0.0004035232
        0.0002992630   0.0000478518   0.0001537381  -0.0001444423   0.0000655936
       -0.0001290431   0.0000378450  -0.0000351941   0.0000818543  -0.0000203494
        0.0000147943  -0.0000906899   0.0000632588  -0.0001649451   0.0001722546
       -0.0000406331  -0.0007642054   0.0003349646  -0.0005114973   0.0006469744
        0.0002381670  -0.0002001261   0.0012049806   0.0004455922   0.0000625592
       -0.0000368986  -0.0004250763  -0.0000408330   0.0010468466   0.0002133522
        0.0000018224  -0.0010574419   0.0001995482   0.0000433983   0.0001001600
       -0.0003313464   0.0000210337  -0.0012020492   0.0002535454   0.0000662369
       -0.0000224294   0.0003226417   0.0000357060   0.0001064919   0.0000884887
       -0.0003342160   0.0018182392   0.0013224992   0.0019264030  -0.0014280377
        0.0006253354   0.0000415110   0.0007982055  -0.0000590017  -0.0000076373
       -0.0005735833   0.0005434209   0.0004469436   0.0000423899  -0.0005027926
       -0.0002366739   0.0001195392   0.0003968279   0.0001223131   0.0017469131
       -0.0004422151  -0.0010137114  -0.0196466049   0.0046398451   0.0441375062
       -0.0151211659  -0.0226737733  -0.0060587279   0.0034894309  -0.0019762103
        0.0047389476  -0.0045628924  -0.0168438867  -0.0093269017  -0.0835257235
        0.0075308002   0.1011077588  -0.0001896746   0.0008388370   0.0001515041
        0.0000545255   0.0000313683  -0.0000536104   0.0000022295  -0.0000313537
       -0.0000470274   0.0000223989   0.0000327391  -0.0000131247   0.0000104788
        0.0000196967   0.0000041732   0.0000035853  -0.0000242523   0.0000010980
       -0.0000333305   0.0000024757   0.0000306973   0.0000092087   0.0000207335
        0.0000010338   0.0000048818  -0.0000251567   0.0000166224   0.0000414804
       -0.0000211569   0.0000113065   0.0000025384   0.0000128743  -0.0000004489
       -0.0000026273  -0.0000035385  -0.0000185005   0.0000024980  -0.0000133347
        0.0000077179   0.0000033153  -0.0000015177  -0.0000238363  -0.0000079731
        0.0000156648  -0.0000161694  -0.0000150216   0.0000151114   0.0000107718