$hessian                                                                        
        0.5197248347   0.0507602745   0.2409976613  -0.0826217780  -0.0297847080
       -0.0162088404   0.0222910818  -0.0176242864   0.0163398863  -0.0121544127
        0.0267114253  -0.0087975811  -0.0010789345  -0.0012006560   0.0001919886
        0.0000373299   0.0005912141  -0.0000978584   0.0000621675   0.0000319477
       -0.0000985321  -0.0000264823  -0.0000782838   0.0000376436   0.0000195799
        0.0000407683   0.0000089612   0.0000429180  -0.0000027980   0.0000220884
       -0.0000942098   0.0000358134   0.0000478170   0.0001744023   0.0000093873
        0.0000320254  -0.0001167134   0.0000808007   0.0000239402   0.0000168950
       -0.0000749771  -0.0000584094   0.0000302234   0.0000088783  -0.0000086607
       -0.0000059018  -0.0000010956   0.0000024343   0.0000177769   0.0000014751
        0.0000074315  -0.0000032882   0.0000047962   0.0000072640  -0.0000003167
        0.0000059486   0.0000065344  -0.0000081290   0.0000047190   0.0000037083
        0.0000030761   0.0000033289   0.0000004458  -0.0000030282  -0.0000015411
        0.0000014686  -0.0000029061  -0.0000023100   0.0000032048  -0.0000025894
       -0.0000041436   0.0000002181   0.0000003787  -0.0000032546   0.0000042327
       -0.0000015159  -0.0000024738   0.0000028670   0.0000001870  -0.0000011637
        0.0000031128  -0.0000014070   0.0000003242   0.0000028460  -0.0000011067
        0.0000035248   0.0000010935  -0.0000011359   0.0000027411   0.0000023012
        0.0000001894   0.0000024253   0.0000011877  -0.0000028766  -0.0000001630
        0.0000018599   0.0000007328  -0.0000039901   0.0000024083  -0.0000019746
       -0.0000050865  -0.0000018372  -0.0000049132  -0.0000050531  -0.0000056205
        0.0000007567  -0.0000016982  -0.0000071245  -0.0000038326  -0.0000016049
       -0.0000028928   0.0000035016   0.0000078360  -0.0000070405   0.0000590860
       -0.0000116816   0.0000576070  -0.0001120507  -0.0000535164  -0.0000720912
        0.0001220875  -0.0001276409   0.0003301044  -0.0487102336  -0.0335386223
       -0.0263084353  -0.2164886133   0.0989949555  -0.1202568455  -0.1766813054
       -0.1117147980  -0.0697592657  -0.0018565285   0.0224131602  -0.0054433051
       -0.0007376518  -0.0038136370  -0.0046798110   0.0000048955  -0.0000677782
       -0.0000664134   0.0000113572  -0.0000010368  -0.0000162540   0.0000067157
        0.0000073990  -0.0000346705  -0.0000000702  -0.0000001883  -0.0000011748
       -0.0000052733   0.0000035773  -0.0000105178   0.0000068136  -0.0000067006
        0.0000089613  -0.0000036536   0.0000018000   0.0000086391  -0.0000065558
        0.0000044936   0.0000078928  -0.0000053725   0.0000033616   0.0000062164
        0.0000006572  -0.0000055475   0.0000023942  -0.0000016416  -0.0000050664
        0.0000047947  -0.0000008891  -0.0000033750   0.0000036820  -0.0000020732
        0.0000007118   0.0000034658  -0.0000025537   0.0000048708   0.0000009369
       -0.0000012688   0.0000050801   0.0000003276  -0.0000000284   0.0000033906
        0.0000012185  -0.0000028803  -0.0000049256  -0.0000014288  -0.0000019694
       -0.0000087213  -0.0000044281   0.0000003917  -0.0000122834  -0.0000035178
        0.0000047396   0.0000019078  -0.0000125112  -0.0000139723  -0.0000118421
        0.0000083315  -0.0000065465  -0.0000542233  -0.0000969887  -0.0004613257
       -0.0034623008  -0.0047560336  -0.0014028655   0.0019508357  -0.0013831127
        0.0507602745   0.6480890256  -0.0561197880   0.0370313448  -0.3216697347
        0.0672685412  -0.0676239226  -0.0473486561  -0.0324926715   0.0262154011
       -0.0401717204   0.0231901626  -0.0008596453   0.0000008604  -0.0015079335
        0.0000944791   0.0001074844  -0.0002421970  -0.0001086502  -0.0001597054
       -0.0000406132   0.0000198242   0.0001485449  -0.0000431017  -0.0001296892
        0.0000104145   0.0000282102   0.0000819926  -0.0001447734  -0.0000641173
        0.0000917100   0.0002052192   0.0000576841  -0.0000231144  -0.0000905776
       -0.0001160395   0.0000613221   0.0000269769  -0.0000150335   0.0000337465
        0.0000591348   0.0000546649   0.0000124807  -0.0000061412   0.0000343389
        0.0000146726  -0.0000141240   0.0000073856  -0.0000257321   0.0000019399
       -0.0000000511   0.0000007011  -0.0000032437   0.0000045500  -0.0000072327
       -0.0000018240  -0.0000002482   0.0000007784   0.0000020582  -0.0000015580
       -0.0000007256   0.0000004462  -0.0000053233  -0.0000021082   0.0000017131
       -0.0000032347  -0.0000054512   0.0000022403  -0.0000012753   0.0000010959
        0.0000022123  -0.0000009216  -0.0000000951  -0.0000025226  -0.0000002095
        0.0000000044   0.0000021953  -0.0000025875  -0.0000016548  -0.0000011924
       -0.0000013806  -0.0000009237  -0.0000004987  -0.0000029196  -0.0000000550
       -0.0000011402  -0.0000031477  -0.0000020991   0.0000042805  -0.0000031996
       -0.0000009335  -0.0000016195  -0.0000012728   0.0000005711   0.0000028972
       -0.0000018338   0.0000041080  -0.0000048323   0.0000000018  -0.0000092940
       -0.0000010414   0.0000024883   0.0000019021  -0.0000002883  -0.0000014199
       -0.0000003674  -0.0000025025   0.0000026821   0.0000120008   0.0000055877
        0.0000020152  -0.0000062855  -0.0000001093   0.0000011367  -0.0001033508
        0.0000522077  -0.0001259000   0.0000765552   0.0000176573   0.0001258721
        0.0005098325  -0.0001892074   0.0002835787   0.0160582738   0.0558150236
        0.0008547184   0.0323403777  -0.1301435544   0.0331814565  -0.1117975626
       -0.1345230351  -0.0522614843   0.0024560009  -0.0135592834   0.0033591350
       -0.0033530644  -0.0009045930  -0.0006121297  -0.0001669132  -0.0000432741
        0.0000841548  -0.0000107972  -0.0000069590  -0.0000177634  -0.0000048846
       -0.0000226766   0.0000191934  -0.0000071710  -0.0000082527   0.0000046731
       -0.0000000126   0.0000063786  -0.0000021629   0.0000117761  -0.0000044978
       -0.0000005183   0.0000010665   0.0000073551  -0.0000075196   0.0000029529
        0.0000009037  -0.0000018773   0.0000017958  -0.0000024763  -0.0000029553
       -0.0000009631   0.0000009022  -0.0000025005  -0.0000006651   0.0000001390
       -0.0000029949  -0.0000001652   0.0000002218  -0.0000023182   0.0000009274
       -0.0000009879  -0.0000029319   0.0000011323  -0.0000018713  -0.0000006334
        0.0000009835  -0.0000015659  -0.0000013292   0.0000014230  -0.0000009478
       -0.0000010706  -0.0000025545  -0.0000018150  -0.0000026179  -0.0000023606
        0.0000016447  -0.0000013152  -0.0000010130   0.0000058569  -0.0000039317
        0.0000035280  -0.0000018484  -0.0000035115  -0.0000014479   0.0000140262
        0.0000055582  -0.0000779956   0.0000522210   0.0000955024  -0.0037972180
       -0.0011639315  -0.0009585959   0.0222310836  -0.0144407438   0.0160204359
        0.2409976613  -0.0561197880   0.2718312253  -0.0277948366   0.0258667105
       -0.0696267062   0.0245330534  -0.0024860628   0.0169210520  -0.0080435371
        0.0221937458  -0.0155350089  -0.0003531252  -0.0008526355   0.0002049688
       -0.0000249715   0.0003516490  -0.0000251422   0.0000089137   0.0000476730
        0.0000365946   0.0000064441  -0.0000875037   0.0000485242   0.0000402560
        0.0000222755   0.0000145902   0.0000056986   0.0000267065   0.0000349000
       -0.0000813754  -0.0000484159   0.0000315658   0.0001351866   0.0000246704
        0.0000576761  -0.0000879416   0.0000459520   0.0000253192  -0.0000069735
       -0.0000576532  -0.0000556668   0.0000146570   0.0000064433  -0.0000168318
       -0.0000087315  -0.0000012211  -0.0000086724   0.0000177143  -0.0000022817
        0.0000004102  -0.0000011476  -0.0000020343  -0.0000117385   0.0000022536
        0.0000000119  -0.0000072110  -0.0000018577  -0.0000000468  -0.0000080742
        0.0000008707  -0.0000000168  -0.0000029025  -0.0000005888   0.0000018094
       -0.0000009439   0.0000000979  -0.0000013956  -0.0000020830  -0.0000040033
        0.0000053909  -0.0000069851  -0.0000016559   0.0000064687  -0.0000060205
        0.0000001256   0.0000035732  -0.0000039047  -0.0000004071   0.0000020899
       -0.0000052832   0.0000012132   0.0000019827  -0.0000048888  -0.0000003925
       -0.0000061959  -0.0000000857   0.0000013705  -0.0000052770  -0.0000002509
        0.0000000601  -0.0000019149  -0.0000028372  -0.0000036590  -0.0000031305
       -0.0000015343  -0.0000019034   0.0000022388  -0.0000005227  -0.0000001773
        0.0000035650   0.0000030888  -0.0000044347   0.0000034495   0.0000055257
       -0.0000004062   0.0000087308   0.0000073355  -0.0000069796   0.0000031057
        0.0000025643   0.0000027142   0.0000091137  -0.0000007052   0.0000579863
       -0.0000368403   0.0000612667  -0.0001279500  -0.0000226374  -0.0000013289
       -0.0000033627  -0.0000090002   0.0001645423  -0.0338702991  -0.0299920876
       -0.0152952720  -0.1088658837   0.0748734656  -0.1257448625  -0.0696525379
       -0.0523128579  -0.0679339823  -0.0021253953   0.0162278838  -0.0029369447
       -0.0048967656  -0.0007313322   0.0052895609   0.0000921502   0.0000182232
       -0.0000252468   0.0000124684  -0.0000067530   0.0000123294   0.0000107871
        0.0000027299  -0.0000072329   0.0000021904  -0.0000092158   0.0000107675
       -0.0000013537  -0.0000029109   0.0000023979   0.0000033705  -0.0000076467
       -0.0000020206  -0.0000003741  -0.0000085399  -0.0000069373  -0.0000031541
       -0.0000053973  -0.0000110949  -0.0000006411  -0.0000008940  -0.0000071311
       -0.0000003285   0.0000049054  -0.0000005487  -0.0000039059   0.0000052186
       -0.0000028049  -0.0000017556   0.0000035956  -0.0000025135  -0.0000007529
       -0.0000002489  -0.0000071468   0.0000006524  -0.0000035539  -0.0000059998
        0.0000017972  -0.0000039098  -0.0000031343  -0.0000007020  -0.0000041945
       -0.0000011061  -0.0000020758   0.0000021837   0.0000038144  -0.0000036035
        0.0000059255   0.0000094625  -0.0000017557   0.0000003768   0.0000106578
        0.0000017303   0.0000077110  -0.0000007291  -0.0000107418  -0.0000069664
       -0.0000020492  -0.0000507785  -0.0000796819  -0.0001191770  -0.0047512944
       -0.0005708759   0.0052469879  -0.0051469059   0.0037015430  -0.0025858649
       -0.0826217780   0.0370313448  -0.0277948366   0.5207665119   0.0330567433
        0.2435007947  -0.2082321535  -0.1406695693  -0.0768939907  -0.0488042976
        0.0151154374  -0.0325316437  -0.0002700386   0.0017174507  -0.0036425301
       -0.0004187621  -0.0005326049  -0.0002886335   0.0000414364   0.0003930982
        0.0002921451   0.0000384095  -0.0001966039  -0.0000118407   0.0002227808
        0.0000158316  -0.0000271121  -0.0001733209   0.0001035437   0.0000934319
        0.0000410438  -0.0003145552  -0.0000147023  -0.0000890623   0.0000430946
        0.0002292588   0.0000006244  -0.0001113076   0.0000561071  -0.0000151194
        0.0000243585  -0.0000134283  -0.0000213175   0.0000187091  -0.0000320241
       -0.0000008734   0.0000030845   0.0000021986   0.0000183424  -0.0000034100
       -0.0000001098  -0.0000020484  -0.0000030793   0.0000016549  -0.0000070746
        0.0000044449  -0.0000035829  -0.0000080165  -0.0000037632   0.0000024439
        0.0000036711   0.0000026592  -0.0000005315  -0.0000085722  -0.0000027802
        0.0000020512  -0.0000025088  -0.0000003759  -0.0000002502   0.0000050585
       -0.0000020983   0.0000014889   0.0000009365  -0.0000001691   0.0000029324
       -0.0000008108  -0.0000020575  -0.0000002636  -0.0000001824  -0.0000009173
        0.0000030435  -0.0000018322  -0.0000020019   0.0000009305   0.0000008124
       -0.0000019940  -0.0000019646   0.0000021057  -0.0000020843   0.0000008451
        0.0000005233  -0.0000016356   0.0000008946   0.0000033786  -0.0000014511
       -0.0000023006   0.0000068525   0.0000016053   0.0000018309  -0.0000071571
       -0.0000021050   0.0000002845  -0.0000007341  -0.0000074907   0.0000058996
        0.0000079389   0.0000011193  -0.0000012672   0.0000174128  -0.0000055481
        0.0000007906   0.0000134031  -0.0000024274  -0.0000015429  -0.0000518861
       -0.0001043902   0.0001322671   0.0000894059  -0.0000157952  -0.0000356117
       -0.0009269986   0.0004629793  -0.0009845268  -0.0098746190  -0.0239947611
        0.0009487405   0.0181375442   0.0251102917   0.0063562340  -0.0005515913
       -0.0218482389   0.0028925799  -0.1865466651   0.0749042645  -0.1063457290
       -0.0000577753  -0.0013812915  -0.0002555675   0.0001320019  -0.0002419289
       -0.0003211999  -0.0000159750   0.0000139560   0.0000279798   0.0000133109
        0.0000514627   0.0000000887   0.0000390973   0.0000186460   0.0000055295
        0.0000131241   0.0000131311   0.0000297611   0.0000048969   0.0000047904
       -0.0000025196  -0.0000009468   0.0000006838   0.0000011259  -0.0000024642
       -0.0000007731   0.0000007102  -0.0000004310   0.0000005283  -0.0000003447
       -0.0000031001  -0.0000003267   0.0000010276  -0.0000016868  -0.0000013014
        0.0000005707  -0.0000016271  -0.0000020392   0.0000000642  -0.0000011994
       -0.0000019434   0.0000014358  -0.0000017574  -0.0000016553   0.0000011353
       -0.0000021326  -0.0000013808   0.0000002422  -0.0000027811  -0.0000006543
        0.0000006962   0.0000014094   0.0000003914   0.0000013554  -0.0000011118
        0.0000013592  -0.0000003728  -0.0000060561   0.0000000644   0.0000001769
       -0.0000118699  -0.0000002987   0.0000009380   0.0000124342  -0.0000173069
       -0.0000127509  -0.0000568814  -0.0000408226  -0.0001528612   0.0002810323
       -0.0004883017   0.0005113133  -0.0011102833   0.0018981659  -0.0057389597
       -0.0297847080  -0.3216697347   0.0258667105   0.0330567433   0.6441752540
       -0.0675735050  -0.0749367709  -0.1791968590  -0.0236713514  -0.0347171699
        0.0550815299  -0.0323053833   0.0040103456   0.0004355046   0.0044682988
        0.0001861270  -0.0004551721   0.0002640133   0.0001856976   0.0002937171
       -0.0000148522   0.0000295190  -0.0000945820   0.0000577650   0.0001608315
       -0.0000234374  -0.0000311607  -0.0001495001   0.0001358368   0.0000448300
        0.0002266056  -0.0001156646  -0.0000165437   0.0000396317   0.0002960334
        0.0001077324   0.0000165069  -0.0000537465  -0.0000551681  -0.0000452293
       -0.0000012617  -0.0000181923  -0.0000027425   0.0000185794  -0.0000371307
       -0.0000137205   0.0000094580   0.0000036602   0.0000165563  -0.0000053805
       -0.0000002916  -0.0000033670  -0.0000026940   0.0000082520  -0.0000007122
       -0.0000011874   0.0000020894   0.0000011780  -0.0000025314   0.0000056804
        0.0000014228   0.0000013233   0.0000033726  -0.0000015982  -0.0000016653
        0.0000014672   0.0000057405   0.0000005029  -0.0000019636   0.0000030947
       -0.0000009118  -0.0000007041   0.0000026580  -0.0000032869   0.0000042535
       -0.0000010315   0.0000025529  -0.0000008038   0.0000006441  -0.0000012919
        0.0000004638  -0.0000013689   0.0000009390  -0.0000006404   0.0000015137
        0.0000016319  -0.0000028865  -0.0000018429   0.0000069171  -0.0000008302
        0.0000029775   0.0000002997  -0.0000003798   0.0000002302   0.0000031193
       -0.0000007936   0.0000030295   0.0000049547  -0.0000017493  -0.0000018051
       -0.0000004058  -0.0000008386   0.0000074978  -0.0000050404  -0.0000014868
        0.0000005925  -0.0000017441  -0.0000035469   0.0000250136  -0.0000035214
       -0.0000008460  -0.0000024390  -0.0000134210   0.0000038472   0.0000090577
       -0.0000405027   0.0001451396  -0.0001066937  -0.0001382162  -0.0001828741
       -0.0005102565   0.0002988819   0.0001206719  -0.0251173364  -0.0533193224
       -0.0074533044   0.0749511074  -0.0216370825   0.0505221382  -0.0014891628
       -0.0202994832   0.0023127010   0.0745194131  -0.0828766887   0.0549947184
       -0.0214901989  -0.0206169239  -0.0092993194  -0.0000729547  -0.0002082873
       -0.0002524474  -0.0000277250  -0.0000002567  -0.0000027921  -0.0000123365
        0.0000302016  -0.0000149099   0.0000151157   0.0000125994  -0.0000160478
        0.0000039977   0.0000176855   0.0000147764  -0.0000027016   0.0000038621
        0.0000028489   0.0000008986   0.0000036819   0.0000034981  -0.0000002974
        0.0000059089   0.0000046254  -0.0000017014   0.0000007324   0.0000010567
       -0.0000021362  -0.0000000192   0.0000005641  -0.0000016044  -0.0000008062
        0.0000007680  -0.0000008981   0.0000006538   0.0000014757  -0.0000006061
        0.0000013636   0.0000000152  -0.0000006927   0.0000023691   0.0000015022
       -0.0000012905   0.0000030208   0.0000011302  -0.0000014590   0.0000032868
        0.0000012144  -0.0000043129  -0.0000032369  -0.0000022073  -0.0000055308
       -0.0000037158  -0.0000029268  -0.0000041135   0.0000009340  -0.0000038001
       -0.0000173879  -0.0000018254   0.0000001212  -0.0000186350  -0.0000178898
        0.0000092656   0.0000798429  -0.0000499552  -0.0000914084  -0.0004481794
       -0.0002620586  -0.0002027830   0.0014386269   0.0002764752   0.0022852018
       -0.0162088404   0.0672685412  -0.0696267062   0.2435007947  -0.0675735050
        0.2787562186  -0.0877365910  -0.0639196250  -0.0894107752  -0.0239626785
       -0.0010528019  -0.0165967701  -0.0041471607   0.0040044907   0.0050217160
        0.0007349569  -0.0006543459   0.0002272111  -0.0001417475   0.0001110598
        0.0000586385  -0.0000164468  -0.0000913779  -0.0001529929   0.0000735766
        0.0000053326   0.0000017182  -0.0000094972   0.0000385297  -0.0000442834
        0.0002803219   0.0002190655   0.0000460197  -0.0004887991   0.0002843140
        0.0001763635  -0.0000032568  -0.0001361248  -0.0000967403   0.0000388580
        0.0000732239   0.0000445522  -0.0000266720   0.0000002019   0.0000003402
        0.0000113735  -0.0000024005  -0.0000005609   0.0000112727   0.0000013934
        0.0000053590   0.0000015000   0.0000033735   0.0000006975  -0.0000058156
        0.0000064594   0.0000036738  -0.0000069278   0.0000022650   0.0000043479
        0.0000040344   0.0000001003   0.0000011956  -0.0000046097  -0.0000008167
        0.0000011824  -0.0000077628  -0.0000007811   0.0000007588   0.0000040734
       -0.0000025084   0.0000022633  -0.0000008632  -0.0000011348   0.0000013625
        0.0000013929  -0.0000006959   0.0000007530  -0.0000017087  -0.0000006988
        0.0000036014   0.0000002314   0.0000013801   0.0000010544  -0.0000005097
        0.0000006376   0.0000009747   0.0000033560   0.0000006164   0.0000004568
       -0.0000014273  -0.0000003579   0.0000014868   0.0000029533  -0.0000007945
       -0.0000037416   0.0000053923  -0.0000026377  -0.0000019996  -0.0000065003
       -0.0000038100  -0.0000008453  -0.0000031059  -0.0000097331   0.0000001019
        0.0000088214  -0.0000007037  -0.0000027441   0.0000039996  -0.0000060230
       -0.0000022346   0.0000155591   0.0000053939  -0.0000031104  -0.0001432904
       -0.0000433838   0.0000141798   0.0001546408  -0.0001551781  -0.0000590806
       -0.0017938624  -0.0007495959  -0.0006534056   0.0011587049  -0.0061435068
       -0.0028374375  -0.0026193504   0.0191488341  -0.0032167700  -0.0004067874
       -0.0101420946   0.0019016877  -0.1065188707   0.0545704660  -0.1096038729
        0.0035328995   0.0027790096   0.0020948327   0.0000494984  -0.0001381664
       -0.0000379334  -0.0000198656   0.0000369170   0.0000227839   0.0000071201
        0.0000261663   0.0000235208   0.0000284973   0.0000435429   0.0000124300
       -0.0000257767   0.0000139966   0.0000053398   0.0000036512   0.0000080703
       -0.0000025230  -0.0000007255   0.0000021325   0.0000086261  -0.0000002281
        0.0000008321   0.0000074355   0.0000034442   0.0000008181   0.0000034874
       -0.0000014030  -0.0000034436   0.0000048722  -0.0000006475  -0.0000050583
        0.0000021892  -0.0000004677  -0.0000028245   0.0000034512   0.0000001560
       -0.0000001534  -0.0000011485  -0.0000003439   0.0000044703  -0.0000011695
       -0.0000012441   0.0000045657  -0.0000010693  -0.0000034191   0.0000014198
        0.0000004873   0.0000039588  -0.0000022211  -0.0000011778   0.0000009588
       -0.0000012332  -0.0000056910  -0.0000038808  -0.0000064352  -0.0000052247
       -0.0000033958  -0.0000034372  -0.0000032369   0.0000053523  -0.0000072987
       -0.0000072900  -0.0000241520  -0.0000113344  -0.0000414550   0.0004116571
       -0.0002968838   0.0000951406  -0.0057143754   0.0025055054   0.0038594782
        0.0222910818  -0.0676239226   0.0245330534  -0.2082321535  -0.0749367709
       -0.0877365910   0.5037994140   0.0542365284   0.2326871419  -0.1917310303
        0.0388019473  -0.0939568615  -0.0379458821  -0.0040420405  -0.0226638906
       -0.0008066668   0.0040802365   0.0001151974  -0.0003290407  -0.0000724419
       -0.0002185541   0.0000460474   0.0002440722   0.0002471925  -0.0002498406
        0.0000415198  -0.0000098880   0.0002330555  -0.0002066043   0.0000725663
       -0.0005757470   0.0002631786   0.0003951945  -0.0008946245  -0.0009693519
       -0.0001052055  -0.0000697041  -0.0000917682   0.0000480144   0.0001075473
       -0.0000634042  -0.0000104907   0.0000946896   0.0000044745   0.0000479436
       -0.0000319765  -0.0000171084   0.0000018618  -0.0000161252   0.0000110232
        0.0000048205  -0.0000063649  -0.0000034809   0.0000092293   0.0000117742
       -0.0000087311   0.0000105300   0.0000184109   0.0000026726  -0.0000008572
       -0.0000178025  -0.0000039309   0.0000005579   0.0000132007   0.0000041136
       -0.0000019903   0.0000272377  -0.0000006969   0.0000024196  -0.0000162710
       -0.0000010648  -0.0000138541   0.0000031077  -0.0000002621   0.0000038445
       -0.0000037940   0.0000000896   0.0000032186   0.0000023079  -0.0000004008
       -0.0000022828  -0.0000016259   0.0000008394   0.0000020103  -0.0000026416
        0.0000012286   0.0000039920  -0.0000086473   0.0000033647   0.0000065597
        0.0000052483   0.0000020734  -0.0000020541  -0.0000147812   0.0000020618
        0.0000169036  -0.0000169945  -0.0000033692  -0.0000031657   0.0000150215
        0.0000021607  -0.0000005063   0.0000076693   0.0000127102  -0.0000127137
       -0.0000167025   0.0000024188  -0.0000031415   0.0000054678   0.0000094391
        0.0000056532  -0.0000498526   0.0000061957   0.0000041005   0.0002039682
        0.0000995216  -0.0001066704   0.0002006344  -0.0001111829  -0.0000093178
        0.0016296322  -0.0024823699  -0.0026122407   0.0163236173   0.0675272244
       -0.0029459169  -0.0483009958  -0.0054506489  -0.0265428010   0.0027463661
       -0.0002711415  -0.0027841807  -0.0193809547  -0.0126807693  -0.0103624478
       -0.0414921951   0.0043647947  -0.0051382857   0.0004106744  -0.0001199366
       -0.0001889014   0.0000510016  -0.0000535435  -0.0000240677   0.0000281668
       -0.0000193986  -0.0000493191  -0.0000200270  -0.0000742450  -0.0000050279
       -0.0001326841  -0.0000276061  -0.0000409439  -0.0000103980  -0.0000350133
        0.0000187726  -0.0000012898   0.0000074038  -0.0000090179  -0.0000100085
        0.0000096667  -0.0000049701  -0.0000161933   0.0000043688   0.0000015993
        0.0000055547  -0.0000031695  -0.0000000266  -0.0000036621   0.0000001162
        0.0000057155   0.0000005536   0.0000002195   0.0000039392  -0.0000023166
        0.0000008912   0.0000034785  -0.0000022300   0.0000007035   0.0000018187
        0.0000014325   0.0000009885   0.0000031071   0.0000050316   0.0000008307
        0.0000011568  -0.0000170225  -0.0000064666   0.0000002693  -0.0000079031
       -0.0000106081   0.0000047878   0.0000068573  -0.0000022567   0.0000003766
        0.0000031948   0.0000141328  -0.0000282711  -0.0000503377   0.0000413656
        0.0000346429  -0.0000866464   0.0003096428   0.0002070309   0.0028054873
       -0.0005889499  -0.0028060379  -0.0005303200  -0.0001315636  -0.0001082090
       -0.0176242864  -0.0473486561  -0.0024860628  -0.1406695693  -0.1791968590
       -0.0639196250   0.0542365284   0.6623612890  -0.0654458136   0.0970899201
       -0.1283911740   0.0730230862  -0.0176100074   0.0077761918  -0.0088906558
       -0.0009826130   0.0012141734  -0.0005374191  -0.0005082958  -0.0008838445
        0.0000262791   0.0001132592   0.0002761720   0.0000326562  -0.0000748317
       -0.0000016505  -0.0000011088   0.0001062194  -0.0000142311   0.0001432935
       -0.0004767463  -0.0001493591  -0.0000644554  -0.0011586982  -0.0006628065
       -0.0000704961   0.0000818394  -0.0002509030   0.0000893810  -0.0001425802
       -0.0000903224  -0.0000604911   0.0001420994   0.0000164245  -0.0000321121
       -0.0000267364   0.0000039385   0.0000092595  -0.0000331409  -0.0000097749
        0.0000088934  -0.0000058062   0.0000023161   0.0000003587   0.0000073795
       -0.0000082850   0.0000049442   0.0000080851   0.0000011009  -0.0000039140
        0.0000016479   0.0000077965  -0.0000047265   0.0000091984  -0.0000007010
       -0.0000006825   0.0000006828  -0.0000014291  -0.0000010646  -0.0000105757
        0.0000014977  -0.0000056594   0.0000003280  -0.0000044419  -0.0000002025
       -0.0000000491   0.0000019864  -0.0000006326   0.0000005670  -0.0000030333
       -0.0000037260   0.0000005769  -0.0000011077  -0.0000016642  -0.0000003648
       -0.0000016140   0.0000008714  -0.0000061763   0.0000038238   0.0000008253
        0.0000005083   0.0000005281  -0.0000031094  -0.0000117136   0.0000002988
        0.0000080370   0.0000026397  -0.0000028889   0.0000032111   0.0000071031
       -0.0000031027   0.0000049114   0.0000133189   0.0000039421  -0.0000077298
       -0.0000057480  -0.0000000160  -0.0000011831  -0.0000186083   0.0000108591
       -0.0000003606  -0.0000185599  -0.0000061689  -0.0000051911   0.0002881062
        0.0000213095   0.0001021234  -0.0003296936   0.0002819053   0.0000515212
        0.0001613110  -0.0013011213  -0.0027934426   0.0234388668  -0.0204942354
        0.0184137280  -0.0068985343   0.0023937559  -0.0055271461  -0.0005166071
       -0.0055359920   0.0019920828   0.0074138567   0.0059968833   0.0034946806
        0.0040413018  -0.2911168323   0.0512933995   0.0002359665   0.0001028688
       -0.0004318790   0.0000501462  -0.0000231247  -0.0000520792   0.0000045599
       -0.0000674404  -0.0000176296  -0.0000525755  -0.0000476243  -0.0000047424
       -0.0001285658  -0.0000524170  -0.0000368601   0.0000072491  -0.0000255569
        0.0000141316  -0.0000023304   0.0000043887  -0.0000068145  -0.0000018617
        0.0000038328  -0.0000026141  -0.0000057895   0.0000006852  -0.0000007995
        0.0000031933   0.0000007283  -0.0000034127  -0.0000000465   0.0000003538
       -0.0000008335   0.0000011768   0.0000001289  -0.0000002163   0.0000009651
       -0.0000011181  -0.0000012011   0.0000015008  -0.0000020125   0.0000002804
        0.0000027244  -0.0000010515   0.0000000632   0.0000052235   0.0000001538
       -0.0000005816  -0.0000082818  -0.0000049467  -0.0000013690  -0.0000064730
       -0.0000049452   0.0000036068  -0.0000045235  -0.0000035658   0.0000057685
       -0.0000020775   0.0000272571  -0.0000231789  -0.0000641048   0.0000333062
        0.0000301223   0.0000449417  -0.0000859301   0.0000251899   0.0000044757
       -0.0056651615   0.0019803762  -0.0001208947   0.0009155492  -0.0003101960
        0.0163398863  -0.0324926715   0.0169210520  -0.0768939907  -0.0236713514
       -0.0894107752   0.2326871419  -0.0654458136   0.2693507162  -0.1081943464
        0.0352275480  -0.1204834097  -0.0190577072  -0.0012589956  -0.0083720276
        0.0002711048   0.0009157448  -0.0002985323  -0.0000455365  -0.0003047628
       -0.0006434287  -0.0001128300   0.0003147842  -0.0000437495  -0.0002028966
       -0.0000990180   0.0000297046   0.0001127073  -0.0001494186  -0.0000343679
       -0.0000268358   0.0003367617   0.0003116823  -0.0007540753  -0.0004501066
       -0.0000524930   0.0001251988  -0.0001203733  -0.0000270927   0.0000103416
        0.0000675072   0.0000529796   0.0000419538   0.0000082721   0.0000125785
       -0.0000191774   0.0000018311  -0.0000044078  -0.0000030776   0.0000012437
        0.0000040674  -0.0000024542  -0.0000009146  -0.0000015625   0.0000095165
       -0.0000047400   0.0000021072   0.0000083005  -0.0000005533  -0.0000009984
       -0.0000061583  -0.0000024060   0.0000004280   0.0000052085   0.0000016276
       -0.0000014921   0.0000116800  -0.0000006400  -0.0000007025  -0.0000067239
       -0.0000007586  -0.0000111878   0.0000002088   0.0000019309  -0.0000010292
       -0.0000006856   0.0000006878  -0.0000009215  -0.0000010314   0.0000008586
       -0.0000027332  -0.0000001897   0.0000009492  -0.0000016173  -0.0000012110
       -0.0000003476  -0.0000002177  -0.0000011965  -0.0000002428   0.0000001672
        0.0000022715   0.0000005051  -0.0000026338  -0.0000040733   0.0000002737
        0.0000046430  -0.0000085081  -0.0000011596  -0.0000037327   0.0000093383
        0.0000051107   0.0000002792   0.0000023049   0.0000049850  -0.0000045014
       -0.0000075739   0.0000052597   0.0000015790  -0.0000138595   0.0000078394
        0.0000054974  -0.0000172128   0.0000022391  -0.0000001403   0.0000242364
        0.0000434598  -0.0000046730   0.0000600625   0.0001091312   0.0001592495
        0.0016750496  -0.0009050258  -0.0008618932   0.0057346597   0.0467316639
       -0.0041472464  -0.0257788601  -0.0048668178  -0.0202114449  -0.0028966343
        0.0020534071   0.0056172178  -0.0137467122  -0.0088323990  -0.0064573093
       -0.0055638187   0.0516823667  -0.0459867672  -0.0003161601  -0.0006034946
       -0.0005733357  -0.0000163091   0.0000020055  -0.0000219268  -0.0000354950
       -0.0000599686   0.0000216817  -0.0000174558  -0.0000066770  -0.0000091790
       -0.0000512251   0.0000013088  -0.0000108073  -0.0000087461  -0.0000086211
        0.0000003298   0.0000011451  -0.0000007499  -0.0000044767  -0.0000021564
        0.0000013823  -0.0000043876  -0.0000043904   0.0000005209  -0.0000013835