70
 energy: -106.710459238385 gnorm: 0.000137818099 xtb: 6.7.1 (edcfbbe)
C           -8.26416076267224       -2.50152877414338       -1.39849534623282
C           -8.30269927090756       -1.13901809756360       -1.64616555754591
C           -7.29936057294606       -0.31447281859752       -1.17026736153737
C           -6.25158526373017       -0.85248949864156       -0.42878339375252
N           -5.23467081515481       -0.01881848767034        0.06484427538392
C           -5.41988270872477        1.13203176148037        0.80484205720036
C           -6.59635479480568        1.71348730322774        1.25722649700163
C           -6.49803834094574        2.86640857135378        2.01263198738727
C           -5.26198917137519        3.43112708659598        2.32243130243170
C           -4.08712583679067        2.84579455378337        1.89413615411018
C           -4.16037996912147        1.68594310910439        1.13320212764537
C           -3.17146887312869        0.82147986278221        0.55217490895872
C           -1.78449097710002        0.84980108814024        0.51659739939795
C           -1.10681286168770       -0.15061039976828       -0.16491851716614
C            0.37155651729558       -0.15068112650303       -0.21713737816453
C            1.09344329496005       -1.15358133654098        0.44722593468433
C            0.44428076619525       -2.16006749392359        1.21059620727707
C            1.15042376363618       -3.14450101868589        1.83061169386768
C            2.55536730568099       -3.18587750588617        1.72438723279323
C            3.21861415774616       -2.22518410975069        1.02489336522088
C            2.52201753877432       -1.16846828711512        0.38025036293845
C            3.19698001294305       -0.15970600466135       -0.32136392847338
C            4.67553995382038       -0.16546062478824       -0.38417008727707
C            5.32064483689268       -0.50816555216725       -1.59221798239578
C            6.68330204287288       -0.52500752092813       -1.67502104267027
C            7.48160312021691       -0.19605846758885       -0.55838593066361
C            8.89112275886691       -0.20158023160676       -0.61142640621162
C            9.63270444862859        0.12302676763973        0.49028387126811
C            8.99890342595491        0.46708818207064        1.69540108073951
C            7.63472978199697        0.48112437853083        1.77910671597642
C            6.84043688098956        0.15191814546285        0.65988038505594
C            5.43196549553461        0.15588145735175        0.71534803523402
C            2.47749829397429        0.85357184213063       -0.97017857111342
C            3.13354365014894        1.90568306563770       -1.66306258995874
C            2.42855099002259        2.87291692072303       -2.31069784402484
C            1.01932766771483        2.84319161128241       -2.31194565330750
C            0.35246424468698        1.86301480353305       -1.64332191771491
C            1.04787714970796        0.84945859451745       -0.93178712059931
C           -1.82419498840328       -1.16163355952733       -0.81741255139307
C           -3.20363080423659       -1.20789929622838       -0.79696075212126
C           -3.87855576636475       -0.21906427090794       -0.09415649322905
C           -6.21626906325071       -2.22101328475684       -0.17698987452060
C           -7.21758092451813       -3.03937000819040       -0.66734224883890
H           -9.04733769973553       -3.14248416620935       -1.77479391494487
H           -9.11422356318433       -0.71584546535155       -2.21978428186340
H           -7.31498010884013        0.74504299941442       -1.37903700124289
H           -7.55827441074897        1.27558090336962        1.03695564985619
H           -7.39987303450083        3.33921065147505        2.37386759752560
H           -5.22757496019633        4.33475035667346        2.91348318725944
H           -3.12853922267273        3.27454463885961        2.14633461561305
H           -1.23670484664247        1.63653432918235        1.01438622509753
H           -0.63196021470595       -2.12793828310856        1.29330925614229
H            0.64032553813098       -3.90234591230099        2.40777465725849
H            3.10038911577353       -3.98363754910035        2.20829531467877
H            4.29567971977422       -2.25387625966741        0.94839190481388
H            4.71358532497307       -0.76263232248243       -2.44964556573148
H            7.17144144419667       -0.79169246322626       -2.60215793763245
H            9.37435204187645       -0.46781682317017       -1.54128349900354
H           10.71223872570389        0.11718436959089        0.44287282651470
H            9.60076659907735        0.72072964237981        2.55632488919086
H            7.14197616158301        0.74465326750817        2.70465250602999
H            4.94604513436268        0.42313276986837        1.64394671205535
H            4.21356880183107        1.92552484052059       -1.66542158624797
H            2.94264651157964        3.66721354986788       -2.83264236840471
H            0.47376933893013        3.60677231018314       -2.84762775340437
H           -0.72727146338039        1.84174563799861       -1.64645179012137
H           -1.27449406018140       -1.91803500555987       -1.35925925645991
H           -3.73676156300996       -1.98587521948913       -1.32230835754853
H           -5.41039075210468       -2.63350701909795        0.41191085421882
H           -7.18450314371729       -4.10066050616833       -0.46901487993854
