$hessian                                                                        
        0.5108945456   0.0613992123   0.2425247973  -0.0823428844  -0.0253831659
       -0.0168025909   0.0236100419  -0.0150166781   0.0179153297  -0.0130413869
        0.0264664973  -0.0105270604  -0.0010042042  -0.0012503725   0.0001766784
        0.0000197719   0.0006045249  -0.0001070232   0.0000756168  -0.0000064480
       -0.0001139406  -0.0000120665  -0.0000412195   0.0000597945  -0.0000171814
        0.0000366407   0.0000131374   0.0000546207  -0.0000243568   0.0000108166
       -0.0001059875   0.0000402029   0.0000702213   0.0002593687   0.0000172882
        0.0000419111  -0.0002019611   0.0001221253   0.0000166932   0.0001261902
       -0.0000756784  -0.0000641757  -0.0000600360   0.0000100077   0.0000094120
        0.0000040822  -0.0000190863  -0.0000245672   0.0000414068  -0.0000373182
        0.0000180071  -0.0000530186   0.0000354827   0.0000019526   0.0000548373
        0.0000538918  -0.0000298822  -0.0000216611  -0.0000673376   0.0000359188
        0.0000059694   0.0000548485  -0.0000237543  -0.0000609393  -0.0000001112
        0.0000048034   0.0000422193  -0.0000046615   0.0000168551  -0.0000032522
       -0.0000097900  -0.0000022462   0.0000079441  -0.0000020300   0.0000092067
       -0.0000142504  -0.0000007520  -0.0000043206   0.0000106433  -0.0000020712
        0.0000114097  -0.0000101132   0.0000026063  -0.0000110719  -0.0000038069
        0.0000022960   0.0000029681  -0.0000000319   0.0000009500  -0.0000020847
        0.0000065735   0.0000009918   0.0000004014  -0.0000183032   0.0000120877
       -0.0000171566   0.0000067311  -0.0000550403   0.0000228570  -0.0000279446
        0.0000694146  -0.0000347754   0.0000558823  -0.0000510529   0.0000268530
       -0.0000514660  -0.0000336647   0.0000063976   0.0000139185   0.0000329320
       -0.0000174378   0.0000116082   0.0000305585   0.0000203191  -0.0000063186
       -0.0000509611   0.0000511577  -0.0000540912  -0.0000894451  -0.0000687675
        0.0000231870  -0.0000826092   0.0003311610  -0.0475499181  -0.0368483118
       -0.0248622926  -0.2160921696   0.0893977880  -0.1268153853  -0.1698289934
       -0.1155390856  -0.0639620752  -0.0022720134   0.0220740678  -0.0066616610
       -0.0004225877  -0.0040326126  -0.0045712282   0.0000068143  -0.0000712958
       -0.0000559390   0.0000131528  -0.0000025955  -0.0000100217   0.0000058467
        0.0000005175  -0.0000250887  -0.0000000592  -0.0000016496   0.0000019246
       -0.0000007883   0.0000030934  -0.0000111405   0.0000084005  -0.0000098061
        0.0000020553  -0.0000050454  -0.0000027968   0.0000055865  -0.0000035762
       -0.0000017490   0.0000029831  -0.0000038528  -0.0000000817   0.0000025370
       -0.0000001658  -0.0000024842   0.0000017524  -0.0000013588  -0.0000015255
        0.0000005843  -0.0000002737  -0.0000019546  -0.0000002688   0.0000007950
        0.0000002068   0.0000018548  -0.0000006767   0.0000023300   0.0000029711
       -0.0000015259   0.0000027610   0.0000029239  -0.0000013593  -0.0000004915
        0.0000028158  -0.0000015362  -0.0000031241  -0.0000008998  -0.0000007695
       -0.0000013685  -0.0000020801  -0.0000014808  -0.0000062491  -0.0000025109
        0.0000041834   0.0000034649  -0.0000063497  -0.0000139931  -0.0000057804
        0.0000101124  -0.0000033561  -0.0000524797  -0.0000976924  -0.0001814778
       -0.0036793833  -0.0046270335  -0.0018664686   0.0020918875  -0.0018746385
        0.0613992123   0.6437983383  -0.0687069061   0.0402077325  -0.3154226362
        0.0802842737  -0.0641318071  -0.0510116612  -0.0294252098   0.0260970115
       -0.0362018329   0.0242235270  -0.0009003417  -0.0003417120  -0.0014900921
        0.0000737574   0.0001956457  -0.0002333600  -0.0000840795  -0.0001907950
       -0.0000423877   0.0000238425   0.0001582751  -0.0000311541  -0.0001472396
        0.0000117781   0.0000289997   0.0000944476  -0.0001555781  -0.0000699537
        0.0000554626   0.0002060474   0.0000735515   0.0000508226  -0.0001087693
       -0.0001128700  -0.0000190406   0.0000706973  -0.0000028884   0.0001034781
        0.0000326234   0.0000327444  -0.0000383813   0.0000072433   0.0000313783
        0.0000147120  -0.0000284204  -0.0000197396   0.0000044825  -0.0000374184
        0.0000164454  -0.0000485389   0.0000336891  -0.0000030402   0.0000455542
        0.0000398136  -0.0000316894  -0.0000177446  -0.0000589309   0.0000296724
       -0.0000028298   0.0000403584  -0.0000185358  -0.0000470567  -0.0000019474
        0.0000019840   0.0000250279   0.0000017657   0.0000022862  -0.0000010885
       -0.0000057324   0.0000028561   0.0000022491  -0.0000032833   0.0000041693
       -0.0000051444   0.0000028129  -0.0000026362  -0.0000006639  -0.0000034607
        0.0000036329  -0.0000043386   0.0000027725  -0.0000038337  -0.0000018959
       -0.0000003165  -0.0000031235   0.0000026832   0.0000039813  -0.0000057304
       -0.0000011494  -0.0000036401  -0.0000042221  -0.0000044852   0.0000126603
       -0.0000080394   0.0000114716  -0.0000333707   0.0000134736  -0.0000290496
        0.0000548960  -0.0000270668   0.0000449694  -0.0000396190   0.0000245385
       -0.0000372367  -0.0000434578   0.0000153505   0.0000277403   0.0000447081
       -0.0000165413  -0.0000074806   0.0000060882   0.0000210558  -0.0001314240
        0.0000033589  -0.0001047260   0.0000923020   0.0000200435   0.0001144101
        0.0004687824  -0.0001359163   0.0003318879   0.0119034013   0.0534345401
       -0.0032528539   0.0239286579  -0.1217658466   0.0303943717  -0.1156386440
       -0.1453372175  -0.0515429863   0.0025513820  -0.0119372692   0.0037073618
       -0.0036019471  -0.0011592899  -0.0004128886  -0.0001602879  -0.0000382060
        0.0000733604  -0.0000069700  -0.0000087166  -0.0000155098  -0.0000038060
       -0.0000210930   0.0000180489  -0.0000066699  -0.0000091814   0.0000070458
        0.0000043522   0.0000041230  -0.0000037985   0.0000126997  -0.0000068047
       -0.0000058635  -0.0000003004   0.0000085401  -0.0000057498   0.0000035976
       -0.0000022353  -0.0000047886   0.0000024948   0.0000009417  -0.0000015306
       -0.0000016520  -0.0000000604  -0.0000019330   0.0000005608   0.0000022179
       -0.0000046157   0.0000014102   0.0000013228  -0.0000055076   0.0000037072
       -0.0000003230  -0.0000029453   0.0000023931  -0.0000005215  -0.0000008694
       -0.0000002156  -0.0000005409  -0.0000010927  -0.0000008824  -0.0000031422
       -0.0000005479  -0.0000007512   0.0000047410   0.0000008706   0.0000006212
        0.0000058415   0.0000003270  -0.0000040126   0.0000071125  -0.0000032560
        0.0000041371   0.0000007934  -0.0000034920   0.0000019340   0.0000202867
        0.0000093419  -0.0000860221   0.0000445544   0.0000689754  -0.0040111715
       -0.0014143494  -0.0007320382   0.0219172583  -0.0127493162   0.0168300725
        0.2425247973  -0.0687069061   0.2845154944  -0.0308828557   0.0376886336
       -0.0754602547   0.0280004109   0.0014761685   0.0191757342  -0.0098501304
        0.0233457345  -0.0180424894  -0.0002827445  -0.0008418328   0.0002314222
       -0.0000336777   0.0003632099  -0.0000315365   0.0000194403   0.0000572558
        0.0000003819   0.0000102208  -0.0000795800   0.0000733294   0.0000246985
        0.0000241154   0.0000048159   0.0000074666   0.0000156089   0.0000424767
       -0.0000855091  -0.0000390665   0.0000173391   0.0001850739   0.0000352513
        0.0000724366  -0.0001342307   0.0000684423   0.0000137989   0.0000506762
       -0.0000498024  -0.0000593153  -0.0000272841   0.0000026864  -0.0000063331
       -0.0000040557  -0.0000007885  -0.0000128136   0.0000266939  -0.0000140358
        0.0000077325  -0.0000200977   0.0000095050  -0.0000058299   0.0000249464
        0.0000256033  -0.0000120988  -0.0000122702  -0.0000328842   0.0000096145
        0.0000066723   0.0000266574  -0.0000073724  -0.0000314101  -0.0000013799
        0.0000009653   0.0000228879  -0.0000041756   0.0000061968  -0.0000038499
       -0.0000017690  -0.0000035217   0.0000046128  -0.0000001015   0.0000025753
       -0.0000089257   0.0000029169  -0.0000028005   0.0000059072  -0.0000017913
        0.0000028761  -0.0000051283   0.0000031910  -0.0000092980  -0.0000034379
       -0.0000076015  -0.0000020764   0.0000003255  -0.0000012885  -0.0000044649
        0.0000061929  -0.0000033065  -0.0000034013  -0.0000117256   0.0000068530
       -0.0000114599   0.0000026953  -0.0000269165   0.0000052773  -0.0000132041
        0.0000349905  -0.0000126842   0.0000284727  -0.0000241655   0.0000112203
       -0.0000274389  -0.0000102062   0.0000094454   0.0000021353   0.0000154166
       -0.0000016382   0.0000067043   0.0000158017   0.0000070449   0.0000282389
       -0.0000567090   0.0000594654  -0.0001024390  -0.0000521076  -0.0000018549
       -0.0000761259   0.0000129216   0.0001542904  -0.0342929846  -0.0349149763
       -0.0143272616  -0.1129125954   0.0731964883  -0.1347244741  -0.0638623348
       -0.0516349562  -0.0641165386  -0.0026102522   0.0169201649  -0.0040885421
       -0.0047706531  -0.0005563920   0.0052003767   0.0000967636   0.0000196903
       -0.0000299333   0.0000134685  -0.0000003666   0.0000056186   0.0000098900
        0.0000069206  -0.0000128314   0.0000011203  -0.0000039985   0.0000057300
        0.0000008211   0.0000002561  -0.0000007286   0.0000029527  -0.0000057964
        0.0000002164  -0.0000036898  -0.0000062599  -0.0000018606  -0.0000031592
       -0.0000018372  -0.0000045953  -0.0000020464   0.0000003236  -0.0000043713
        0.0000026959   0.0000035488   0.0000014783  -0.0000037057   0.0000023790
        0.0000005160  -0.0000009607   0.0000003859  -0.0000001252   0.0000000438
       -0.0000007484  -0.0000048498   0.0000008542  -0.0000026515  -0.0000031578
        0.0000009739  -0.0000036907  -0.0000026927  -0.0000003448  -0.0000025400
       -0.0000017008  -0.0000008003  -0.0000028379   0.0000015386  -0.0000012394
        0.0000007190   0.0000044814  -0.0000003670  -0.0000025023   0.0000043272
        0.0000021586   0.0000016244  -0.0000019467  -0.0000137913  -0.0000137507
        0.0000033652  -0.0000387897  -0.0000842063  -0.0001156641  -0.0045975484
       -0.0003766640   0.0051934684  -0.0063892082   0.0041871253  -0.0037125331
       -0.0823428844   0.0402077325  -0.0308828557   0.5127984179   0.0437195310
        0.2466046855  -0.2008981874  -0.1443057550  -0.0703665215  -0.0477392055
        0.0109732296  -0.0328834315  -0.0002612244   0.0015150852  -0.0039851321
       -0.0004124851  -0.0005449814  -0.0002476396   0.0000115300   0.0003735355
        0.0002606087   0.0000407608  -0.0001658317  -0.0000039697   0.0001963192
        0.0000284472  -0.0000206106  -0.0001456981   0.0000913928   0.0000733850
        0.0000305951  -0.0002921154   0.0000174890  -0.0000989944   0.0000099420
        0.0002365424   0.0000372943  -0.0001041436   0.0000635010  -0.0000750480
        0.0000050297  -0.0000270590   0.0000606982   0.0000119275  -0.0000262753
       -0.0000126964   0.0000339571  -0.0000000837   0.0000073157   0.0000043055
        0.0000062112   0.0000171696  -0.0000101660  -0.0000002172  -0.0000222058
       -0.0000162127   0.0000126358  -0.0000076175   0.0000241402  -0.0000065687
        0.0000044244  -0.0000124621   0.0000003434   0.0000031431  -0.0000010980
       -0.0000050188  -0.0000252224   0.0000058557  -0.0000061939   0.0000029827
       -0.0000044254   0.0000094796  -0.0000053585  -0.0000019843  -0.0000006961
        0.0000099750  -0.0000017331   0.0000011688  -0.0000097569  -0.0000004459
       -0.0000008093   0.0000014143  -0.0000037634   0.0000101908   0.0000052679
        0.0000045862  -0.0000087684   0.0000028991  -0.0000014152   0.0000019083
       -0.0000057635  -0.0000015863  -0.0000013152   0.0000105858   0.0000032404
       -0.0000002074   0.0000038698   0.0000080510   0.0000002505  -0.0000020890
       -0.0000240643   0.0000067369  -0.0000149688   0.0000102197  -0.0000079029
        0.0000243728   0.0000063007  -0.0000062690   0.0000061341  -0.0000089086
       -0.0000061677   0.0000039477  -0.0000279496   0.0000096699  -0.0000100214
       -0.0000605837   0.0001194513   0.0000543151  -0.0000284416  -0.0000393594
       -0.0008692238   0.0003584014  -0.0009511074  -0.0089658191  -0.0227341202
        0.0023688428   0.0158535364   0.0260018964   0.0040318637   0.0000034437
       -0.0210026606   0.0039073524  -0.1871215835   0.0660930903  -0.1124185123
        0.0004680069  -0.0009808788  -0.0000289083   0.0001413411  -0.0002483635
       -0.0002896460  -0.0000104385   0.0000096233   0.0000218074   0.0000126076
        0.0000432742  -0.0000053728   0.0000329544   0.0000182057  -0.0000027926
        0.0000091996   0.0000115151   0.0000193707   0.0000037785   0.0000047581
        0.0000053598  -0.0000009966  -0.0000014352   0.0000028155  -0.0000003248
       -0.0000015582   0.0000045807   0.0000021703   0.0000007614   0.0000019445
       -0.0000046514  -0.0000021201  -0.0000028645  -0.0000001068  -0.0000026957
       -0.0000031441  -0.0000010494  -0.0000016756  -0.0000032327   0.0000009020
       -0.0000006144  -0.0000003257  -0.0000004060   0.0000014237   0.0000018235
       -0.0000022964   0.0000024171   0.0000002186  -0.0000018156  -0.0000004513
        0.0000016765   0.0000030215  -0.0000010308  -0.0000054029  -0.0000011156
        0.0000032355  -0.0000036109  -0.0000078572   0.0000019974  -0.0000028817
       -0.0000130277   0.0000002488  -0.0000042355   0.0000070661  -0.0000121985
       -0.0000078100  -0.0000496507  -0.0000449772  -0.0001301427   0.0002883661
       -0.0004410619   0.0005277021  -0.0010200362   0.0015065513  -0.0059365533
       -0.0253831659  -0.3154226362   0.0376886336   0.0437195310   0.6374856007
       -0.0799747481  -0.0794533386  -0.1888977230  -0.0215713675  -0.0381197163
        0.0520320239  -0.0371336527   0.0038051290   0.0013167840   0.0047584565
        0.0002501580  -0.0006088747   0.0003059702   0.0001470360   0.0003369076
        0.0000245375   0.0000113096  -0.0001300864   0.0000054234   0.0002243111
       -0.0000166692  -0.0000192261  -0.0001699610   0.0001785633   0.0000465928
        0.0002769592  -0.0001349137  -0.0000302705  -0.0001247032   0.0003647552
        0.0000796584   0.0001392927  -0.0001537411  -0.0000519140  -0.0002185019
        0.0000311327   0.0000063262   0.0001067418   0.0000071660  -0.0000533352
       -0.0000038601   0.0000041424   0.0000493180  -0.0000301994   0.0000786960
       -0.0000316458   0.0000963360  -0.0000900778   0.0000119503  -0.0001058442
       -0.0000872302   0.0000552226   0.0000335291   0.0001220889  -0.0000563196
       -0.0000061761  -0.0000841213   0.0000317885   0.0000911984  -0.0000011310
       -0.0000021985  -0.0000493270   0.0000008938  -0.0000108637   0.0000057053
        0.0000189097  -0.0000100008  -0.0000090061  -0.0000012464  -0.0000076030
        0.0000093468   0.0000020918   0.0000051615  -0.0000028984   0.0000009413
       -0.0000125725   0.0000078096   0.0000001204   0.0000081754   0.0000032510
       -0.0000025048   0.0000030663  -0.0000011531   0.0000022148   0.0000111645
        0.0000008174   0.0000030884   0.0000002268   0.0000127070  -0.0000229567
        0.0000236913  -0.0000110634   0.0000928379  -0.0000331824   0.0000397580
       -0.0001251111   0.0000572574  -0.0001085774   0.0000812498  -0.0000395716
        0.0001007634   0.0000826028  -0.0000215558  -0.0000147807  -0.0000813247
        0.0000395857   0.0000012651  -0.0000130488  -0.0000418810   0.0001060134
        0.0000428923   0.0001314317  -0.0001692332  -0.0001255027  -0.0001792986
       -0.0005785766   0.0002307300  -0.0000398701  -0.0238116031  -0.0547302704
       -0.0049450645   0.0746194598  -0.0152834102   0.0523370467  -0.0010465462
       -0.0211417313   0.0035930299   0.0656536926  -0.0740511834   0.0515813291
       -0.0206364802  -0.0213335208  -0.0084030383  -0.0000607218  -0.0002423601
       -0.0002387060  -0.0000296443  -0.0000059653   0.0000047640  -0.0000104229
        0.0000248351  -0.0000078410   0.0000168981   0.0000134014  -0.0000124084
       -0.0000055315   0.0000110360   0.0000266481  -0.0000038701   0.0000017784
        0.0000035695   0.0000030401   0.0000067998  -0.0000070963  -0.0000053340
        0.0000091393   0.0000018510  -0.0000034794   0.0000023870  -0.0000046215
       -0.0000013958  -0.0000008858  -0.0000011138  -0.0000035957  -0.0000014428
        0.0000038498  -0.0000027366   0.0000014403   0.0000038746  -0.0000057389
        0.0000010137   0.0000006918  -0.0000039025   0.0000004081  -0.0000027220
        0.0000006576  -0.0000003536  -0.0000023959   0.0000006665   0.0000041568
        0.0000013749  -0.0000061087   0.0000012288  -0.0000026373  -0.0000087709
       -0.0000064227   0.0000005477  -0.0000017984  -0.0000024309   0.0000028939
       -0.0000149003  -0.0000008051   0.0000000367  -0.0000202577  -0.0000210642
        0.0000002824   0.0000896260  -0.0000499735  -0.0000736549  -0.0004026012
       -0.0003045956  -0.0002006872   0.0010725134   0.0005812572   0.0023176359
       -0.0168025909   0.0802842737  -0.0754602547   0.2466046855  -0.0799747481
        0.2932916212  -0.0837588455  -0.0628471826  -0.0871835772  -0.0223706787
       -0.0051496560  -0.0152882994  -0.0045169959   0.0040577706   0.0043847043
        0.0007107753  -0.0005116525   0.0002568190  -0.0001431921   0.0000703512
        0.0000333795  -0.0000170209  -0.0000788985  -0.0001103259   0.0000174933
        0.0000172449   0.0000136139   0.0000428150  -0.0000152719  -0.0000543997
        0.0002139143   0.0002852350   0.0000619122  -0.0004241545   0.0002266617
        0.0001346816  -0.0000789319  -0.0000815484  -0.0000634352   0.0000934091
        0.0000411224   0.0000094758   0.0000002299   0.0000015554  -0.0000011007
       -0.0000105655   0.0000197168  -0.0000367001   0.0000288109  -0.0000443495
        0.0000275171  -0.0000334849   0.0000456159  -0.0000125128   0.0000377677
        0.0000363483  -0.0000179343  -0.0000254908  -0.0000526086   0.0000257172
        0.0000072611   0.0000221897  -0.0000103575  -0.0000509913  -0.0000035977
       -0.0000012510   0.0000102654   0.0000054247  -0.0000024265   0.0000016109
       -0.0000108295   0.0000149269   0.0000009269  -0.0000006022   0.0000056005
        0.0000051767   0.0000023638   0.0000017724  -0.0000105969  -0.0000012446
        0.0000075668  -0.0000019726   0.0000006897   0.0000094878   0.0000004647
        0.0000029242  -0.0000094385   0.0000054798   0.0000014296  -0.0000066180
       -0.0000076560  -0.0000053745  -0.0000012838   0.0000082763   0.0000202597
       -0.0000107602   0.0000111807  -0.0000238722   0.0000124282  -0.0000259864
        0.0000464545  -0.0000212082   0.0000431527  -0.0000348342   0.0000097039
       -0.0000287071  -0.0000444111   0.0000176497   0.0000165779   0.0000416902
       -0.0000202930  -0.0000052324  -0.0000164784   0.0000352025  -0.0001583231
       -0.0000641638   0.0000127122   0.0001809234  -0.0001771331  -0.0000517796
       -0.0018246423  -0.0008290772  -0.0006290012   0.0025863455  -0.0037648431
       -0.0022176981  -0.0067403059   0.0201312434  -0.0068865760  -0.0001190523
       -0.0091319815   0.0022909910  -0.1125660870   0.0511872486  -0.1185762551
        0.0045233058   0.0040743266   0.0024513350   0.0000580974  -0.0001254200
       -0.0000203766  -0.0000122114   0.0000293474   0.0000218009   0.0000070447
        0.0000153851   0.0000244294   0.0000192236   0.0000351147   0.0000164126
       -0.0000256662   0.0000018578   0.0000046692   0.0000035485   0.0000028440
       -0.0000003139  -0.0000024733  -0.0000073597   0.0000026848   0.0000042529
       -0.0000060866   0.0000001830   0.0000051372   0.0000019641   0.0000050088
       -0.0000014780   0.0000021081  -0.0000005847   0.0000009679   0.0000025550
       -0.0000031229   0.0000014898   0.0000014038  -0.0000016774   0.0000044241
        0.0000011386  -0.0000011603   0.0000030017   0.0000008903   0.0000040505
       -0.0000029482   0.0000004555   0.0000030395  -0.0000036627  -0.0000030533
        0.0000020727   0.0000055413  -0.0000003983  -0.0000010397   0.0000031568
        0.0000084199   0.0000005626  -0.0000071672   0.0000050006  -0.0000004918
       -0.0000057138  -0.0000018400  -0.0000070764   0.0000029341   0.0000003527
       -0.0000025704  -0.0000264714  -0.0000003503  -0.0000455539   0.0004422408
       -0.0002795717   0.0001108104  -0.0059026127   0.0025574607   0.0034529116
        0.0236100419  -0.0641318071   0.0280004109  -0.2008981874  -0.0794533386
       -0.0837588455   0.4941424141   0.0638377935   0.2338257087  -0.1912338500
        0.0326532334  -0.0979031411  -0.0374468151  -0.0067714516  -0.0227096709
       -0.0009197237   0.0041688238  -0.0001469998  -0.0002631998  -0.0000953882
       -0.0002278869   0.0000754205   0.0002895074   0.0002562952  -0.0002988731
        0.0000075517  -0.0000233054   0.0002281775  -0.0002190165   0.0000714343
       -0.0006043058   0.0002686910   0.0004098599  -0.0006630169  -0.0010330610
       -0.0000272467  -0.0002440167   0.0000117407   0.0000353398   0.0004479646
       -0.0000933529  -0.0000375065  -0.0001925389   0.0000282744   0.0000873019
       -0.0000168132  -0.0000516850  -0.0000765846   0.0000591879  -0.0001017568
        0.0000281896  -0.0001856729   0.0000968223   0.0000184788   0.0001834570
        0.0001407787  -0.0000895010  -0.0000196937  -0.0002000244   0.0000898133
        0.0000141855   0.0001948966  -0.0000726197  -0.0001468344   0.0000014322
        0.0000153940   0.0000971223  -0.0000065359   0.0000264709  -0.0000140999
       -0.0000247543   0.0000078700   0.0000239271  -0.0000012066   0.0000083478
       -0.0000364316  -0.0000000010  -0.0000062368   0.0000387054  -0.0000021019
        0.0000161182  -0.0000077532   0.0000085244  -0.0000272991  -0.0000116421
       -0.0000028037   0.0000191486  -0.0000022995   0.0000022032   0.0000015453
        0.0000324117   0.0000015092   0.0000055310  -0.0000594799   0.0000251128
       -0.0000323967   0.0000357044  -0.0001928594   0.0000657571  -0.0000382201
        0.0002010767  -0.0000858746   0.0001837204  -0.0001313565   0.0000719050
       -0.0001872914  -0.0000973002   0.0000130847   0.0000736690   0.0001123943
       -0.0000322073  -0.0000321829   0.0000300567   0.0000674006   0.0000101978
        0.0000071632  -0.0000799669   0.0003357182  -0.0001228954   0.0000095798
        0.0017339138  -0.0025135339  -0.0023136137   0.0141868852   0.0669051869
       -0.0068866153  -0.0470206655  -0.0080472390  -0.0262491024   0.0028434448
       -0.0002715150  -0.0028509765  -0.0187912515  -0.0137862919  -0.0097964059
       -0.0414913589   0.0089583856  -0.0067312575   0.0004070790  -0.0001023170
       -0.0001558405   0.0000440927  -0.0000461013  -0.0000188147   0.0000287516
       -0.0000109881  -0.0000451127  -0.0000091723  -0.0000713228  -0.0000033064
       -0.0001163883   0.0000011338  -0.0000498937  -0.0000149321  -0.0000380255
       -0.0000007855  -0.0000007511   0.0000097504   0.0000036363  -0.0000075108
        0.0000033674  -0.0000039938  -0.0000070017   0.0000005384   0.0000038714
        0.0000028802  -0.0000008123  -0.0000013233   0.0000008954   0.0000022926
        0.0000063613  -0.0000011863  -0.0000011437   0.0000068230  -0.0000059801
        0.0000006700   0.0000047141  -0.0000045910   0.0000012694   0.0000007851
        0.0000006869   0.0000008412   0.0000014722   0.0000018667  -0.0000008223
        0.0000022615  -0.0000082076  -0.0000019299   0.0000044938  -0.0000044462
       -0.0000058861  -0.0000000252   0.0000062739  -0.0000009760  -0.0000092684
       -0.0000010178   0.0000182609  -0.0000178356  -0.0000351306   0.0000246703
        0.0000335837  -0.0001379226   0.0002982279   0.0001576582   0.0028643428
       -0.0005392799  -0.0028219958  -0.0005326813  -0.0001412988  -0.0000831897
       -0.0150166781  -0.0510116612   0.0014761685  -0.1443057550  -0.1888977230
       -0.0628471826   0.0638377935   0.6575263744  -0.0794157046   0.0887754255
       -0.1196501609   0.0716949192  -0.0196737829   0.0068501526  -0.0102700358
       -0.0009603033   0.0010243013  -0.0007198553  -0.0004974735  -0.0008009092
        0.0000701281   0.0000807778   0.0002005824  -0.0000392576   0.0000392912
       -0.0000260339  -0.0000121793   0.0000001348   0.0000564880   0.0001800591
       -0.0003305248  -0.0002637420  -0.0001195199  -0.0014847497  -0.0007642544
        0.0000357598   0.0003914130  -0.0004467817   0.0000471780  -0.0004911797
       -0.0000179057   0.0000079123   0.0001719983   0.0000100514  -0.0000231233
        0.0000497123  -0.0000649813   0.0001602829  -0.0001143766   0.0001696334
       -0.0000778020   0.0001793994  -0.0001895180   0.0000297790  -0.0001900574
       -0.0001520999   0.0000935896   0.0000665962   0.0002248241  -0.0001084997
       -0.0000162003  -0.0001317358   0.0000746961   0.0001808708   0.0000099565
        0.0000015343  -0.0000319809  -0.0000201951   0.0000086313   0.0000024577
        0.0000481163  -0.0000623380  -0.0000071855  -0.0000006785  -0.0000068927
       -0.0000132662   0.0000029246  -0.0000009716   0.0000212365  -0.0000001398
       -0.0000135179  -0.0000055708   0.0000073919  -0.0000236113  -0.0000067915
       -0.0000141523   0.0000254541  -0.0000131340   0.0000030013   0.0000190805
        0.0000152401   0.0000133364  -0.0000011068  -0.0000143808  -0.0000610221
        0.0000420740  -0.0000344769   0.0001362906  -0.0000774437   0.0000713923
       -0.0002006104   0.0000898275  -0.0001848503   0.0001305656  -0.0000539655
        0.0001539662   0.0001779759  -0.0000510708  -0.0000753411  -0.0001598824
        0.0000846615   0.0000464712   0.0000912342  -0.0001591214   0.0004456374
        0.0001662262   0.0000814958  -0.0004864060   0.0004106106   0.0000969358
        0.0006247656  -0.0015935306  -0.0028090991   0.0241470769  -0.0147464762
        0.0192215052  -0.0093410770   0.0014340179  -0.0073963397  -0.0004992558
       -0.0053340966   0.0024688596   0.0058943038   0.0055831615   0.0026599606
        0.0086587098  -0.2849616099   0.0639850784   0.0002252396   0.0000033560
       -0.0004520612   0.0000340140  -0.0000120168  -0.0000402451   0.0000024657
       -0.0000498905  -0.0000048215  -0.0000354166  -0.0000319119   0.0000029563
       -0.0001206552  -0.0000269666  -0.0000358782   0.0000135672  -0.0000135475
        0.0000013501   0.0000045053   0.0000256525  -0.0000124256  -0.0000128417
        0.0000212276   0.0000035559  -0.0000173190   0.0000011395  -0.0000177692
        0.0000103688  -0.0000027360   0.0000078405  -0.0000089616  -0.0000066763
        0.0000097612  -0.0000018663  -0.0000011426   0.0000075892  -0.0000071325
        0.0000008762  -0.0000001839  -0.0000047710   0.0000012772  -0.0000078192
        0.0000079245   0.0000000248  -0.0000057163   0.0000075443   0.0000125406
       -0.0000041103  -0.0000205263  -0.0000018115   0.0000049021  -0.0000150687
       -0.0000222282   0.0000003138   0.0000048261  -0.0000277620   0.0000051607
        0.0000114137   0.0000201473  -0.0000029353  -0.0000563593   0.0000180454
        0.0000113655   0.0000490416  -0.0000959699   0.0000611288   0.0000272879
       -0.0054319684   0.0024731525  -0.0001571530   0.0008530248  -0.0003720437
        0.0179153297  -0.0294252098   0.0191757342  -0.0703665215  -0.0215713675
       -0.0871835772   0.2338257087  -0.0794157046   0.2824730931  -0.1145228019
        0.0332179470  -0.1284028797  -0.0183323730  -0.0025579644  -0.0083299742
        0.0002723605   0.0008411569  -0.0003511196  -0.0000114235  -0.0002539792
       -0.0006244715  -0.0001180132   0.0002553529  -0.0000575809  -0.0001552427
       -0.0001144032   0.0000267826   0.0000770739  -0.0001177475  -0.0000011764
        0.0000072094   0.0003254365   0.0002753865  -0.0007127633  -0.0004693543
        0.0000271349   0.0001671301  -0.0001208747  -0.0000421489   0.0000371602
        0.0000788173   0.0000490090  -0.0000377151   0.0000190892   0.0000343669
        0.0000014590  -0.0000141765   0.0000087364  -0.0000144676   0.0000217498
       -0.0000147111   0.0000017654  -0.0000258656   0.0000073582   0.0000026381
       -0.0000069369   0.0000023053   0.0000172449   0.0000094494  -0.0000111674
        0.0000001168   0.0000162252  -0.0000018657   0.0000154281   0.0000022468
        0.0000024258   0.0000059871  -0.0000046227   0.0000022263  -0.0000058309
        0.0000084909  -0.0000110252   0.0000037478   0.0000029464  -0.0000052366
       -0.0000086118   0.0000015470  -0.0000024094   0.0000135701   0.0000015968
       -0.0000045244   0.0000014792   0.0000034960  -0.0000114400  -0.0000046026
       -0.0000059782   0.0000070599  -0.0000027589  -0.0000013970   0.0000048361
        0.0000142506   0.0000030929  -0.0000007058  -0.0000183106  -0.0000086747
        0.0000016214  -0.0000029641  -0.0000170084  -0.0000035649   0.0000152328
       -0.0000009657   0.0000044168   0.0000057219   0.0000066202   0.0000015766
       -0.0000175031   0.0000198985  -0.0000027181  -0.0000069030  -0.0000096219
        0.0000167357   0.0000065392   0.0000274969  -0.0000158696  -0.0000197232
        0.0000419797  -0.0000020854   0.0000882779   0.0001022437   0.0001515936
        0.0017151588  -0.0008255928  -0.0006699209   0.0035072134   0.0483681322
       -0.0076424271  -0.0255578418  -0.0067216649  -0.0201130153  -0.0029726896
        0.0025449183   0.0053067853  -0.0139262137  -0.0100143754  -0.0063757111
       -0.0070998065   0.0642895250  -0.0521132039  -0.0002885862  -0.0006401501
       -0.0004588787  -0.0000248348   0.0000014391  -0.0000140849  -0.0000328202
       -0.0000471199   0.0000269606  -0.0000098684  -0.0000036365  -0.0000028262
       -0.0000431562   0.0000228767  -0.0000112345  -0.0000097493  -0.0000045488
       -0.0000063813   0.0000037962   0.0000037744  -0.0000057471  -0.0000054012
        0.0000052494  -0.0000041580  -0.0000043443  -0.0000008760  -0.0000081674