 Entering Gaussian System
 *********************************************
 Gaussian 98:
 frequency output generated by the xtb code
 *********************************************
                         Standard orientation:
 --------------------------------------------------------------------
  Center     Atomic     Atomic              Coordinates (Angstroms)
  Number     Number      Type              X           Y           Z
 --------------------------------------------------------------------
    1          6             0        2.716829    5.140590   -0.296481
    2          6             0        2.847506    3.956542    0.666507
    3          6             0        2.731354    4.493394    2.101441
    4          6             0        4.229332    3.319898    0.458921
    5          6             0        1.774996    2.901199    0.446477
    6          6             0        0.805844    3.002495   -0.545399
    7          6             0       -0.164221    2.031110   -0.709135
    8          6             0       -0.194664    0.926012    0.130857
    9          7             0       -1.199683   -0.050470   -0.003698
   10          6             0       -1.044424   -1.431244    0.029125
   11          6             0        0.170001   -2.158169    0.082718
   12          6             0        0.151119   -3.383644    0.792660
   13          6             0        1.299651   -4.019682    1.140805
   14          6             0        2.579538   -3.497714    0.755111
   15          6             0        3.772994   -4.092681    1.158243
   16          6             0        4.996834   -3.603718    0.729981
   17          6             0        5.066941   -2.528891   -0.168108
   18          6             0        6.301119   -2.039275   -0.663833
   19          6             0        6.334332   -0.999474   -1.575207
   20          6             0        5.168545   -0.422536   -2.033255
   21          6             0        3.905369   -0.870812   -1.562978
   22          6             0        2.698794   -0.345201   -2.036368
   23          6             0        1.483112   -0.773656   -1.525120
   24          6             0        1.419463   -1.725093   -0.508594
   25          6             0        2.617708   -2.370598   -0.108491
   26          6             0        3.861708   -1.919830   -0.608004
   27          7             0       -2.236366   -2.025311    0.051292
   28          6             0       -3.169607   -1.058497    0.003839
   29          6             0       -4.587410   -1.384532    0.023796
   30          6             0       -5.011510   -2.591699   -0.533143
   31          6             0       -6.349175   -2.936027   -0.523363
   32          6             0       -7.282553   -2.085739    0.048829
   33          6             0       -6.867200   -0.894712    0.622885
   34          6             0       -5.530343   -0.543572    0.614389
   35          6             0       -2.549307    0.198357   -0.025370
   36          6             0       -3.138191    1.526244   -0.057296
   37          6             0       -2.739511    2.517746    0.841202
   38          6             0       -3.319428    3.771377    0.797189
   39          6             0       -4.299327    4.056944   -0.140198
   40          6             0       -4.706729    3.075807   -1.031191
   41          6             0       -4.134776    1.819182   -0.991358
   42          6             0        0.768944    0.803757    1.124951
   43          6             0        1.736979    1.776543    1.268680
   44          1             0        2.823409    4.819361   -1.329975
   45          1             0        1.759293    5.641632   -0.173984
   46          1             0        3.503613    5.862808   -0.088433
   47          1             0        1.738909    4.907096    2.269643
   48          1             0        2.904652    3.710684    2.834505
   49          1             0        3.464877    5.279878    2.265064
   50          1             0        4.333140    2.973740   -0.566805
   51          1             0        5.009999    4.051659    0.655830
   52          1             0        4.381793    2.470563    1.119207
   53          1             0        0.790867    3.845118   -1.216222
   54          1             0       -0.898266    2.129104   -1.495630
   55          1             0       -0.810998   -3.750366    1.118244
   56          1             0        1.272228   -4.920675    1.735511
   57          1             0        3.736653   -4.951580    1.813591
   58          1             0        5.912502   -4.066083    1.069773
   59          1             0        7.217368   -2.498763   -0.323490
   60          1             0        7.287076   -0.642771   -1.941301
   61          1             0        5.198270    0.375364   -2.760515
   62          1             0        2.717065    0.410761   -2.808002
   63          1             0        0.570066   -0.372528   -1.938381
   64          1             0       -4.272331   -3.245077   -0.971463
   65          1             0       -6.666752   -3.870267   -0.963522
   66          1             0       -8.328917   -2.353724    0.054706
   67          1             0       -7.588923   -0.236410    1.084615
   68          1             0       -5.212652    0.376653    1.081572
   69          1             0       -1.988559    2.296078    1.585554
   70          1             0       -3.005722    4.528476    1.500811
   71          1             0       -4.747380    5.038802   -0.173833
   72          1             0       -5.472212    3.291382   -1.762032
   73          1             0       -4.448102    1.054056   -1.686893
   74          1             0        0.750671   -0.050403    1.786399
   75          1             0        2.471730    1.648970    2.048472
 --------------------------------------------------------------------
     1 basis functions        1 primitive gaussians
     1 alpha electrons        1 beta electrons
 
 Harmonic frequencies (cm**-1), IR intensities (km*mol⁻¹),
 Raman scattering activities (A**4/amu), Raman depolarization ratios,
 reduced masses (AMU), force constants (mDyne/A) and normal coordinates:
                      1                      2                      3
                        a                      a                      a 
 Frequencies --    14.3145                16.6449                21.1408
 Red. masses --    10.5014                10.6108                10.3241
 Frc consts  --     0.0000                 0.0000                 0.0000
 IR Inten    --     0.4860                 0.6048                 0.1005
 Raman Activ --     0.0000                 0.0000                 0.0000
 Depolar     --     0.0000                 0.0000                 0.0000
 Atom AN      X      Y      Z        X      Y      Z        X      Y      Z
   1   6    -0.28   0.26   0.07    -0.02  -0.02  -0.14     0.06  -0.06  -0.06
   2   6    -0.15   0.20  -0.02     0.05  -0.05  -0.18    -0.06   0.02   0.05
   3   6    -0.11   0.11   0.02     0.17  -0.08  -0.16    -0.27   0.12  -0.00
   4   6    -0.11   0.31  -0.12     0.02  -0.06  -0.31    -0.01   0.03   0.30
   5   6    -0.08   0.14  -0.03     0.02  -0.03  -0.13    -0.02  -0.01  -0.01
   6   6    -0.10   0.11  -0.02    -0.03  -0.02  -0.08     0.03  -0.03  -0.05
   7   6    -0.05   0.06  -0.02    -0.04  -0.01  -0.05     0.04  -0.04  -0.08
   8   6     0.01   0.05  -0.03    -0.01  -0.02  -0.05     0.02  -0.03  -0.07
   9   7     0.03   0.03  -0.02    -0.01  -0.02  -0.03     0.02  -0.03  -0.09
  10   6     0.04   0.03  -0.02    -0.01  -0.02  -0.08     0.00  -0.03  -0.09
  11   6     0.03   0.01  -0.01    -0.02  -0.03  -0.09    -0.01  -0.04  -0.12
  12   6    -0.02  -0.00  -0.03    -0.04  -0.06  -0.14    -0.03  -0.08  -0.18
  13   6    -0.05  -0.06  -0.04    -0.05  -0.06  -0.11    -0.04  -0.10  -0.19
  14   6    -0.03  -0.10  -0.03    -0.04  -0.03  -0.03    -0.03  -0.08  -0.12
  15   6    -0.05  -0.17  -0.04    -0.05  -0.02   0.01    -0.04  -0.09  -0.11
  16   6    -0.03  -0.21  -0.03    -0.03   0.02   0.10    -0.02  -0.06  -0.04
  17   6     0.02  -0.20  -0.01    -0.01   0.06   0.14     0.00  -0.00   0.03
  18   6     0.04  -0.24   0.00     0.01   0.11   0.24     0.02   0.05   0.11
  19   6     0.09  -0.22   0.03     0.04   0.14   0.28     0.04   0.10   0.18
  20   6     0.11  -0.15   0.05     0.06   0.12   0.22     0.05   0.11   0.15
  21   6     0.09  -0.10   0.04     0.04   0.07   0.13     0.04   0.06   0.06
  22   6     0.12  -0.03   0.06     0.05   0.06   0.07     0.05   0.06   0.03
  23   6     0.10   0.01   0.04     0.03   0.02  -0.01     0.04   0.02  -0.04
  24   6     0.05  -0.02   0.01    -0.00  -0.01  -0.03     0.01  -0.02  -0.08
  25   6     0.02  -0.08  -0.00    -0.01   0.00   0.01    -0.00  -0.03  -0.07
  26   6     0.04  -0.13   0.01     0.01   0.04   0.09     0.01   0.01   0.01
  27   7     0.04   0.02  -0.02    -0.02  -0.02  -0.09    -0.01  -0.02  -0.05
  28   6     0.03   0.02  -0.01    -0.02  -0.01  -0.03     0.00  -0.01  -0.02
  29   6     0.04   0.01  -0.00    -0.02  -0.00  -0.02     0.00   0.02   0.08
  30   6     0.04   0.02  -0.02    -0.04   0.04  -0.09    -0.06   0.01   0.13
  31   6     0.04   0.01  -0.01    -0.04   0.05  -0.09    -0.06   0.03   0.23
  32   6     0.04  -0.00   0.01    -0.02   0.02  -0.01    -0.01   0.06   0.28
  33   6     0.04  -0.01   0.02     0.00  -0.02   0.06     0.05   0.07   0.23
  34   6     0.04  -0.00   0.02     0.00  -0.03   0.05     0.06   0.04   0.13
  35   6     0.03   0.02  -0.01    -0.01  -0.01   0.00     0.02  -0.01  -0.04
  36   6     0.02   0.01   0.02    -0.01  -0.01   0.07     0.03  -0.01  -0.06
  37   6     0.00  -0.00   0.04     0.03  -0.05   0.10     0.05   0.01  -0.10
  38   6    -0.01  -0.01   0.07     0.02  -0.04   0.17     0.06   0.02  -0.13
  39   6    -0.02  -0.00   0.07    -0.01  -0.01   0.22     0.04  -0.00  -0.12
  40   6    -0.01   0.01   0.05    -0.04   0.03   0.19     0.01  -0.03  -0.08
  41   6     0.01   0.02   0.02    -0.04   0.03   0.12     0.01  -0.03  -0.05
  42   6     0.04   0.07  -0.06     0.03  -0.02  -0.09    -0.02  -0.02  -0.03
  43   6    -0.01   0.12  -0.06     0.04  -0.03  -0.13    -0.04  -0.00   0.00
  44   1    -0.08   0.10   0.01    -0.03   0.00  -0.05     0.05  -0.04  -0.01
  45   1    -0.09   0.05   0.04    -0.00  -0.01  -0.02     0.02  -0.01  -0.06
  46   1    -0.10   0.09   0.02    -0.00  -0.01  -0.05     0.02  -0.02  -0.01
  47   1    -0.04   0.00   0.03     0.05  -0.03  -0.02    -0.09   0.04  -0.05
  48   1     0.00   0.02  -0.01     0.07  -0.03  -0.06    -0.12   0.05   0.02
  49   1    -0.05   0.05   0.01     0.05  -0.03  -0.06    -0.08   0.04   0.02
  50   1    -0.04   0.12  -0.05    -0.02  -0.00  -0.10     0.04  -0.02   0.10
  51   1    -0.04   0.10  -0.03     0.01  -0.02  -0.10    -0.02   0.02   0.09
  52   1    -0.01   0.08  -0.06     0.01  -0.03  -0.11    -0.02   0.03   0.12
  53   1    -0.04   0.03  -0.00    -0.02  -0.00  -0.02     0.01  -0.01  -0.02
  54   1    -0.02   0.01  -0.00    -0.02  -0.00  -0.00     0.02  -0.01  -0.03
  55   1    -0.01   0.01  -0.01    -0.01  -0.02  -0.05    -0.01  -0.03  -0.06
  56   1    -0.02  -0.02  -0.02    -0.02  -0.02  -0.04    -0.02  -0.04  -0.07
  57   1    -0.03  -0.05  -0.02    -0.02  -0.01  -0.01    -0.02  -0.04  -0.05
  58   1    -0.01  -0.08  -0.01    -0.01   0.01   0.04    -0.01  -0.02  -0.01
  59   1     0.00  -0.09  -0.00     0.00   0.04   0.08     0.00   0.01   0.04
  60   1     0.03  -0.08   0.01     0.02   0.05   0.10     0.02   0.04   0.07
  61   1     0.04  -0.04   0.02     0.02   0.04   0.07     0.02   0.04   0.06
  62   1     0.04  -0.00   0.02     0.02   0.02   0.03     0.02   0.03   0.02
  63   1     0.03   0.02   0.01     0.01   0.00  -0.01     0.01   0.00  -0.02
  64   1     0.01   0.01  -0.01    -0.02   0.02  -0.04    -0.03  -0.00   0.03
  65   1     0.01   0.00  -0.01    -0.02   0.02  -0.04    -0.03   0.01   0.08
  66   1     0.01  -0.00   0.00    -0.01   0.01  -0.00    -0.00   0.02   0.11
  67   1     0.01  -0.01   0.01     0.01  -0.01   0.04     0.03   0.03   0.08
  68   1     0.01  -0.00   0.01     0.01  -0.02   0.03     0.03   0.01   0.02
  69   1     0.00  -0.00   0.01     0.02  -0.02   0.02     0.02   0.01  -0.03
  70   1    -0.01  -0.01   0.02     0.01  -0.02   0.05     0.02   0.01  -0.05
  71   1    -0.01  -0.00   0.03    -0.00  -0.00   0.08     0.01  -0.00  -0.04
  72   1    -0.00   0.01   0.02    -0.02   0.02   0.07    -0.00  -0.01  -0.02
  73   1     0.01   0.01   0.00    -0.02   0.02   0.03    -0.00  -0.02  -0.01
  74   1     0.03   0.02  -0.02     0.02  -0.01  -0.03    -0.01  -0.00  -0.01
  75   1     0.01   0.04  -0.02     0.02  -0.01  -0.05    -0.02   0.00   0.01
                      4                      5                      6
                        a                      a                      a 
 Frequencies --    22.8759                29.2579                30.9603
 Red. masses --     9.4452                10.4906                10.2958
 Frc consts  --     0.0000                 0.0000                 0.0000
 IR Inten    --     0.0154                 0.3140                 0.7057
 Raman Activ --     0.0000                 0.0000                 0.0000
 Depolar     --     0.0000                 0.0000                 0.0000
 Atom AN      X      Y      Z        X      Y      Z        X      Y      Z
   1   6    -0.14   0.13   0.33     0.20  -0.07  -0.07     0.13  -0.05  -0.10
   2   6     0.03  -0.04   0.08     0.12  -0.03  -0.01     0.07  -0.02  -0.05
   3   6     0.28  -0.30   0.20     0.13   0.04  -0.04     0.09   0.04  -0.07
   4   6    -0.01  -0.01  -0.27     0.08  -0.12   0.03     0.04  -0.09  -0.02
   5   6     0.01  -0.02   0.06     0.06   0.02   0.02     0.01   0.02  -0.00
   6   6     0.00   0.03   0.07     0.04   0.06   0.05    -0.01   0.05   0.03
   7   6     0.00   0.04   0.02     0.00   0.09   0.06    -0.04   0.08   0.05
   8   6     0.00   0.00  -0.02    -0.01   0.08   0.05    -0.04   0.07   0.04
   9   7    -0.00   0.01  -0.05    -0.01   0.09   0.04    -0.04   0.07   0.04
  10   6    -0.00   0.01  -0.03     0.02   0.08   0.03    -0.02   0.07   0.02
  11   6    -0.01   0.00  -0.04     0.02   0.08   0.03    -0.02   0.06   0.01
  12   6    -0.01  -0.00  -0.05    -0.00   0.07  -0.00    -0.05   0.04  -0.04
  13   6    -0.01  -0.00  -0.05    -0.02   0.02  -0.03    -0.06  -0.02  -0.08
  14   6    -0.01   0.00  -0.03    -0.01  -0.02  -0.03    -0.05  -0.04  -0.07
  15   6    -0.01   0.01  -0.01    -0.03  -0.08  -0.07    -0.07  -0.11  -0.12
  16   6    -0.01   0.02   0.01    -0.02  -0.12  -0.08    -0.06  -0.12  -0.10
  17   6    -0.00   0.03   0.02     0.01  -0.09  -0.04    -0.03  -0.07  -0.04
  18   6     0.00   0.04   0.05     0.03  -0.12  -0.04    -0.02  -0.07  -0.01
  19   6     0.01   0.05   0.05     0.05  -0.09   0.00     0.01  -0.01   0.06
  20   6     0.01   0.04   0.03     0.07  -0.02   0.04     0.03   0.05   0.10
  21   6     0.01   0.03   0.01     0.06   0.01   0.04     0.01   0.05   0.07
  22   6     0.01   0.02  -0.01     0.07   0.08   0.08     0.03   0.11   0.10
  23   6     0.01   0.01  -0.02     0.06   0.10   0.07     0.02   0.11   0.07
  24   6    -0.00   0.01  -0.03     0.04   0.07   0.04    -0.01   0.06   0.02
  25   6    -0.00   0.01  -0.02     0.02   0.01   0.01    -0.03   0.00  -0.01
  26   6    -0.00   0.02   0.00     0.03  -0.02   0.01    -0.01  -0.00   0.01
  27   7    -0.00   0.01  -0.00     0.04   0.06   0.02    -0.01   0.06   0.02
  28   6    -0.00   0.01  -0.01     0.02   0.03   0.01    -0.03   0.04   0.01
  29   6    -0.00   0.01   0.05     0.02   0.01   0.01    -0.01  -0.04   0.00
  30   6    -0.02  -0.02   0.13     0.02   0.08  -0.14     0.12  -0.19   0.23
  31   6    -0.02  -0.03   0.20     0.02   0.07  -0.14     0.16  -0.31   0.23
  32   6    -0.00   0.00   0.18     0.03  -0.02   0.01     0.05  -0.28   0.02
  33   6     0.02   0.04   0.10     0.04  -0.09   0.15    -0.08  -0.12  -0.21
  34   6     0.01   0.04   0.03     0.04  -0.08   0.15    -0.11  -0.00  -0.22
  35   6    -0.00   0.01  -0.04    -0.01   0.05   0.01    -0.04   0.05   0.02
  36   6    -0.01   0.00  -0.10    -0.09   0.01  -0.02    -0.03   0.06   0.02
  37   6    -0.04   0.04  -0.12    -0.12   0.10  -0.10    -0.06   0.03   0.06
  38   6    -0.06   0.03  -0.18    -0.24   0.04  -0.13    -0.02   0.05   0.05
  39   6    -0.04  -0.01  -0.22    -0.34  -0.10  -0.08     0.05   0.09  -0.01
  40   6    -0.01  -0.05  -0.19    -0.30  -0.19   0.00     0.08   0.12  -0.05
  41   6    -0.00  -0.05  -0.13    -0.18  -0.13   0.03     0.04   0.10  -0.04
  42   6     0.01  -0.05  -0.04    -0.01   0.06   0.04    -0.03   0.06   0.03
  43   6     0.02  -0.06  -0.00     0.02   0.03   0.03    -0.01   0.03   0.01
  44   1    -0.07   0.10   0.07     0.05  -0.04  -0.01     0.03  -0.03  -0.02
  45   1    -0.05   0.01   0.15     0.07   0.00  -0.02     0.05   0.00  -0.03
  46   1    -0.05   0.04   0.11     0.07  -0.03  -0.03     0.05  -0.03  -0.04
  47   1     0.08  -0.11   0.13     0.05   0.03  -0.02     0.03   0.03  -0.03
  48   1     0.14  -0.12   0.01     0.02   0.01  -0.00     0.01   0.02  -0.01
  49   1     0.08  -0.08   0.05     0.05  -0.00  -0.02     0.04   0.00  -0.03
  50   1    -0.05   0.07  -0.11     0.02  -0.05   0.02     0.00  -0.04  -0.00
  51   1     0.01  -0.02  -0.06     0.03  -0.04  -0.00     0.02  -0.03  -0.02
  52   1     0.02  -0.05  -0.15     0.01  -0.03   0.02     0.00  -0.02   0.01
  53   1     0.00   0.02   0.03     0.02   0.02   0.01    -0.00   0.02   0.01
  54   1     0.00   0.02   0.01    -0.00   0.03   0.02    -0.02   0.03   0.02
  55   1    -0.00  -0.00  -0.02    -0.00   0.02  -0.00    -0.02   0.01  -0.01
  56   1    -0.00  -0.00  -0.02    -0.01   0.00  -0.02    -0.03  -0.01  -0.04
  57   1    -0.00   0.00  -0.01    -0.02  -0.03  -0.03    -0.03  -0.04  -0.05
  58   1    -0.00   0.01   0.01    -0.01  -0.05  -0.03    -0.02  -0.05  -0.04
  59   1    -0.00   0.01   0.02     0.00  -0.05  -0.02    -0.01  -0.03  -0.01
  60   1     0.00   0.02   0.02     0.02  -0.03  -0.00     0.01  -0.00   0.03
  61   1     0.01   0.01   0.01     0.03   0.00   0.02     0.01   0.03   0.04
  62   1     0.00   0.01  -0.00     0.03   0.03   0.03     0.01   0.04   0.04
  63   1     0.00   0.00  -0.01     0.02   0.04   0.03     0.01   0.04   0.02
  64   1    -0.01  -0.01   0.04     0.00   0.04  -0.07     0.06  -0.06   0.12
  65   1    -0.01  -0.02   0.08     0.00   0.04  -0.07     0.08  -0.13   0.12
  66   1     0.00  -0.00   0.07     0.01  -0.01   0.00     0.02  -0.11   0.01
  67   1     0.01   0.02   0.02     0.01  -0.05   0.08    -0.05  -0.03  -0.11
  68   1     0.01   0.02  -0.01     0.01  -0.04   0.07    -0.06   0.03  -0.11
  69   1    -0.02   0.02  -0.03    -0.02   0.06  -0.04    -0.03  -0.00   0.03
  70   1    -0.02   0.02  -0.06    -0.08   0.03  -0.06    -0.01   0.01   0.02
  71   1    -0.01  -0.01  -0.08    -0.13  -0.04  -0.03     0.02   0.03  -0.01
  72   1    -0.00  -0.03  -0.06    -0.11  -0.09   0.01     0.04   0.04  -0.03
  73   1     0.01  -0.02  -0.03    -0.04  -0.06   0.02     0.02   0.04  -0.02
  74   1     0.00  -0.02  -0.02    -0.01   0.02   0.01    -0.01   0.02   0.01
  75   1     0.01  -0.03  -0.01     0.01   0.00   0.01     0.00   0.00  -0.00
                      7                      8                      9
                        a                      a                      a 
 Frequencies --    39.7910                54.7439                66.6530
 Red. masses --    10.9037                10.1707                10.3581
 Frc consts  --     0.0000                 0.0000                 0.0000
 IR Inten    --     0.3952                 0.1113                 0.7103
 Raman Activ --     0.0000                 0.0000                 0.0000
 Depolar     --     0.0000                 0.0000                 0.0000
 Atom AN      X      Y      Z        X      Y      Z        X      Y      Z
   1   6    -0.10   0.01  -0.09     0.06  -0.05  -0.06    -0.00  -0.06  -0.06
   2   6    -0.03   0.03  -0.07     0.01  -0.02  -0.02    -0.04  -0.03  -0.02
   3   6     0.04   0.06  -0.07    -0.01   0.02  -0.03     0.09   0.04  -0.04
   4   6    -0.03   0.05  -0.13     0.00  -0.05   0.03    -0.10  -0.15  -0.08
   5   6    -0.02   0.01   0.01    -0.01   0.00  -0.00    -0.11   0.03   0.06
   6   6    -0.04  -0.04   0.02    -0.08   0.06   0.08    -0.10   0.02   0.05
   7   6    -0.03  -0.07   0.08    -0.08   0.06   0.07    -0.09   0.02   0.05
   8   6     0.01  -0.04   0.12    -0.01   0.00  -0.01    -0.10   0.02   0.05
   9   7     0.02  -0.06   0.18     0.02  -0.02  -0.04    -0.06  -0.02  -0.00
  10   6     0.01  -0.05   0.17     0.03  -0.02  -0.03    -0.01  -0.01  -0.06
  11   6     0.01  -0.06   0.11     0.04  -0.01  -0.02     0.02   0.04   0.00
  12   6     0.04  -0.10   0.05     0.04  -0.01  -0.01     0.02   0.05   0.02
  13   6     0.05  -0.13  -0.06     0.04   0.00   0.00     0.02   0.07   0.05
  14   6     0.04  -0.11  -0.09     0.04   0.01   0.01     0.02   0.05   0.04
  15   6     0.06  -0.15  -0.20     0.04   0.02   0.02     0.02   0.02   0.02
  16   6     0.04  -0.11  -0.20     0.04   0.01   0.02     0.02  -0.02  -0.03
  17   6     0.00  -0.02  -0.09     0.04   0.00   0.01     0.02  -0.03  -0.03
  18   6    -0.02   0.06  -0.06     0.04  -0.01  -0.00     0.03  -0.09  -0.09
  19   6    -0.05   0.16   0.05     0.05  -0.02  -0.01     0.04  -0.08  -0.08
  20   6    -0.07   0.18   0.12     0.05  -0.02  -0.02     0.05  -0.00  -0.00
  21   6    -0.06   0.09   0.09     0.05  -0.01  -0.01     0.04   0.04   0.04
  22   6    -0.08   0.09   0.14     0.05  -0.01  -0.01     0.05   0.10   0.09
  23   6    -0.06   0.02   0.12     0.05   0.00  -0.00     0.04   0.10   0.08
  24   6    -0.02  -0.03   0.08     0.04  -0.00  -0.01     0.03   0.07   0.05
  25   6     0.00  -0.05  -0.00     0.04  -0.00  -0.00     0.03   0.06   0.04
  26   6    -0.02   0.01  -0.00     0.04  -0.00  -0.00     0.03   0.03   0.02
  27   7     0.01  -0.05   0.19     0.03  -0.03  -0.02     0.00  -0.05  -0.17
  28   6     0.01  -0.04   0.14     0.02  -0.03  -0.03    -0.02  -0.06  -0.13
  29   6     0.00   0.00   0.07     0.01   0.03   0.00    -0.02  -0.06  -0.09
  30   6    -0.02   0.05  -0.01    -0.06  -0.01   0.14    -0.10   0.02  -0.20
  31   6    -0.05   0.13  -0.13    -0.09   0.09   0.15    -0.11   0.03  -0.06
  32   6    -0.04   0.17  -0.19    -0.04   0.23   0.02    -0.02  -0.04   0.19
  33   6    -0.02   0.12  -0.10     0.03   0.27  -0.11     0.06  -0.11   0.27
  34   6     0.00   0.04   0.02     0.06   0.16  -0.11     0.06  -0.11   0.11
  35   6     0.02  -0.05   0.13     0.02  -0.03  -0.06    -0.06  -0.05  -0.04
  36   6     0.03  -0.05   0.04    -0.02  -0.05  -0.04    -0.03  -0.04  -0.01
  37   6    -0.01   0.00   0.01    -0.24  -0.14   0.16    -0.07  -0.11   0.09
  38   6     0.01   0.01  -0.11    -0.36  -0.19   0.24     0.05  -0.06   0.06
  39   6     0.08  -0.03  -0.19    -0.22  -0.14   0.11     0.22   0.07  -0.08
  40   6     0.12  -0.08  -0.15     0.04  -0.04  -0.12     0.24   0.14  -0.17
  41   6     0.09  -0.09  -0.03     0.13   0.00  -0.19     0.11   0.08  -0.13
  42   6     0.03   0.01   0.11     0.04  -0.04  -0.06    -0.14   0.06   0.10
  43   6     0.02   0.04   0.05     0.04  -0.04  -0.05    -0.15   0.06   0.11
  44   1    -0.04  -0.00  -0.02     0.01  -0.03  -0.01    -0.02  -0.03  -0.02
  45   1    -0.03  -0.00  -0.02     0.03   0.00  -0.02     0.01   0.00  -0.01
  46   1    -0.03   0.01  -0.04     0.03  -0.02  -0.03     0.02  -0.03  -0.04
  47   1     0.01   0.01  -0.01     0.00   0.02  -0.02     0.04   0.04   0.00
  48   1     0.03   0.02  -0.02    -0.02   0.01  -0.00     0.02   0.02  -0.00
  49   1     0.01   0.02  -0.04     0.01  -0.00  -0.01     0.05  -0.01  -0.03
  50   1    -0.02   0.01  -0.04     0.00  -0.03   0.01    -0.06  -0.06  -0.02
  51   1    -0.01   0.02  -0.05     0.00  -0.01  -0.00    -0.01  -0.06  -0.05
  52   1     0.00   0.02  -0.04    -0.00  -0.00   0.02    -0.04  -0.04  -0.01
  53   1    -0.02  -0.02  -0.00    -0.04   0.03   0.04    -0.03   0.00   0.01
  54   1    -0.01  -0.03   0.03    -0.04   0.03   0.03    -0.02  -0.00   0.01
  55   1     0.02  -0.03   0.02     0.01  -0.00  -0.00     0.01   0.01   0.00
  56   1     0.02  -0.05  -0.03     0.01   0.00   0.00     0.01   0.02   0.02
  57   1     0.02  -0.06  -0.08     0.01   0.01   0.01     0.00   0.01   0.01
  58   1     0.02  -0.04  -0.08     0.01   0.01   0.01     0.00  -0.02  -0.02
  59   1    -0.00   0.01  -0.04     0.01  -0.00   0.00     0.01  -0.04  -0.04
  60   1    -0.02   0.06   0.02     0.01  -0.01  -0.01     0.01  -0.04  -0.04
  61   1    -0.03   0.07   0.06     0.01  -0.01  -0.01     0.01   0.00   0.00
  62   1    -0.03   0.04   0.05     0.01  -0.00  -0.00     0.02   0.03   0.03
  63   1    -0.02   0.00   0.04     0.01   0.00   0.00     0.01   0.04   0.03
  64   1    -0.01   0.01   0.01    -0.03  -0.03   0.07    -0.05   0.02  -0.11
  65   1    -0.02   0.05  -0.06    -0.04   0.02   0.08    -0.05   0.03  -0.04
  66   1    -0.02   0.07  -0.08    -0.02   0.09   0.01    -0.01  -0.01   0.09
  67   1    -0.00   0.04  -0.04     0.02   0.11  -0.06     0.04  -0.05   0.13
  68   1     0.01   0.00   0.02     0.03   0.05  -0.06     0.04  -0.05   0.05
  69   1    -0.02   0.01   0.02    -0.10  -0.05   0.07    -0.06  -0.06   0.05
  70   1    -0.00   0.01  -0.04    -0.16  -0.08   0.12     0.01  -0.03   0.04
  71   1     0.03  -0.01  -0.08    -0.09  -0.05   0.05     0.10   0.04  -0.04
  72   1     0.05  -0.03  -0.06     0.05   0.00  -0.07     0.11   0.07  -0.08
  73   1     0.03  -0.04  -0.00     0.09   0.02  -0.10     0.04   0.04  -0.05
  74   1     0.02   0.01   0.04     0.02  -0.02  -0.03    -0.05   0.02   0.03
  75   1     0.01   0.02   0.01     0.02  -0.02  -0.03    -0.05   0.02   0.04
                     10                     11                     12
                        a                      a                      a 
 Frequencies --    77.6837                84.1592                90.4146
 Red. masses --    10.1372                10.4684                10.3528
 Frc consts  --     0.0000                 0.0000                 0.0000
 IR Inten    --     0.3400                 0.1769                 0.6059
 Raman Activ --     0.0000                 0.0000                 0.0000
 Depolar     --     0.0000                 0.0000                 0.0000
 Atom AN      X      Y      Z        X      Y      Z        X      Y      Z
   1   6     0.04   0.01  -0.05    -0.01  -0.04  -0.04     0.00  -0.05   0.03
   2   6     0.04   0.03  -0.01    -0.04  -0.00   0.00    -0.02  -0.09  -0.02
   3   6    -0.05   0.05  -0.03     0.09   0.08  -0.02    -0.19  -0.19   0.01
   4   6     0.08   0.10   0.06    -0.10  -0.12  -0.05     0.04   0.01   0.07
   5   6     0.06   0.01  -0.01    -0.10   0.04   0.09     0.02  -0.10  -0.12
   6   6    -0.12   0.13   0.18    -0.08   0.01   0.06    -0.11   0.04   0.02
   7   6    -0.13   0.13   0.21    -0.06  -0.00   0.05    -0.15   0.08   0.03
   8   6     0.02   0.01   0.07    -0.06   0.01   0.07    -0.07  -0.01  -0.08
   9   7     0.01   0.03   0.11    -0.03  -0.01   0.05    -0.08  -0.00  -0.04
  10   6    -0.01   0.02   0.04     0.01  -0.01  -0.04    -0.02   0.01  -0.02
  11   6    -0.03  -0.02  -0.05     0.02   0.01  -0.15     0.02   0.06  -0.01
  12   6    -0.05  -0.06  -0.11     0.00  -0.08  -0.29     0.04   0.09   0.04
  13   6    -0.06  -0.07  -0.11    -0.01  -0.06  -0.23     0.04   0.12   0.09
  14   6    -0.05  -0.03  -0.04     0.00   0.03  -0.06     0.04   0.10   0.06
  15   6    -0.05   0.04   0.05    -0.01   0.10   0.09     0.03   0.05   0.02
  16   6    -0.05   0.09   0.12     0.01   0.13   0.18     0.03  -0.03  -0.05
  17   6    -0.04   0.05   0.07     0.04   0.05   0.08     0.04  -0.03  -0.04
  18   6    -0.04   0.07   0.11     0.06  -0.03   0.06     0.05  -0.13  -0.12
  19   6    -0.04  -0.00   0.02     0.10  -0.15  -0.08     0.07  -0.08  -0.07
  20   6    -0.03  -0.08  -0.07     0.12  -0.15  -0.14     0.09   0.05   0.06
  21   6    -0.04  -0.07  -0.08     0.10  -0.04  -0.07     0.08   0.10   0.09
  22   6    -0.04  -0.08  -0.10     0.12   0.01  -0.07     0.09   0.17   0.14
  23   6    -0.04  -0.04  -0.07     0.10   0.08  -0.05     0.08   0.14   0.08
  24   6    -0.04  -0.03  -0.06     0.05   0.06  -0.08     0.04   0.09   0.04
  25   6    -0.04  -0.03  -0.05     0.03   0.04  -0.05     0.04   0.09   0.05
  26   6    -0.04  -0.02  -0.02     0.06   0.02  -0.01     0.05   0.06   0.04
  27   7    -0.01   0.03   0.03     0.02  -0.04   0.03    -0.00  -0.04   0.05
  28   6     0.00   0.04   0.07    -0.01  -0.06   0.14    -0.04  -0.07   0.08
  29   6     0.01   0.01   0.03    -0.01  -0.05   0.14    -0.04  -0.07   0.09
  30   6     0.06   0.05  -0.09    -0.02  -0.05   0.15    -0.07  -0.05   0.08
  31   6     0.07  -0.01  -0.11    -0.04   0.02   0.01    -0.09   0.02  -0.01
  32   6     0.05  -0.13   0.01    -0.06   0.11  -0.15    -0.09   0.08  -0.10
  33   6    -0.00  -0.16   0.12    -0.05   0.10  -0.13    -0.06   0.05  -0.06
  34   6    -0.02  -0.09   0.12    -0.03   0.01   0.02    -0.04  -0.03   0.04
  35   6     0.01   0.03   0.13    -0.04  -0.04   0.15    -0.08  -0.04   0.03
  36   6    -0.01   0.03   0.09    -0.04  -0.04   0.12    -0.08  -0.04   0.04
  37   6    -0.12   0.04   0.11     0.03   0.03   0.02     0.03  -0.02  -0.02
  38   6    -0.09   0.05  -0.01     0.09   0.05  -0.10     0.14   0.03  -0.08
  39   6     0.06   0.05  -0.17     0.07   0.00  -0.09     0.13   0.05  -0.06
  40   6     0.16   0.02  -0.18    -0.02  -0.08   0.03    -0.02   0.02   0.04
  41   6     0.11   0.01  -0.05    -0.07  -0.09   0.14    -0.11  -0.03   0.08
  42   6     0.21  -0.10  -0.12    -0.11   0.06   0.12     0.07  -0.15  -0.23
  43   6     0.22  -0.11  -0.16    -0.13   0.08   0.14     0.12  -0.21  -0.26
  44   1    -0.01  -0.01  -0.01    -0.02  -0.03  -0.01    -0.00  -0.00   0.01
  45   1     0.02   0.01  -0.01     0.01   0.00  -0.01     0.00  -0.01   0.01
  46   1     0.02  -0.00  -0.03     0.01  -0.02  -0.03     0.00  -0.02   0.02
  47   1    -0.02   0.02  -0.03     0.04   0.05   0.01    -0.07  -0.08  -0.02
  48   1    -0.04   0.01  -0.00     0.02   0.03   0.00    -0.06  -0.07  -0.01
  49   1    -0.01   0.01   0.01     0.05   0.00  -0.03    -0.07  -0.05   0.04
  50   1     0.03   0.01   0.02    -0.06  -0.06  -0.01     0.05   0.03   0.01
  51   1     0.01   0.05   0.01    -0.01  -0.05  -0.05    -0.01   0.01   0.06
  52   1     0.04   0.05   0.03    -0.03  -0.02   0.00     0.01  -0.01   0.00
  53   1    -0.08   0.06   0.09    -0.02  -0.00   0.01    -0.05   0.04   0.04
  54   1    -0.07   0.06   0.10    -0.01  -0.01   0.01    -0.07   0.05   0.04
  55   1    -0.02  -0.02  -0.04    -0.00  -0.04  -0.12     0.01   0.03   0.01
  56   1    -0.02  -0.03  -0.04    -0.01  -0.03  -0.09     0.01   0.04   0.04
  57   1    -0.02   0.02   0.02    -0.01   0.04   0.03     0.00   0.02   0.01
  58   1    -0.01   0.04   0.06    -0.00   0.06   0.08     0.01  -0.03  -0.03
  59   1    -0.01   0.04   0.05     0.01  -0.00   0.04     0.01  -0.07  -0.06
  60   1    -0.01   0.00   0.01     0.03  -0.07  -0.04     0.02  -0.04  -0.04
  61   1    -0.01  -0.04  -0.04     0.04  -0.07  -0.07     0.03   0.03   0.03
  62   1    -0.01  -0.03  -0.04     0.04  -0.00  -0.03     0.03   0.06   0.05
  63   1    -0.01  -0.00  -0.01     0.03   0.04  -0.01     0.03   0.04   0.02
  64   1     0.02   0.04  -0.05    -0.00  -0.03   0.07    -0.02  -0.03   0.04
  65   1     0.03   0.01  -0.06    -0.01   0.01   0.01    -0.03   0.01  -0.01
  66   1     0.02  -0.05   0.00    -0.02   0.05  -0.08    -0.03   0.04  -0.05
  67   1    -0.01  -0.07   0.06    -0.02   0.05  -0.07    -0.02   0.03  -0.03
  68   1    -0.02  -0.03   0.05    -0.01   0.00   0.01    -0.01  -0.01   0.02
  69   1    -0.06   0.02   0.06     0.01   0.02   0.01     0.01  -0.01  -0.01
  70   1    -0.05   0.02   0.00     0.04   0.03  -0.05     0.07   0.01  -0.04
  71   1     0.03   0.02  -0.08     0.03   0.01  -0.05     0.06   0.03  -0.03
  72   1     0.08   0.00  -0.09    -0.01  -0.04   0.01    -0.01   0.01   0.02
  73   1     0.05  -0.00  -0.02    -0.03  -0.04   0.06    -0.06  -0.01   0.04
  74   1     0.10  -0.05  -0.06    -0.04   0.02   0.04     0.04  -0.06  -0.09
  75   1     0.10  -0.06  -0.09    -0.05   0.03   0.05     0.07  -0.09  -0.11
                     13                     14                     15
                        a                      a                      a 
 Frequencies --   107.1954               111.1627               130.1994
 Red. masses --    10.1232                10.4720                10.9090
 Frc consts  --     0.0000                 0.0000                 0.0000
 IR Inten    --     0.1916                 1.0121                 2.7100
 Raman Activ --     0.0000                 0.0000                 0.0000
 Depolar     --     0.0000                 0.0000                 0.0000
 Atom AN      X      Y      Z        X      Y      Z        X      Y      Z
   1   6    -0.10  -0.00  -0.01    -0.04  -0.02  -0.09    -0.13  -0.06  -0.05
   2   6     0.04  -0.02  -0.05    -0.00   0.05  -0.00    -0.00  -0.03  -0.03
   3   6    -0.09  -0.07  -0.04     0.08   0.16  -0.04    -0.06  -0.02  -0.04
   4   6     0.13   0.18  -0.01    -0.02   0.03  -0.04     0.06   0.11  -0.02
   5   6     0.14  -0.12  -0.08    -0.02   0.04   0.11     0.07  -0.11   0.01
   6   6     0.20  -0.21  -0.15    -0.15   0.09   0.24     0.07  -0.14   0.01
   7   6     0.15  -0.17  -0.05    -0.09   0.04   0.23     0.02  -0.10   0.10
   8   6     0.05  -0.05   0.10     0.05  -0.05   0.12    -0.01  -0.03   0.18
   9   7     0.01  -0.02   0.14     0.05  -0.05   0.07    -0.06   0.02   0.20
  10   6    -0.03  -0.02   0.00    -0.00  -0.06  -0.05    -0.03   0.03  -0.10
  11   6    -0.03  -0.02  -0.05    -0.02  -0.08   0.01     0.02   0.08  -0.05
  12   6    -0.04  -0.11  -0.20    -0.01  -0.09  -0.02     0.02   0.19   0.12
  13   6    -0.04  -0.07  -0.15     0.01  -0.05   0.01     0.01   0.18   0.15
  14   6    -0.03   0.05   0.03     0.00  -0.01   0.05     0.01   0.05  -0.02
  15   6    -0.03   0.11   0.10     0.02   0.03   0.06    -0.01  -0.04  -0.08
  16   6    -0.03   0.10   0.10     0.01   0.03   0.03     0.00  -0.09  -0.11
  17   6    -0.03   0.04   0.03    -0.01   0.01   0.00     0.03  -0.05  -0.04
  18   6    -0.03  -0.12  -0.14    -0.03  -0.02  -0.08     0.06   0.05   0.11
  19   6    -0.03  -0.16  -0.19    -0.06  -0.02  -0.08     0.10   0.08   0.16
  20   6    -0.02  -0.01  -0.03    -0.07   0.02   0.00     0.11  -0.01   0.01
  21   6    -0.01   0.11   0.10    -0.05   0.03   0.05     0.08  -0.07  -0.11
  22   6    -0.01   0.18   0.17    -0.06   0.05   0.10     0.09  -0.09  -0.16
  23   6    -0.01   0.14   0.12    -0.05   0.01   0.09     0.07  -0.02  -0.13
  24   6    -0.02   0.08   0.06    -0.02  -0.03   0.05     0.03   0.02  -0.09
  25   6    -0.02   0.09   0.08    -0.01  -0.01   0.05     0.02  -0.01  -0.09
  26   6    -0.02   0.10   0.08    -0.03   0.01   0.04     0.04  -0.05  -0.09
  27   7    -0.05   0.01  -0.09    -0.02  -0.03  -0.26    -0.01  -0.00  -0.29
  28   6    -0.02   0.03  -0.04     0.01   0.00  -0.25    -0.04  -0.01  -0.10
  29   6    -0.02   0.04  -0.06     0.01   0.03  -0.22    -0.04  -0.01  -0.09
  30   6    -0.01   0.03  -0.04    -0.05  -0.02  -0.06    -0.08  -0.03  -0.02
  31   6     0.00  -0.02   0.02    -0.05  -0.03   0.13    -0.09  -0.02   0.06
  32   6     0.00  -0.05   0.07     0.01   0.02   0.14    -0.06   0.02   0.05
  33   6    -0.01  -0.02   0.02     0.06   0.09  -0.05    -0.03   0.05  -0.03
  34   6    -0.02   0.03  -0.05     0.06   0.09  -0.22    -0.02   0.02  -0.10
  35   6     0.02   0.02   0.07     0.06  -0.01  -0.08    -0.05   0.01   0.18
  36   6     0.03   0.02   0.04     0.06  -0.01  -0.04    -0.06   0.01   0.18
  37   6    -0.06   0.03   0.06     0.16   0.04  -0.13    -0.08   0.08   0.11
  38   6    -0.12   0.00   0.05     0.15   0.03  -0.13    -0.06   0.09  -0.03
  39   6    -0.08  -0.03  -0.01    -0.01  -0.04   0.02    -0.00   0.04  -0.10
  40   6     0.04  -0.03  -0.06    -0.13  -0.09   0.13    -0.00  -0.04  -0.02
  41   6     0.08  -0.01  -0.03    -0.07  -0.06   0.08    -0.03  -0.05   0.13
  42   6     0.04  -0.01   0.12     0.15  -0.08   0.02     0.01  -0.03   0.16
  43   6     0.08  -0.04   0.03     0.12  -0.04   0.01     0.06  -0.06   0.07
  44   1    -0.00   0.02  -0.01    -0.04  -0.03  -0.02    -0.03  -0.02  -0.01
  45   1    -0.05  -0.04  -0.01    -0.00   0.01  -0.01    -0.05  -0.04  -0.01
  46   1    -0.06   0.03   0.02     0.00  -0.01  -0.06    -0.06   0.01  -0.02
  47   1    -0.06  -0.11  -0.00     0.04   0.09  -0.02    -0.04  -0.07  -0.00
  48   1     0.05  -0.01  -0.01    -0.01   0.05   0.00     0.04   0.01  -0.01
  49   1    -0.09   0.04  -0.01     0.06   0.02  -0.03    -0.07   0.04  -0.03
  50   1     0.08   0.11  -0.02    -0.04  -0.04   0.00     0.04   0.05  -0.01
  51   1     0.01   0.07   0.06    -0.00   0.02  -0.07    -0.00   0.05   0.01
  52   1     0.04   0.02  -0.04     0.02   0.05   0.03     0.03   0.03  -0.02
  53   1     0.08  -0.09  -0.08    -0.08   0.05   0.10     0.03  -0.06  -0.02
  54   1     0.05  -0.07  -0.02    -0.04   0.02   0.09     0.00  -0.04   0.03
  55   1    -0.02  -0.06  -0.10    -0.00  -0.04  -0.01     0.01   0.08   0.07
  56   1    -0.01  -0.04  -0.07     0.01  -0.02   0.00    -0.00   0.08   0.09
  57   1    -0.01   0.03   0.03     0.01   0.01   0.02    -0.01  -0.01  -0.02
  58   1    -0.01   0.03   0.04     0.01   0.01   0.01    -0.00  -0.04  -0.04
  59   1    -0.01  -0.06  -0.07    -0.01  -0.01  -0.04     0.01   0.03   0.06
  60   1    -0.01  -0.09  -0.10    -0.02  -0.01  -0.04     0.03   0.05   0.09
  61   1    -0.00  -0.01  -0.01    -0.03   0.01   0.00     0.04  -0.00   0.00
  62   1    -0.00   0.06   0.06    -0.02   0.02   0.04     0.03  -0.03  -0.05
  63   1    -0.00   0.04   0.03    -0.02  -0.00   0.03     0.02   0.01  -0.03
  64   1    -0.00   0.01  -0.02    -0.03  -0.02  -0.02    -0.03  -0.02  -0.01
  65   1     0.00  -0.01   0.01    -0.02  -0.03   0.08    -0.03  -0.01   0.04
  66   1     0.00  -0.03   0.04     0.00   0.00   0.09    -0.02   0.01   0.03
  67   1    -0.00  -0.01   0.01     0.03   0.04  -0.01     0.00   0.02  -0.01
  68   1    -0.01   0.01  -0.02     0.03   0.04  -0.09    -0.00   0.01  -0.04
  69   1    -0.02   0.02   0.03     0.07   0.02  -0.06    -0.03   0.04   0.05
  70   1    -0.06   0.00   0.02     0.07   0.02  -0.06    -0.02   0.04  -0.03
  71   1    -0.04  -0.02  -0.00    -0.01  -0.01   0.01     0.01   0.01  -0.07
  72   1     0.02  -0.02  -0.03    -0.07  -0.04   0.07     0.01  -0.03  -0.02
  73   1     0.05  -0.00  -0.02    -0.04  -0.03   0.04    -0.01  -0.03   0.05
  74   1    -0.00   0.02   0.06     0.08  -0.04  -0.01    -0.00   0.00   0.06
  75   1     0.02   0.00   0.02     0.06  -0.02  -0.02     0.02  -0.01   0.02
                     16                     17                     18
                        a                      a                      a 
 Frequencies --   144.1239               163.5959               173.0641
 Red. masses --    10.2306                 9.4046                 5.0858
 Frc consts  --     0.0000                 0.0000                 0.0000
 IR Inten    --     1.7013                 0.6478                 0.2832
 Raman Activ --     0.0000                 0.0000                 0.0000
 Depolar     --     0.0000                 0.0000                 0.0000
 Atom AN      X      Y      Z        X      Y      Z        X      Y      Z
   1   6     0.02  -0.00  -0.00     0.23   0.14   0.03    -0.06   0.08   0.06
   2   6     0.03  -0.03  -0.03     0.15   0.10  -0.01     0.06   0.08   0.04
   3   6    -0.07  -0.09  -0.02     0.10   0.06   0.01     0.15   0.12   0.03
   4   6     0.07   0.05   0.02     0.19   0.15   0.07     0.09   0.16   0.00
   5   6     0.05  -0.04  -0.06     0.11   0.12  -0.05     0.12  -0.01   0.03
   6   6     0.01  -0.01  -0.02     0.08   0.11  -0.03     0.17  -0.07  -0.03
   7   6    -0.05   0.04   0.04     0.03   0.13   0.00     0.13  -0.03  -0.03
   8   6    -0.08   0.07   0.07    -0.03   0.11  -0.01     0.01   0.00   0.01
   9   7    -0.07   0.06   0.10    -0.00   0.03  -0.01    -0.04   0.03   0.02
  10   6     0.01   0.06   0.19     0.04   0.02  -0.07    -0.01   0.03   0.03
  11   6     0.04   0.10   0.21    -0.00  -0.01  -0.03    -0.00   0.06   0.01
  12   6     0.06  -0.01   0.02    -0.06   0.01   0.00    -0.03   0.05  -0.00
  13   6     0.05  -0.14  -0.18    -0.08   0.01   0.04    -0.04   0.03  -0.01
  14   6     0.06  -0.10  -0.10    -0.08  -0.01   0.01    -0.04   0.03  -0.01
  15   6     0.07  -0.14  -0.18    -0.08   0.03   0.06    -0.06  -0.01  -0.04
  16   6     0.07   0.01   0.01    -0.08   0.01   0.03    -0.05  -0.01  -0.01
  17   6     0.06   0.10   0.11    -0.08  -0.03  -0.02    -0.03   0.01   0.02
  18   6     0.06   0.20   0.20    -0.09  -0.02  -0.02    -0.02   0.00   0.04
  19   6     0.03  -0.00  -0.03    -0.09   0.01   0.02     0.00  -0.02   0.01
  20   6     0.00  -0.20  -0.23    -0.09   0.03   0.03     0.01  -0.02  -0.02
  21   6     0.02  -0.09  -0.07    -0.09  -0.00  -0.00     0.00   0.01  -0.01
  22   6     0.00  -0.08  -0.03    -0.08   0.03   0.01     0.01   0.02  -0.02
  23   6     0.03   0.07   0.15    -0.07   0.00  -0.01     0.00   0.05  -0.01
  24   6     0.04   0.09   0.18    -0.03  -0.03  -0.04    -0.01   0.07   0.01
  25   6     0.05   0.02   0.06    -0.06  -0.04  -0.03    -0.02   0.05   0.01
  26   6     0.04   0.02   0.05    -0.07  -0.03  -0.03    -0.02   0.03   0.01
  27   7     0.02   0.01   0.12     0.09  -0.07  -0.12     0.02  -0.03   0.05
  28   6    -0.02  -0.04  -0.08     0.03  -0.13  -0.05    -0.03  -0.08  -0.00
  29   6    -0.03  -0.05  -0.12     0.04  -0.17  -0.00    -0.03  -0.11   0.02
  30   6    -0.10  -0.05  -0.08    -0.06  -0.16   0.05    -0.09  -0.10   0.03
  31   6    -0.11  -0.01   0.03    -0.10  -0.02   0.02    -0.11  -0.02  -0.00
  32   6    -0.05   0.01   0.09    -0.04   0.09  -0.05    -0.09   0.03  -0.03
  33   6     0.02   0.03   0.01     0.07   0.04  -0.03    -0.03  -0.01   0.00
  34   6     0.02  -0.01  -0.10     0.10  -0.10   0.01    -0.01  -0.09   0.03
  35   6    -0.08  -0.01  -0.11    -0.03  -0.10   0.01    -0.06  -0.05  -0.04
  36   6    -0.09  -0.01  -0.12    -0.09  -0.14   0.06    -0.09  -0.07  -0.05
  37   6    -0.02  -0.06  -0.09    -0.04  -0.17   0.06    -0.04  -0.12  -0.02
  38   6     0.06  -0.02  -0.01     0.07  -0.13   0.00     0.03  -0.09   0.02
  39   6     0.03   0.07   0.04     0.14  -0.08  -0.06     0.06  -0.02   0.01
  40   6    -0.07   0.12   0.04     0.03  -0.09   0.00     0.00   0.03  -0.01
  41   6    -0.13   0.08  -0.05    -0.08  -0.14   0.06    -0.08  -0.01  -0.04
  42   6    -0.04   0.04   0.04    -0.02   0.17   0.01     0.06  -0.02  -0.03
  43   6     0.02  -0.02  -0.04     0.01   0.15  -0.01     0.10  -0.05  -0.02
  44   1     0.00   0.01  -0.00     0.04   0.05   0.00     0.08   0.05   0.02
  45   1     0.01  -0.00   0.01     0.08   0.07   0.03    -0.07  -0.06  -0.04
  46   1     0.01  -0.00   0.00     0.09   0.01   0.00    -0.10   0.09   0.08
  47   1    -0.05  -0.10   0.00    -0.01  -0.09   0.04     0.14   0.30  -0.07
  48   1     0.04  -0.02  -0.01     0.14   0.03  -0.00    -0.22  -0.01   0.02
  49   1    -0.08   0.03  -0.00    -0.05   0.09  -0.02     0.24  -0.16   0.07
  50   1     0.07   0.08  -0.01     0.14   0.20  -0.03    -0.08  -0.23   0.08
  51   1     0.01   0.01   0.08     0.04   0.01   0.20     0.01   0.14  -0.30
  52   1     0.00  -0.03  -0.05    -0.01  -0.06  -0.10     0.16   0.24   0.22
  53   1     0.01  -0.01  -0.01     0.03   0.03  -0.01     0.07  -0.03  -0.03
  54   1    -0.02   0.02   0.02     0.01   0.05  -0.00     0.05  -0.00  -0.02
  55   1     0.02  -0.01  -0.00    -0.02   0.01  -0.00    -0.01   0.02  -0.00
  56   1     0.01  -0.08  -0.11    -0.02   0.01   0.02    -0.01   0.01  -0.01
  57   1     0.02  -0.08  -0.10    -0.02   0.02   0.03    -0.02  -0.01  -0.02
  58   1     0.02   0.01   0.01    -0.02   0.01   0.02    -0.02  -0.01  -0.01
  59   1     0.02   0.10   0.11    -0.02  -0.01  -0.01    -0.01   0.00   0.02
  60   1     0.01  -0.00  -0.02    -0.03   0.01   0.01     0.00  -0.01   0.00
  61   1    -0.01  -0.11  -0.13    -0.02   0.02   0.02     0.01  -0.01  -0.01
  62   1    -0.01  -0.05  -0.03    -0.02   0.02   0.01     0.00  -0.00  -0.01
  63   1     0.01   0.04   0.06    -0.02   0.00   0.00     0.00   0.02  -0.01
  64   1    -0.04  -0.02  -0.03    -0.03  -0.07   0.02    -0.04  -0.04   0.01
  65   1    -0.05  -0.00   0.02    -0.05  -0.00   0.01    -0.04  -0.00  -0.00
  66   1    -0.02   0.01   0.05    -0.02   0.06  -0.03    -0.03   0.03  -0.02
  67   1     0.02   0.02   0.01     0.04   0.04  -0.01     0.00   0.01  -0.00
  68   1     0.02  -0.00  -0.04     0.05  -0.04   0.01     0.01  -0.03   0.01
  69   1    -0.00  -0.04  -0.03    -0.02  -0.06   0.02    -0.02  -0.06  -0.01
  70   1     0.04  -0.02   0.00     0.03  -0.04  -0.01     0.02  -0.04   0.01
  71   1     0.02   0.03   0.03     0.08  -0.01  -0.04     0.04   0.00   0.01
  72   1    -0.03   0.05   0.03     0.02  -0.01  -0.00     0.00   0.03  -0.00
  73   1    -0.06   0.04  -0.02    -0.04  -0.04   0.03    -0.04   0.01  -0.02
  74   1    -0.02   0.02   0.02    -0.01   0.06   0.01     0.02  -0.01  -0.01
  75   1     0.01  -0.01  -0.02    -0.01   0.04   0.01     0.04  -0.03  -0.01
                     19                     20                     21
                        a                      a                      a 
 Frequencies --   179.1320               191.3976               199.5784
 Red. masses --     9.5645                10.3159                10.3113
 Frc consts  --     0.0000                 0.0000                 0.0000
 IR Inten    --     1.3206                 1.0701                 2.3900
 Raman Activ --     0.0000                 0.0000                 0.0000
 Depolar     --     0.0000                 0.0000                 0.0000
 Atom AN      X      Y      Z        X      Y      Z        X      Y      Z
   1   6    -0.15  -0.13  -0.13     0.10   0.09   0.06     0.08   0.05  -0.02
   2   6     0.03  -0.01   0.00     0.03   0.03  -0.01     0.06   0.09   0.04
   3   6     0.07   0.13  -0.05    -0.01  -0.04   0.02     0.17   0.18   0.01
   4   6     0.09   0.14  -0.01     0.02   0.00   0.02     0.07   0.11   0.05
   5   6     0.06  -0.08   0.14     0.01   0.05  -0.07     0.04   0.07   0.07
   6   6     0.03  -0.04   0.18     0.01   0.02  -0.08     0.03   0.04   0.07
   7   6     0.02  -0.01   0.15    -0.02   0.03  -0.02     0.07   0.00  -0.01
   8   6     0.01  -0.05   0.09    -0.05   0.06   0.03     0.05  -0.06  -0.09
   9   7    -0.02   0.00  -0.04    -0.05   0.04   0.13     0.00  -0.06  -0.12
  10   6    -0.01   0.02   0.11    -0.01   0.02   0.14    -0.08  -0.09  -0.11
  11   6    -0.00   0.04  -0.04     0.01  -0.02   0.06    -0.05  -0.07  -0.06
  12   6    -0.01   0.04  -0.03     0.08  -0.11  -0.07     0.04  -0.07  -0.06
  13   6    -0.02   0.05  -0.01     0.10  -0.13  -0.12     0.07   0.02   0.03
  14   6    -0.03   0.05  -0.03     0.11  -0.07   0.00     0.08   0.06   0.09
  15   6    -0.04   0.11   0.09     0.15   0.12   0.20     0.08  -0.09  -0.12
  16   6    -0.04   0.03   0.04     0.13   0.08   0.11     0.08  -0.10  -0.13
  17   6    -0.02  -0.06  -0.07     0.09  -0.10  -0.11     0.08   0.07   0.07
  18   6     0.00  -0.11  -0.06     0.07  -0.15  -0.22     0.07   0.03  -0.00
  19   6     0.05   0.01   0.07     0.06   0.07   0.04     0.05  -0.02  -0.06
  20   6     0.08   0.08   0.10     0.04   0.19   0.21     0.03  -0.03  -0.03
  21   6     0.05   0.01  -0.04     0.05  -0.05  -0.00     0.05   0.04   0.08
  22   6     0.06   0.02  -0.07     0.02  -0.15  -0.06     0.03  -0.11  -0.04
  23   6     0.03   0.02  -0.11     0.03  -0.18  -0.07     0.03  -0.13  -0.05
  24   6    -0.01   0.01  -0.11     0.03  -0.12  -0.02     0.01  -0.00   0.07
  25   6    -0.02  -0.01  -0.11     0.07  -0.12  -0.07     0.06   0.12   0.18
  26   6    -0.00  -0.04  -0.10     0.06  -0.12  -0.09     0.06   0.13   0.18
  27   7    -0.01   0.00   0.27    -0.03   0.02   0.10    -0.14  -0.01  -0.05
  28   6    -0.01  -0.02   0.06    -0.05  -0.00  -0.01    -0.11   0.04   0.04
  29   6    -0.02  -0.03   0.07    -0.08   0.01  -0.12    -0.17   0.07   0.07
  30   6    -0.02  -0.02   0.04    -0.13   0.02  -0.11    -0.16   0.07   0.03
  31   6    -0.02   0.00  -0.03    -0.13  -0.02   0.02    -0.14  -0.02  -0.01
  32   6    -0.03  -0.00  -0.04    -0.11  -0.06   0.11    -0.22  -0.11  -0.00
  33   6    -0.03  -0.04   0.03    -0.08  -0.01  -0.01    -0.27  -0.10   0.01
  34   6    -0.03  -0.04   0.07    -0.09   0.02  -0.13    -0.28  -0.01   0.03
  35   6    -0.03  -0.01  -0.18    -0.07   0.02   0.03    -0.00  -0.01   0.00
  36   6    -0.03  -0.01  -0.26    -0.09   0.02   0.03     0.03   0.00   0.01
  37   6     0.05  -0.10  -0.19    -0.09   0.04   0.03     0.02   0.01   0.01
  38   6     0.06  -0.09   0.00    -0.04   0.06  -0.01    -0.01  -0.01   0.01
  39   6    -0.01   0.01   0.11    -0.00   0.10  -0.03    -0.01  -0.03   0.00
  40   6    -0.05   0.12   0.01    -0.04   0.08   0.01     0.02  -0.03  -0.02
  41   6    -0.06   0.11  -0.19    -0.10   0.06   0.04     0.05  -0.02  -0.01
  42   6     0.01  -0.08   0.10    -0.02   0.08   0.01     0.05  -0.02  -0.07
  43   6     0.03  -0.09   0.14    -0.00   0.07  -0.05     0.01   0.03   0.02
  44   1    -0.09  -0.07  -0.03     0.05   0.05   0.01    -0.02  -0.00  -0.00
  45   1    -0.04  -0.03  -0.01     0.03   0.02   0.00     0.04   0.05   0.02
  46   1    -0.03  -0.03  -0.10     0.02   0.02   0.05     0.05  -0.01  -0.04
  47   1    -0.03  -0.12   0.04     0.02   0.06  -0.02     0.05   0.03   0.03
  48   1     0.20   0.09   0.00    -0.09  -0.04  -0.00     0.10   0.07   0.01
  49   1    -0.10   0.16  -0.10     0.05  -0.07   0.04     0.04   0.08  -0.04
  50   1     0.05   0.09  -0.02     0.01   0.00   0.00     0.07   0.13  -0.01
  51   1     0.00   0.05   0.04     0.01  -0.01   0.01     0.02   0.01   0.12
  52   1     0.03   0.02  -0.04    -0.00  -0.00   0.00    -0.02  -0.03  -0.06
  53   1     0.00  -0.01   0.06     0.01  -0.00  -0.03    -0.00   0.02   0.03
  54   1     0.01   0.01   0.04    -0.01   0.01  -0.00     0.03   0.02  -0.01
  55   1    -0.00   0.02  -0.01     0.03  -0.05  -0.03     0.02  -0.05  -0.03
  56   1    -0.00   0.02   0.00     0.02  -0.06  -0.06     0.02   0.00   0.00
  57   1    -0.02   0.06   0.06     0.05   0.07   0.11     0.02  -0.06  -0.08
  58   1    -0.01   0.02   0.03     0.04   0.06   0.07     0.02  -0.07  -0.09
  59   1    -0.01  -0.05  -0.03     0.02  -0.08  -0.11     0.02  -0.00  -0.02
  60   1     0.02   0.01   0.04     0.01   0.05   0.03     0.01  -0.02  -0.04
  61   1     0.03   0.06   0.07     0.01   0.12   0.13     0.00  -0.03  -0.04
  62   1     0.02   0.01  -0.01     0.00  -0.04  -0.01     0.00  -0.07  -0.05
  63   1     0.01   0.02  -0.03     0.01  -0.05  -0.02     0.01  -0.07  -0.05
  64   1    -0.00  -0.01   0.01    -0.05   0.00  -0.05    -0.04   0.03   0.01
  65   1    -0.01   0.01  -0.02    -0.04  -0.01   0.02    -0.02  -0.01  -0.02
  66   1    -0.01   0.01  -0.03    -0.03  -0.03   0.07    -0.06  -0.05  -0.01
  67   1    -0.01  -0.01   0.01    -0.02   0.00   0.01    -0.09  -0.04   0.00
  68   1    -0.01  -0.02   0.03    -0.03   0.01  -0.05    -0.11   0.01   0.01
  69   1     0.02  -0.06  -0.07    -0.03   0.01   0.01     0.01   0.01   0.00
  70   1     0.03  -0.05   0.02    -0.00   0.02  -0.00    -0.01  -0.00   0.00
  71   1    -0.01   0.00   0.08     0.02   0.04  -0.02    -0.01  -0.01   0.00
  72   1    -0.03   0.06   0.03    -0.01   0.03  -0.00     0.01  -0.01  -0.01
  73   1    -0.03   0.06  -0.07    -0.04   0.02   0.01     0.02  -0.01  -0.00
  74   1    -0.00  -0.03   0.02    -0.00   0.03   0.01     0.02  -0.01  -0.03
  75   1     0.01  -0.03   0.04     0.00   0.02  -0.02    -0.01   0.00   0.02
                     22                     23                     24
                        a                      a                      a 
 Frequencies --   207.8325               214.2232               219.2217
 Red. masses --     9.4215                 6.3971                 7.3762
 Frc consts  --     0.0000                 0.0000                 0.0000
 IR Inten    --     1.2318                 0.4657                 0.2999
 Raman Activ --     0.0000                 0.0000                 0.0000
 Depolar     --     0.0000                 0.0000                 0.0000
 Atom AN      X      Y      Z        X      Y      Z        X      Y      Z
   1   6     0.05   0.05   0.02    -0.03  -0.03  -0.02     0.12   0.07   0.05
   2   6     0.02   0.03  -0.00     0.04   0.01   0.02     0.01   0.03   0.01
   3   6     0.04   0.04  -0.00     0.07   0.01   0.03    -0.03  -0.07   0.04
   4   6     0.02   0.03   0.00     0.05   0.04   0.04    -0.04  -0.09   0.02
   5   6     0.01   0.03  -0.01     0.04  -0.00   0.02    -0.02   0.08  -0.06
   6   6     0.01  -0.00  -0.01     0.05   0.03   0.00    -0.03   0.05  -0.06
   7   6     0.02  -0.02  -0.01     0.02   0.07  -0.04    -0.01   0.02  -0.04
   8   6     0.01  -0.03  -0.01    -0.02   0.03  -0.09     0.01   0.02  -0.02
   9   7     0.01  -0.06  -0.02    -0.01   0.01  -0.14     0.03  -0.01   0.07
  10   6    -0.04  -0.06  -0.00    -0.00  -0.01  -0.15    -0.01   0.00   0.14
  11   6    -0.02  -0.06  -0.05    -0.01  -0.08  -0.01     0.00   0.05   0.01
  12   6     0.03   0.05   0.14     0.04  -0.04   0.07    -0.02   0.04  -0.01
  13   6     0.03   0.03   0.10     0.06  -0.08   0.01    -0.03   0.06   0.00
  14   6     0.01  -0.10  -0.13     0.08  -0.15  -0.03    -0.05   0.09  -0.01
  15   6     0.02   0.04   0.03     0.12  -0.03   0.04    -0.08   0.04  -0.02
  16   6     0.02   0.09   0.08     0.11   0.06   0.07    -0.07  -0.02  -0.03
  17   6     0.00  -0.03  -0.06     0.06  -0.01  -0.00    -0.04  -0.00  -0.01
  18   6     0.03   0.10   0.13     0.03   0.08  -0.00    -0.02  -0.04   0.03
  19   6     0.04   0.00   0.01    -0.02   0.03  -0.06     0.03  -0.02   0.05
  20   6     0.05  -0.10  -0.12    -0.06  -0.02  -0.04     0.06  -0.01   0.00
  21   6     0.03  -0.05  -0.09    -0.02  -0.04   0.03     0.03   0.02  -0.04
  22   6     0.05   0.26   0.22    -0.03   0.06   0.17     0.03   0.02  -0.07
  23   6     0.04   0.22   0.18    -0.00  -0.01   0.15     0.02   0.07  -0.06
  24   6    -0.02  -0.09  -0.11     0.02  -0.14   0.02    -0.02   0.09  -0.03
  25   6    -0.02  -0.19  -0.25     0.04  -0.17  -0.05    -0.03   0.08  -0.02
  26   6    -0.01  -0.17  -0.22     0.02  -0.11  -0.04    -0.02   0.04  -0.02
  27   7    -0.07  -0.01   0.05    -0.01   0.02  -0.19    -0.02  -0.01   0.23
  28   6    -0.06   0.02   0.05    -0.02   0.02  -0.04    -0.01  -0.01   0.07
  29   6    -0.10   0.07   0.00    -0.02  -0.02   0.08    -0.05   0.08  -0.11
  30   6    -0.09   0.08  -0.03    -0.01  -0.03   0.10    -0.07   0.11  -0.16
  31   6    -0.07  -0.00  -0.01    -0.02  -0.01   0.00    -0.05   0.01   0.00
  32   6    -0.11  -0.09   0.05    -0.05   0.02  -0.09    -0.04  -0.10   0.17
  33   6    -0.15  -0.05   0.00    -0.04  -0.03   0.01    -0.07   0.01  -0.03
  34   6    -0.17   0.03  -0.04    -0.03  -0.05   0.10    -0.09   0.09  -0.18
  35   6     0.02  -0.02   0.01    -0.02   0.03  -0.02     0.04  -0.05   0.05
  36   6     0.09  -0.00  -0.02    -0.06   0.04   0.04     0.08  -0.08   0.04
  37   6     0.10  -0.00  -0.03    -0.10   0.06   0.04     0.11  -0.09   0.03
  38   6     0.03  -0.03   0.00    -0.07   0.08   0.00     0.08  -0.11   0.01
  39   6    -0.02  -0.08   0.04    -0.01   0.12  -0.05     0.05  -0.18   0.01
  40   6     0.03  -0.07  -0.00    -0.03   0.09  -0.01     0.06  -0.18   0.01
  41   6     0.10  -0.04  -0.04    -0.07   0.07   0.05     0.09  -0.15   0.01
  42   6     0.02   0.00  -0.01    -0.04   0.01  -0.06     0.04   0.06  -0.04
  43   6     0.00   0.02  -0.01    -0.02  -0.01   0.01     0.01   0.08  -0.06
  44   1     0.02   0.02   0.00    -0.01  -0.02  -0.00     0.03   0.03   0.01
  45   1     0.02   0.02   0.00    -0.01  -0.02  -0.00     0.04   0.04   0.02
  46   1     0.02   0.01   0.01    -0.02   0.00  -0.02     0.05   0.00   0.02
  47   1     0.05   0.13  -0.04    -0.07  -0.24   0.11    -0.09  -0.25   0.09
  48   1    -0.11  -0.01   0.00     0.29   0.06   0.00     0.23   0.02  -0.00
  49   1     0.10  -0.07   0.03    -0.16   0.19  -0.08    -0.18   0.15  -0.04
  50   1     0.05   0.11  -0.03    -0.08  -0.24   0.09    -0.11  -0.25   0.07
  51   1     0.01  -0.02   0.11     0.00   0.10  -0.25     0.00   0.02  -0.22
  52   1    -0.04  -0.06  -0.08     0.12   0.18   0.21     0.06   0.12   0.18
  53   1    -0.00  -0.00  -0.01     0.02   0.01   0.00    -0.02   0.02  -0.02
  54   1     0.01  -0.01  -0.01     0.01   0.03  -0.02    -0.01  -0.00  -0.01
  55   1     0.01   0.04   0.10     0.02  -0.01   0.05    -0.01   0.01  -0.01
  56   1     0.01   0.04   0.08     0.01  -0.01   0.02    -0.00   0.02  -0.00
  57   1     0.01   0.05   0.06     0.05   0.00   0.03    -0.03   0.01  -0.01
  58   1     0.01   0.08   0.08     0.04   0.05   0.05    -0.02  -0.02  -0.01
  59   1     0.01   0.08   0.10     0.02   0.05   0.01    -0.01  -0.02   0.01
  60   1     0.02   0.01   0.02    -0.01   0.01  -0.03     0.02  -0.01   0.03
  61   1     0.02  -0.04  -0.04    -0.03  -0.01  -0.01     0.03  -0.00   0.00
  62   1     0.02   0.15   0.14    -0.01   0.05   0.08     0.01  -0.00  -0.03
  63   1     0.02   0.13   0.09    -0.00   0.01   0.06     0.01   0.02  -0.02
  64   1    -0.02   0.03  -0.02     0.00  -0.01   0.04    -0.03   0.04  -0.07
  65   1    -0.01  -0.00  -0.01    -0.00   0.00  -0.01    -0.01  -0.01   0.01
  66   1    -0.03  -0.05   0.03    -0.02   0.02  -0.06    -0.00  -0.06   0.11
  67   1    -0.05  -0.02   0.00    -0.02  -0.01  -0.00    -0.02  -0.00  -0.00
  68   1    -0.07   0.02  -0.02    -0.01  -0.02   0.04    -0.03   0.04  -0.07
  69   1     0.03   0.00  -0.01    -0.03   0.02   0.02     0.03  -0.03   0.01
  70   1     0.00  -0.01   0.00    -0.02   0.02   0.00     0.02  -0.02  -0.01
  71   1    -0.03  -0.03   0.03     0.01   0.04  -0.03     0.01  -0.06   0.00
  72   1     0.01  -0.02   0.00    -0.00   0.02  -0.01     0.01  -0.06   0.01
  73   1     0.04  -0.01  -0.01    -0.03   0.02   0.02     0.04  -0.05   0.01
  74   1     0.01   0.00  -0.00    -0.02  -0.00  -0.02     0.02   0.02  -0.01
  75   1    -0.00   0.01  -0.00    -0.02  -0.01   0.01     0.00   0.03  -0.02
                     25                     26                     27
                        a                      a                      a 
 Frequencies --   238.9295               250.4840               258.3368
 Red. masses --    10.2570                10.2289                 9.8336
 Frc consts  --     0.0000                 0.0000                 0.0000
 IR Inten    --     1.0533                 0.0659                 0.3640
 Raman Activ --     0.0000                 0.0000                 0.0000
 Depolar     --     0.0000                 0.0000                 0.0000
 Atom AN      X      Y      Z        X      Y      Z        X      Y      Z
   1   6    -0.14  -0.10  -0.05     0.04   0.04   0.03    -0.01  -0.05  -0.04
   2   6    -0.02  -0.01   0.05    -0.04   0.04   0.04     0.08  -0.08  -0.09
   3   6     0.12   0.13   0.01     0.02   0.09   0.03    -0.10  -0.23  -0.05
   4   6    -0.01   0.03   0.04    -0.11  -0.10   0.01     0.21   0.17  -0.04
   5   6     0.00  -0.05   0.10    -0.04   0.04   0.02     0.05  -0.06  -0.05
   6   6     0.07  -0.03   0.02     0.01  -0.02  -0.03    -0.07   0.08   0.08
   7   6     0.07  -0.01  -0.09     0.06  -0.08  -0.04    -0.15   0.15   0.13
   8   6     0.03  -0.03  -0.14     0.06  -0.05  -0.00    -0.12   0.11   0.08
   9   7     0.00   0.01  -0.17    -0.01   0.00   0.10    -0.00   0.01  -0.07
  10   6     0.00   0.01   0.03     0.01   0.03   0.06    -0.01   0.00  -0.08
  11   6    -0.00  -0.00   0.01     0.03   0.04   0.06    -0.00  -0.02  -0.03
  12   6     0.01   0.05   0.10     0.01   0.18   0.28     0.02   0.08   0.14
  13   6     0.00  -0.02  -0.02    -0.01  -0.06  -0.07     0.01  -0.03  -0.02
  14   6    -0.01  -0.06  -0.08    -0.04  -0.14  -0.24     0.01  -0.10  -0.12
  15   6    -0.00  -0.03  -0.05    -0.05  -0.08  -0.15     0.02  -0.07  -0.09
  16   6    -0.00   0.05   0.05    -0.03   0.15   0.16     0.02   0.07   0.08
  17   6    -0.00   0.06   0.06    -0.02   0.16   0.18     0.02   0.10   0.12
  18   6     0.00   0.00   0.01    -0.01  -0.06  -0.02     0.02  -0.03  -0.03
  19   6     0.00  -0.07  -0.07     0.02  -0.19  -0.15     0.01  -0.10  -0.11
  20   6     0.01   0.00   0.01     0.05   0.07   0.09     0.01   0.06   0.07
  21   6     0.01   0.06   0.06     0.02   0.16   0.14     0.01   0.08   0.11
  22   6     0.01   0.05   0.04     0.03   0.04  -0.01     0.01  -0.04  -0.02
  23   6     0.00  -0.03  -0.04    -0.01  -0.10  -0.17    -0.01  -0.12  -0.12
  24   6    -0.01  -0.05  -0.06    -0.03  -0.07  -0.15    -0.01  -0.09  -0.09
  25   6    -0.01  -0.03  -0.04    -0.03  -0.04  -0.11     0.00  -0.04  -0.04
  26   6    -0.00   0.04   0.03    -0.00   0.12   0.10     0.02   0.07   0.10
  27   7     0.01   0.01   0.19     0.04  -0.00   0.01    -0.01   0.02  -0.08
  28   6     0.03   0.02   0.06     0.00  -0.04  -0.02    -0.01   0.04   0.01
  29   6     0.02   0.14  -0.08     0.01  -0.15  -0.04    -0.03   0.13   0.06
  30   6     0.08   0.16  -0.14    -0.09  -0.15  -0.00     0.05   0.13   0.03
  31   6     0.12   0.04   0.01    -0.13  -0.04   0.00     0.09   0.03  -0.01
  32   6     0.12  -0.05   0.14    -0.08   0.04  -0.02     0.03  -0.04  -0.00
  33   6     0.04   0.07  -0.05     0.03  -0.02   0.01    -0.06  -0.01   0.00
  34   6     0.01   0.17  -0.15     0.05  -0.13  -0.01    -0.08   0.10   0.04
  35   6     0.00   0.00  -0.05    -0.02   0.00   0.06     0.02  -0.01  -0.03
  36   6    -0.18  -0.08   0.10     0.05   0.05   0.02     0.04  -0.04  -0.04
  37   6    -0.23  -0.14   0.18     0.05   0.11  -0.03     0.08  -0.08  -0.02
  38   6    -0.04  -0.06   0.03    -0.03   0.08  -0.01     0.08  -0.09  -0.01
  39   6     0.18   0.05  -0.17    -0.09   0.03   0.04     0.04  -0.12   0.02
  40   6    -0.05  -0.02   0.02     0.02   0.03  -0.01     0.02  -0.09   0.01
  41   6    -0.26  -0.10   0.17     0.09   0.06  -0.02     0.05  -0.07  -0.04
  42   6    -0.00  -0.10  -0.11     0.12  -0.06  -0.06    -0.23   0.16   0.18
  43   6    -0.03  -0.09   0.04     0.06   0.00  -0.04    -0.10   0.04   0.07
  44   1    -0.06  -0.05  -0.01    -0.02   0.01   0.01     0.06   0.01  -0.01
  45   1    -0.04  -0.03  -0.00     0.03   0.05   0.03    -0.04  -0.07  -0.05
  46   1    -0.04  -0.02  -0.05     0.04  -0.02  -0.01    -0.06   0.03   0.04
  47   1     0.05   0.06   0.02    -0.01  -0.01   0.03    -0.01  -0.01  -0.07
  48   1     0.04   0.05   0.02     0.06   0.04   0.01    -0.13  -0.10  -0.03
  49   1     0.05   0.03  -0.04    -0.02   0.06  -0.02     0.01  -0.12   0.06
  50   1     0.03   0.08  -0.01    -0.05  -0.01  -0.01     0.07   0.00   0.01
  51   1    -0.01  -0.01   0.08    -0.00  -0.06   0.02     0.01   0.12  -0.06
  52   1    -0.03  -0.04  -0.04    -0.06  -0.05  -0.02     0.12   0.10   0.04
  53   1     0.03  -0.00   0.01    -0.01  -0.01  -0.01    -0.01   0.02   0.02
  54   1     0.03   0.01  -0.03     0.02  -0.03  -0.01    -0.05   0.06   0.04
  55   1     0.01   0.03   0.06     0.01   0.12   0.17     0.01   0.05   0.09
  56   1     0.00  -0.00   0.00    -0.00  -0.01  -0.01     0.00   0.00   0.01
  57   1    -0.00  -0.02  -0.02    -0.02  -0.04  -0.07     0.01  -0.04  -0.05
  58   1     0.00   0.02   0.03    -0.01   0.07   0.08     0.01   0.03   0.04
  59   1    -0.00  -0.01  -0.00    -0.01  -0.06  -0.04     0.00  -0.04  -0.04
  60   1     0.00  -0.05  -0.05     0.00  -0.12  -0.11    -0.00  -0.07  -0.08
  61   1     0.00  -0.01  -0.00     0.02   0.02   0.03     0.00   0.02   0.02
  62   1     0.00   0.02   0.02     0.01   0.01  -0.01     0.00  -0.02  -0.02
  63   1     0.00  -0.01  -0.02    -0.00  -0.04  -0.07    -0.00  -0.04  -0.04
  64   1     0.03   0.07  -0.06    -0.04  -0.06  -0.00     0.03   0.05   0.01
  65   1     0.04   0.00   0.02    -0.06  -0.01   0.00     0.05   0.01  -0.01
  66   1     0.05  -0.05   0.10    -0.03   0.04  -0.01     0.01  -0.03  -0.00
  67   1     0.00   0.01  -0.02     0.03   0.01   0.01    -0.04  -0.02  -0.00
  68   1    -0.01   0.06  -0.05     0.04  -0.04  -0.00    -0.05   0.03   0.01
  69   1    -0.09  -0.06   0.07     0.02   0.05  -0.01     0.02  -0.03  -0.01
  70   1     0.00  -0.02   0.00    -0.02   0.03  -0.00     0.03  -0.02  -0.01
  71   1     0.13   0.05  -0.12    -0.05  -0.00   0.03     0.00  -0.04   0.02
  72   1    -0.01   0.01  -0.00     0.01  -0.00  -0.01    -0.01  -0.02   0.01
  73   1    -0.10  -0.04   0.07     0.04   0.02  -0.01     0.02  -0.02  -0.01
  74   1    -0.01  -0.04  -0.05     0.05  -0.02  -0.02    -0.10   0.06   0.07
  75   1    -0.03  -0.03   0.03     0.02   0.01  -0.01    -0.02  -0.00   0.01
                     28                     29                     30
                        a                      a                      a 
 Frequencies --   269.1487               276.9414               312.1037
 Red. masses --    10.0827                10.8130                 9.1770
 Frc consts  --     0.0000                 0.0000                 0.0000
 IR Inten    --     2.1727                 1.0196                 0.9356
 Raman Activ --     0.0000                 0.0000                 0.0000
 Depolar     --     0.0000                 0.0000                 0.0000
 Atom AN      X      Y      Z        X      Y      Z        X      Y      Z
   1   6     0.23   0.20   0.08     0.02  -0.01  -0.02    -0.12  -0.04  -0.03
   2   6    -0.01   0.07  -0.04     0.04  -0.02  -0.02    -0.04   0.01   0.00
   3   6    -0.16  -0.03  -0.01     0.04  -0.07  -0.01     0.38  -0.03   0.06
   4   6    -0.10  -0.11  -0.11     0.11   0.10   0.03     0.03   0.03   0.37
   5   6    -0.01   0.07  -0.06     0.00   0.00  -0.02    -0.11   0.09  -0.16
   6   6    -0.02  -0.06  -0.04    -0.04   0.03   0.02    -0.15  -0.05  -0.19
   7   6     0.04  -0.15   0.12    -0.07   0.05   0.02    -0.15  -0.09  -0.03
   8   6     0.09  -0.09   0.19    -0.06   0.01  -0.02    -0.09  -0.03   0.06
   9   7     0.03  -0.04   0.17    -0.01  -0.05  -0.01    -0.08  -0.05   0.26
  10   6    -0.03  -0.06   0.00     0.03  -0.06   0.06    -0.06  -0.05   0.04
  11   6    -0.04  -0.12  -0.14    -0.04  -0.19  -0.24    -0.03  -0.02   0.00
  12   6    -0.00  -0.06  -0.03    -0.00  -0.15  -0.13     0.00  -0.01   0.01
  13   6     0.03   0.06   0.11     0.03   0.10   0.19     0.02   0.01   0.01
  14   6     0.01   0.02   0.02     0.02   0.07   0.11     0.01   0.01  -0.02
  15   6     0.02  -0.01  -0.04     0.02  -0.02  -0.01     0.01   0.01  -0.02
  16   6     0.01  -0.03  -0.05     0.01  -0.11  -0.13     0.01   0.01  -0.00
  17   6     0.01   0.04   0.04     0.00   0.04   0.04     0.00   0.01   0.00
  18   6     0.02   0.04   0.06     0.01   0.09   0.11     0.02  -0.01   0.01
  19   6     0.03  -0.05  -0.05     0.00  -0.06  -0.06     0.03  -0.02   0.00
  20   6     0.03  -0.03  -0.03     0.00  -0.07  -0.07     0.04  -0.00   0.01
  21   6     0.03   0.05   0.05     0.01   0.07   0.08     0.02   0.01  -0.01
  22   6     0.03   0.07   0.06     0.02   0.12   0.11     0.01  -0.01  -0.01
  23   6     0.01  -0.05  -0.07    -0.01  -0.09  -0.12    -0.00  -0.01  -0.01
  24   6    -0.03  -0.10  -0.12    -0.03  -0.18  -0.20    -0.03  -0.00  -0.01
  25   6    -0.00  -0.02  -0.04    -0.01  -0.03  -0.02    -0.01   0.01  -0.02
  26   6     0.01   0.03   0.03     0.00   0.04   0.06     0.00   0.01  -0.01
  27   7    -0.06  -0.01  -0.05     0.02  -0.06   0.30    -0.06  -0.05  -0.14
  28   6    -0.01   0.04  -0.04     0.03  -0.08   0.13    -0.03  -0.01  -0.02
  29   6    -0.01   0.11   0.06     0.05  -0.16  -0.09    -0.00   0.07   0.03
  30   6     0.08   0.08   0.08    -0.04  -0.11  -0.15     0.10   0.05   0.03
  31   6     0.10   0.02   0.01    -0.07  -0.02  -0.02     0.12   0.02  -0.00
  32   6     0.05   0.00  -0.06     0.03   0.01   0.10     0.11   0.02  -0.02
  33   6    -0.03  -0.00   0.02     0.12   0.04  -0.03     0.04   0.03   0.02
  34   6    -0.04   0.06   0.09     0.13  -0.05  -0.14     0.02   0.08   0.05
  35   6     0.01   0.01  -0.08    -0.03  -0.02   0.07    -0.06  -0.02   0.09
  36   6    -0.16  -0.06  -0.16     0.01   0.05   0.04    -0.06  -0.03  -0.06
  37   6    -0.16  -0.16  -0.06    -0.02   0.14  -0.02     0.01  -0.04  -0.08
  38   6    -0.00  -0.09   0.01    -0.06   0.14  -0.03     0.05  -0.03  -0.03
  39   6     0.09   0.09  -0.03    -0.11   0.13   0.02    -0.02  -0.01   0.05
  40   6    -0.10   0.12   0.01    -0.02   0.11   0.01    -0.01   0.04  -0.01
  41   6    -0.24   0.04  -0.06     0.03   0.12   0.02    -0.01   0.03  -0.09
  42   6     0.17   0.01   0.14    -0.10   0.06   0.03     0.03   0.02  -0.07
  43   6     0.10   0.11   0.00    -0.08   0.03   0.02    -0.03   0.08  -0.18
  44   1     0.07   0.09   0.01     0.03  -0.00  -0.00     0.05  -0.02   0.00
  45   1     0.09   0.10   0.02    -0.01  -0.02  -0.02    -0.09  -0.10  -0.07
  46   1     0.10   0.01   0.07    -0.01   0.01   0.01    -0.11   0.06   0.03
  47   1    -0.07  -0.05  -0.03     0.02  -0.01   0.00     0.14   0.00   0.15
  48   1    -0.04  -0.01  -0.01    -0.00  -0.03  -0.01     0.20  -0.02  -0.01
  49   1    -0.08   0.02   0.03     0.02  -0.03   0.01     0.14  -0.02  -0.06
  50   1    -0.08  -0.06  -0.03     0.05   0.00   0.02     0.12  -0.01   0.12
  51   1     0.01  -0.06  -0.07     0.00   0.06  -0.01    -0.02   0.02   0.18
  52   1    -0.04  -0.02  -0.02     0.06   0.06   0.04    -0.05   0.02   0.14
  53   1    -0.02  -0.03  -0.03    -0.01   0.01   0.00    -0.06  -0.04  -0.09
  54   1    -0.00  -0.08   0.04    -0.02   0.02   0.01    -0.06  -0.05   0.00
  55   1     0.00  -0.02   0.01     0.00  -0.05  -0.04     0.01  -0.01   0.01
  56   1     0.02   0.05   0.08     0.02   0.07   0.12     0.01   0.01   0.01
  57   1     0.00  -0.01  -0.02     0.00  -0.01  -0.01    -0.00   0.00  -0.01
  58   1     0.00  -0.02  -0.03     0.00  -0.07  -0.08     0.00   0.00  -0.00
  59   1     0.00   0.01   0.03     0.00   0.04   0.05     0.00  -0.01   0.00
  60   1     0.01  -0.04  -0.03    -0.00  -0.04  -0.05     0.01  -0.01  -0.00
  61   1     0.01  -0.03  -0.03    -0.00  -0.06  -0.06     0.01   0.00   0.00
  62   1     0.01   0.04   0.04     0.01   0.07   0.06     0.00  -0.00  -0.00
  63   1     0.00  -0.02  -0.03    -0.00  -0.04  -0.05     0.00   0.00  -0.00
  64   1     0.04   0.04   0.04    -0.03  -0.04  -0.06     0.05   0.03   0.02
  65   1     0.05   0.00   0.00    -0.05   0.00   0.00     0.04   0.00  -0.00
  66   1     0.01  -0.01  -0.04     0.01   0.01   0.08     0.03  -0.00  -0.02
  67   1    -0.02  -0.02   0.00     0.05   0.03  -0.01    -0.00  -0.01   0.00
  68   1    -0.03   0.02   0.04     0.07  -0.02  -0.06     0.00   0.02   0.02
  69   1    -0.06  -0.08  -0.02    -0.00   0.06  -0.00     0.01  -0.02  -0.03
  70   1     0.02  -0.05   0.02    -0.01   0.04  -0.01     0.03  -0.02  -0.01
  71   1     0.08   0.05  -0.02    -0.05   0.03   0.01    -0.02  -0.01   0.04
  72   1    -0.03   0.07   0.02    -0.00   0.01  -0.00    -0.01   0.02   0.00
  73   1    -0.11   0.03  -0.02     0.01   0.04  -0.00    -0.01   0.02  -0.04
  74   1     0.09   0.01   0.06    -0.04   0.02   0.01     0.04   0.01  -0.01
  75   1     0.04   0.06  -0.01    -0.03   0.01   0.01     0.00   0.04  -0.06
                     31                     32                     33
                        a                      a                      a 
 Frequencies --   318.1561               332.1274               342.8865
 Red. masses --     2.7071                10.0963                10.2060
 Frc consts  --     0.0000                 0.0000                 0.0000
 IR Inten    --     0.1418                 1.1587                 2.1104
 Raman Activ --     0.0000                 0.0000                 0.0000
 Depolar     --     0.0000                 0.0000                 0.0000
 Atom AN      X      Y      Z        X      Y      Z        X      Y      Z
   1   6    -0.03  -0.03  -0.02    -0.22  -0.05   0.06     0.23   0.16   0.12
   2   6     0.01   0.00   0.01    -0.01  -0.03   0.05     0.02   0.03   0.01
   3   6    -0.03   0.08  -0.02    -0.04   0.12  -0.01    -0.02   0.21  -0.06
   4   6    -0.09  -0.17  -0.07    -0.09  -0.18   0.02     0.02   0.07  -0.13
   5   6     0.02   0.01   0.06     0.08  -0.06  -0.01     0.03  -0.07   0.06
   6   6     0.08   0.02   0.01     0.17  -0.00  -0.08     0.03  -0.11   0.05
   7   6    -0.04   0.13   0.10     0.03   0.15  -0.04    -0.05  -0.03   0.02
   8   6     0.01   0.07   0.02    -0.08   0.22   0.05    -0.14  -0.07  -0.03
   9   7     0.03   0.06  -0.01    -0.06   0.19   0.21    -0.16  -0.08  -0.02
  10   6     0.04   0.05  -0.00     0.07   0.18  -0.02    -0.07  -0.08  -0.14
  11   6     0.01   0.00  -0.03     0.02   0.05  -0.12    -0.02   0.01  -0.02
  12   6    -0.01  -0.00  -0.03    -0.04   0.05  -0.14    -0.00   0.05   0.03
  13   6    -0.01   0.01   0.01    -0.07   0.07   0.03    -0.01   0.01  -0.01
  14   6     0.00  -0.01   0.03     0.02  -0.06   0.09     0.00  -0.05  -0.04
  15   6     0.01  -0.01   0.01     0.05  -0.05   0.05     0.01  -0.04  -0.04
  16   6     0.01  -0.02  -0.01     0.06  -0.08  -0.02     0.02   0.05   0.07
  17   6     0.01   0.00   0.01     0.08  -0.01   0.04     0.01   0.01   0.02
  18   6     0.00   0.02   0.00     0.03   0.11  -0.01     0.00  -0.03  -0.06
  19   6    -0.02   0.01  -0.02    -0.07   0.04  -0.11    -0.01   0.03   0.01
  20   6    -0.03   0.00  -0.01    -0.11   0.01  -0.02    -0.02   0.03   0.03
  21   6    -0.01   0.00   0.03    -0.03  -0.01   0.12    -0.01  -0.06  -0.03
  22   6    -0.00   0.01   0.02     0.00   0.02   0.09    -0.00  -0.07  -0.05
  23   6    -0.00  -0.03  -0.01     0.01  -0.12  -0.06     0.01   0.06   0.08
  24   6     0.02  -0.03  -0.03     0.06  -0.13  -0.09     0.01   0.06   0.07
  25   6     0.01  -0.02   0.01     0.04  -0.12   0.01     0.00   0.00   0.03
  26   6     0.01  -0.01   0.02     0.04  -0.06   0.07     0.00  -0.02   0.01
  27   7     0.04   0.04   0.02     0.12   0.09  -0.08    -0.04  -0.16  -0.09
  28   6     0.01   0.01  -0.00     0.01  -0.01   0.08    -0.04  -0.14   0.22
  29   6    -0.00  -0.01  -0.00    -0.00   0.01   0.05     0.01  -0.03   0.11
  30   6    -0.04  -0.01   0.00    -0.01   0.05  -0.03     0.09   0.06  -0.12
  31   6    -0.04  -0.00   0.00    -0.00   0.02  -0.01     0.12   0.03  -0.06
  32   6    -0.05  -0.01   0.00    -0.02  -0.03   0.05     0.17  -0.03   0.13
  33   6    -0.03  -0.02  -0.00    -0.04   0.01  -0.03     0.07   0.10  -0.07
  34   6    -0.02  -0.02  -0.01    -0.04   0.03  -0.02     0.05   0.11  -0.05
  35   6     0.02   0.02  -0.02    -0.08   0.01   0.16    -0.15  -0.10   0.24
  36   6     0.01   0.00  -0.00    -0.08  -0.04  -0.04    -0.12  -0.05   0.03
  37   6     0.01  -0.01   0.01     0.07  -0.09  -0.08     0.02   0.01  -0.10
  38   6     0.02  -0.01   0.00     0.11  -0.09  -0.02     0.07   0.04  -0.08
  39   6     0.02  -0.03  -0.00    -0.00  -0.13   0.09    -0.12   0.01   0.11
  40   6     0.00  -0.03   0.00     0.02  -0.03  -0.03     0.01   0.08  -0.02
  41   6     0.01  -0.02  -0.01     0.02  -0.03  -0.13     0.05   0.08  -0.11
  42   6     0.09  -0.04  -0.07    -0.02   0.06  -0.04    -0.11  -0.11  -0.06
  43   6     0.02   0.01   0.06     0.11  -0.08  -0.06    -0.06  -0.14   0.00
  44   1     0.48   0.05   0.02    -0.23  -0.02   0.00     0.13   0.10   0.03
  45   1    -0.21  -0.31  -0.35    -0.02   0.03   0.16     0.07   0.06  -0.01
  46   1    -0.32   0.24   0.32     0.01  -0.06  -0.11     0.06   0.02   0.13
  47   1    -0.04  -0.05  -0.00    -0.01   0.05  -0.03    -0.02   0.03  -0.04
  48   1     0.06   0.05   0.01    -0.03   0.06   0.03     0.02   0.10   0.02
  49   1    -0.07   0.08  -0.03    -0.01   0.04  -0.03    -0.04   0.10  -0.06
  50   1    -0.03   0.03  -0.05    -0.05  -0.05   0.00    -0.03   0.03  -0.05
  51   1     0.01  -0.11   0.05     0.01  -0.09   0.01     0.01   0.03  -0.06
  52   1    -0.08  -0.11  -0.09    -0.07  -0.07  -0.00     0.04   0.01  -0.05
  53   1     0.07  -0.02  -0.03     0.08  -0.01  -0.03     0.03  -0.03   0.01
  54   1    -0.02   0.06   0.04     0.01   0.06  -0.01    -0.01   0.02   0.00
  55   1    -0.00   0.00  -0.01    -0.02   0.02  -0.05     0.00   0.02   0.02
  56   1    -0.01   0.01   0.01    -0.05   0.03   0.03    -0.01   0.01   0.00
  57   1     0.01  -0.00   0.00     0.03  -0.01   0.02     0.00  -0.02  -0.02
  58   1     0.00  -0.01  -0.01     0.01  -0.04  -0.02     0.01   0.03   0.04
  59   1     0.00   0.01  -0.00     0.03   0.06  -0.01     0.00  -0.02  -0.03
  60   1    -0.01  -0.00  -0.01    -0.03   0.00  -0.06    -0.00   0.02   0.01
  61   1    -0.01  -0.00  -0.01    -0.06  -0.01  -0.02    -0.01   0.03   0.03
  62   1     0.00   0.01   0.01     0.01   0.03   0.05    -0.00  -0.04  -0.03
  63   1    -0.00  -0.01  -0.00    -0.01  -0.04  -0.01     0.00   0.03   0.04
  64   1    -0.02  -0.01  -0.00    -0.00   0.02  -0.02     0.04   0.05  -0.06
  65   1    -0.01  -0.00  -0.00     0.00   0.01  -0.01     0.02   0.02  -0.03
  66   1    -0.02  -0.00   0.00    -0.00  -0.02   0.03     0.06  -0.04   0.08
  67   1    -0.00  -0.00   0.00    -0.01   0.01  -0.02     0.00   0.03  -0.05
  68   1    -0.01  -0.01  -0.00    -0.02   0.02  -0.01     0.02   0.04  -0.03
  69   1     0.00  -0.01   0.00     0.03  -0.05  -0.04     0.02   0.01  -0.04
  70   1     0.00  -0.00  -0.00     0.05  -0.02  -0.01     0.05   0.01  -0.04
  71   1     0.00  -0.01  -0.00    -0.02  -0.04   0.06    -0.07  -0.01   0.08
  72   1    -0.00  -0.01   0.00     0.01   0.01  -0.00     0.01   0.03  -0.01
  73   1     0.01  -0.01  -0.00     0.02  -0.00  -0.05     0.03   0.04  -0.06
  74   1     0.04  -0.04  -0.05    -0.03   0.01  -0.02    -0.03  -0.04  -0.03
  75   1    -0.00   0.01   0.03     0.04  -0.04  -0.03    -0.03  -0.06   0.01
                     34                     35                     36
                        a                      a                      a 
 Frequencies --   363.4333               372.6176               372.9366
 Red. masses --     9.6135                 9.4582                 9.0410
 Frc consts  --     0.0000                 0.0000                 0.0000
 IR Inten    --     0.7929                 0.4981                 0.5832
 Raman Activ --     0.0000                 0.0000                 0.0000
 Depolar     --     0.0000                 0.0000                 0.0000
 Atom AN      X      Y      Z        X      Y      Z        X      Y      Z
   1   6    -0.07   0.15   0.23    -0.14   0.08   0.07    -0.15   0.10   0.11
   2   6     0.08  -0.06  -0.04     0.05  -0.02  -0.09     0.07  -0.04  -0.09
   3   6    -0.00   0.26  -0.16     0.02  -0.00  -0.11     0.01   0.05  -0.13
   4   6     0.06  -0.13   0.02     0.03  -0.13   0.12     0.05  -0.16   0.11
   5   6     0.11  -0.13  -0.06     0.05  -0.00  -0.10     0.07  -0.03  -0.10
   6   6     0.10  -0.08  -0.05     0.01  -0.03  -0.07    -0.01   0.00  -0.03
   7   6    -0.14   0.13   0.05    -0.04   0.01   0.12    -0.04   0.02   0.09
   8   6    -0.16   0.07  -0.02     0.06  -0.03   0.07     0.03  -0.01   0.05
   9   7    -0.06  -0.03   0.02     0.09  -0.04  -0.15     0.06  -0.04  -0.11
  10   6    -0.09  -0.06   0.14     0.05  -0.04  -0.10     0.02  -0.04  -0.06
  11   6    -0.09  -0.09   0.09     0.03  -0.03  -0.13     0.00  -0.05  -0.08
  12   6     0.03  -0.12   0.07    -0.01  -0.00  -0.07     0.00  -0.03  -0.03
  13   6     0.10  -0.05  -0.02    -0.04   0.07   0.13    -0.00   0.04   0.10
  14   6     0.04   0.08  -0.02    -0.02  -0.06  -0.02    -0.01  -0.03  -0.02
  15   6     0.03   0.09   0.01    -0.02  -0.13  -0.12    -0.01  -0.08  -0.09
  16   6    -0.00   0.00  -0.10    -0.01   0.08   0.13    -0.01   0.07   0.08
  17   6    -0.05   0.02  -0.05     0.01   0.05   0.09    -0.01   0.05   0.05
  18   6     0.02  -0.05   0.08    -0.03  -0.03  -0.09    -0.02  -0.04  -0.05
  19   6     0.11  -0.08   0.07    -0.06   0.04  -0.03    -0.02   0.01   0.00
  20   6     0.13  -0.06   0.00    -0.06   0.08   0.05    -0.01   0.05   0.04
[...]
  70   1     0.03   0.07   0.06    -0.02  -0.05  -0.04     0.04   0.09   0.08
  71   1     0.22  -0.49   0.02     0.10  -0.22   0.01     0.02  -0.05   0.00
  72   1    -0.02   0.00  -0.02    -0.08   0.02  -0.07     0.09  -0.03   0.09
  73   1    -0.14  -0.33  -0.30    -0.08  -0.19  -0.18     0.01   0.02   0.02
  74   1     0.00   0.09  -0.07    -0.00  -0.12   0.09     0.00  -0.00   0.00
  75   1     0.06  -0.01   0.06    -0.06   0.01  -0.06     0.00  -0.00   0.00
                    211                    212                    213
                        a                      a                      a 
 Frequencies --  3084.3770              3086.2642              3088.8863
 Red. masses --     1.8757                 1.8791                 1.8521
 Frc consts  --     0.0000                 0.0000                 0.0000
 IR Inten    --   317.6914               105.5280                75.7000
 Raman Activ --     0.0000                 0.0000                 0.0000
 Depolar     --     0.0000                 0.0000                 0.0000
 Atom AN      X      Y      Z        X      Y      Z        X      Y      Z
   1   6    -0.00   0.00  -0.00    -0.00   0.00   0.00    -0.00  -0.00  -0.00
   2   6     0.00  -0.00   0.00    -0.00   0.00   0.00     0.00  -0.00   0.00
   3   6    -0.00  -0.00   0.00    -0.00   0.00  -0.00     0.00  -0.00   0.00
   4   6    -0.00  -0.00  -0.00    -0.00   0.00  -0.00     0.00  -0.00   0.00
   5   6     0.00   0.00  -0.00    -0.00   0.00  -0.00     0.00   0.00   0.00
   6   6    -0.00   0.00  -0.00     0.00   0.00  -0.00    -0.00   0.00  -0.00
   7   6     0.02  -0.00   0.02     0.02  -0.00   0.03     0.01  -0.00   0.01
   8   6     0.00   0.00   0.00     0.00   0.00   0.00     0.00   0.00   0.00
   9   7     0.00  -0.00   0.00    -0.00  -0.00   0.00    -0.00   0.00   0.00
  10   6    -0.00   0.00   0.00     0.00  -0.00  -0.00     0.00   0.00  -0.00
  11   6    -0.00  -0.00   0.00    -0.00   0.00   0.00     0.00  -0.00   0.00
  12   6    -0.02  -0.01   0.01    -0.00  -0.00   0.00     0.05   0.02  -0.02
  13   6     0.00   0.00  -0.00     0.00  -0.00   0.00    -0.00   0.02  -0.01
  14   6     0.00   0.00  -0.00    -0.00  -0.00   0.00    -0.00  -0.00   0.00
  15   6     0.00   0.02  -0.02     0.00   0.00  -0.00    -0.00  -0.01   0.01
  16   6    -0.04   0.02  -0.01    -0.00   0.00  -0.00     0.01  -0.01   0.00
  17   6    -0.00   0.00  -0.00    -0.00   0.00  -0.00     0.00  -0.00   0.00
  18   6    -0.14   0.08  -0.06    -0.00   0.00  -0.00     0.03  -0.02   0.01
  19   6    -0.11  -0.04   0.04    -0.00  -0.00   0.00     0.03   0.01  -0.01
  20   6    -0.00  -0.11   0.10    -0.00  -0.00   0.00     0.00   0.03  -0.03
  21   6     0.00  -0.00   0.00     0.00  -0.00   0.00     0.00   0.00  -0.00
  22   6     0.00   0.00  -0.00    -0.00   0.00  -0.00    -0.00   0.08  -0.08
  23   6    -0.06   0.03  -0.03    -0.01   0.00  -0.00    -0.20   0.09  -0.09
  24   6    -0.00  -0.00   0.00    -0.00  -0.00   0.00    -0.01  -0.00   0.00
  25   6     0.00  -0.00  -0.00     0.00  -0.00  -0.00     0.00  -0.00  -0.00
  26   6     0.00  -0.00   0.00    -0.00  -0.00   0.00    -0.00  -0.00   0.00
  27   7     0.00  -0.00  -0.00    -0.00   0.00   0.00    -0.00  -0.00   0.00
  28   6     0.00   0.00  -0.00    -0.00  -0.00   0.00    -0.00  -0.00  -0.00
  29   6    -0.00  -0.00   0.00     0.00   0.00   0.00    -0.00  -0.00  -0.00
  30   6    -0.00   0.00   0.00     0.02  -0.02  -0.01    -0.00   0.00   0.00
  31   6    -0.00  -0.01  -0.01     0.01   0.02   0.01     0.00   0.00   0.00
  32   6    -0.02  -0.01   0.00     0.05   0.01  -0.00     0.00   0.00   0.00
  33   6    -0.01   0.01   0.00     0.02  -0.02  -0.01     0.00  -0.00  -0.00
  34   6    -0.00  -0.01  -0.00    -0.00   0.00   0.00    -0.00  -0.01  -0.01
  35   6    -0.00  -0.00   0.00    -0.00  -0.00  -0.00     0.00   0.00  -0.00
  36   6    -0.00   0.00  -0.00     0.00   0.00   0.00    -0.00   0.00  -0.00
  37   6    -0.01   0.00  -0.01    -0.09   0.03  -0.09     0.00  -0.00   0.00
  38   6     0.00   0.00   0.00    -0.04  -0.10  -0.09    -0.00  -0.00  -0.00
  39   6    -0.01   0.02  -0.00     0.00   0.00   0.00     0.01  -0.01   0.00
  40   6    -0.00   0.00  -0.00    -0.10   0.03  -0.09     0.01  -0.00   0.01
  41   6     0.00   0.01   0.01    -0.04  -0.09  -0.08     0.00   0.01   0.01
  42   6    -0.00   0.00  -0.00    -0.00   0.00  -0.00    -0.00  -0.00   0.00
  43   6     0.01  -0.00   0.01    -0.00   0.00  -0.01     0.00  -0.00   0.00
  44   1    -0.00   0.00   0.00     0.00  -0.00  -0.00    -0.00   0.00   0.00
  45   1     0.00  -0.00  -0.00     0.00  -0.00  -0.00    -0.00   0.00  -0.00
  46   1     0.00   0.00   0.00     0.00   0.00   0.00     0.00   0.00   0.00
  47   1     0.00  -0.00  -0.00     0.00  -0.00  -0.00     0.00  -0.00   0.00
  48   1    -0.00   0.00  -0.00     0.00  -0.00   0.00    -0.00   0.00  -0.00
  49   1     0.00   0.00   0.00    -0.00  -0.00  -0.00    -0.00  -0.00   0.00
  50   1    -0.00   0.00   0.00     0.00  -0.00  -0.00    -0.00  -0.00  -0.00
  51   1     0.00   0.00   0.00     0.00   0.00   0.00     0.00   0.00   0.00
  52   1    -0.00  -0.00   0.00     0.00  -0.00   0.00    -0.00   0.00  -0.00
  53   1     0.00  -0.01   0.01    -0.00  -0.02   0.02     0.00  -0.01   0.00
  54   1    -0.06   0.01  -0.06    -0.09   0.01  -0.09    -0.02   0.00  -0.02
  55   1     0.06   0.02  -0.02     0.01   0.00  -0.00    -0.17  -0.07   0.06
  56   1    -0.00  -0.00   0.00     0.00   0.00  -0.00    -0.00  -0.05   0.03
  57   1    -0.00  -0.07   0.05    -0.00  -0.00   0.00     0.00   0.03  -0.02
  58   1     0.13  -0.07   0.05     0.00  -0.00   0.00    -0.04   0.02  -0.02
  59   1     0.51  -0.26   0.19     0.01  -0.00   0.00    -0.11   0.05  -0.04
  60   1     0.34   0.13  -0.13     0.01   0.00  -0.00    -0.09  -0.03   0.03
  61   1     0.01   0.39  -0.36     0.00   0.01  -0.01    -0.01  -0.12   0.11
  62   1    -0.00  -0.01   0.01    -0.00  -0.01   0.01    -0.00  -0.25   0.26
  63   1     0.22  -0.10   0.10     0.03  -0.02   0.02     0.70  -0.31   0.31
  64   1     0.01  -0.01  -0.01    -0.06   0.06   0.04     0.01  -0.01  -0.01
  65   1     0.01   0.04   0.02    -0.03  -0.07  -0.03    -0.00  -0.01  -0.00
  66   1     0.08   0.02  -0.00    -0.19  -0.05   0.00    -0.02  -0.00   0.00
  67   1     0.02  -0.02  -0.01    -0.07   0.07   0.05    -0.01   0.01   0.01
  68   1     0.01   0.03   0.01    -0.00  -0.01  -0.00     0.01   0.04   0.02
  69   1     0.02  -0.01   0.02     0.31  -0.09   0.30    -0.01   0.00  -0.01
  70   1    -0.00  -0.01  -0.01     0.14   0.33   0.31     0.00   0.00   0.00
  71   1     0.03  -0.06   0.00     0.00  -0.01  -0.00    -0.02   0.05  -0.00
  72   1     0.00  -0.00   0.00     0.33  -0.09   0.32    -0.03   0.01  -0.03
  73   1    -0.01  -0.03  -0.03     0.13   0.32   0.29    -0.01  -0.03  -0.02
  74   1    -0.00  -0.01   0.01     0.00  -0.00   0.00     0.00   0.01  -0.01
  75   1    -0.02   0.00  -0.02     0.02  -0.00   0.02    -0.01   0.00  -0.02
                    214                    215                    216
                        a                      a                      a 
 Frequencies --  3091.0834              3092.1839              3094.4664
 Red. masses --     1.8751                 1.8732                 1.9195
 Frc consts  --     0.0000                 0.0000                 0.0000
 IR Inten    --   112.4669                66.8183                72.1210
 Raman Activ --     0.0000                 0.0000                 0.0000
 Depolar     --     0.0000                 0.0000                 0.0000
 Atom AN      X      Y      Z        X      Y      Z        X      Y      Z
   1   6     0.00  -0.00  -0.00     0.00   0.00  -0.00     0.00   0.00  -0.00
   2   6     0.00  -0.00   0.00     0.00  -0.00   0.00     0.00  -0.00   0.00
   3   6     0.00  -0.00   0.00     0.00  -0.00   0.00     0.00  -0.00   0.00
   4   6     0.00  -0.00   0.00     0.00  -0.00   0.00     0.00  -0.00   0.00
   5   6     0.00   0.00   0.00     0.00   0.00   0.00     0.00   0.00   0.00
   6   6    -0.00  -0.00   0.00    -0.00  -0.00   0.00    -0.00  -0.00   0.00
   7   6    -0.00   0.00  -0.00    -0.00   0.00  -0.00     0.00   0.00  -0.00
   8   6    -0.00  -0.00  -0.00     0.00   0.00   0.00    -0.00  -0.00  -0.00
   9   7     0.00   0.00  -0.00    -0.00  -0.00   0.00     0.00   0.00   0.00
  10   6    -0.00  -0.00   0.00     0.00  -0.00   0.00    -0.00  -0.00   0.00
  11   6    -0.00   0.00  -0.00    -0.01   0.00  -0.00    -0.00   0.00  -0.00
  12   6    -0.05  -0.02   0.02    -0.21  -0.08   0.07    -0.02  -0.01   0.01
  13   6     0.00  -0.02   0.01     0.00  -0.10   0.07    -0.00  -0.01   0.01
  14   6     0.00  -0.00   0.00     0.00  -0.00   0.00     0.00  -0.00   0.00
  15   6     0.00  -0.00   0.00    -0.00  -0.01   0.01    -0.00  -0.00   0.00
  16   6     0.00  -0.00   0.00     0.01  -0.01   0.00     0.01  -0.00   0.00
  17   6     0.00   0.00  -0.00     0.00  -0.00   0.00     0.00  -0.00   0.00
  18   6    -0.00   0.00  -0.00     0.01  -0.01   0.01     0.01  -0.00   0.00
  19   6    -0.00  -0.00   0.00     0.01   0.00  -0.00     0.01   0.00  -0.00
  20   6    -0.00  -0.00   0.00     0.00   0.01  -0.01     0.00   0.01  -0.01
  21   6     0.00   0.00  -0.00     0.00   0.00  -0.00     0.00   0.00  -0.00
  22   6    -0.00  -0.00   0.00     0.00   0.02  -0.02     0.00   0.01  -0.01
  23   6     0.00  -0.00   0.00    -0.04   0.02  -0.02    -0.01   0.01  -0.01
  24   6     0.00  -0.00  -0.00     0.00  -0.00  -0.00    -0.00  -0.00   0.00
  25   6    -0.00   0.00  -0.00     0.00   0.00  -0.00     0.00   0.00  -0.00
  26   6     0.00  -0.00   0.00     0.00  -0.00   0.00    -0.00  -0.00   0.00
  27   7     0.00   0.00   0.00    -0.00   0.00  -0.00    -0.00   0.00  -0.00
  28   6    -0.00  -0.00   0.00    -0.00  -0.00   0.00     0.00   0.00   0.00
  29   6    -0.00  -0.00  -0.00     0.00   0.00   0.00    -0.00   0.00   0.00
  30   6     0.07  -0.06  -0.04    -0.02   0.02   0.01    -0.01   0.01   0.01
  31   6     0.00   0.01   0.01     0.00  -0.00  -0.00     0.00   0.00   0.00
  32   6     0.09   0.03   0.00    -0.02  -0.00  -0.00    -0.00  -0.00  -0.00
  33   6     0.08  -0.08  -0.05    -0.02   0.01   0.01    -0.01   0.01   0.00
  34   6    -0.06  -0.17  -0.09     0.01   0.03   0.02     0.00   0.01   0.01
  35   6     0.00   0.00   0.00     0.00   0.00   0.00    -0.00  -0.00   0.00
  36   6    -0.00   0.00   0.00    -0.00   0.00  -0.00     0.00  -0.00   0.00
  37   6     0.01  -0.00   0.01    -0.01   0.00  -0.01     0.05  -0.02   0.05
  38   6     0.01   0.02   0.02    -0.01  -0.01  -0.01     0.04   0.09   0.09
  39   6    -0.01   0.01  -0.00     0.01  -0.03   0.00    -0.07   0.16  -0.01
  40   6     0.01  -0.00   0.01     0.01  -0.00   0.01    -0.09   0.02  -0.09
  41   6     0.01   0.02   0.02     0.00   0.00   0.00    -0.02  -0.06  -0.05
  42   6     0.00  -0.00   0.00     0.00   0.00  -0.00     0.00  -0.02   0.01
  43   6     0.01  -0.00   0.01     0.01  -0.00   0.01     0.04  -0.01   0.04
  44   1    -0.00   0.00   0.00     0.00   0.00   0.00     0.00   0.00   0.00
  45   1    -0.00   0.00   0.00    -0.00   0.00   0.00    -0.00   0.00   0.00
  46   1     0.00   0.00   0.00    -0.00  -0.00  -0.00    -0.00  -0.00  -0.00
  47   1     0.00  -0.00   0.00     0.00  -0.00   0.00     0.00  -0.00   0.00
  48   1    -0.00   0.00  -0.00    -0.00   0.00  -0.00    -0.00   0.01  -0.01
  49   1     0.00   0.00   0.00    -0.00  -0.00  -0.00    -0.00  -0.00   0.00
  50   1    -0.00   0.00   0.00     0.00  -0.00  -0.00    -0.00   0.00   0.00
  51   1     0.00   0.00   0.00    -0.00  -0.00  -0.00    -0.00  -0.00  -0.00
  52   1    -0.00   0.00  -0.00    -0.00   0.00  -0.00    -0.00   0.01  -0.01
  53   1     0.00   0.00  -0.00     0.00   0.00  -0.00     0.00   0.01  -0.01
  54   1     0.01  -0.00   0.01     0.00  -0.00   0.00     0.00  -0.00  -0.00
  55   1     0.16   0.06  -0.06     0.72   0.28  -0.24     0.07   0.03  -0.02
  56   1     0.00   0.07  -0.05     0.01   0.34  -0.22     0.00   0.04  -0.03
  57   1    -0.00   0.00  -0.00     0.00   0.05  -0.03     0.00   0.01  -0.01
  58   1    -0.00   0.00  -0.00    -0.04   0.02  -0.02    -0.02   0.01  -0.01
  59   1     0.00  -0.00   0.00    -0.05   0.02  -0.02    -0.03   0.01  -0.01
  60   1     0.00   0.00  -0.00    -0.04  -0.01   0.01    -0.02  -0.01   0.01
  61   1     0.00   0.00  -0.00    -0.00  -0.04   0.04    -0.00  -0.02   0.02
  62   1    -0.00  -0.00  -0.00    -0.00  -0.06   0.06    -0.00  -0.02   0.02
  63   1    -0.00   0.00  -0.00     0.13  -0.06   0.06     0.05  -0.02   0.02
  64   1    -0.23   0.20   0.13     0.06  -0.06  -0.04     0.04  -0.03  -0.02
  65   1    -0.01  -0.04  -0.02     0.00   0.00   0.00    -0.00  -0.00  -0.00
  66   1    -0.29  -0.08   0.00     0.05   0.01  -0.00     0.01   0.00  -0.00
  67   1    -0.27   0.24   0.17     0.05  -0.05  -0.03     0.02  -0.02  -0.01
  68   1     0.21   0.60   0.30    -0.04  -0.12  -0.06    -0.02  -0.05  -0.02
  69   1    -0.05   0.01  -0.05     0.03  -0.01   0.03    -0.18   0.05  -0.18
  70   1    -0.03  -0.06  -0.06     0.02   0.05   0.05    -0.13  -0.30  -0.28
  71   1     0.02  -0.05   0.00    -0.04   0.09  -0.00     0.24  -0.52   0.02
  72   1    -0.02   0.01  -0.02    -0.04   0.01  -0.04     0.30  -0.09   0.29
  73   1    -0.03  -0.07  -0.06    -0.00  -0.01  -0.01     0.08   0.20   0.18
  74   1    -0.00   0.00  -0.00    -0.00  -0.00   0.00     0.00   0.06  -0.05
  75   1    -0.02   0.00  -0.02    -0.02   0.00  -0.02    -0.14   0.02  -0.15
                    217                    218                    219
                        a                      a                      a 
 Frequencies --  3094.7375              3096.9434              3120.6594
 Red. masses --     1.8623                 1.8769                 1.8386
 Frc consts  --     0.0000                 0.0000                 0.0000
 IR Inten    --    72.5154                28.9199                28.7754
 Raman Activ --     0.0000                 0.0000                 0.0000
 Depolar     --     0.0000                 0.0000                 0.0000
 Atom AN      X      Y      Z        X      Y      Z        X      Y      Z
   1   6     0.00   0.00   0.00     0.00  -0.00  -0.00     0.00  -0.00   0.00
   2   6     0.00  -0.00   0.00    -0.00  -0.00  -0.00     0.00  -0.00   0.00
   3   6     0.00  -0.01   0.01     0.00  -0.00  -0.00     0.00  -0.00  -0.00
   4   6     0.00  -0.01   0.01    -0.00  -0.00  -0.00    -0.00  -0.00   0.00
   5   6     0.01   0.01   0.00    -0.00  -0.00  -0.00    -0.01  -0.01  -0.00
   6   6    -0.00  -0.01   0.01     0.00   0.00  -0.00     0.00  -0.21   0.17
   7   6    -0.01   0.00  -0.01     0.00  -0.00   0.00     0.03  -0.01   0.04
   8   6    -0.00  -0.00  -0.00    -0.00  -0.00   0.00     0.00   0.00  -0.00
   9   7     0.00   0.00   0.00     0.00   0.00  -0.00    -0.00  -0.00   0.00
  10   6    -0.00  -0.00   0.00     0.00  -0.00   0.00    -0.00   0.00   0.00
  11   6     0.00  -0.00  -0.00     0.00   0.00  -0.00     0.00  -0.00  -0.00
  12   6     0.01   0.00  -0.00     0.00   0.00  -0.00     0.00   0.00  -0.00
  13   6     0.00   0.01  -0.00     0.00   0.00  -0.00     0.00   0.00  -0.00
  14   6    -0.00   0.00  -0.00    -0.00   0.00  -0.00    -0.00   0.00  -0.00
  15   6     0.00   0.00  -0.00     0.00   0.00  -0.00    -0.00   0.00  -0.00
  16   6    -0.00   0.00  -0.00    -0.00   0.00  -0.00    -0.00   0.00  -0.00
  17   6    -0.00   0.00  -0.00    -0.00   0.00  -0.00    -0.00  -0.00   0.00
  18   6    -0.00   0.00  -0.00    -0.00   0.00  -0.00    -0.00   0.00  -0.00
  19   6    -0.00  -0.00   0.00    -0.00  -0.00   0.00    -0.00  -0.00   0.00
  20   6    -0.00  -0.00  -0.00    -0.00  -0.00   0.00    -0.00  -0.00   0.00
  21   6    -0.00  -0.00   0.00     0.00  -0.00   0.00    -0.00  -0.00   0.00
  22   6    -0.00  -0.00   0.00    -0.00  -0.00   0.00    -0.00  -0.00   0.00
  23   6     0.01  -0.00   0.00     0.01  -0.00   0.00    -0.00   0.00  -0.00
  24   6     0.00   0.00  -0.00     0.00   0.00   0.00    -0.00   0.00  -0.00
  25   6    -0.00   0.00  -0.00    -0.00  -0.00   0.00    -0.00   0.00  -0.00
  26   6    -0.00   0.00  -0.00     0.00   0.00  -0.00     0.00   0.00  -0.00
  27   7     0.00   0.00   0.00     0.00  -0.00  -0.00    -0.00  -0.00  -0.00
  28   6     0.00   0.00  -0.00    -0.00   0.00   0.00    -0.00  -0.00  -0.00
  29   6    -0.00  -0.00  -0.00    -0.01  -0.00   0.00     0.00   0.00  -0.00
  30   6    -0.00   0.00   0.00    -0.17   0.15   0.10     0.00  -0.00  -0.00
  31   6     0.00   0.00   0.00     0.03   0.08   0.04     0.00   0.00   0.00
  32   6     0.00   0.00  -0.00     0.07   0.02  -0.00     0.00   0.00   0.00
  33   6     0.00  -0.00  -0.00     0.03  -0.03  -0.02     0.00  -0.00  -0.00
  34   6    -0.00  -0.00  -0.00    -0.02  -0.05  -0.03    -0.00  -0.00  -0.00
  35   6    -0.00   0.00   0.00     0.00   0.00   0.00     0.00  -0.00   0.00
  36   6    -0.00   0.00  -0.00    -0.00  -0.00   0.00    -0.00   0.00  -0.00
  37   6    -0.02   0.01  -0.02    -0.00   0.00  -0.00    -0.00   0.00  -0.00
  38   6    -0.01  -0.02  -0.02    -0.00  -0.00  -0.00    -0.00  -0.00  -0.00
  39   6     0.02  -0.03   0.00     0.00  -0.00   0.00     0.00  -0.00  -0.00
  40   6     0.02  -0.01   0.02     0.00  -0.00   0.00    -0.00   0.00  -0.00
  41   6     0.00   0.01   0.01     0.00   0.00   0.00     0.00  -0.00  -0.00
  42   6    -0.00  -0.08   0.07     0.00   0.00  -0.00    -0.00   0.00  -0.00
  43   6     0.17  -0.03   0.18    -0.00   0.00  -0.00    -0.01   0.00  -0.01
  44   1     0.00   0.00   0.00    -0.00   0.00   0.00    -0.00  -0.00  -0.01
  45   1     0.00   0.00   0.00    -0.00   0.00   0.00    -0.01   0.00  -0.00
  46   1    -0.00  -0.00  -0.00     0.00   0.00   0.00    -0.00  -0.00  -0.00
  47   1     0.01  -0.00   0.00    -0.00   0.00   0.00    -0.00   0.00   0.00
  48   1    -0.01   0.04  -0.04     0.00  -0.00   0.00    -0.00  -0.00  -0.00
  49   1    -0.00  -0.00   0.00     0.00   0.00   0.00     0.00   0.00   0.00
  50   1    -0.00   0.00   0.01    -0.00  -0.00  -0.00     0.00  -0.00  -0.00
  51   1    -0.00  -0.00   0.00     0.00   0.00   0.00     0.00   0.00   0.00
  52   1    -0.01   0.03  -0.03    -0.00  -0.00   0.00    -0.00  -0.00  -0.00
  53   1     0.00   0.03  -0.03    -0.00  -0.00   0.00    -0.00   0.75  -0.59
  54   1     0.02  -0.00   0.02    -0.00   0.00  -0.00    -0.10   0.01  -0.10
  55   1    -0.04  -0.02   0.01    -0.01  -0.00   0.00    -0.00  -0.00   0.00
  56   1    -0.00  -0.02   0.01    -0.00  -0.01   0.01    -0.00  -0.00   0.00
  57   1    -0.00  -0.00   0.00    -0.00  -0.01   0.01    -0.00  -0.00   0.00
  58   1     0.00  -0.00   0.00     0.01  -0.00   0.00     0.00  -0.00   0.00
  59   1     0.00  -0.00   0.00     0.01  -0.01   0.00     0.00  -0.00   0.00
  60   1     0.00   0.00  -0.00     0.01   0.00  -0.00     0.00   0.00  -0.00
  61   1     0.00  -0.00   0.00     0.00   0.01  -0.01     0.00   0.00  -0.00
  62   1     0.00   0.01  -0.01     0.00   0.01  -0.01     0.00   0.00  -0.00
  63   1    -0.04   0.02  -0.02    -0.02   0.01  -0.01     0.00  -0.00   0.00
  64   1     0.00  -0.00  -0.00     0.58  -0.51  -0.34    -0.00   0.00   0.00
  65   1    -0.00  -0.00  -0.00    -0.09  -0.26  -0.12    -0.00  -0.00  -0.00
  66   1    -0.00  -0.00   0.00    -0.22  -0.06   0.00    -0.00  -0.00   0.00
  67   1    -0.00   0.00   0.00    -0.10   0.09   0.06    -0.00   0.00   0.00
  68   1     0.00   0.00   0.00     0.06   0.17   0.09     0.00   0.00   0.00
  69   1     0.07  -0.02   0.07     0.00  -0.00   0.00     0.00  -0.00   0.00
  70   1     0.03   0.08   0.07     0.00   0.01   0.00     0.00   0.00   0.00
  71   1    -0.05   0.11  -0.00    -0.01   0.01  -0.00    -0.00   0.00  -0.00
  72   1    -0.06   0.02  -0.06    -0.01   0.00  -0.01     0.00  -0.00   0.00
  73   1    -0.02  -0.04  -0.03    -0.00  -0.01  -0.01     0.00   0.00   0.00
  74   1     0.00   0.28  -0.21     0.00  -0.00   0.00    -0.00  -0.01   0.01
  75   1    -0.59   0.10  -0.62     0.01  -0.00   0.01     0.03  -0.01   0.03
