75
 energy: -110.073402025065 gnorm: 0.000058676093 xtb: 6.7.1 (edcfbbe)
C            2.87696388083017        4.99238927694766       -0.32901060176987
C            2.91182656125286        3.90157647579923        0.74555042112660
C            2.78697958740730        4.57830676310755        2.11892448801835
C            4.25912606059879        3.17088794537258        0.64385421234705
C            1.78982152745451        2.88747823543035        0.58787721256881
C            0.84596788056216        2.95377575327997       -0.43049325677272
C           -0.15231450097393        2.00457609141167       -0.55259914075841
C           -0.23772536184192        0.96094988477886        0.35794617132833
N           -1.23892030549402       -0.02190564077441        0.23429584127161
C           -1.05411470738567       -1.38003127623091        0.25895066734937
C            0.24159164621695       -2.02303155525599        0.44811586300917
C            0.36061284807655       -2.96121721711574        1.47116646584957
C            1.57746178928478       -3.53392593407732        1.77440059105099
C            2.72886503719352       -3.17607279364146        1.06870611142138
C            4.01200466458657       -3.70510595676753        1.39450174400307
C            5.11616853862681       -3.35029614796158        0.69697622230610
C            5.03562079952085       -2.44431622562889       -0.40181836405450
C            6.16019304110528       -2.06976491458258       -1.13998394584853
C            6.04695277932767       -1.19829263079056       -2.20808976618120
C            4.81450706944701       -0.68474632437902       -2.56910924639308
C            3.66373177135101       -1.02818128225518       -1.85700184688619
C            2.37212600621959       -0.54662653416259       -2.21840321737994
C            1.27258373951060       -0.87306550984287       -1.50050098690152
C            1.35793821384024       -1.70556968780065       -0.34563643209746
C            2.61714225728701       -2.26408782649689       -0.01058229378835
C            3.77018763885001       -1.91165102571947       -0.75468926776645
N           -2.19081327982888       -2.01632238669699        0.13600448040247
C           -3.16551605989654       -1.06738553083386        0.01721580197358
C           -4.56370232037697       -1.45600591203582       -0.09814158830934
C           -4.88040462694658       -2.69416593293010       -0.65685654755703
C           -6.19722185896451       -3.09626468672572       -0.77150185767407
C           -7.21856837344293       -2.27149630974444       -0.32755118110230
C           -6.91224977196699       -1.04731375822908        0.24471742955046
C           -5.59621157960884       -0.64122802447526        0.36389059438500
C           -2.59073082183962        0.19148240330259        0.07071153759422
C           -3.17954737516108        1.52242723370556       -0.01195085148908
C           -2.86573469270285        2.50409907588903        0.92672494921024
C           -3.42945113211333        3.76333139581341        0.83430276911074
C           -4.31140279352581        4.05989482962494       -0.19171249605697
C           -4.63139163500422        3.08822105202745       -1.12701303663543
C           -4.06958057822996        1.82858141346588       -1.04117708519542
C            0.68779242180390        0.88512316346967        1.39121096253522
C            1.68511980222170        1.83338688273351        1.49330012689743
H            2.98879766222169        4.56609225030183       -1.32323043491104
H            1.94921824490434        5.55823965621654       -0.28360380619135
H            3.70050248835081        5.68476591762362       -0.16674491772633
H            1.82150218540642        5.07251887390621        2.20861726111340
H            2.87821582077667        3.85800822434299        2.92704107303283
H            3.56917948211644        5.32474539087173        2.23887423494947
H            4.34793630501677        2.67743785361722       -0.32182696743974
H            5.07675617844865        3.88124510370040        0.74548920588316
H            4.36369187624145        2.41732071596687        1.41945955453077
H            0.87604778294926        3.74741989765208       -1.15810850157422
H           -0.86508925677921        2.07176837931289       -1.36154989743808
H           -0.52289686862034       -3.21791557467142        2.03752658401086
H            1.65093377070272       -4.25157995652822        2.57881526808844
H            4.07916559376189       -4.39904521184700        2.22048133859789
H            6.08551545749152       -3.75275690784741        0.95544058552081
H            7.12590193156017       -2.47155916659077       -0.86821092906091
H            6.92815518909938       -0.92040054356033       -2.76846275385055
H            4.73193489751067       -0.01134458658757       -3.41038547102320
H            2.28769076660647        0.08223889439299       -3.09348409844737
H            0.29918216841821       -0.52845961959717       -1.81677098504129
H           -4.07463937558652       -3.32903620707033       -0.99374671028642
H           -6.42954952086336       -4.05657845138007       -1.20964394021029
H           -8.24856711763168       -2.58435371694363       -0.41966974098345
H           -7.70385990154538       -0.40620123352313        0.60602151602374
H           -5.36552657507103        0.30643772122108        0.82797898299480
H           -2.18763443323372        2.27446485162271        1.73643035356775
H           -3.18064140307250        4.51484020651668        1.56949130205423
H           -4.75014173059083        5.04429241716095       -0.26178244639063
H           -5.31927871347733        3.31349774098947       -1.92896954983074
H           -4.31460483681769        1.06916978221391       -1.77001145020962
H            0.62293879253109        0.08260410433309        2.11151815269378
H            2.39127074114886        1.74173880790855        2.30392147217192
