      -----------------------------------------------------------      
     |                   =====================                   |     
     |                           x T B                           |     
     |                   =====================                   |     
     |                         S. Grimme                         |     
     |          Mulliken Center for Theoretical Chemistry        |     
     |                    University of Bonn                     |     
      -----------------------------------------------------------      

   * xtb version 6.7.1 (edcfbbe) compiled by 'albert@albert-system' on 2024-07-22

   xtb is free software: you can redistribute it and/or modify it under
   the terms of the GNU Lesser General Public License as published by
   the Free Software Foundation, either version 3 of the License, or
   (at your option) any later version.
   
   xtb is distributed in the hope that it will be useful,
   but WITHOUT ANY WARRANTY; without even the implied warranty of
   MERCHANTABILITY or FITNESS FOR A PARTICULAR PURPOSE.  See the
   GNU Lesser General Public License for more details.
   
   Cite this work as:
   * C. Bannwarth, E. Caldeweyher, S. Ehlert, A. Hansen, P. Pracht,
     J. Seibert, S. Spicher, S. Grimme, WIREs Comput. Mol. Sci., 2020, 11,
     e01493. DOI: 10.1002/wcms.1493
   
   for GFN2-xTB:
   * C. Bannwarth, S. Ehlert and S. Grimme., J. Chem. Theory Comput., 2019,
     15, 1652-1671. DOI: 10.1021/acs.jctc.8b01176
   for GFN1-xTB:
   * S. Grimme, C. Bannwarth, P. Shushkov, J. Chem. Theory Comput., 2017,
     13, 1989-2009. DOI: 10.1021/acs.jctc.7b00118
   for GFN0-xTB:
   * P. Pracht, E. Caldeweyher, S. Ehlert, S. Grimme, ChemRxiv, 2019, preprint.
     DOI: 10.26434/chemrxiv.8326202.v1
   for GFN-FF:
   * S. Spicher and S. Grimme, Angew. Chem. Int. Ed., 2020, 59, 15665-15673.
     DOI: 10.1002/anie.202004239
   
   for ALPB and GBSA implicit solvation:
   * S. Ehlert, M. Stahn, S. Spicher, S. Grimme, J. Chem. Theory Comput.,
     2021, 17, 4250-4261. DOI: 10.1021/acs.jctc.1c00471
   
   for ddCOSMO and CPCM-X implicit solvation:
   * M. Stahn, S. Ehlert, S. Grimme, J. Phys. Chem. A,
     2023, XX, XXXX-XXXX. DOI: 10.1021/acs.jpca.3c04382
   
   for DFT-D4:
   * E. Caldeweyher, C. Bannwarth and S. Grimme, J. Chem. Phys., 2017,
     147, 034112. DOI: 10.1063/1.4993215
   * E. Caldeweyher, S. Ehlert, A. Hansen, H. Neugebauer, S. Spicher,
     C. Bannwarth and S. Grimme, J. Chem. Phys., 2019, 150, 154122.
     DOI: 10.1063/1.5090222
   * E. Caldeweyher, J.-M. Mewes, S. Ehlert and S. Grimme, Phys. Chem. Chem. Phys.
     2020, 22, 8499-8512. DOI: 10.1039/D0CP00502A
   
   for sTDA-xTB:
   * S. Grimme and C. Bannwarth, J. Chem. Phys., 2016, 145, 054103.
     DOI: 10.1063/1.4959605
   
   in the mass-spec context:
   * V. Asgeirsson, C. Bauer and S. Grimme, Chem. Sci., 2017, 8, 4879.
     DOI: 10.1039/c7sc00601b
   * J. Koopman and S. Grimme, ACS Omega 2019, 4, 12, 15120-15133.
     DOI: 10.1021/acsomega.9b02011
   
   for metadynamics refer to:
   * S. Grimme, J. Chem. Theory Comput., 2019, 155, 2847-2862
     DOI: 10.1021/acs.jctc.9b00143
   
   for SPH calculations refer to:
   * S. Spicher and S. Grimme, J. Chem. Theory Comput., 2021, 17, 1701-1714
     DOI: 10.1021/acs.jctc.0c01306
   
   for ONIOM refer to:
   * C. Plett, A. Katbashev, S. Ehlert, S. Grimme, M. Bursch,
     Phys. Chem. Chem. Phys., 2023, 25, 17860-17868. DOI: 10.1039/D3CP02178E
   
   for DIPRO refer to:
   * J. Kohn, N. Gildemeister, S. Grimme, D. Fazzi, A. Hansen,
     J. Chem. Phys., 2023, just accepted.
   
   for PTB refer to:
   * S. Grimme, M. Mueller, A. Hansen, J. Chem. Phys., 2023, 158, 124111.
     DOI: 10.1063/5.0137838
   
   with help from (in alphabetical order)
   P. Atkinson, C. Bannwarth, F. Bohle, G. Brandenburg, E. Caldeweyher
   M. Checinski, S. Dohm, S. Ehlert, S. Ehrlich, I. Gerasimov, C. Hölzer
   A. Katbashev, J. Kohn, J. Koopman, C. Lavigne, S. Lehtola, F. März, M. Müller,
   F. Musil, H. Neugebauer, J. Pisarek, C. Plett, P. Pracht, F. Pultar,
   J. Seibert, P. Shushkov, S. Spicher, M. Stahn, M. Steiner, T. Strunk,
   J. Stückrath, T. Rose, and J. Unsleber
   
 * started run on 2025/09/08 at 12:40:40.633     
   ID    Z sym.   atoms
    1    7 N      1, 11, 17, 39, 51
    2    6 C      2-10, 12-16, 18-38, 40-50, 52-58
    3    1 H      59-91

           -------------------------------------------------
          |                Calculation Setup                |
           -------------------------------------------------

          program call               : xtb data2507/toluene/2PyCNBCz/2PyCNBCz.xyz --gfn 2 --gbsa toluene --ohess vtight --parallel 40 --molden --ceasefiles --namespace data2507/toluene/2PyCNBCz/2PyCNBCz_toluene_S0_preOpt
          calculation namespace      : data2507/toluene/2PyCNBCz/2PyCNBCz_toluene_S0_preOpt
          coordinate file            : data2507/toluene/2PyCNBCz/2PyCNBCz.xyz
          omp threads                :                    40


           -------------------------------------------------
          |                 G F N 2 - x T B                 |
           -------------------------------------------------

        Reference                      10.1021/acs.jctc.8b01176
      * Hamiltonian:
        H0-scaling (s, p, d)           1.850000    2.230000    2.230000
        zeta-weighting                 0.500000
      * Dispersion:
        s8                             2.700000
        a1                             0.520000
        a2                             5.000000
        s9                             5.000000
      * Repulsion:
        kExp                           1.500000    1.000000
        rExp                           1.000000
      * Coulomb:
        alpha                          2.000000
        third order                    shell-resolved
        anisotropic                    true
        a3                             3.000000
        a5                             4.000000
        cn-shift                       1.200000
        cn-exp                         4.000000
        max-rad                        5.000000

      * Solvation model:               GBSA
        Solvent                        toluene
        Parameter file                 internal GFN2-xTB/GBSA
        Dielectric constant                7.0000E+00
        Reference state                gsolv [1 M gas/solution]
        Free energy shift                  4.5239E-03 Eh       2.8388E+00 kcal/mol
        Temperature                        2.9815E+02 K
        Density                            8.6700E-01 kg/L
        Solvent mass                       9.2140E+01 g/mol
        Interaction kernel             Still
        Born radius scaling (c1)           1.5686E+00
        Born radii integrator          GBOBC
        Born offset                        0.0000E+00 a0       0.0000E+00 AA
        H-bond correction              false
        Ion screening                  false
        Surface tension                    1.0000E-05 Eh       1.5569E+01 dyn/cm
        Grid points                               230 per atom

          ...................................................
          :                      SETUP                      :
          :.................................................:
          :  # basis functions                 265          :
          :  # atomic orbitals                 265          :
          :  # shells                          149          :
          :  # electrons                       270          :
          :  max. iterations                   250          :
          :  Hamiltonian                  GFN2-xTB          :
          :  restarted?                      false          :
          :  GBSA solvation                   true          :
          :  PC potential                    false          :
          :  electronic temp.          300.0000000     K    :
          :  accuracy                    1.0000000          :
          :  -> integral cutoff          0.2500000E+02      :
          :  -> integral neglect         0.1000000E-07      :
          :  -> SCF convergence          0.1000000E-05 Eh   :
          :  -> wf. convergence          0.1000000E-03 e    :
          :  Broyden damping             0.4000000          :
          :  net charge                          0          :
          :  unpaired electrons                  0          :
          ...................................................

 iter      E             dE          RMSdq      gap      omega  full diag
   1   -147.4792557 -0.147479E+03  0.454E+00    1.65       0.0  T
   2   -147.5512263 -0.719705E-01  0.279E+00    1.94       1.0  T
   3   -147.4238225  0.127404E+00  0.145E+00    1.17       1.0  T
   4   -147.5779464 -0.154124E+00  0.413E-01    1.52       1.0  T
   5   -147.5879694 -0.100230E-01  0.131E-01    1.47       1.0  T
   6   -147.5888946 -0.925174E-03  0.565E-02    1.48       1.0  T
   7   -147.5890437 -0.149141E-03  0.186E-02    1.48       1.0  T
   8   -147.5890473 -0.354221E-05  0.933E-03    1.49       1.1  T
   9   -147.5890509 -0.357933E-05  0.270E-03    1.49       3.9  T
  10   -147.5890511 -0.239637E-06  0.120E-03    1.49       8.7  T
  11   -147.5890512 -0.894280E-07  0.354E-04    1.49      29.6  T
  12   -147.5890512 -0.222875E-08  0.192E-04    1.49      54.5  T

   *** convergence criteria satisfied after 12 iterations ***

         #    Occupation            Energy/Eh            Energy/eV
      -------------------------------------------------------------
         1        2.0000           -0.6970769             -18.9684
       ...           ...                  ...                  ...
       129        2.0000           -0.4039573             -10.9922
       130        2.0000           -0.3962943             -10.7837
       131        2.0000           -0.3832249             -10.4281
       132        2.0000           -0.3810203             -10.3681
       133        2.0000           -0.3782017             -10.2914
       134        2.0000           -0.3670506              -9.9880
       135        2.0000           -0.3577100              -9.7338 (HOMO)
       136                         -0.3029853              -8.2446 (LUMO)
       137                         -0.2938415              -7.9958
       138                         -0.2552675              -6.9462
       139                         -0.2499022              -6.8002
       140                         -0.2489811              -6.7751
       ...                                ...                  ...
       265                          1.0732298              29.2041
      -------------------------------------------------------------
                  HL-Gap            0.0547247 Eh            1.4891 eV
             Fermi-level           -0.3303476 Eh           -8.9892 eV

 SCC (total)                   0 d,  0 h,  0 min,  0.269 sec
 SCC setup                      ...        0 min,  0.008 sec (  3.103%)
 Dispersion                     ...        0 min,  0.005 sec (  1.800%)
 classical contributions        ...        0 min,  0.000 sec (  0.115%)
 integral evaluation            ...        0 min,  0.011 sec (  4.037%)
 iterations                     ...        0 min,  0.229 sec ( 85.118%)
 molecular gradient             ...        0 min,  0.014 sec (  5.207%)
 printout                       ...        0 min,  0.002 sec (  0.581%)

         :::::::::::::::::::::::::::::::::::::::::::::::::::::
         ::                     SUMMARY                     ::
         :::::::::::::::::::::::::::::::::::::::::::::::::::::
         :: total energy            -145.011618039588 Eh    ::
         :: total w/o Gsasa/hb      -144.950122811705 Eh    ::
         :: gradient norm              0.141608376654 Eh/a0 ::
         :: HOMO-LUMO gap              1.489135096715 eV    ::
         ::.................................................::
         :: SCC energy              -147.590476941328 Eh    ::
         :: -> isotropic ES            0.040437388579 Eh    ::
         :: -> anisotropic ES          0.014768740494 Eh    ::
         :: -> anisotropic XC          0.107917935512 Eh    ::
         :: -> dispersion             -0.124394865657 Eh    ::
         :: -> Gsolv                  -0.067080522843 Eh    ::
         ::    -> Gelec               -0.005585294960 Eh    ::
         ::    -> Gsasa               -0.066019107755 Eh    ::
         ::    -> Ghb                  0.000000000000 Eh    ::
         ::    -> Gshift               0.004523879872 Eh    ::
         :: repulsion energy           2.578858901740 Eh    ::
         :: add. restraining           0.000000000000 Eh    ::
         :: total charge              -0.000000000000 e     ::
         :::::::::::::::::::::::::::::::::::::::::::::::::::::

      ----------------------------------------------------------- 
     |                   =====================                   |
     |                        A N C O P T                        |
     |                   =====================                   |
     |               Approximate Normal Coordinate               |
     |                Rational Function Optimizer                |
      ----------------------------------------------------------- 

Optimization log is written to '/dev/null'
      ----------------------------------------------------------- 
     |                   =====================                   |
     |                        A N C O P T                        |
     |                   =====================                   |
     |               Approximate Normal Coordinate               |
     |                Rational Function Optimizer                |
      ----------------------------------------------------------- 

          ...................................................
          :                      SETUP                      :
          :.................................................:
          :   optimization level         verytight          :
          :   max. optcycles                  1820          :
          :   ANC micro-cycles                  20          :
          :   degrees of freedom               267          :
          :.................................................:
          :   RF solver                   davidson          :
          :   write xtbopt.log                true          :
          :   linear?                        false          :
          :   energy convergence         0.1000000E-06 Eh   :
          :   grad. convergence          0.2000000E-03 Eh/α :
          :   maxmium RF displ.          1.0000000          :
          :   Hlow (freq-cutoff)         0.1000000E-01      :
          :   Hmax (freq-cutoff)         5.0000000          :
          :   S6 in model hess.         20.0000000          :
          ...................................................

generating ANC from exact Hessian ...
Using Lindh-Hessian (1995)
 Shifting diagonal of input Hessian by   9.944301625326141E-003
 Lowest  eigenvalues of input Hessian
    0.000000    0.000000    0.000000    0.000000    0.000000    0.000000
    0.010000    0.010011    0.010037    0.010184    0.010232    0.010277
    0.010529    0.010631    0.010832    0.011080    0.011118    0.011343
 Highest eigenvalues
    2.095852    2.099934    2.101405    2.112174    2.115802    2.554351
 

........................................................................
.............................. CYCLE    1 ..............................
........................................................................

 iter      E             dE          RMSdq      gap      omega  full diag
   1   -147.5890512 -0.147589E+03  0.912E-05    1.49       0.0  T
   2   -147.5890512 -0.495959E-10  0.603E-05    1.49     173.9  T
   3   -147.5890512 -0.389377E-10  0.478E-05    1.49     219.4  T
     SCC iter.                  ...        0 min,  0.045 sec
     gradient                   ...        0 min,  0.013 sec
 * total energy  :  -145.0116180 Eh     change       -0.1591786E-08 Eh
   gradient norm :     0.1416091 Eh/α   predicted     0.0000000E+00 (-100.00%)
   displ. norm   :     0.3610021 α      lambda       -0.2499567E-01
   maximum displ.:     0.1816488 α      in ANC's #62, #60, #133, ...

........................................................................
.............................. CYCLE    2 ..............................
........................................................................

 iter      E             dE          RMSdq      gap      omega  full diag
   1   -147.7048812 -0.147705E+03  0.163E-01    1.47       0.0  T
   2   -147.7049816 -0.100464E-03  0.989E-02    1.48       1.0  T
   3   -147.7049198  0.618219E-04  0.439E-02    1.49       1.0  T
   4   -147.7050223 -0.102527E-03  0.655E-03    1.49       1.6  T
   5   -147.7050242 -0.182983E-05  0.313E-03    1.49       3.4  T
   6   -147.7050244 -0.247435E-06  0.156E-03    1.49       6.7  T
   7   -147.7050245 -0.701495E-07  0.697E-04    1.49      15.0  T
   8   -147.7050245 -0.301030E-07  0.232E-04    1.49      45.2  T
     SCC iter.                  ...        0 min,  0.109 sec
     gradient                   ...        0 min,  0.014 sec
 * total energy  :  -145.0287640 Eh     change       -0.1714594E-01 Eh
   gradient norm :     0.0548261 Eh/α   predicted    -0.1414488E-01 ( -17.50%)
   displ. norm   :     0.3835175 α      lambda       -0.7519287E-02
   maximum displ.:     0.1343527 α      in ANC's #62, #24, #22, ...

........................................................................
.............................. CYCLE    3 ..............................
........................................................................

 iter      E             dE          RMSdq      gap      omega  full diag
   1   -147.7628166 -0.147763E+03  0.114E-01    1.43       0.0  T
   2   -147.7628999 -0.832837E-04  0.693E-02    1.45       1.0  T
   3   -147.7628710  0.288204E-04  0.346E-02    1.45       1.0  T
   4   -147.7629283 -0.572839E-04  0.629E-03    1.46       1.7  T
   5   -147.7629305 -0.212689E-05  0.287E-03    1.46       3.7  T
   6   -147.7629308 -0.339685E-06  0.125E-03    1.46       8.4  T
   7   -147.7629309 -0.556967E-07  0.513E-04    1.45      20.4  T
   8   -147.7629309 -0.104000E-07  0.251E-04    1.46      41.8  T
     SCC iter.                  ...        0 min,  0.108 sec
     gradient                   ...        0 min,  0.013 sec
 * total energy  :  -145.0333942 Eh     change       -0.4630268E-02 Eh
   gradient norm :     0.0127845 Eh/α   predicted    -0.4317031E-02 (  -6.76%)
   displ. norm   :     0.3491827 α      lambda       -0.1895279E-02
   maximum displ.:     0.1386738 α      in ANC's #22, #24, #21, ...

........................................................................
.............................. CYCLE    4 ..............................
........................................................................

 iter      E             dE          RMSdq      gap      omega  full diag
   1   -147.7784792 -0.147778E+03  0.638E-02    1.43       0.0  T
   2   -147.7784967 -0.175209E-04  0.388E-02    1.44       1.0  T
   3   -147.7784840  0.127264E-04  0.177E-02    1.44       1.0  T
   4   -147.7785023 -0.183183E-04  0.314E-03    1.45       3.3  T
   5   -147.7785030 -0.647190E-06  0.998E-04    1.45      10.5  T
   6   -147.7785030 -0.618057E-07  0.568E-04    1.45      18.4  T
     SCC iter.                  ...        0 min,  0.081 sec
     gradient                   ...        0 min,  0.014 sec
 * total energy  :  -145.0348584 Eh     change       -0.1464136E-02 Eh
   gradient norm :     0.0118208 Eh/α   predicted    -0.1063196E-02 ( -27.38%)
   displ. norm   :     0.4780098 α      lambda       -0.1669799E-02
   maximum displ.:     0.2018933 α      in ANC's #22, #24, #13, ...

........................................................................
.............................. CYCLE    5 ..............................
........................................................................

 iter      E             dE          RMSdq      gap      omega  full diag
   1   -147.7857593 -0.147786E+03  0.871E-02    1.42       0.0  T
   2   -147.7857726 -0.132845E-04  0.521E-02    1.43       1.0  T
   3   -147.7857513  0.212777E-04  0.166E-02    1.43       1.0  T
   4   -147.7857764 -0.250915E-04  0.297E-03    1.44       3.5  T
   5   -147.7857770 -0.668375E-06  0.105E-03    1.44      10.0  T
   6   -147.7857771 -0.454250E-07  0.616E-04    1.43      17.0  T
   7   -147.7857771 -0.149304E-07  0.245E-04    1.43      42.7  T
     SCC iter.                  ...        0 min,  0.094 sec
     gradient                   ...        0 min,  0.014 sec
 * total energy  :  -145.0360376 Eh     change       -0.1179255E-02 Eh
   gradient norm :     0.0092402 Eh/α   predicted    -0.1025720E-02 ( -13.02%)
   displ. norm   :     0.3843001 α      lambda       -0.7297862E-03
   maximum displ.:     0.1793393 α      in ANC's #13, #22, #16, ...

........................................................................
.............................. CYCLE    6 ..............................
........................................................................

 iter      E             dE          RMSdq      gap      omega  full diag
   1   -147.7895068 -0.147790E+03  0.787E-02    1.43       0.0  T
   2   -147.7895104 -0.360678E-05  0.462E-02    1.43       1.0  T
   3   -147.7895022  0.817780E-05  0.938E-03    1.43       1.1  T
   4   -147.7895117 -0.944641E-05  0.168E-03    1.43       6.3  T
   5   -147.7895118 -0.157570E-06  0.800E-04    1.43      13.1  T
   6   -147.7895119 -0.205730E-07  0.468E-04    1.43      22.4  T
     SCC iter.                  ...        0 min,  0.081 sec
     gradient                   ...        0 min,  0.014 sec
 * total energy  :  -145.0365639 Eh     change       -0.5262389E-03 Eh
   gradient norm :     0.0069404 Eh/α   predicted    -0.4187895E-03 ( -20.42%)
   displ. norm   :     0.3494692 α      lambda       -0.4652064E-03
   maximum displ.:     0.1909197 α      in ANC's #13, #16, #22, ...

........................................................................
.............................. CYCLE    7 ..............................
........................................................................

 iter      E             dE          RMSdq      gap      omega  full diag
   1   -147.7915105 -0.147792E+03  0.803E-02    1.43       0.0  T
   2   -147.7915130 -0.250535E-05  0.469E-02    1.43       1.0  T
   3   -147.7915088  0.425120E-05  0.775E-03    1.43       1.4  T
   4   -147.7915140 -0.517754E-05  0.130E-03    1.43       8.0  T
   5   -147.7915140 -0.427089E-07  0.772E-04    1.43      13.6  T
   6   -147.7915140 -0.219866E-07  0.391E-04    1.43      26.8  T
     SCC iter.                  ...        0 min,  0.086 sec
     gradient                   ...        0 min,  0.014 sec
 * total energy  :  -145.0369226 Eh     change       -0.3587485E-03 Eh
   gradient norm :     0.0049658 Eh/α   predicted    -0.2610132E-03 ( -27.24%)
   displ. norm   :     0.3623132 α      lambda       -0.4234534E-03
   maximum displ.:     0.2050404 α      in ANC's #13, #16, #12, ...

........................................................................
.............................. CYCLE    8 ..............................
........................................................................

 iter      E             dE          RMSdq      gap      omega  full diag
   1   -147.7920307 -0.147792E+03  0.881E-02    1.43       0.0  T
   2   -147.7920338 -0.313913E-05  0.515E-02    1.43       1.0  T
   3   -147.7920286  0.517336E-05  0.910E-03    1.43       1.2  T
   4   -147.7920350 -0.638740E-05  0.131E-03    1.43       8.0  T
   5   -147.7920350 -0.268137E-07  0.805E-04    1.43      13.0  T
   6   -147.7920351 -0.230493E-07  0.395E-04    1.43      26.6  T
     SCC iter.                  ...        0 min,  0.081 sec
     gradient                   ...        0 min,  0.014 sec
 * total energy  :  -145.0372588 Eh     change       -0.3361486E-03 Eh
   gradient norm :     0.0046577 Eh/α   predicted    -0.2395260E-03 ( -28.74%)
   displ. norm   :     0.4044239 α      lambda       -0.4041766E-03
   maximum displ.:     0.2281321 α      in ANC's #13, #16, #11, ...

........................................................................
.............................. CYCLE    9 ..............................
........................................................................

 iter      E             dE          RMSdq      gap      omega  full diag
   1   -147.7910902 -0.147791E+03  0.990E-02    1.43       0.0  T
   2   -147.7910936 -0.346156E-05  0.579E-02    1.42       1.0  T
   3   -147.7910870  0.662873E-05  0.101E-02    1.43       1.0  T
   4   -147.7910952 -0.817633E-05  0.139E-03    1.42       7.6  T
   5   -147.7910952 -0.193095E-07  0.845E-04    1.42      12.4  T
   6   -147.7910952 -0.248865E-07  0.402E-04    1.42      26.0  T
     SCC iter.                  ...        0 min,  0.083 sec
     gradient                   ...        0 min,  0.013 sec
 * total energy  :  -145.0375703 Eh     change       -0.3115420E-03 Eh
   gradient norm :     0.0055154 Eh/α   predicted    -0.2351421E-03 ( -24.52%)
   displ. norm   :     0.3902533 α      lambda       -0.3071812E-03
   maximum displ.:     0.2186523 α      in ANC's #13, #11, #16, ...

........................................................................
.............................. CYCLE   10 ..............................
........................................................................

 iter      E             dE          RMSdq      gap      omega  full diag
   1   -147.7895762 -0.147790E+03  0.944E-02    1.42       0.0  T
   2   -147.7895786 -0.243605E-05  0.552E-02    1.42       1.0  T
   3   -147.7895733  0.529388E-05  0.894E-03    1.42       1.2  T
   4   -147.7895798 -0.652220E-05  0.123E-03    1.42       8.5  T
   5   -147.7895798 -0.894102E-08  0.773E-04    1.42      13.6  T
   6   -147.7895799 -0.295723E-07  0.316E-04    1.42      33.2  T
     SCC iter.                  ...        0 min,  0.081 sec
     gradient                   ...        0 min,  0.014 sec
 * total energy  :  -145.0378023 Eh     change       -0.2320051E-03 Eh
   gradient norm :     0.0050014 Eh/α   predicted    -0.1769823E-03 ( -23.72%)
   displ. norm   :     0.3526684 α      lambda       -0.2227056E-03
   maximum displ.:     0.1945535 α      in ANC's #13, #11, #4, ...

........................................................................
.............................. CYCLE   11 ..............................
........................................................................

 iter      E             dE          RMSdq      gap      omega  full diag
   1   -147.7885167 -0.147789E+03  0.858E-02    1.41       0.0  T
   2   -147.7885183 -0.165154E-05  0.502E-02    1.41       1.0  T
   3   -147.7885149  0.348319E-05  0.734E-03    1.41       1.4  T
   4   -147.7885192 -0.433223E-05  0.111E-03    1.41       9.4  T
   5   -147.7885192 -0.939500E-08  0.676E-04    1.41      15.5  T
   6   -147.7885192 -0.252234E-07  0.252E-04    1.41      41.7  T
     SCC iter.                  ...        0 min,  0.081 sec
     gradient                   ...        0 min,  0.013 sec
 * total energy  :  -145.0379671 Eh     change       -0.1647710E-03 Eh
   gradient norm :     0.0034871 Eh/α   predicted    -0.1252028E-03 ( -24.01%)
   displ. norm   :     0.3142832 α      lambda       -0.1643052E-03
   maximum displ.:     0.1653120 α      in ANC's #13, #7, #4, ...

........................................................................
.............................. CYCLE   12 ..............................
........................................................................

 iter      E             dE          RMSdq      gap      omega  full diag
   1   -147.7882848 -0.147788E+03  0.768E-02    1.40       0.0  T
   2   -147.7882859 -0.110197E-05  0.450E-02    1.41       1.0  T
   3   -147.7882841  0.184264E-05  0.556E-03    1.41       1.9  T
   4   -147.7882865 -0.238316E-05  0.965E-04    1.41      10.9  T
   5   -147.7882865 -0.739382E-08  0.563E-04    1.41      18.6  T
   6   -147.7882865 -0.181850E-07  0.198E-04    1.41      52.9  T
     SCC iter.                  ...        0 min,  0.082 sec
     gradient                   ...        0 min,  0.014 sec
 * total energy  :  -145.0380864 Eh     change       -0.1193176E-03 Eh
   gradient norm :     0.0028819 Eh/α   predicted    -0.9027352E-04 ( -24.34%)
   displ. norm   :     0.2880482 α      lambda       -0.1364180E-03
   maximum displ.:     0.1348218 α      in ANC's #13, #7, #4, ...

........................................................................
.............................. CYCLE   13 ..............................
........................................................................

 iter      E             dE          RMSdq      gap      omega  full diag
   1   -147.7886544 -0.147789E+03  0.714E-02    1.40       0.0  T
   2   -147.7886555 -0.110379E-05  0.417E-02    1.40       1.0  T
   3   -147.7886549  0.601378E-06  0.375E-03    1.40       2.8  T
   4   -147.7886560 -0.108680E-05  0.939E-04    1.40      11.2  T
   5   -147.7886560 -0.521780E-08  0.363E-04    1.40      28.9  T
   6   -147.7886560 -0.593403E-08  0.112E-04    1.40      93.5  T
     SCC iter.                  ...        0 min,  0.081 sec
     gradient                   ...        0 min,  0.013 sec
 * total energy  :  -145.0381864 Eh     change       -0.1000195E-03 Eh
   gradient norm :     0.0036140 Eh/α   predicted    -0.7386949E-04 ( -26.14%)
   displ. norm   :     0.2895018 α      lambda       -0.1359376E-03
   maximum displ.:     0.1286116 α      in ANC's #7, #9, #13, ...

........................................................................
.............................. CYCLE   14 ..............................
........................................................................

 iter      E             dE          RMSdq      gap      omega  full diag
   1   -147.7895640 -0.147790E+03  0.744E-02    1.40       0.0  T
   2   -147.7895657 -0.174268E-05  0.432E-02    1.40       1.0  T
   3   -147.7895651  0.603925E-06  0.393E-03    1.40       2.7  T
   4   -147.7895664 -0.131689E-05  0.138E-03    1.40       7.6  T
   5   -147.7895664 -0.100350E-07  0.738E-04    1.40      14.2  T
   6   -147.7895665 -0.323845E-07  0.188E-04    1.40      55.6  T
     SCC iter.                  ...        0 min,  0.080 sec
     gradient                   ...        0 min,  0.014 sec
 * total energy  :  -145.0382935 Eh     change       -0.1070562E-03 Eh
   gradient norm :     0.0039180 Eh/α   predicted    -0.7366802E-04 ( -31.19%)
   displ. norm   :     0.3407049 α      lambda       -0.1572309E-03
   maximum displ.:     0.1624904 α      in ANC's #7, #9, #4, ...

........................................................................
.............................. CYCLE   15 ..............................
........................................................................

 iter      E             dE          RMSdq      gap      omega  full diag
   1   -147.7895570 -0.147790E+03  0.889E-02    1.40       0.0  T
   2   -147.7895603 -0.329638E-05  0.515E-02    1.40       1.0  T
   3   -147.7895592  0.106797E-05  0.582E-03    1.40       1.8  T
   4   -147.7895616 -0.238535E-05  0.196E-03    1.40       5.3  T
   5   -147.7895616 -0.286049E-07  0.990E-04    1.40      10.6  T
   6   -147.7895617 -0.682663E-07  0.202E-04    1.40      51.8  T
     SCC iter.                  ...        0 min,  0.084 sec
     gradient                   ...        0 min,  0.014 sec
 * total energy  :  -145.0384180 Eh     change       -0.1244707E-03 Eh
   gradient norm :     0.0035713 Eh/α   predicted    -0.8774295E-04 ( -29.51%)
   displ. norm   :     0.3418973 α      lambda       -0.1508773E-03
   maximum displ.:     0.1698671 α      in ANC's #7, #9, #4, ...

........................................................................
.............................. CYCLE   16 ..............................
........................................................................

 iter      E             dE          RMSdq      gap      omega  full diag
   1   -147.7899565 -0.147790E+03  0.938E-02    1.41       0.0  T
   2   -147.7899611 -0.461415E-05  0.540E-02    1.41       1.0  T
   3   -147.7899596  0.154514E-05  0.699E-03    1.40       1.5  T
   4   -147.7899630 -0.342413E-05  0.230E-03    1.41       4.6  T
   5   -147.7899630 -0.182070E-07  0.114E-03    1.41       9.2  T
   6   -147.7899631 -0.103809E-06  0.202E-04    1.41      51.8  T
   7   -147.7899631 -0.202672E-08  0.900E-05    1.41     116.5  T
     SCC iter.                  ...        0 min,  0.101 sec
     gradient                   ...        0 min,  0.014 sec
 * total energy  :  -145.0385326 Eh     change       -0.1146481E-03 Eh
   gradient norm :     0.0033774 Eh/α   predicted    -0.8425969E-04 ( -26.51%)
   displ. norm   :     0.3227089 α      lambda       -0.1208090E-03
   maximum displ.:     0.1664909 α      in ANC's #7, #9, #4, ...

........................................................................
.............................. CYCLE   17 ..............................
........................................................................

 iter      E             dE          RMSdq      gap      omega  full diag
   1   -147.7889313 -0.147789E+03  0.873E-02    1.41       0.0  T
   2   -147.7889350 -0.368734E-05  0.503E-02    1.41       1.0  T
   3   -147.7889352 -0.171320E-06  0.466E-03    1.41       2.3  T
   4   -147.7889364 -0.121961E-05  0.202E-03    1.41       5.2  T
   5   -147.7889365 -0.359029E-07  0.985E-04    1.41      10.6  T
   6   -147.7889365 -0.753140E-07  0.172E-04    1.41      60.9  T
     SCC iter.                  ...        0 min,  0.082 sec
     gradient                   ...        0 min,  0.014 sec
 * total energy  :  -145.0386228 Eh     change       -0.9022689E-04 Eh
   gradient norm :     0.0034873 Eh/α   predicted    -0.6669567E-04 ( -26.08%)
   displ. norm   :     0.2828902 α      lambda       -0.1098127E-03
   maximum displ.:     0.1509171 α      in ANC's #7, #9, #4, ...

........................................................................
.............................. CYCLE   18 ..............................
........................................................................

 iter      E             dE          RMSdq      gap      omega  full diag
   1   -147.7911626 -0.147791E+03  0.771E-02    1.41       0.0  T
   2   -147.7911661 -0.348509E-05  0.442E-02    1.41       1.0  T
   3   -147.7911666 -0.501763E-06  0.388E-03    1.41       2.7  T
   4   -147.7911673 -0.752220E-06  0.190E-03    1.41       5.5  T
   5   -147.7911674 -0.735155E-07  0.789E-04    1.41      13.3  T
   6   -147.7911675 -0.442472E-07  0.203E-04    1.41      51.7  T
     SCC iter.                  ...        0 min,  0.080 sec
     gradient                   ...        0 min,  0.014 sec
 * total energy  :  -145.0386955 Eh     change       -0.7272008E-04 Eh
   gradient norm :     0.0030716 Eh/α   predicted    -0.5930183E-04 ( -18.45%)
   displ. norm   :     0.2972505 α      lambda       -0.8888931E-04
   maximum displ.:     0.1563442 α      in ANC's #7, #4, #8, ...

........................................................................
.............................. CYCLE   19 ..............................
........................................................................

 iter      E             dE          RMSdq      gap      omega  full diag
   1   -147.7888164 -0.147789E+03  0.757E-02    1.40       0.0  T
   2   -147.7888186 -0.222232E-05  0.440E-02    1.40       1.0  T
   3   -147.7888177  0.891464E-06  0.494E-03    1.40       2.1  T
   4   -147.7888195 -0.179101E-05  0.154E-03    1.40       6.8  T
   5   -147.7888195 -0.286514E-08  0.709E-04    1.40      14.8  T
   6   -147.7888195 -0.355786E-07  0.209E-04    1.40      50.2  T
     SCC iter.                  ...        0 min,  0.080 sec
     gradient                   ...        0 min,  0.013 sec
 * total energy  :  -145.0387475 Eh     change       -0.5190273E-04 Eh
   gradient norm :     0.0036660 Eh/α   predicted    -0.4837704E-04 (  -6.79%)
   displ. norm   :     0.1645551 α      lambda       -0.7064233E-04
   maximum displ.:     0.0884890 α      in ANC's #7, #4, #8, ...

........................................................................
.............................. CYCLE   20 ..............................
........................................................................

 iter      E             dE          RMSdq      gap      omega  full diag
   1   -147.7909949 -0.147791E+03  0.399E-02    1.40       0.0  T
   2   -147.7909959 -0.936225E-06  0.230E-02    1.40       1.0  T
   3   -147.7909956  0.265700E-06  0.283E-03    1.40       3.7  T
   4   -147.7909962 -0.620786E-06  0.923E-04    1.40      11.4  T
   5   -147.7909962 -0.934565E-08  0.352E-04    1.40      29.8  T
     SCC iter.                  ...        0 min,  0.068 sec
     gradient                   ...        0 min,  0.013 sec
 * total energy  :  -145.0387997 Eh     change       -0.5228729E-04 Eh
   gradient norm :     0.0026233 Eh/α   predicted    -0.3627981E-04 ( -30.61%)
   displ. norm   :     0.2681612 α      lambda       -0.8971344E-04
   maximum displ.:     0.1443025 α      in ANC's #7, #4, #8, ...
 * RMSD in coord.:     0.5066674 α      energy gain  -0.2718170E-01 Eh

generating ANC from exact Hessian ...
Using Lindh-Hessian (1995)
 Shifting diagonal of input Hessian by   9.947424215995104E-003
 Lowest  eigenvalues of input Hessian
    0.000000    0.000000    0.000000    0.000000    0.000000    0.000000
    0.010000    0.010013    0.010050    0.010203    0.010272    0.010317
    0.010550    0.010717    0.010944    0.011139    0.011202    0.011455
 Highest eigenvalues
    2.183677    2.192159    2.215523    2.219377    2.228242    2.634807
 

........................................................................
.............................. CYCLE   21 ..............................
........................................................................

 iter      E             dE          RMSdq      gap      omega  full diag
   1   -147.7911867 -0.147791E+03  0.641E-02    1.40       0.0  T
   2   -147.7911884 -0.174796E-05  0.371E-02    1.40       1.0  T
   3   -147.7911870  0.144580E-05  0.495E-03    1.40       2.1  T
   4   -147.7911892 -0.218771E-05  0.142E-03    1.40       7.4  T
   5   -147.7911892 -0.252888E-07  0.895E-04    1.40      11.7  T
   6   -147.7911892 -0.372499E-07  0.177E-04    1.40      59.3  T
     SCC iter.                  ...        0 min,  0.081 sec
     gradient                   ...        0 min,  0.013 sec
 * total energy  :  -145.0388642 Eh     change       -0.6442845E-04 Eh
   gradient norm :     0.0030313 Eh/α   predicted     0.0000000E+00 (-100.00%)
   displ. norm   :     0.0402171 α      lambda       -0.2435978E-04
   maximum displ.:     0.0149656 α      in ANC's #13, #16, #7, ...

........................................................................
.............................. CYCLE   22 ..............................
........................................................................

 iter      E             dE          RMSdq      gap      omega  full diag
   1   -147.7909438 -0.147791E+03  0.118E-02    1.40       0.0  T
   2   -147.7909439 -0.129246E-06  0.689E-03    1.40       1.5  T
   3   -147.7909438  0.153931E-06  0.149E-03    1.40       7.1  T
   4   -147.7909440 -0.198870E-06  0.278E-04    1.40      37.7  T
   5   -147.7909440 -0.173486E-08  0.135E-04    1.40      77.5  T
     SCC iter.                  ...        0 min,  0.069 sec
     gradient                   ...        0 min,  0.013 sec
 * total energy  :  -145.0388921 Eh     change       -0.2798069E-04 Eh
   gradient norm :     0.0014241 Eh/α   predicted    -0.1710024E-04 ( -38.89%)
   displ. norm   :     0.1805699 α      lambda       -0.6277108E-04
   maximum displ.:     0.0755379 α      in ANC's #13, #7, #16, ...

........................................................................
.............................. CYCLE   23 ..............................
........................................................................

 iter      E             dE          RMSdq      gap      omega  full diag
   1   -147.7900961 -0.147790E+03  0.473E-02    1.40       0.0  T
   2   -147.7900976 -0.143480E-05  0.275E-02    1.40       1.0  T
   3   -147.7900962  0.138820E-05  0.467E-03    1.40       2.2  T
   4   -147.7900981 -0.191929E-05  0.100E-03    1.40      10.4  T
   5   -147.7900981 -0.170840E-07  0.462E-04    1.40      22.7  T
   6   -147.7900981 -0.287960E-08  0.202E-04    1.40      51.8  T
     SCC iter.                  ...        0 min,  0.081 sec
     gradient                   ...        0 min,  0.013 sec
 * total energy  :  -145.0389329 Eh     change       -0.4074796E-04 Eh
   gradient norm :     0.0032664 Eh/α   predicted    -0.3184092E-04 ( -21.86%)
   displ. norm   :     0.0289934 α      lambda       -0.1604678E-04
   maximum displ.:     0.0148352 α      in ANC's #13, #7, #3, ...

........................................................................
.............................. CYCLE   24 ..............................
........................................................................

 iter      E             dE          RMSdq      gap      omega  full diag
   1   -147.7906020 -0.147791E+03  0.715E-03    1.40       0.0  T
   2   -147.7906021 -0.405813E-07  0.419E-03    1.40       2.5  T
   3   -147.7906020  0.693632E-07  0.103E-03    1.40      10.2  T
   4   -147.7906021 -0.833917E-07  0.167E-04    1.40      62.9  T
   5   -147.7906021 -0.908244E-09  0.778E-05    1.40     134.7  T
     SCC iter.                  ...        0 min,  0.068 sec
     gradient                   ...        0 min,  0.013 sec
 * total energy  :  -145.0389470 Eh     change       -0.1413177E-04 Eh
   gradient norm :     0.0022443 Eh/α   predicted    -0.8031009E-05 ( -43.17%)
   displ. norm   :     0.1226849 α      lambda       -0.4619317E-04
   maximum displ.:     0.0621213 α      in ANC's #13, #7, #3, ...

........................................................................
.............................. CYCLE   25 ..............................
........................................................................

 iter      E             dE          RMSdq      gap      omega  full diag
   1   -147.7913739 -0.147791E+03  0.279E-02    1.40       0.0  T
   2   -147.7913744 -0.460319E-06  0.164E-02    1.40       1.0  T
   3   -147.7913737  0.731117E-06  0.325E-03    1.40       3.2  T
   4   -147.7913746 -0.884524E-06  0.480E-04    1.40      21.8  T
   5   -147.7913746 -0.853868E-08  0.202E-04    1.40      51.9  T
     SCC iter.                  ...        0 min,  0.070 sec
     gradient                   ...        0 min,  0.015 sec
 * total energy  :  -145.0389766 Eh     change       -0.2959328E-04 Eh
   gradient norm :     0.0012802 Eh/α   predicted    -0.2346896E-04 ( -20.69%)
   displ. norm   :     0.1474094 α      lambda       -0.1662680E-04
   maximum displ.:     0.0736846 α      in ANC's #13, #7, #3, ...

........................................................................
.............................. CYCLE   26 ..............................
........................................................................

 iter      E             dE          RMSdq      gap      omega  full diag
   1   -147.7910860 -0.147791E+03  0.330E-02    1.40       0.0  T
   2   -147.7910863 -0.319660E-06  0.193E-02    1.40       1.0  T
   3   -147.7910860  0.324937E-06  0.225E-03    1.40       4.7  T
   4   -147.7910865 -0.447557E-06  0.492E-04    1.40      21.3  T
   5   -147.7910865 -0.470558E-08  0.292E-04    1.40      35.8  T
     SCC iter.                  ...        0 min,  0.068 sec
     gradient                   ...        0 min,  0.013 sec
 * total energy  :  -145.0389926 Eh     change       -0.1602498E-04 Eh
   gradient norm :     0.0022254 Eh/α   predicted    -0.8395297E-05 ( -47.61%)
   displ. norm   :     0.0879836 α      lambda       -0.1534953E-04
   maximum displ.:     0.0446494 α      in ANC's #7, #13, #3, ...

........................................................................
.............................. CYCLE   27 ..............................
........................................................................

 iter      E             dE          RMSdq      gap      omega  full diag
   1   -147.7907523 -0.147791E+03  0.202E-02    1.40       0.0  T
   2   -147.7907524 -0.123147E-06  0.117E-02    1.40       1.0  T
   3   -147.7907523  0.746394E-07  0.118E-03    1.40       8.9  T
   4   -147.7907524 -0.127775E-06  0.325E-04    1.40      32.2  T
   5   -147.7907524 -0.312042E-09  0.164E-04    1.40      64.0  T
     SCC iter.                  ...        0 min,  0.066 sec
     gradient                   ...        0 min,  0.013 sec
 * total energy  :  -145.0390051 Eh     change       -0.1246050E-04 Eh
   gradient norm :     0.0016867 Eh/α   predicted    -0.7735842E-05 ( -37.92%)
   displ. norm   :     0.2104812 α      lambda       -0.2235354E-04
   maximum displ.:     0.1083201 α      in ANC's #7, #13, #3, ...

........................................................................
.............................. CYCLE   28 ..............................
........................................................................

 iter      E             dE          RMSdq      gap      omega  full diag
   1   -147.7897292 -0.147790E+03  0.465E-02    1.40       0.0  T
   2   -147.7897297 -0.561881E-06  0.271E-02    1.40       1.0  T
   3   -147.7897292  0.538549E-06  0.317E-03    1.40       3.3  T
   4   -147.7897299 -0.766781E-06  0.822E-04    1.40      12.8  T
   5   -147.7897300 -0.104947E-07  0.497E-04    1.40      21.1  T
     SCC iter.                  ...        0 min,  0.070 sec
     gradient                   ...        0 min,  0.013 sec
 * total energy  :  -145.0390241 Eh     change       -0.1897868E-04 Eh
   gradient norm :     0.0012440 Eh/α   predicted    -0.1139890E-04 ( -39.94%)
   displ. norm   :     0.0822647 α      lambda       -0.7008125E-05
   maximum displ.:     0.0434335 α      in ANC's #7, #3, #4, ...

........................................................................
.............................. CYCLE   29 ..............................
........................................................................

 iter      E             dE          RMSdq      gap      omega  full diag
   1   -147.7901765 -0.147790E+03  0.199E-02    1.40       0.0  T
   2   -147.7901767 -0.203942E-06  0.115E-02    1.40       1.0  T
   3   -147.7901767 -0.319457E-07  0.911E-04    1.40      11.5  T
   4   -147.7901768 -0.431178E-07  0.439E-04    1.40      23.9  T
     SCC iter.                  ...        0 min,  0.055 sec
     gradient                   ...        0 min,  0.013 sec
 * total energy  :  -145.0390331 Eh     change       -0.9048652E-05 Eh
   gradient norm :     0.0009260 Eh/α   predicted    -0.3514836E-05 ( -61.16%)
   displ. norm   :     0.1361742 α      lambda       -0.1378657E-04
   maximum displ.:     0.0704238 α      in ANC's #3, #7, #4, ...

........................................................................
.............................. CYCLE   30 ..............................
........................................................................

 iter      E             dE          RMSdq      gap      omega  full diag
   1   -147.7911071 -0.147791E+03  0.369E-02    1.40       0.0  T
   2   -147.7911080 -0.946582E-06  0.210E-02    1.40       1.0  T
   3   -147.7911081 -0.774053E-07  0.213E-03    1.40       4.9  T
   4   -147.7911084 -0.269867E-06  0.950E-04    1.40      11.0  T
   5   -147.7911084 -0.162083E-07  0.394E-04    1.40      26.6  T
     SCC iter.                  ...        0 min,  0.068 sec
     gradient                   ...        0 min,  0.013 sec
 * total energy  :  -145.0390481 Eh     change       -0.1499808E-04 Eh
   gradient norm :     0.0006975 Eh/α   predicted    -0.6952999E-05 ( -53.64%)
   displ. norm   :     0.1341095 α      lambda       -0.8707688E-05
   maximum displ.:     0.0733815 α      in ANC's #3, #7, #4, ...

........................................................................
.............................. CYCLE   31 ..............................
........................................................................

 iter      E             dE          RMSdq      gap      omega  full diag
   1   -147.7914078 -0.147791E+03  0.340E-02    1.40       0.0  T
   2   -147.7914085 -0.724729E-06  0.194E-02    1.40       1.0  T
   3   -147.7914087 -0.176380E-06  0.146E-03    1.40       7.2  T
   4   -147.7914088 -0.824998E-07  0.793E-04    1.40      13.2  T
   5   -147.7914088 -0.207403E-07  0.214E-04    1.40      49.1  T
     SCC iter.                  ...        0 min,  0.070 sec
     gradient                   ...        0 min,  0.013 sec
 * total energy  :  -145.0390582 Eh     change       -0.1003519E-04 Eh
   gradient norm :     0.0007339 Eh/α   predicted    -0.4393678E-05 ( -56.22%)
   displ. norm   :     0.1284757 α      lambda       -0.7640978E-05
   maximum displ.:     0.0727317 α      in ANC's #3, #7, #4, ...

........................................................................
.............................. CYCLE   32 ..............................
........................................................................

 iter      E             dE          RMSdq      gap      omega  full diag
   1   -147.7914601 -0.147791E+03  0.306E-02    1.40       0.0  T
   2   -147.7914606 -0.493675E-06  0.176E-02    1.40       1.0  T
   3   -147.7914607 -0.141606E-06  0.120E-03    1.40       8.8  T
   4   -147.7914607 -0.309039E-07  0.694E-04    1.40      15.1  T
   5   -147.7914608 -0.167490E-07  0.240E-04    1.40      43.7  T
     SCC iter.                  ...        0 min,  0.068 sec
     gradient                   ...        0 min,  0.013 sec
 * total energy  :  -145.0390679 Eh     change       -0.9751706E-05 Eh
   gradient norm :     0.0006911 Eh/α   predicted    -0.3850169E-05 ( -60.52%)
   displ. norm   :     0.1784768 α      lambda       -0.1146315E-04
   maximum displ.:     0.1023887 α      in ANC's #3, #7, #4, ...

........................................................................
.............................. CYCLE   33 ..............................
........................................................................

 iter      E             dE          RMSdq      gap      omega  full diag
   1   -147.7912672 -0.147791E+03  0.392E-02    1.40       0.0  T
   2   -147.7912678 -0.561709E-06  0.227E-02    1.40       1.0  T
   3   -147.7912679 -0.119046E-06  0.149E-03    1.40       7.0  T
   4   -147.7912680 -0.993022E-07  0.757E-04    1.40      13.9  T
   5   -147.7912680 -0.932371E-08  0.150E-04    1.40      69.7  T
     SCC iter.                  ...        0 min,  0.068 sec
     gradient                   ...        0 min,  0.013 sec
 * total energy  :  -145.0390823 Eh     change       -0.1435480E-04 Eh
   gradient norm :     0.0007418 Eh/α   predicted    -0.5814023E-05 ( -59.50%)
   displ. norm   :     0.2373779 α      lambda       -0.1395571E-04
   maximum displ.:     0.1378217 α      in ANC's #3, #7, #4, ...

........................................................................
.............................. CYCLE   34 ..............................
........................................................................

 iter      E             dE          RMSdq      gap      omega  full diag
   1   -147.7903960 -0.147790E+03  0.499E-02    1.40       0.0  T
   2   -147.7903968 -0.751577E-06  0.290E-02    1.40       1.0  T
   3   -147.7903967  0.312269E-07  0.222E-03    1.40       4.7  T
   4   -147.7903971 -0.327982E-06  0.918E-04    1.40      11.4  T
   5   -147.7903971 -0.602984E-08  0.477E-04    1.40      22.0  T
     SCC iter.                  ...        0 min,  0.069 sec
     gradient                   ...        0 min,  0.013 sec
 * total energy  :  -145.0390989 Eh     change       -0.1662054E-04 Eh
   gradient norm :     0.0008834 Eh/α   predicted    -0.7154915E-05 ( -56.95%)
   displ. norm   :     0.2299012 α      lambda       -0.1242026E-04
   maximum displ.:     0.1363208 α      in ANC's #3, #7, #4, ...

........................................................................
.............................. CYCLE   35 ..............................
........................................................................

 iter      E             dE          RMSdq      gap      omega  full diag
   1   -147.7902911 -0.147790E+03  0.457E-02    1.40       0.0  T
   2   -147.7902915 -0.431311E-06  0.267E-02    1.40       1.0  T
   3   -147.7902913  0.223815E-06  0.237E-03    1.40       4.4  T
   4   -147.7902917 -0.416302E-06  0.690E-04    1.40      15.2  T
   5   -147.7902917  0.237850E-08  0.365E-04    1.40      28.7  T
     SCC iter.                  ...        0 min,  0.068 sec
     gradient                   ...        0 min,  0.013 sec
 * total energy  :  -145.0391135 Eh     change       -0.1458873E-04 Eh
   gradient norm :     0.0010199 Eh/α   predicted    -0.6358259E-05 ( -56.42%)
   displ. norm   :     0.2012373 α      lambda       -0.1007959E-04
   maximum displ.:     0.1223541 α      in ANC's #3, #7, #4, ...

........................................................................
.............................. CYCLE   36 ..............................
........................................................................

 iter      E             dE          RMSdq      gap      omega  full diag
   1   -147.7899641 -0.147790E+03  0.386E-02    1.39       0.0  T
   2   -147.7899644 -0.281881E-06  0.226E-02    1.39       1.0  T
   3   -147.7899643  0.130060E-06  0.179E-03    1.40       5.8  T
   4   -147.7899645 -0.257102E-06  0.518E-04    1.40      20.2  T
   5   -147.7899645  0.115421E-08  0.290E-04    1.39      36.1  T
     SCC iter.                  ...        0 min,  0.067 sec
     gradient                   ...        0 min,  0.013 sec
 * total energy  :  -145.0391258 Eh     change       -0.1230695E-04 Eh
   gradient norm :     0.0006435 Eh/α   predicted    -0.5134418E-05 ( -58.28%)
   displ. norm   :     0.1668285 α      lambda       -0.8487788E-05
   maximum displ.:     0.1049678 α      in ANC's #3, #7, #4, ...

........................................................................
.............................. CYCLE   37 ..............................
........................................................................

 iter      E             dE          RMSdq      gap      omega  full diag
   1   -147.7904269 -0.147790E+03  0.301E-02    1.39       0.0  T
   2   -147.7904270 -0.138564E-06  0.176E-02    1.39       1.0  T
   3   -147.7904268  0.193196E-06  0.182E-03    1.39       5.8  T
   4   -147.7904271 -0.263909E-06  0.365E-04    1.39      28.7  T
   5   -147.7904271  0.309058E-09  0.226E-04    1.39      46.4  T
     SCC iter.                  ...        0 min,  0.067 sec
     gradient                   ...        0 min,  0.013 sec
 * total energy  :  -145.0391357 Eh     change       -0.9905740E-05 Eh
   gradient norm :     0.0005272 Eh/α   predicted    -0.4299004E-05 ( -56.60%)
   displ. norm   :     0.1212134 α      lambda       -0.5281092E-05
   maximum displ.:     0.0794386 α      in ANC's #3, #7, #4, ...

........................................................................
.............................. CYCLE   38 ..............................
........................................................................

 iter      E             dE          RMSdq      gap      omega  full diag
   1   -147.7904695 -0.147790E+03  0.209E-02    1.39       0.0  T
   2   -147.7904696 -0.849531E-07  0.123E-02    1.39       1.0  T
   3   -147.7904695  0.880584E-07  0.115E-03    1.39       9.1  T
   4   -147.7904696 -0.126684E-06  0.292E-04    1.39      35.9  T
   5   -147.7904696 -0.771792E-09  0.191E-04    1.39      54.9  T
     SCC iter.                  ...        0 min,  0.067 sec
     gradient                   ...        0 min,  0.013 sec
 * total energy  :  -145.0391418 Eh     change       -0.6080677E-05 Eh
   gradient norm :     0.0004504 Eh/α   predicted    -0.2661625E-05 ( -56.23%)
   displ. norm   :     0.1212134 α      lambda        0.0000000E+00
   maximum displ.:     0.0794386 α      in ANC's #3, #7, #4, ...

........................................................................
.............................. CYCLE   39 ..............................
........................................................................

 iter      E             dE          RMSdq      gap      omega  full diag
   1   -147.7903932 -0.147790E+03  0.209E-02    1.39       0.0  T
   2   -147.7903933 -0.850993E-07  0.123E-02    1.39       1.0  T
   3   -147.7903932  0.695074E-07  0.108E-03    1.39       9.7  T
   4   -147.7903933 -0.107661E-06  0.279E-04    1.39      37.6  T
   5   -147.7903933 -0.466144E-09  0.159E-04    1.39      65.7  T
     SCC iter.                  ...        0 min,  0.069 sec
     gradient                   ...        0 min,  0.013 sec
 * total energy  :  -145.0391442 Eh     change       -0.2471438E-05 Eh
   gradient norm :     0.0012323 Eh/α   predicted    -0.2854656E-08 ( -99.88%)
   displ. norm   :     0.0451869 α      lambda       -0.2883196E-05
   maximum displ.:     0.0324737 α      in ANC's #3, #1, #7, ...

........................................................................
.............................. CYCLE   40 ..............................
........................................................................

 iter      E             dE          RMSdq      gap      omega  full diag
   1   -147.7908836 -0.147791E+03  0.725E-03    1.39       0.0  T
   2   -147.7908836 -0.150867E-07  0.425E-03    1.39       2.5  T
   3   -147.7908836  0.277122E-07  0.647E-04    1.39      16.2  T
   4   -147.7908836 -0.340465E-07  0.142E-04    1.39      74.0  T
     SCC iter.                  ...        0 min,  0.055 sec
     gradient                   ...        0 min,  0.013 sec
 * total energy  :  -145.0391475 Eh     change       -0.3223257E-05 Eh
   gradient norm :     0.0004686 Eh/α   predicted    -0.1446747E-05 ( -55.12%)
   displ. norm   :     0.0375969 α      lambda       -0.2945380E-05
   maximum displ.:     0.0258789 α      in ANC's #3, #12, #1, ...

........................................................................
.............................. CYCLE   41 ..............................
........................................................................

 iter      E             dE          RMSdq      gap      omega  full diag
   1   -147.7912371 -0.147791E+03  0.669E-03    1.39       0.0  T
   2   -147.7912371 -0.229676E-07  0.384E-03    1.39       2.7  T
   3   -147.7912371 -0.170658E-08  0.336E-04    1.39      31.2  T
   4   -147.7912371 -0.743483E-08  0.147E-04    1.39      71.3  T
     SCC iter.                  ...        0 min,  0.054 sec
     gradient                   ...        0 min,  0.013 sec
 * total energy  :  -145.0391512 Eh     change       -0.3753523E-05 Eh
   gradient norm :     0.0005149 Eh/α   predicted    -0.1476546E-05 ( -60.66%)
   displ. norm   :     0.0649757 α      lambda       -0.4646803E-05
   maximum displ.:     0.0410874 α      in ANC's #3, #12, #1, ...

........................................................................
.............................. CYCLE   42 ..............................
........................................................................

 iter      E             dE          RMSdq      gap      omega  full diag
   1   -147.7913843 -0.147791E+03  0.122E-02    1.39       0.0  T
   2   -147.7913843 -0.746830E-07  0.698E-03    1.39       1.5  T
   3   -147.7913843  0.301746E-07  0.891E-04    1.39      11.8  T
   4   -147.7913844 -0.628674E-07  0.281E-04    1.39      37.3  T
     SCC iter.                  ...        0 min,  0.056 sec
     gradient                   ...        0 min,  0.013 sec
 * total energy  :  -145.0391567 Eh     change       -0.5461833E-05 Eh
   gradient norm :     0.0008749 Eh/α   predicted    -0.2332555E-05 ( -57.29%)
   displ. norm   :     0.0715612 α      lambda       -0.3866127E-05
   maximum displ.:     0.0463209 α      in ANC's #3, #12, #1, ...
 * RMSD in coord.:     0.2446413 α      energy gain  -0.3569474E-03 Eh

generating ANC from exact Hessian ...
Using Lindh-Hessian (1995)
 Shifting diagonal of input Hessian by   9.949247834154958E-003
 Lowest  eigenvalues of input Hessian
    0.000000    0.000000    0.000000    0.000000    0.000000    0.000000
    0.010000    0.010014    0.010050    0.010209    0.010279    0.010313
    0.010556    0.010719    0.010959    0.011131    0.011190    0.011470
 Highest eigenvalues
    2.183584    2.192422    2.215015    2.219044    2.226584    2.634344
 

........................................................................
.............................. CYCLE   43 ..............................
........................................................................

 iter      E             dE          RMSdq      gap      omega  full diag
   1   -147.7912546 -0.147791E+03  0.120E-02    1.39       0.0  T
   2   -147.7912546 -0.510440E-07  0.692E-03    1.39       1.5  T
   3   -147.7912545  0.138945E-06  0.140E-03    1.39       7.5  T
   4   -147.7912547 -0.170213E-06  0.246E-04    1.39      42.6  T
   5   -147.7912547  0.143444E-09  0.135E-04    1.39      77.5  T
     SCC iter.                  ...        0 min,  0.069 sec
     gradient                   ...        0 min,  0.013 sec
 * total energy  :  -145.0391612 Eh     change       -0.4507686E-05 Eh
   gradient norm :     0.0006157 Eh/α   predicted     0.0000000E+00 (-100.00%)
   displ. norm   :     0.0153806 α      lambda       -0.1520802E-05
   maximum displ.:     0.0110546 α      in ANC's #3, #7, #22, ...

........................................................................
.............................. CYCLE   44 ..............................
........................................................................

 iter      E             dE          RMSdq      gap      omega  full diag
   1   -147.7908189 -0.147791E+03  0.381E-03    1.39       0.0  T
   2   -147.7908189 -0.898137E-08  0.220E-03    1.39       4.8  T
   3   -147.7908189  0.141283E-07  0.472E-04    1.39      22.2  T
   4   -147.7908189 -0.180925E-07  0.114E-04    1.39      91.9  T
     SCC iter.                  ...        0 min,  0.054 sec
     gradient                   ...        0 min,  0.013 sec
 * total energy  :  -145.0391631 Eh     change       -0.1924135E-05 Eh
   gradient norm :     0.0004538 Eh/α   predicted    -0.9217869E-06 ( -52.09%)
   displ. norm   :     0.0288231 α      lambda       -0.2012291E-05
   maximum displ.:     0.0199945 α      in ANC's #3, #7, #4, ...

........................................................................
.............................. CYCLE   45 ..............................
........................................................................

 iter      E             dE          RMSdq      gap      omega  full diag
   1   -147.7905685 -0.147791E+03  0.684E-03    1.39       0.0  T
   2   -147.7905685 -0.325088E-07  0.389E-03    1.39       2.7  T
   3   -147.7905685  0.125831E-08  0.399E-04    1.39      26.2  T
   4   -147.7905685 -0.130344E-07  0.162E-04    1.39      64.7  T
     SCC iter.                  ...        0 min,  0.055 sec
     gradient                   ...        0 min,  0.013 sec
 * total energy  :  -145.0391656 Eh     change       -0.2453980E-05 Eh
   gradient norm :     0.0004444 Eh/α   predicted    -0.1025160E-05 ( -58.22%)
   displ. norm   :     0.0433777 α      lambda       -0.2446293E-05
   maximum displ.:     0.0297328 α      in ANC's #3, #7, #4, ...

........................................................................
.............................. CYCLE   46 ..............................
........................................................................

 iter      E             dE          RMSdq      gap      omega  full diag
   1   -147.7904958 -0.147790E+03  0.927E-03    1.39       0.0  T
   2   -147.7904958 -0.590697E-07  0.529E-03    1.39       2.0  T
   3   -147.7904958  0.209090E-07  0.749E-04    1.39      14.0  T
   4   -147.7904958 -0.455755E-07  0.233E-04    1.39      45.0  T
     SCC iter.                  ...        0 min,  0.055 sec
     gradient                   ...        0 min,  0.013 sec
 * total energy  :  -145.0391683 Eh     change       -0.2763869E-05 Eh
   gradient norm :     0.0003936 Eh/α   predicted    -0.1230167E-05 ( -55.49%)
   displ. norm   :     0.0485095 α      lambda       -0.2501885E-05
   maximum displ.:     0.0330692 α      in ANC's #3, #7, #4, ...

........................................................................
.............................. CYCLE   47 ..............................
........................................................................

 iter      E             dE          RMSdq      gap      omega  full diag
   1   -147.7905107 -0.147791E+03  0.109E-02    1.39       0.0  T
   2   -147.7905107 -0.694143E-07  0.622E-03    1.39       1.7  T
   3   -147.7905107  0.544242E-07  0.944E-04    1.39      11.1  T
   4   -147.7905108 -0.869624E-07  0.261E-04    1.39      40.2  T
     SCC iter.                  ...        0 min,  0.054 sec
     gradient                   ...        0 min,  0.013 sec
 * total energy  :  -145.0391714 Eh     change       -0.3036531E-05 Eh
   gradient norm :     0.0003316 Eh/α   predicted    -0.1252709E-05 ( -58.75%)
   displ. norm   :     0.0574663 α      lambda       -0.2858673E-05
   maximum displ.:     0.0385930 α      in ANC's #3, #7, #4, ...

........................................................................
.............................. CYCLE   48 ..............................
........................................................................

 iter      E             dE          RMSdq      gap      omega  full diag
   1   -147.7905976 -0.147791E+03  0.104E-02    1.39       0.0  T
   2   -147.7905976 -0.400156E-07  0.603E-03    1.39       1.7  T
   3   -147.7905976  0.503374E-07  0.892E-04    1.39      11.8  T
   4   -147.7905977 -0.700830E-07  0.222E-04    1.39      47.3  T
     SCC iter.                  ...        0 min,  0.056 sec
     gradient                   ...        0 min,  0.013 sec
 * total energy  :  -145.0391753 Eh     change       -0.3973123E-05 Eh
   gradient norm :     0.0003584 Eh/α   predicted    -0.1432420E-05 ( -63.95%)
   displ. norm   :     0.0920429 α      lambda       -0.4695132E-05
   maximum displ.:     0.0604555 α      in ANC's #3, #7, #4, ...

........................................................................
.............................. CYCLE   49 ..............................
........................................................................

 iter      E             dE          RMSdq      gap      omega  full diag
   1   -147.7907190 -0.147791E+03  0.158E-02    1.39       0.0  T
   2   -147.7907191 -0.616450E-07  0.920E-03    1.39       1.1  T
   3   -147.7907191  0.549406E-08  0.655E-04    1.39      16.0  T
   4   -147.7907191 -0.299637E-07  0.273E-04    1.39      38.5  T
     SCC iter.                  ...        0 min,  0.055 sec
     gradient                   ...        0 min,  0.013 sec
 * total energy  :  -145.0391817 Eh     change       -0.6353033E-05 Eh
   gradient norm :     0.0003359 Eh/α   predicted    -0.2356833E-05 ( -62.90%)
   displ. norm   :     0.1361988 α      lambda       -0.6117166E-05
   maximum displ.:     0.0889099 α      in ANC's #3, #7, #4, ...

........................................................................
.............................. CYCLE   50 ..............................
........................................................................

 iter      E             dE          RMSdq      gap      omega  full diag
   1   -147.7908751 -0.147791E+03  0.226E-02    1.39       0.0  T
   2   -147.7908752 -0.947020E-07  0.132E-02    1.39       1.0  T
   3   -147.7908751  0.573029E-07  0.107E-03    1.39       9.8  T
   4   -147.7908752 -0.998056E-07  0.338E-04    1.39      31.0  T
   5   -147.7908752 -0.912962E-09  0.213E-04    1.39      49.2  T
     SCC iter.                  ...        0 min,  0.069 sec
     gradient                   ...        0 min,  0.013 sec
 * total energy  :  -145.0391897 Eh     change       -0.7969336E-05 Eh
   gradient norm :     0.0003985 Eh/α   predicted    -0.3086353E-05 ( -61.27%)
   displ. norm   :     0.1508242 α      lambda       -0.5651353E-05
   maximum displ.:     0.0987702 α      in ANC's #3, #7, #4, ...

........................................................................
.............................. CYCLE   51 ..............................
........................................................................

 iter      E             dE          RMSdq      gap      omega  full diag
   1   -147.7909331 -0.147791E+03  0.246E-02    1.39       0.0  T
   2   -147.7909332 -0.101812E-06  0.144E-02    1.39       1.0  T
   3   -147.7909331  0.543732E-07  0.111E-03    1.39       9.4  T
   4   -147.7909332 -0.101468E-06  0.307E-04    1.39      34.2  T
   5   -147.7909332  0.276287E-09  0.166E-04    1.39      63.1  T
     SCC iter.                  ...        0 min,  0.069 sec
     gradient                   ...        0 min,  0.013 sec
 * total energy  :  -145.0391970 Eh     change       -0.7345172E-05 Eh
   gradient norm :     0.0003707 Eh/α   predicted    -0.2854896E-05 ( -61.13%)
   displ. norm   :     0.1330422 α      lambda       -0.4394470E-05
   maximum displ.:     0.0880690 α      in ANC's #3, #7, #4, ...

........................................................................
.............................. CYCLE   52 ..............................
........................................................................

 iter      E             dE          RMSdq      gap      omega  full diag
   1   -147.7910151 -0.147791E+03  0.213E-02    1.39       0.0  T
   2   -147.7910152 -0.695650E-07  0.124E-02    1.39       1.0  T
   3   -147.7910151  0.435884E-07  0.962E-04    1.39      10.9  T
   4   -147.7910152 -0.765788E-07  0.250E-04    1.39      42.0  T
     SCC iter.                  ...        0 min,  0.054 sec
     gradient                   ...        0 min,  0.013 sec
 * total energy  :  -145.0392028 Eh     change       -0.5805082E-05 Eh
   gradient norm :     0.0002896 Eh/α   predicted    -0.2220362E-05 ( -61.75%)
   displ. norm   :     0.1008561 α      lambda       -0.3100959E-05
   maximum displ.:     0.0683937 α      in ANC's #3, #7, #1, ...

........................................................................
.............................. CYCLE   53 ..............................
........................................................................

 iter      E             dE          RMSdq      gap      omega  full diag
   1   -147.7910248 -0.147791E+03  0.157E-02    1.39       0.0  T
   2   -147.7910249 -0.366542E-07  0.922E-03    1.39       1.1  T
   3   -147.7910248  0.741970E-07  0.973E-04    1.39      10.8  T
   4   -147.7910249 -0.940180E-07  0.207E-04    1.39      50.6  T
     SCC iter.                  ...        0 min,  0.054 sec
     gradient                   ...        0 min,  0.013 sec
 * total energy  :  -145.0392069 Eh     change       -0.4039913E-05 Eh
   gradient norm :     0.0001796 Eh/α   predicted    -0.1561353E-05 ( -61.35%)
   displ. norm   :     0.0638235 α      lambda       -0.1856123E-05
   maximum displ.:     0.0451901 α      in ANC's #3, #7, #1, ...

........................................................................
.............................. CYCLE   54 ..............................
........................................................................

 iter      E             dE          RMSdq      gap      omega  full diag
   1   -147.7909971 -0.147791E+03  0.958E-03    1.39       0.0  T
   2   -147.7909971 -0.124095E-07  0.562E-03    1.39       1.9  T
   3   -147.7909971  0.316241E-07  0.611E-04    1.39      17.2  T
   4   -147.7909971 -0.390450E-07  0.126E-04    1.39      83.2  T
     SCC iter.                  ...        0 min,  0.056 sec
     gradient                   ...        0 min,  0.013 sec
 * total energy  :  -145.0392093 Eh     change       -0.2428923E-05 Eh
   gradient norm :     0.0001208 Eh/α   predicted    -0.9301394E-06 ( -61.71%)
   displ. norm   :     0.0381010 α      lambda       -0.1135970E-05
   maximum displ.:     0.0288130 α      in ANC's #3, #7, #1, ...

........................................................................
.............................. CYCLE   55 ..............................
........................................................................

 iter      E             dE          RMSdq      gap      omega  full diag
   1   -147.7909928 -0.147791E+03  0.528E-03    1.39       0.0  T
   2   -147.7909928 -0.425632E-08  0.310E-03    1.39       3.4  T
   3   -147.7909928  0.170295E-07  0.435E-04    1.39      24.1  T
   4   -147.7909928 -0.199338E-07  0.715E-05    1.39     146.7  T
     SCC iter.                  ...        0 min,  0.054 sec
     gradient                   ...        0 min,  0.013 sec
 * total energy  :  -145.0392108 Eh     change       -0.1539387E-05 Eh
   gradient norm :     0.0001115 Eh/α   predicted    -0.5690213E-06 ( -63.04%)
   displ. norm   :     0.0259882 α      lambda       -0.8873997E-06
   maximum displ.:     0.0204547 α      in ANC's #3, #7, #1, ...

........................................................................
.............................. CYCLE   56 ..............................
........................................................................

 iter      E             dE          RMSdq      gap      omega  full diag
   1   -147.7909422 -0.147791E+03  0.322E-03    1.39       0.0  T
   2   -147.7909422 -0.167529E-08  0.188E-03    1.39       5.6  T
   3   -147.7909422  0.361837E-08  0.207E-04    1.39      50.7  T
   4   -147.7909422 -0.453468E-08  0.462E-05    1.39     227.0  T
     SCC iter.                  ...        0 min,  0.054 sec
     gradient                   ...        0 min,  0.013 sec
 * total energy  :  -145.0392121 Eh     change       -0.1261230E-05 Eh
   gradient norm :     0.0001151 Eh/α   predicted    -0.4446124E-06 ( -64.75%)
   displ. norm   :     0.0272070 α      lambda       -0.1024821E-05
   maximum displ.:     0.0204604 α      in ANC's #3, #1, #11, ...

........................................................................
.............................. CYCLE   57 ..............................
........................................................................

 iter      E             dE          RMSdq      gap      omega  full diag
   1   -147.7909340 -0.147791E+03  0.325E-03    1.39       0.0  T
   2   -147.7909340 -0.195348E-08  0.190E-03    1.39       5.5  T
   3   -147.7909339  0.601196E-08  0.267E-04    1.39      39.3  T
   4   -147.7909340 -0.718100E-08  0.467E-05    1.39     224.6  T
     SCC iter.                  ...        0 min,  0.056 sec
     gradient                   ...        0 min,  0.013 sec
 * total energy  :  -145.0392136 Eh     change       -0.1482170E-05 Eh
   gradient norm :     0.0001315 Eh/α   predicted    -0.5132377E-06 ( -65.37%)
   displ. norm   :     0.0389175 α      lambda       -0.1467221E-05
   maximum displ.:     0.0273045 α      in ANC's #3, #11, #4, ...

........................................................................
.............................. CYCLE   58 ..............................
........................................................................

 iter      E             dE          RMSdq      gap      omega  full diag
   1   -147.7908929 -0.147791E+03  0.479E-03    1.39       0.0  T
   2   -147.7908929 -0.389272E-08  0.280E-03    1.39       3.7  T
   3   -147.7908929  0.615393E-08  0.286E-04    1.39      36.7  T
   4   -147.7908929 -0.807444E-08  0.667E-05    1.39     157.2  T
     SCC iter.                  ...        0 min,  0.055 sec
     gradient                   ...        0 min,  0.013 sec
 * total energy  :  -145.0392157 Eh     change       -0.2090388E-05 Eh
   gradient norm :     0.0001371 Eh/α   predicted    -0.7352646E-06 ( -64.83%)
   displ. norm   :     0.0557780 α      lambda       -0.1970647E-05
   maximum displ.:     0.0376682 α      in ANC's #3, #4, #11, ...

........................................................................
.............................. CYCLE   59 ..............................
........................................................................

 iter      E             dE          RMSdq      gap      omega  full diag
   1   -147.7909071 -0.147791E+03  0.700E-03    1.39       0.0  T
   2   -147.7909071 -0.788319E-08  0.410E-03    1.39       2.6  T
   3   -147.7909071  0.184935E-07  0.492E-04    1.39      21.3  T
   4   -147.7909071 -0.228393E-07  0.937E-05    1.39     111.9  T
     SCC iter.                  ...        0 min,  0.054 sec
     gradient                   ...        0 min,  0.013 sec
 * total energy  :  -145.0392184 Eh     change       -0.2701243E-05 Eh
   gradient norm :     0.0001511 Eh/α   predicted    -0.9877005E-06 ( -63.44%)
   displ. norm   :     0.0662234 α      lambda       -0.2072125E-05
   maximum displ.:     0.0442546 α      in ANC's #3, #4, #6, ...

........................................................................
.............................. CYCLE   60 ..............................
........................................................................

 iter      E             dE          RMSdq      gap      omega  full diag
   1   -147.7908535 -0.147791E+03  0.830E-03    1.39       0.0  T
   2   -147.7908535 -0.965616E-08  0.486E-03    1.39       2.2  T
   3   -147.7908535  0.102270E-07  0.401E-04    1.39      26.2  T
   4   -147.7908535 -0.149315E-07  0.104E-04    1.39     100.8  T
     SCC iter.                  ...        0 min,  0.057 sec
     gradient                   ...        0 min,  0.013 sec
 * total energy  :  -145.0392211 Eh     change       -0.2738607E-05 Eh
   gradient norm :     0.0001656 Eh/α   predicted    -0.1040937E-05 ( -61.99%)
   displ. norm   :     0.0642827 α      lambda       -0.1748468E-05
   maximum displ.:     0.0433712 α      in ANC's #3, #4, #6, ...

........................................................................
.............................. CYCLE   61 ..............................
........................................................................

 iter      E             dE          RMSdq      gap      omega  full diag
   1   -147.7908923 -0.147791E+03  0.803E-03    1.39       0.0  T
   2   -147.7908923 -0.959710E-08  0.470E-03    1.39       2.2  T
   3   -147.7908923  0.223533E-07  0.548E-04    1.39      19.1  T
   4   -147.7908923 -0.278657E-07  0.104E-04    1.39     100.4  T
     SCC iter.                  ...        0 min,  0.055 sec
     gradient                   ...        0 min,  0.013 sec
 * total energy  :  -145.0392234 Eh     change       -0.2313236E-05 Eh
   gradient norm :     0.0001274 Eh/α   predicted    -0.8767207E-06 ( -62.10%)
   displ. norm   :     0.0514376 α      lambda       -0.1308882E-05
   maximum displ.:     0.0353789 α      in ANC's #3, #4, #1, ...

........................................................................
.............................. CYCLE   62 ..............................
........................................................................

 iter      E             dE          RMSdq      gap      omega  full diag
[...]
    58   6 C       91   1 H                                       1.0794296

 * 3 distinct bonds (by element types)

   Z      Z             #   av. dist./Å        max./Å        min./Å
   1 H    6 C          33     1.0797743     1.0804645     1.0786237
   6 C    6 C          52     1.3927248     1.4378785     1.3771978
   6 C    7 N          11     1.3444914     1.4045715     1.1505142

           -------------------------------------------------
          |               Frequency Printout                |
           -------------------------------------------------
 projected vibrational frequencies (cm⁻¹)
eigval :       -0.00    -0.00    -0.00    -0.00     0.00     0.00
eigval :        7.17    10.10    10.57    21.23    23.74    25.93
eigval :       29.61    34.01    40.22    45.28    50.59    60.71
eigval :       63.40    67.21    79.44    84.03    92.28    94.80
eigval :      110.07   114.93   122.72   130.19   134.57   143.09
eigval :      158.82   169.00   178.38   202.19   204.51   222.60
eigval :      226.89   231.47   233.90   244.54   254.02   267.41
eigval :      277.77   284.60   302.87   322.00   342.29   349.50
eigval :      355.22   364.61   371.26   371.75   378.78   379.45
eigval :      392.77   395.39   398.84   411.14   417.30   426.42
eigval :      431.65   433.68   443.92   452.13   471.72   477.76
eigval :      483.83   488.55   522.83   525.20   536.07   537.37
eigval :      554.25   570.69   576.30   580.28   582.94   586.70
eigval :      589.25   592.32   595.68   601.64   612.97   615.29
eigval :      619.24   624.47   632.86   634.56   643.99   663.58
eigval :      667.25   672.15   674.76   675.92   687.86   696.29
eigval :      703.88   706.91   708.56   724.57   737.87   754.94
eigval :      760.08   765.23   767.06   769.47   773.61   775.21
eigval :      813.41   831.49   832.04   838.13   847.45   867.22
eigval :      867.65   870.11   872.57   874.94   875.44   877.22
eigval :      879.14   882.84   893.92   900.31   901.40   903.58
eigval :      903.73   904.26   912.10   915.16   919.06   921.32
eigval :      922.17   925.61   927.52   928.41   929.61   931.02
eigval :      932.44   932.65   934.71   938.68   940.07   971.31
eigval :      985.35   997.10  1011.64  1012.21  1029.74  1065.20
eigval :     1069.82  1071.33  1073.31  1078.54  1079.97  1082.27
eigval :     1114.90  1117.46  1118.75  1119.34  1122.28  1125.32
eigval :     1144.42  1153.00  1155.48  1173.37  1175.26  1175.40
eigval :     1176.76  1177.64  1178.13  1178.41  1181.24  1193.74
eigval :     1195.43  1197.22  1197.50  1210.80  1230.41  1239.92
eigval :     1245.10  1245.32  1252.89  1255.64  1256.73  1272.25
eigval :     1273.90  1275.03  1277.95  1288.63  1300.19  1315.16
eigval :     1316.29  1320.40  1320.70  1326.37  1343.22  1349.54
eigval :     1353.86  1357.60  1360.45  1367.71  1374.72  1382.19
eigval :     1386.33  1410.12  1416.71  1420.13  1423.14  1426.87
eigval :     1427.60  1431.89  1436.56  1456.92  1470.95  1473.39
eigval :     1475.72  1479.00  1480.00  1481.57  1490.66  1498.57
eigval :     1499.99  1554.90  1563.36  1568.63  1578.86  1579.06
eigval :     1581.11  1582.12  1583.33  1586.98  1592.48  1593.04
eigval :     1593.13  1594.46  1597.72  1609.13  1614.64  2332.14
eigval :     3070.28  3073.51  3075.10  3075.48  3075.89  3076.14
eigval :     3076.46  3076.93  3078.81  3079.72  3080.69  3081.88
eigval :     3083.37  3084.46  3086.12  3086.58  3086.77  3087.71
eigval :     3088.24  3088.70  3089.73  3091.27  3092.02  3093.93
eigval :     3094.45  3094.70  3094.86  3095.99  3096.44  3099.32
eigval :     3100.44  3108.38  3109.67
 reduced masses (amu)
   1: 11.65   2: 11.50   3: 11.62   4: 11.53   5: 11.64   6: 11.55   7: 11.21   8: 11.47
   9: 10.98  10: 11.32  11: 10.90  12: 11.01  13: 11.13  14: 10.58  15: 11.11  16: 10.96
  17: 11.03  18: 10.16  19: 10.76  20: 10.67  21: 10.99  22: 10.91  23: 10.87  24: 10.88
  25: 11.43  26: 10.73  27: 10.99  28: 11.41  29: 11.03  30: 11.03  31: 11.74  32: 10.72
  33: 11.20  34: 10.86  35: 11.73  36: 11.57  37: 11.21  38: 11.24  39: 11.09  40: 11.06
  41: 10.99  42: 10.46  43: 10.73  44: 10.99  45: 11.22  46: 11.19  47: 11.36  48: 11.52
  49: 11.11  50: 10.93  51:  8.90  52:  9.00  53:  9.17  54:  9.02  55:  9.44  56: 10.13
  57: 10.84  58: 11.12  59: 10.90  60:  9.89  61: 10.68  62: 10.47  63: 10.79  64: 10.43
  65: 10.48  66: 11.42  67: 10.57  68: 10.08  69: 11.74  70: 11.13  71: 10.81  72: 10.81
  73: 10.76  74: 11.41  75: 11.15  76: 11.20  77: 11.23  78: 11.19  79: 11.29  80: 11.45
  81: 11.50  82: 11.39  83: 11.45  84: 11.38  85: 11.17  86: 10.72  87: 11.48  88: 11.93
  89: 11.04  90: 10.80  91:  9.73  92: 10.31  93:  8.18  94: 11.69  95: 11.52  96: 10.33
  97: 11.32  98: 11.57  99: 11.62 100: 11.17 101: 10.14 102: 10.60 103:  4.58 104:  5.99
 105: 10.99 106:  8.59 107:  3.78 108:  3.66 109:  4.42 110:  7.66 111:  9.22 112:  4.93
 113: 10.71 114:  3.38 115:  3.42 116:  3.39 117:  4.22 118:  4.04 119:  9.41 120:  3.59
 121:  3.74 122:  3.86 123: 10.28 124:  4.84 125:  3.92 126:  3.58 127:  4.20 128:  3.62
 129:  3.57 130:  3.51 131: 11.30 132:  3.20 133:  3.11 134:  4.21 135:  5.87 136:  3.96
 137:  8.43 138:  3.21 139:  3.14 140:  3.57 141:  3.34 142:  4.55 143: 10.45 144: 11.36
 145: 10.89 146: 10.75 147:  9.07 148: 10.68 149:  8.54 150: 10.57 151:  6.03 152:  6.09
 153:  6.43 154:  6.77 155:  6.82 156:  5.91 157:  3.89 158:  4.66 159:  7.19 160:  4.48
 161:  7.49 162:  2.93 163:  9.83 164:  4.07 165:  3.87 166:  2.69 167:  4.79 168:  2.43
 169:  2.10 170:  2.28 171:  4.47 172:  1.42 173:  2.57 174:  3.64 175:  3.82 176:  3.28
 177:  3.29 178:  4.33 179:  5.56 180:  6.26 181: 11.99 182:  6.41 183:  4.38 184:  9.67
 185:  5.31 186:  6.78 187:  5.12 188:  3.70 189:  3.62 190:  8.11 191:  8.31 192: 11.54
 193: 10.08 194: 11.94 195: 11.93 196: 11.51 197: 11.22 198: 11.08 199: 10.51 200: 11.25
 201: 10.89 202: 10.70 203: 11.11 204: 12.03 205: 11.25 206: 10.54 207:  9.83 208:  9.69
 209:  9.97 210:  9.29 211:  9.11 212:  9.66 213:  9.61 214: 10.76 215:  9.54 216:  9.59
 217: 11.98 218: 10.48 219: 10.17 220: 10.46 221: 10.85 222: 11.13 223: 12.38 224: 11.70
 225: 11.65 226: 11.68 227: 11.50 228: 11.50 229: 11.56 230: 11.57 231: 11.61 232: 11.60
 233: 11.50 234: 11.49 235: 11.49 236: 11.70 237: 11.70 238: 11.70 239: 11.71 240: 12.79
 241:  1.75 242:  1.75 243:  1.76 244:  1.79 245:  1.78 246:  1.78 247:  1.78 248:  1.79
 249:  1.78 250:  1.81 251:  1.77 252:  1.77 253:  1.85 254:  1.84 255:  1.84 256:  1.84
 257:  1.83 258:  1.83 259:  1.86 260:  1.87 261:  1.88 262:  1.88 263:  1.89 264:  1.87
 265:  1.82 266:  1.86 267:  1.87 268:  1.82 269:  1.92 270:  1.92 271:  1.92 272:  1.87
 273:  1.87
 IR intensities (km·mol⁻¹)
   1:  0.01   2:  0.01   3:  0.02   4:  0.01   5:  0.01   6:  0.02   7:  0.02   8:  0.06
   9:  0.06  10:  1.39  11:  0.08  12:  0.05  13:  0.04  14:  2.04  15:  0.41  16:  0.47
  17:  0.13  18:  0.94  19:  0.40  20:  0.10  21:  1.23  22:  2.76  23:  1.05  24:  3.46
  25:  0.25  26:  0.36  27:  1.71  28:  0.55  29:  4.81  30:  0.35  31:  4.92  32:  1.87
  33:  1.37  34:  0.93  35:  4.61  36:  1.82  37:  7.49  38:  0.01  39:  0.07  40:  0.30
  41:  1.72  42:  1.38  43:  3.25  44:  0.74  45:  3.00  46:  0.29  47:  1.64  48:  1.91
  49:  0.85  50:  2.83  51:  1.00  52:  2.25  53: 30.73  54:  0.69  55:  1.41  56:  4.12
  57:  5.24  58:  8.29  59:  0.72  60:  1.39  61:  0.43  62:  2.26  63: 28.08  64:  3.34
  65:  3.02  66:  5.15  67:  1.09  68:  1.96  69:  2.36  70: 12.21  71:  0.24  72:  0.25
  73:  0.55  74:  0.90  75:  0.10  76:  0.99  77:  0.17  78:  0.33  79:  0.52  80: 11.41
  81:  6.13  82:  5.09  83:  7.24  84:  1.69  85:  3.92  86:  1.18  87:  2.68  88:  0.91
  89:  6.38  90:  3.62  91:  2.34  92:  2.40  93:  2.01  94:  1.32  95:  3.47  96: 14.06
  97:  7.64  98:  6.86  99:  7.20 100:  1.54 101: 28.08 102: 49.49 103: 29.23 104:  4.29
 105:  4.40 106: 12.74 107: 32.31 108: 20.92 109: 23.47 110: 10.49 111: 13.17 112:  3.80
 113:  1.62 114:  3.19 115:  2.44 116: 12.16 117: 16.33 118:  5.14 119:  4.07 120:  3.32
 121: 12.98 122: 12.10 123: 10.81 124:  1.87 125:  0.62 126:  0.06 127:  0.38 128:  0.12
 129:  1.03 130:  0.55 131:  0.71 132:  0.94 133:  0.33 134:  4.18 135:  0.78 136:  3.28
 137:  0.30 138:  0.07 139:  0.34 140:  0.30 141:  0.39 142:  2.13 143:  0.41 144:  1.11
 145:  2.91 146:  1.36 147:  2.73 148: 13.02 149:  0.63 150:  0.48 151:  0.73 152:  0.68
 153:  6.50 154:  0.30 155:  1.04 156:  0.22 157:  0.62 158:  0.69 159:  3.90 160:  1.18
 161:  3.55 162:  2.39 163:  2.39 164: 10.61 165: 51.76 166:229.00 167:  6.42 168:  7.92
 169:  4.45 170:  5.55 171:  4.87 172:  0.80 173:  7.37 174: 18.88 175:  3.90 176:  0.87
 177:  3.91 178:  6.66 179: 96.13 180: 19.93 181: 31.17 182: 44.27 183:  5.21 184:155.84
 185: 21.67 186:108.55 187:  6.25 188: 10.01 189: 10.73 190: 21.94 191:226.44 192:  5.21
 193: 45.66 194:  0.65 195:  4.85 196:  2.02 197:212.47 198:  2.14 199:163.39 200: 45.99
 201: 35.73 202:465.01 203: 78.29 204:****** 205: 40.44 206: 59.47 207: 61.54 208:516.33
 209:****** 210: 28.37 211: 22.27 212: 32.30 213: 42.72 214:244.92 215:103.62 216: 16.03
 217:604.97 218: 82.50 219:236.75 220: 94.59 221:  4.19 222: 13.05 223:****** 224: 21.62
 225: 28.70 226: 11.73 227: 15.12 228: 30.23 229: 59.76 230: 57.91 231: 11.24 232:227.47
 233: 14.36 234: 12.64 235: 79.03 236:  6.17 237: 96.09 238:  4.98 239: 51.45 240:751.91
 241:  1.02 242:  2.66 243: 13.29 244: 48.51 245:  0.70 246: 21.05 247: 18.60 248: 25.79
 249: 44.29 250: 45.37 251:  0.74 252:  0.81 253: 26.60 254:238.48 255: 29.93 256: 12.93
 257: 55.85 258: 54.41 259:155.36 260:180.88 261:110.82 262: 25.16 263:124.21 264: 94.22
 265:  7.50 266: 70.91 267: 92.64 268: 31.10 269: 46.35 270: 49.60 271: 37.43 272: 34.85
 273:  4.01
 Raman intensities (Ä⁴*amu⁻¹)
   1:  0.00   2:  0.00   3:  0.00   4:  0.00   5:  0.00   6:  0.00   7:  0.00   8:  0.00
   9:  0.00  10:  0.00  11:  0.00  12:  0.00  13:  0.00  14:  0.00  15:  0.00  16:  0.00
  17:  0.00  18:  0.00  19:  0.00  20:  0.00  21:  0.00  22:  0.00  23:  0.00  24:  0.00
  25:  0.00  26:  0.00  27:  0.00  28:  0.00  29:  0.00  30:  0.00  31:  0.00  32:  0.00
  33:  0.00  34:  0.00  35:  0.00  36:  0.00  37:  0.00  38:  0.00  39:  0.00  40:  0.00
  41:  0.00  42:  0.00  43:  0.00  44:  0.00  45:  0.00  46:  0.00  47:  0.00  48:  0.00
  49:  0.00  50:  0.00  51:  0.00  52:  0.00  53:  0.00  54:  0.00  55:  0.00  56:  0.00
  57:  0.00  58:  0.00  59:  0.00  60:  0.00  61:  0.00  62:  0.00  63:  0.00  64:  0.00
  65:  0.00  66:  0.00  67:  0.00  68:  0.00  69:  0.00  70:  0.00  71:  0.00  72:  0.00
  73:  0.00  74:  0.00  75:  0.00  76:  0.00  77:  0.00  78:  0.00  79:  0.00  80:  0.00
  81:  0.00  82:  0.00  83:  0.00  84:  0.00  85:  0.00  86:  0.00  87:  0.00  88:  0.00
  89:  0.00  90:  0.00  91:  0.00  92:  0.00  93:  0.00  94:  0.00  95:  0.00  96:  0.00
  97:  0.00  98:  0.00  99:  0.00 100:  0.00 101:  0.00 102:  0.00 103:  0.00 104:  0.00
 105:  0.00 106:  0.00 107:  0.00 108:  0.00 109:  0.00 110:  0.00 111:  0.00 112:  0.00
 113:  0.00 114:  0.00 115:  0.00 116:  0.00 117:  0.00 118:  0.00 119:  0.00 120:  0.00
 121:  0.00 122:  0.00 123:  0.00 124:  0.00 125:  0.00 126:  0.00 127:  0.00 128:  0.00
 129:  0.00 130:  0.00 131:  0.00 132:  0.00 133:  0.00 134:  0.00 135:  0.00 136:  0.00
 137:  0.00 138:  0.00 139:  0.00 140:  0.00 141:  0.00 142:  0.00 143:  0.00 144:  0.00
 145:  0.00 146:  0.00 147:  0.00 148:  0.00 149:  0.00 150:  0.00 151:  0.00 152:  0.00
 153:  0.00 154:  0.00 155:  0.00 156:  0.00 157:  0.00 158:  0.00 159:  0.00 160:  0.00
 161:  0.00 162:  0.00 163:  0.00 164:  0.00 165:  0.00 166:  0.00 167:  0.00 168:  0.00
 169:  0.00 170:  0.00 171:  0.00 172:  0.00 173:  0.00 174:  0.00 175:  0.00 176:  0.00
 177:  0.00 178:  0.00 179:  0.00 180:  0.00 181:  0.00 182:  0.00 183:  0.00 184:  0.00
 185:  0.00 186:  0.00 187:  0.00 188:  0.00 189:  0.00 190:  0.00 191:  0.00 192:  0.00
 193:  0.00 194:  0.00 195:  0.00 196:  0.00 197:  0.00 198:  0.00 199:  0.00 200:  0.00
 201:  0.00 202:  0.00 203:  0.00 204:  0.00 205:  0.00 206:  0.00 207:  0.00 208:  0.00
 209:  0.00 210:  0.00 211:  0.00 212:  0.00 213:  0.00 214:  0.00 215:  0.00 216:  0.00
 217:  0.00 218:  0.00 219:  0.00 220:  0.00 221:  0.00 222:  0.00 223:  0.00 224:  0.00
 225:  0.00 226:  0.00 227:  0.00 228:  0.00 229:  0.00 230:  0.00 231:  0.00 232:  0.00
 233:  0.00 234:  0.00 235:  0.00 236:  0.00 237:  0.00 238:  0.00 239:  0.00 240:  0.00
 241:  0.00 242:  0.00 243:  0.00 244:  0.00 245:  0.00 246:  0.00 247:  0.00 248:  0.00
 249:  0.00 250:  0.00 251:  0.00 252:  0.00 253:  0.00 254:  0.00 255:  0.00 256:  0.00
 257:  0.00 258:  0.00 259:  0.00 260:  0.00 261:  0.00 262:  0.00 263:  0.00 264:  0.00
 265:  0.00 266:  0.00 267:  0.00 268:  0.00 269:  0.00 270:  0.00 271:  0.00 272:  0.00
 273:  0.00
 output can be read by thermo (or use thermo option).
 writing <g98.out> molden fake output.
 recommended (thermochemical) frequency scaling factor: 1.0
           -------------------------------------------------
          |             Thermodynamic Functions             |
           -------------------------------------------------

Refinement of some symmetry elements was terminated before convergence was reached.
Some symmetry elements may remain unidentified.
Molecule has no symmetry elements
It seems to be the C1 point group
c1  symmetry found (for desy threshold:  0.10E+00) used in thermo

          ...................................................
          :                      SETUP                      :
          :.................................................:
          :  # frequencies                         267      :
          :  # imaginary freq.                       0      :
          :  linear?                             false      :
          :  only rotor calc.                    false      :
          :  symmetry                               c1      :
          :  rotational number                       1      :
          :  scaling factor                  1.0000000      :
          :  rotor cutoff                   50.0000000 cm⁻¹ :
          :  imag. cutoff                  -20.0000000 cm⁻¹ :
          :.................................................:

    mode    ω/cm⁻¹     T·S(HO)/kcal·mol⁻¹    T·S(FR)/kcal·mol⁻¹   T·S(vib)
   ------------------------------------------------------------------------
       1      7.17    -2.58533 (  0.04%)    -1.63174 ( 99.96%)    -1.63215
       2     10.10    -2.38265 (  0.17%)    -1.53039 ( 99.83%)    -1.53181
       3     10.57    -2.35548 (  0.20%)    -1.51681 ( 99.80%)    -1.51848
       4     21.23    -1.94259 (  3.15%)    -1.31028 ( 96.85%)    -1.33019
       5     23.74    -1.87654 (  4.84%)    -1.27722 ( 95.16%)    -1.30620
       6     25.93    -1.82440 (  6.74%)    -1.25112 ( 93.26%)    -1.28976
       7     29.61    -1.74580 ( 10.95%)    -1.21176 ( 89.05%)    -1.27024
       8     34.01    -1.66382 ( 17.64%)    -1.17069 ( 82.36%)    -1.25766
       9     40.22    -1.56472 ( 29.52%)    -1.12101 ( 70.48%)    -1.25198
      10     45.28    -1.49483 ( 40.21%)    -1.08594 ( 59.79%)    -1.25034
      11     50.59    -1.42933 ( 51.18%)    -1.05304 ( 48.82%)    -1.24564
      12     60.71    -1.32199 ( 68.49%)    -0.99905 ( 31.51%)    -1.22023
      13     63.40    -1.29648 ( 72.11%)    -0.98620 ( 27.89%)    -1.20994
      14     67.21    -1.26217 ( 76.56%)    -0.96891 ( 23.44%)    -1.19342
      15     79.44    -1.16417 ( 86.44%)    -0.91939 ( 13.56%)    -1.13096
      16     84.03    -1.13134 ( 88.86%)    -0.90277 ( 11.14%)    -1.10588
      17     92.28    -1.07667 ( 92.06%)    -0.87501 (  7.94%)    -1.06067
      18     94.80    -1.06097 ( 92.82%)    -0.86703 (  7.18%)    -1.04704
      19    110.07    -0.97426 ( 95.92%)    -0.82279 (  4.08%)    -0.96808
      20    114.93    -0.94926 ( 96.54%)    -0.80998 (  3.46%)    -0.94444
      21    122.72    -0.91147 ( 97.32%)    -0.79056 (  2.68%)    -0.90822
      22    130.19    -0.87754 ( 97.87%)    -0.77306 (  2.13%)    -0.87531
      23    134.57    -0.85857 ( 98.13%)    -0.76325 (  1.87%)    -0.85679
      24    143.09    -0.82354 ( 98.53%)    -0.74507 (  1.47%)    -0.82239
      25    158.82    -0.76440 ( 99.03%)    -0.71417 (  0.97%)    -0.76391
      26    169.00    -0.72943 ( 99.24%)    -0.69576 (  0.76%)    -0.72917
      27    178.38    -0.69925 ( 99.39%)    -0.67976 (  0.61%)    -0.69913
      28    202.19    -0.63003 ( 99.63%)    -0.64265 (  0.37%)    -0.63007
      29    204.51    -0.62378 ( 99.64%)    -0.63927 (  0.36%)    -0.62384
      30    222.60    -0.57776 ( 99.75%)    -0.61415 (  0.25%)    -0.57785
      31    226.89    -0.56750 ( 99.76%)    -0.60850 (  0.24%)    -0.56760
      32    231.47    -0.55680 ( 99.78%)    -0.60258 (  0.22%)    -0.55690
      33    233.90    -0.55122 ( 99.79%)    -0.59948 (  0.21%)    -0.55132
      34    244.54    -0.52761 ( 99.83%)    -0.58631 (  0.17%)    -0.52771
      35    254.02    -0.50761 ( 99.85%)    -0.57505 (  0.15%)    -0.50771
      36    267.41    -0.48089 ( 99.88%)    -0.55983 (  0.12%)    -0.48099
      37    277.77    -0.46135 ( 99.90%)    -0.54857 (  0.10%)    -0.46144
      38    284.60    -0.44897 ( 99.90%)    -0.54136 (  0.10%)    -0.44906
   ------------------------------------------------------------------------

   temp. (K)  partition function   enthalpy   heat capacity  entropy
                                   cal/mol     cal/K/mol   cal/K/mol   J/K/mol
 298.15  VIB  0.722E+22            26896.289    167.738    168.951
         ROT  0.253E+09              888.752      2.981     41.431
         INT  0.183E+31            27785.042    170.719    210.382
         TR   0.195E+29             1481.254      4.968     45.663
         TOT                       29266.2955   175.6869   256.0448  1071.2914

       T/K    H(0)-H(T)+PV         H(T)/Eh          T*S/Eh         G(T)/Eh
   ------------------------------------------------------------------------
    298.15    0.466388E-01    0.734553E+00    0.121655E+00    0.612898E+00
   ------------------------------------------------------------------------

         :::::::::::::::::::::::::::::::::::::::::::::::::::::
         ::                  THERMODYNAMIC                  ::
         :::::::::::::::::::::::::::::::::::::::::::::::::::::
         :: total free energy        -144.426363066041 Eh   ::
         ::.................................................::
         :: total energy             -145.039260695053 Eh   ::
         :: zero point energy           0.687913956418 Eh   ::
         :: G(RRHO) w/o ZPVE           -0.075016327406 Eh   ::
         :: G(RRHO) contrib.            0.612897629012 Eh   ::
         :::::::::::::::::::::::::::::::::::::::::::::::::::::

optimized geometry written to: xtbopt.xyz


           -------------------------------------------------
          | TOTAL ENERGY             -145.039260695053 Eh   |
          | TOTAL ENTHALPY           -144.304707928107 Eh   |
          | TOTAL FREE ENERGY        -144.426363066041 Eh   |
          | GRADIENT NORM               0.000043068812 Eh/α |
          | HOMO-LUMO GAP               1.390559125810 eV   |
           -------------------------------------------------

------------------------------------------------------------------------
 * finished run on 2025/09/08 at 12:40:54.699     
------------------------------------------------------------------------
 total:
 * wall-time:     0 d,  0 h,  0 min, 14.064 sec
 *  cpu-time:     0 d,  0 h,  8 min, 59.090 sec
 * ratio c/w:    38.332 speedup
 SCF:
 * wall-time:     0 d,  0 h,  0 min,  0.270 sec
 *  cpu-time:     0 d,  0 h,  0 min,  9.862 sec
 * ratio c/w:    36.530 speedup
 ANC optimizer:
 * wall-time:     0 d,  0 h,  0 min,  8.369 sec
 *  cpu-time:     0 d,  0 h,  5 min, 34.719 sec
 * ratio c/w:    39.996 speedup
 analytical hessian:
 * wall-time:     0 d,  0 h,  0 min,  5.203 sec
 *  cpu-time:     0 d,  0 h,  3 min,  6.384 sec
 * ratio c/w:    35.825 speedup

