45
 energy: -68.602265401599 gnorm: 0.000071034256 xtb: 6.7.1 (edcfbbe)
C           -2.28068682154318       -2.55742241068491       -2.60229784986634
C           -0.89622042173163       -2.59008933587697       -2.61802582676496
C           -0.18308792540565       -1.75845109713748       -1.77288863525026
C           -0.82836036299057       -0.88988424080505       -0.90744992979498
C           -2.22455594300811       -0.86024926365506       -0.89496559502984
C           -2.94161557380147       -1.69897748281756       -1.74729036325867
N           -2.89417967110328       -0.00817512664167       -0.04637577317358
C           -2.25827632512721        0.85166366975707        0.82014943199896
C           -3.00830462124687        1.68753496885520        1.64653500005200
C           -2.38127766920804        2.55362080859841        2.51920193365234
C           -0.99829415058959        2.59702717701271        2.57855629352151
C           -0.25248948210250        1.76821409345511        1.75923786653532
C           -0.86344096851359        0.89196227651087        0.87680975076441
C           -0.00000991229589        0.00216585408910        0.00027544513008
C            0.86171443697771        0.89454849224010       -0.87532720524685
C            0.24905750437707        1.77083961558364       -1.75653555705587
C            0.99326190919083        2.60169673293654       -2.57524378673685
C            2.37633952683365        2.56028779684812       -2.51654548983902
C            3.00504421249223        1.69424098520790       -1.64503979638036
C            2.25663035148261        0.85634410697485       -0.81925089607487
N            2.89419118733041       -0.00351479029786        0.04602795766950
C            2.22620449778594       -0.85753866521235        0.89395081521714
C            2.94489284459643       -1.69615808893394        1.74500646295353
C            2.28561991108355       -2.55658962628524        2.59929348009327
C            0.90121457668734       -2.59135073914469        2.61558861180342
C            0.18646919251867       -1.75985417681082        1.77168444823024
C            0.83005649834276       -0.88933624118419        0.90695248554091
H           -2.84778750611322       -3.20194435770373       -3.25753608497680
H           -0.37502194853453       -3.25967795137674       -3.28486293687233
H            0.89723516671882       -1.78006423625443       -1.78115388214094
H           -4.02246503070519       -1.66818742608157       -1.72974776111695
H           -3.90235964998702       -0.01116481042934       -0.06322312715116
H           -4.08781135744110        1.64831193485908        1.59499206322760
H           -2.97369559462407        3.19547386534071        3.15431910690606
H           -0.50357079707298        3.27244432091417        3.25956136091932
H            0.82685576988930        1.79795484959586        1.80162008915851
H           -0.83034508910416        1.79902999765352       -1.79840459664202
H            0.49723173775157        3.27725426890801       -3.25513826143693
H            2.96752306570317        3.20389625782878       -3.15106392580713
H            4.08463406133659        1.65664250782345       -1.59394812361027
H            3.90238371203504       -0.00506524447861        0.06239412371280
H            4.02570709791260       -1.66367529616560        1.72708870469823
H            2.85396317855667       -3.20093101041344        3.25360932490413
H            0.38131330289259       -3.26238188652316        3.28198596017473
H           -0.89382109544383       -1.78308631636810        1.78040125493641
