83
 energy: -128.638253365994 gnorm: 0.000072287361 xtb: 6.7.1 (edcfbbe)
C            6.39193710413372        0.90433935524296       -1.19640917133919
C            5.46546326351116        0.90665341971897        0.03484326863265
C            6.29802510002780        0.98909524238337        1.32840853998603
C            4.56610834428640        2.12707374527097       -0.03790511688141
C            5.13581160486968        3.39333624752863       -0.05905184154886
C            4.37046145078976        4.54410202226257       -0.10673882539401
C            2.99143418008935        4.43773126457095       -0.12556614001515
C            2.39909703611675        3.19231139037265       -0.10612105433357
C            3.17159810693413        2.02765340549740       -0.07344577257883
N            2.54613622395006        0.78911691843571       -0.06260997390566
C            1.12544068636297        0.72925606932896       -0.03402108773843
C            0.38885455544581        0.91826757711392       -1.19353577472321
C           -0.99333046395669        0.86764039129318       -1.15743949446714
C           -1.66632779433402        0.62509743882493        0.03311536650147
C           -3.19416861714082        0.52542069720843        0.09359910046949
C           -3.80222980163043        1.41201474419980        1.17368623607091
C           -3.11807751974808        2.46993274269641        1.75681648695675
C           -3.73793494838522        3.27245188255037        2.70111841533908
C           -5.05149580112970        3.03641627895071        3.06591690696783
C           -5.74867690944031        1.99697394846722        2.47176335819834
C           -5.13014478225560        1.19548862591207        1.53031823895101
C           -3.79388390075463        0.94527188524062       -1.23325577572858
C           -4.06987872835425        2.28362770379937       -1.49004882758570
C           -4.58447998021324        2.68395384893145       -2.71032338863571
C           -4.81981158872852        1.75391724070960       -3.71254263627584
C           -4.52917957788032        0.42594018105032       -3.48218741862987
C           -4.01938287803495        0.01269430585401       -2.25003711813288
C           -3.72909054370107       -1.41805534628701       -2.05320808276521
O           -3.62042735763298       -2.19848538583604       -2.99065621502467
C           -3.64896853813569       -1.85386965780783       -0.64935592430551
C           -3.81224720885945       -3.21230160601704       -0.36910888041318
C           -3.81698991478871       -3.66648695813503        0.93235280393111
C           -3.66102409063585       -2.75635499021940        1.96755823188999
C           -3.48683874846057       -1.41107122948270        1.69738790532478
C           -3.47432286448973       -0.93654370065881        0.39014386302650
C           -0.91621350093121        0.42667494172126        1.18876663810197
C            0.46274425884797        0.48829951454410        1.16235782994532
C            3.27284553958099       -0.38727948523650       -0.02242717382775
C            4.67086990912336       -0.38794735355007        0.04308244637100
C            5.36670870918694       -1.59723020574566        0.10065478629087
C            4.74371514211909       -2.82545359732495        0.08582780976893
C            3.35842205219539       -2.84301630037483       -0.00764711786910
C            2.64225352117780       -1.63771748573157       -0.06545302316730
O            1.29177726289092       -1.87064345616111       -0.17382001047409
C            1.13433555388127       -3.22183244066733       -0.18179631558306
C           -0.06257889727849       -3.91016346037788       -0.27448764252040
C            0.00183273615910       -5.29231183621906       -0.26065442618232
C            1.21771609429673       -5.96454627377532       -0.15874093595859
C            2.41114274963970       -5.27503494868443       -0.06819702251086
C            2.37074847846643       -3.88674429895929       -0.07929514155664
H            7.06945382634391        0.05577245899709       -1.17267288563325
H            5.79771341477242        0.84356512928152       -2.10675074307402
H            6.98607537320430        1.81285364109838       -1.23472079784725
H            6.88727429404511        1.90134305238975        1.35085098118319
H            6.97589165950279        0.14433733857535        1.40945841983505
H            5.63850200547043        0.98491835139234        2.19450531827804
H            6.21041510565916        3.49199954096048       -0.03586360115718
H            4.84775365152839        5.51233948913958       -0.12383011647503
H            2.37305573883999        5.32293682248062       -0.15410353322077
H            1.32295867820197        3.11647203979994       -0.11679134440419
H            0.89994149951018        1.10505128068202       -2.12687592679013
H           -1.53944325508236        1.01799775415866       -2.07586698225756
H           -2.09676273554205        2.67680723334365        1.47398366632769
H           -3.18892884536515        4.08838375710307        3.14843125780730
H           -5.53286651012779        3.66270735351494        3.80244049503607
H           -6.77848264436874        1.81138475780837        2.73977261663552
H           -5.68100876529405        0.39040553786918        1.06468528680971
H           -3.88154482739587        3.02211756573667       -0.72581452343356
H           -4.80000801773712        3.72824611428199       -2.88108322652566
H           -5.21994095646948        2.06623878457264       -4.66527513240181
H           -4.68768322514270       -0.32522380702863       -4.24278756863057
H           -3.94226388821508       -3.88816683412444       -1.20254632320422
H           -3.94633455500172       -4.71717427247672        1.14293657300344
H           -3.67594698394571       -3.09677673893724        2.99225200148718
H           -3.38344037090664       -0.71931263428798        2.51944039974784
H           -1.41048342105512        0.22978421169929        2.12650286205835
H            1.03278107552601        0.33756302498846        2.06765481228602
H            6.44344523111857       -1.57423469151765        0.15912030204997
H            5.30806133963802       -3.74268714901120        0.13508364886082
H           -1.00071893769048       -3.38481439953390       -0.35708059119468
H           -0.91184043444584       -5.86232185272749       -0.33392447234420
H            1.22329536381541       -7.04447716567591       -0.15200524581357
H            3.35330740942453       -5.79570170693042        0.00923847029175
