$hessian                                                                        
        0.2100777852  -0.4550723894  -0.0097465872  -0.2144163890   0.4268942472
        0.0079082831   0.0023120003   0.0304185279   0.0020636287  -0.0008830375
       -0.0025275378  -0.0049918731  -0.0022824831   0.0021954731   0.0007763607
        0.0006557918  -0.0012740009   0.0002018395   0.0005828647  -0.0014494790
       -0.0004071808   0.0034269872   0.0005261305  -0.0000650695  -0.0030568699
       -0.0003149643   0.0001197598   0.0014077294  -0.0007028148  -0.0003503000
       -0.0007788322  -0.0005015417  -0.0000632882   0.0002853598  -0.0000616907
       -0.0000182711   0.0004759616   0.0000503100  -0.0000302824  -0.0010734905
        0.0003627133   0.0002824881   0.0011287405   0.0010862961   0.0002292846
       -0.0014771542   0.0006568615   0.0000352152   0.0009372565   0.0003305619
        0.0001731420  -0.0001630000   0.0003654836  -0.0000433936   0.0001314926
       -0.0004190871   0.0000029728  -0.0002630524   0.0000788391  -0.0000243734
        0.0000941552   0.0000042336   0.0000093931  -0.0000938972   0.0001620836
       -0.0000079057   0.0000758738  -0.0003726729   0.0000469351  -0.0009072012
        0.0005895745  -0.0000184836   0.0002327156   0.0001941332  -0.0000518341
       -0.0004614607   0.0001325025  -0.0000302374   0.0008455426  -0.0000031459
       -0.0000703393  -0.0004859573  -0.0008814601   0.0000845766   0.0018993548
        0.0009487997  -0.0000020715  -0.0024640275  -0.0007108126   0.0000611936
       -0.0008575794   0.0022654066   0.0012678717   0.0048497714  -0.0031874082
        0.0026371888   0.0003883082   0.0002697473   0.0000581170  -0.0002214894
        0.0002323941  -0.0000373606  -0.0000501965   0.0000298833  -0.0000781901
        0.0000776077   0.0000320339  -0.0000468659   0.0000070381  -0.0000139926
       -0.0000216720   0.0000416833  -0.0000399154  -0.0000528666   0.0000056729
       -0.0000056056  -0.0000029619  -0.0000090902   0.0000320589  -0.0000061707
       -0.0000292033   0.0000228427  -0.0000104592  -0.0000169132  -0.0000062752
       -0.0000017389  -0.0000231302   0.0000043747  -0.0000041419  -0.0000250969
       -0.0000104698   0.0000329774   0.0000043974  -0.0000380000   0.0000133742
       -0.0000357001  -0.0000609787   0.0000946969  -0.0000768662  -0.0000587905
        0.0001395239   0.0002080273  -0.0001724797  -0.0000549040
       -0.4550723894   1.0863362541   0.0225740949   0.4269142406  -1.0365771827
       -0.0216718592   0.0304699531  -0.0562159113  -0.0008743669   0.0023877751
        0.0105092975   0.0088483916   0.0036406752  -0.0052465924   0.0007393210
       -0.0013519295   0.0030379265   0.0000190358  -0.0010285358   0.0038945850
        0.0006173976  -0.0083868187  -0.0015061372   0.0000739811   0.0069914602
        0.0006863078  -0.0002374558  -0.0032577962   0.0016893955   0.0008323566
        0.0016084150   0.0010631799   0.0001498751  -0.0006552947   0.0002017221
        0.0000480239  -0.0006867219  -0.0000945575   0.0000604093   0.0023584261
       -0.0007523929  -0.0006030570  -0.0026686950  -0.0026245756  -0.0005584133
        0.0035249215  -0.0015647282  -0.0000644153  -0.0021965547  -0.0008123493
       -0.0004116949   0.0004711142  -0.0009105234   0.0001142428  -0.0003304686
        0.0009694530  -0.0000166215   0.0007312605  -0.0001488773   0.0000660202
       -0.0002892479  -0.0000543833  -0.0000315562   0.0002167372  -0.0003807520
        0.0000139375  -0.0001801233   0.0008456748  -0.0001069659   0.0022550144
       -0.0013442664   0.0000430569  -0.0006037506  -0.0003816854   0.0001119392
        0.0011350580  -0.0003256392   0.0000738612  -0.0020634773  -0.0002196925
        0.0002015672   0.0013368445   0.0022159132  -0.0002150875  -0.0045933258
       -0.0022692218   0.0000158782   0.0061490689   0.0016026847  -0.0001966151
        0.0009192379  -0.0064477228  -0.0002710516  -0.0082634918   0.0048794678
       -0.0095643356  -0.0003317703   0.0001041775  -0.0001393852   0.0001087571
       -0.0002472193   0.0002855136  -0.0000356450  -0.0000495065   0.0001667747
       -0.0000629199   0.0000238266   0.0000772046   0.0000025392  -0.0000188069
        0.0000234565  -0.0000759580   0.0000852888   0.0001132187  -0.0000099899
        0.0000360433   0.0000056686   0.0000155744  -0.0000759035   0.0000137355
        0.0000775584  -0.0000591415   0.0000243265   0.0000499056   0.0000116638
        0.0000034996   0.0000541057   0.0000053069   0.0000100886   0.0000869008
        0.0000347464  -0.0000787293   0.0000949240   0.0001676797  -0.0000522979
       -0.0000001371  -0.0000106819  -0.0002154943   0.0000937398  -0.0003757864
       -0.0001862490   0.0004508342   0.0003136428   0.0001687743
       -0.0097465872   0.0225740949   0.0169097279   0.0079049866  -0.0217078494
       -0.0344542253   0.0022282741  -0.0008629535   0.0169291139  -0.0020045702
        0.0016216164  -0.0002982051   0.0007382014   0.0009126266   0.0002894078
        0.0001836103   0.0001915631   0.0003327076  -0.0001067251   0.0000397528
        0.0001708314  -0.0001944568  -0.0000111797  -0.0000134741   0.0001669547
        0.0000414624  -0.0000055602  -0.0001147399   0.0000042397   0.0000392682
        0.0000717513   0.0000314111   0.0000195165  -0.0000391526  -0.0000127844
       -0.0000056150   0.0000002263   0.0000054776   0.0000124002   0.0000517892
       -0.0000031552  -0.0000065373  -0.0000695476  -0.0000647007  -0.0000087709
        0.0000834715  -0.0000695450   0.0000200282  -0.0000485017  -0.0000058516
       -0.0000213881   0.0000090478  -0.0000165380   0.0000059957  -0.0000049136
        0.0000158986   0.0000009888   0.0000080957  -0.0000046553  -0.0000012026
       -0.0000021370   0.0000043148  -0.0000017085   0.0000068193  -0.0000142097
        0.0000019809  -0.0000020692   0.0000230237  -0.0000032984   0.0000471258
       -0.0000362501   0.0000046493  -0.0000087096  -0.0000139617   0.0000062738
        0.0000215733  -0.0000029565   0.0000076730  -0.0000302849   0.0000060520
        0.0000198573   0.0000025468   0.0000576574   0.0000163038  -0.0000876657
       -0.0000541307  -0.0000005615   0.0001384260   0.0000401507  -0.0000095137
        0.0011939791  -0.0004164127   0.0002354773  -0.0005992605  -0.0023132449
       -0.0007969702  -0.0001398584   0.0003112085   0.0003384097  -0.0000083815
        0.0002637955   0.0000100108   0.0000179624  -0.0000172750  -0.0000161080
       -0.0000197949  -0.0000101881  -0.0000086675  -0.0000003804   0.0000037000
       -0.0000000784  -0.0000017295   0.0000087883   0.0000018198  -0.0000003849
        0.0000015156  -0.0000041158   0.0000003421  -0.0000010235  -0.0000052913
        0.0000012315  -0.0000013233  -0.0000042358   0.0000008770  -0.0000000137
       -0.0000031773   0.0000010633  -0.0000012354  -0.0000010426   0.0000023058
       -0.0000001211  -0.0000014292  -0.0000052241  -0.0000017070  -0.0000088566
        0.0000020812   0.0000052188  -0.0000261284   0.0001949075  -0.0002123353
       -0.0000016965   0.0001574255  -0.0003079675   0.0003354161
       -0.2144163890   0.4269142406   0.0079049866   0.3104632247  -0.5317162339
        0.0022156319  -0.0846911738   0.0761250035  -0.0025399381   0.0031718835
        0.0070185422   0.0101224605   0.0073165670  -0.0035000716  -0.0031790209
       -0.0011951659   0.0026907734  -0.0004616229  -0.0014379662   0.0016688912
        0.0012212860  -0.0054775797  -0.0009565558   0.0001170592   0.0047569832
        0.0004812638  -0.0001721377  -0.0022612354   0.0010719571   0.0005682505
        0.0011575273   0.0007334105   0.0000540907  -0.0004324246   0.0000988445
        0.0000204009  -0.0004993696  -0.0000492500   0.0000433967   0.0015841682
       -0.0004784632  -0.0003882306  -0.0018112548  -0.0017445080  -0.0003708010
        0.0023162024  -0.0011527445  -0.0000008375  -0.0015045817  -0.0004837320
       -0.0003306523   0.0003164745  -0.0005883780   0.0000871833  -0.0002111990
        0.0006293190  -0.0000042146   0.0004451198  -0.0001016516   0.0000329960
       -0.0001730064   0.0000059948  -0.0000201860   0.0001508498  -0.0002837490
        0.0000127545  -0.0001163457   0.0006048761  -0.0000739301   0.0014909459
       -0.0009415541   0.0000336588  -0.0003867375  -0.0002742485   0.0000756169
        0.0007259819  -0.0002141580   0.0000518348  -0.0013415782  -0.0000708531
        0.0001209119   0.0008182535   0.0014829151  -0.0001109334  -0.0029527900
       -0.0015077317  -0.0000114729   0.0039979081   0.0011305230  -0.0001377820
        0.0020570453  -0.0024979451  -0.0070941936  -0.0195299613   0.0270820403
       -0.0092435478  -0.0016669253  -0.0016525677   0.0003459797   0.0004681309
       -0.0004237814  -0.0000121028   0.0000224042   0.0000111446   0.0001418107
       -0.0000992564  -0.0000102022   0.0000714734  -0.0000076934  -0.0000027064
        0.0000225135  -0.0000463592   0.0000545270   0.0000700154  -0.0000057786
        0.0000210275   0.0000026379   0.0000096466  -0.0000457295   0.0000067650
        0.0000445507  -0.0000353346   0.0000157671   0.0000236417   0.0000101883
       -0.0000001780   0.0000267970  -0.0000039747   0.0000053770   0.0000447210
        0.0000154914  -0.0000505272   0.0000085128   0.0000773641  -0.0000280377
        0.0000731083   0.0000758616  -0.0001872990  -0.0001806104   0.0009380035
       -0.0002930614  -0.0010452660  -0.0002060786   0.0013458487
        0.4268942472  -1.0365771827  -0.0217078494  -0.5317162339   1.3310597761
        0.0313640259   0.0760786844  -0.2289578961  -0.0051548040   0.0051192184
       -0.0514567407  -0.0240933883  -0.0078244251   0.0083783212  -0.0066825682
        0.0029464803  -0.0064172365  -0.0001016263   0.0007829842  -0.0051273994
       -0.0007308503   0.0130179298   0.0024895842  -0.0002597958  -0.0112229239
       -0.0010280932   0.0003798962   0.0052447153  -0.0027201821  -0.0013482321
       -0.0026329858  -0.0018643147  -0.0002237462   0.0011670131  -0.0003047697
       -0.0000765769   0.0011403373   0.0001467855  -0.0000941661  -0.0038719716
        0.0013100073   0.0009758579   0.0042328030   0.0041941300   0.0008942014
       -0.0054539832   0.0022464231   0.0000151357   0.0034904836   0.0013592989
        0.0006854586  -0.0007759799   0.0014456733  -0.0001758203   0.0005539359
       -0.0015805533   0.0000334063  -0.0011673904   0.0002525492  -0.0001009623
        0.0004538619   0.0001160484   0.0000531485  -0.0003546920   0.0005673517
       -0.0000277169   0.0003225008  -0.0013677293   0.0001757309  -0.0037025655
        0.0022421873  -0.0001053808   0.0009536451   0.0006860319  -0.0001816190
       -0.0019402139   0.0004933679  -0.0001292431   0.0034420528   0.0002493051
       -0.0003176742  -0.0021627374  -0.0035856155   0.0003564512   0.0073442301
        0.0036110844  -0.0000208381  -0.0094525130  -0.0025046891   0.0005470120
        0.0014876335   0.0131431628   0.0029667582   0.0291071101  -0.0301045862
        0.0227463005   0.0003590210   0.0006523419   0.0015577456   0.0003198867
       -0.0006561848  -0.0004799456   0.0001236403   0.0000231949  -0.0003219963
        0.0001005216  -0.0000174924  -0.0001204239   0.0000030641   0.0000019821
       -0.0000498043   0.0001125122  -0.0000898623  -0.0001630900   0.0000087455
       -0.0000497389  -0.0000040104  -0.0000286992   0.0001097604  -0.0000181974
       -0.0001056777   0.0000777850  -0.0000334907  -0.0000660889  -0.0000198707
       -0.0000021525  -0.0000572276  -0.0000168936  -0.0000145709  -0.0000888151
       -0.0000373999   0.0001262529  -0.0001236792  -0.0002429284   0.0000746910
       -0.0000245788  -0.0000733341   0.0003772245   0.0001877795  -0.0000857680
        0.0002365270  -0.0022216557   0.0000303093  -0.0008252841
        0.0079082831  -0.0216718592  -0.0344542253   0.0022156319   0.0313640259
        0.0973906906  -0.0031627881  -0.0053146631  -0.0571998852   0.0091435511
       -0.0206260752  -0.0008287138  -0.0037546543  -0.0051112076  -0.0015094643
       -0.0004724269  -0.0003793683  -0.0007470339   0.0005806531   0.0001370157
       -0.0003974485   0.0002539719   0.0000126231  -0.0000442607  -0.0002457096
       -0.0000993093   0.0000144298   0.0002412279   0.0000523064  -0.0000269738
       -0.0001490467  -0.0001110650  -0.0000541039   0.0000465068   0.0000958480
        0.0000243474   0.0000289053  -0.0000060931  -0.0000058623  -0.0000532052
       -0.0000137150   0.0000075950   0.0001024803   0.0001209709   0.0000317190
       -0.0001432074   0.0001662230   0.0000111559   0.0001046935  -0.0000070294
        0.0000280091  -0.0000140314   0.0000164468  -0.0000097518   0.0000041995
       -0.0000204249  -0.0000027755  -0.0000036632   0.0000046345   0.0000049835
        0.0000005700  -0.0000133346   0.0000020848  -0.0000086981   0.0000268587
       -0.0000007531   0.0000024927  -0.0000314240   0.0000004543  -0.0000604555
        0.0000378104  -0.0000049284   0.0000189281   0.0000385798  -0.0000062178
       -0.0000139674  -0.0000219828  -0.0000050464   0.0000124539   0.0000162280
       -0.0000348001   0.0000363903  -0.0001058545   0.0000414197   0.0001179443
        0.0000911277   0.0000098065  -0.0002019671  -0.0001352662  -0.0000634364
       -0.0061938866   0.0013914428  -0.0012671787  -0.0074806637   0.0194999406
        0.0009150375   0.0013144988  -0.0005880982  -0.0008488303   0.0002328509
       -0.0012329783  -0.0000647038  -0.0000345047  -0.0000122544  -0.0000242385
        0.0000178445   0.0000063389   0.0000028377  -0.0000006803  -0.0000045019
       -0.0000042192  -0.0000001053  -0.0000086867  -0.0000076557  -0.0000000099
       -0.0000007355  -0.0000001269  -0.0000001529   0.0000016844   0.0000023817
       -0.0000017928   0.0000018086   0.0000005496   0.0000005276  -0.0000009162
        0.0000011522  -0.0000020039   0.0000012806   0.0000006011  -0.0000067355
        0.0000020375   0.0000053947   0.0000029978   0.0000046050   0.0000066011
       -0.0000119078   0.0000094657  -0.0000206768  -0.0007385239   0.0010340591
       -0.0000200350   0.0003671849   0.0013834809  -0.0008479049
        0.0023120003   0.0304699531   0.0022282741  -0.0846911738   0.0760786844
       -0.0031627881   0.3158250712  -0.1448796363   0.1991730007  -0.0750832362
       -0.0136930149  -0.0486892930   0.0154703547  -0.0130001184   0.0123667902
       -0.0126805499  -0.0101260037  -0.0169886074   0.0003561750  -0.0020386878
        0.0009348911   0.0054055430   0.0007105837  -0.0002539246  -0.0041839763
       -0.0008343271   0.0000176116   0.0027375674  -0.0001134582  -0.0004765451
       -0.0016571802  -0.0013027859  -0.0004666140   0.0005445824   0.0008107681
        0.0002107192   0.0002529649  -0.0000316088   0.0000123143  -0.0010690633
        0.0001715268   0.0002606570   0.0015873212   0.0017418077   0.0004544157
       -0.0024291984   0.0007606782  -0.0000369603   0.0016154743   0.0007506672
        0.0003541827  -0.0004228718   0.0005976794  -0.0001411268   0.0002961834
       -0.0006483342   0.0000265297  -0.0005988659   0.0001190569  -0.0000459163
        0.0002106250   0.0001970869   0.0000249430  -0.0001163580   0.0000931349
        0.0000059722   0.0001464409  -0.0004013855   0.0000259244  -0.0018100634
        0.0007669380  -0.0001194169   0.0005449453   0.0006949417  -0.0001186045
       -0.0007055633  -0.0001428755   0.0000020158   0.0013023317   0.0001066303
       -0.0002785300  -0.0007788846  -0.0019686775   0.0003700215   0.0035296159
        0.0020074849  -0.0000380408  -0.0048706892  -0.0012908445   0.0004752245
       -0.0198483565   0.0507519438  -0.0020000201  -0.1398087611   0.0250629628
       -0.1169113756  -0.0046458866  -0.0107427161  -0.0149307832   0.0042771092
        0.0043760496  -0.0028622714   0.0000467196  -0.0000132774   0.0000152162
        0.0000441337  -0.0000078101  -0.0000694941  -0.0000081686   0.0000018396
       -0.0000294315   0.0000394773  -0.0000458020  -0.0001021036  -0.0000149818
       -0.0000288476  -0.0000052944  -0.0000101888   0.0000187936  -0.0000134328
       -0.0000187333   0.0000188093  -0.0000159697  -0.0000111519  -0.0000024673
       -0.0000012507  -0.0000123280  -0.0000163966   0.0000008141  -0.0000206819
       -0.0000106264   0.0001003693  -0.0000740096  -0.0000941802   0.0000070489
       -0.0003610488   0.0000719187   0.0001763617   0.0043746784   0.0042717814
       -0.0024363316  -0.0049873437   0.0007821610  -0.0070491713
        0.0304185279  -0.0562159113  -0.0008629535   0.0761250035  -0.2289578961
       -0.0053146631  -0.1448796363   0.5830997584   0.0904893074  -0.0386794410
       -0.1449703184  -0.1167935168   0.0166308193  -0.0554620216  -0.0172336326
       -0.0100817259   0.0070268547  -0.0066455604  -0.0018542522   0.0038465087
        0.0018425947  -0.0121768558  -0.0026078060   0.0004208184   0.0105420023
        0.0007527939  -0.0003735984  -0.0047051053   0.0026440562   0.0009713021
        0.0021738015   0.0015890414   0.0001286850  -0.0013343814   0.0005951536
        0.0002209077  -0.0008280819  -0.0000560452   0.0001102173   0.0038280393
       -0.0013406041  -0.0009928998  -0.0040337140  -0.0037378761  -0.0008249867
        0.0048915419  -0.0014659503   0.0001852198  -0.0033109679  -0.0010751241
       -0.0007487944   0.0007975719  -0.0012914473   0.0002148335  -0.0005644440
        0.0014350619  -0.0000434363   0.0011393983  -0.0002433537   0.0000928432
       -0.0004215960  -0.0002012751  -0.0000410650   0.0003767349  -0.0004365000
        0.0000162210  -0.0003486430   0.0012364130  -0.0001685945   0.0035510299
       -0.0021553749   0.0000744103  -0.0008318012  -0.0006341151   0.0001917354
        0.0018481257  -0.0005166646   0.0001310013  -0.0035182860  -0.0000410275
        0.0002709937   0.0023241161   0.0034101917  -0.0002255806  -0.0073450092
       -0.0035391931  -0.0000335103   0.0097559835   0.0024583185  -0.0008842839
        0.0218071459  -0.0223404337   0.0192036066   0.0496056028  -0.0835243825
        0.0472727191   0.0005258744   0.0049003313   0.0044479076   0.0043864600
       -0.0037237774  -0.0009159260  -0.0003517325  -0.0004258499   0.0006556014
       -0.0001825504   0.0000152497   0.0001170957   0.0000032181   0.0000269876
        0.0000660243  -0.0001044762   0.0001309496   0.0001689490   0.0000151421
        0.0000591246   0.0000056351   0.0000243208  -0.0000569336   0.0000190220
        0.0000605378  -0.0000448686   0.0000325541   0.0000423738   0.0000037649
       -0.0000015324   0.0000180881   0.0000352677   0.0000227936   0.0000098027
        0.0000339898  -0.0001226449   0.0001420760   0.0001989930  -0.0000795600
        0.0003881870   0.0000298444  -0.0004668502   0.0043777826  -0.0037714042
       -0.0016079687  -0.0102566079   0.0053074998  -0.0129914408
        0.0020636287  -0.0008743669   0.0169291139  -0.0025399381  -0.0051548040
       -0.0571998852   0.1991730007   0.0904893074   0.4508424612  -0.0653029699
       -0.0807042264  -0.1879738100   0.0294104846  -0.0543907323   0.0081570969
       -0.0145073388  -0.0057912302  -0.0339322475  -0.0002149163  -0.0001266669
        0.0020810130  -0.0001723195  -0.0008398059  -0.0001019657   0.0006619292
       -0.0009226194  -0.0001907359   0.0009457774   0.0014709974   0.0000387231
       -0.0011654924  -0.0010818002  -0.0006850410  -0.0000381244   0.0016293513
        0.0004445523   0.0000232544  -0.0000588583   0.0001032287   0.0008095316
       -0.0005485677  -0.0002161994  -0.0002865823   0.0001902775   0.0001457158
       -0.0005120902   0.0001515657   0.0001077472   0.0003136606   0.0004891671
        0.0000519220  -0.0000746719   0.0000246157  -0.0000490237   0.0000495156
       -0.0000481306   0.0000097262  -0.0001430492  -0.0000076369  -0.0000114377
        0.0000650404   0.0001778844   0.0000113601   0.0000806623  -0.0001590463
        0.0000168656  -0.0000075640   0.0002546345  -0.0000670363  -0.0004037821
       -0.0002754955  -0.0001636462   0.0002844169   0.0006872499  -0.0000559859
        0.0001658892  -0.0006142629   0.0000860351  -0.0003624784   0.0001671141
       -0.0002116944   0.0003207896  -0.0007411224   0.0005102897   0.0004992861
        0.0007244563  -0.0000708707  -0.0007838670  -0.0004311762   0.0001632586
       -0.0171744403   0.0569347539   0.0107558021  -0.1014845750   0.0113859724
       -0.1823664747  -0.0079150657  -0.0130054757  -0.0173282675  -0.0028382145
       -0.0011275851   0.0036059499  -0.0001958834  -0.0003273284   0.0004129610
       -0.0000595472   0.0000114780  -0.0000233918  -0.0000060678   0.0000062445
       -0.0000078099  -0.0000048296   0.0000271413  -0.0000540873  -0.0000005539
        0.0000057314  -0.0000033986  -0.0000002248   0.0000007117  -0.0000072634
        0.0000034737   0.0000016174  -0.0000015363   0.0000066636  -0.0000024158
       -0.0000043084  -0.0000095630   0.0000024592   0.0000219041  -0.0000280040
        0.0000119572   0.0000630565  -0.0000292342  -0.0000173369  -0.0000418856
       -0.0003897782   0.0001561040  -0.0000626083  -0.0027849320  -0.0016473639
        0.0036301659  -0.0154409064   0.0038972624  -0.0173583375
       -0.0008830375   0.0023877751  -0.0020045702   0.0031718835   0.0051192184
        0.0091435511  -0.0750832362  -0.0386794410  -0.0653029699   0.3384430310
       -0.1588850361   0.2262579585  -0.1009769319   0.1272557121  -0.0061113994
       -0.0210480498   0.0208389793  -0.0162566431   0.0001998491   0.0029089725
       -0.0045595044  -0.0006339642   0.0001010638  -0.0000815161   0.0002397776
       -0.0001955062   0.0000765328  -0.0001522279   0.0002210171   0.0005705808
        0.0000247061  -0.0001152059  -0.0001472054  -0.0000149278   0.0000852468
       -0.0000359275  -0.0000452756  -0.0000343855   0.0000057886   0.0000688049
       -0.0000485982  -0.0000166465  -0.0000226287  -0.0000019099  -0.0000317122
       -0.0000771813   0.0002811454   0.0001617523  -0.0000030370   0.0001423562
        0.0002024775   0.0000695036  -0.0000810865  -0.0000204274  -0.0000244758
        0.0000988911  -0.0000235984   0.0000824210   0.0000207803   0.0000238744
       -0.0000468422  -0.0000275280  -0.0000076007   0.0000021089  -0.0000124342
        0.0000018682  -0.0000449315   0.0000110319  -0.0000034690   0.0002893387
       -0.0000767800   0.0000784244  -0.0001080637  -0.0001502201   0.0000313479
        0.0000553733   0.0000625976  -0.0000018751  -0.0000903185  -0.0000081177
        0.0000936442  -0.0000179708   0.0001944886  -0.0000118138  -0.0003464560
       -0.0003898525  -0.0000232495   0.0007530749   0.0001867038  -0.0008897327
       -0.0012218973   0.0034418349   0.0060576415  -0.0061349674  -0.0117227886
       -0.0195721759  -0.1405265697   0.0500847341  -0.1223572999   0.0027821031
       -0.0053368771  -0.0001367532  -0.0001103843  -0.0003151089  -0.0000368414
       -0.0000002297   0.0000004081   0.0000197812  -0.0000048876  -0.0000215271
        0.0000047237  -0.0000133201  -0.0000342831  -0.0000160952  -0.0000091068
       -0.0000067637  -0.0000060893   0.0000002284  -0.0000182083   0.0000028824
        0.0000148424  -0.0000080508  -0.0000025087   0.0000106752   0.0000046307
        0.0000017128   0.0000091409  -0.0000038445  -0.0000040895   0.0000102026
        0.0000043291  -0.0000275185  -0.0000106781   0.0000210012   0.0000035508
       -0.0002456339   0.0001326325  -0.0000478106   0.0001204624  -0.0001702766
        0.0004959665   0.0015497037   0.0027382800  -0.0054970157
       -0.0025275378   0.0105092975   0.0016216164   0.0070185422  -0.0514567407
       -0.0206260752  -0.0136930149  -0.1449703184  -0.0807042264  -0.1588850361
        0.5944596218   0.0725535523   0.0864388426  -0.3090310165  -0.0371079674
        0.0459679095  -0.0174869062   0.0591073087   0.0037151598   0.0004862823
       -0.0031696400   0.0086011642   0.0022374778  -0.0004126602  -0.0077598598
        0.0000310504   0.0003886417   0.0031295569  -0.0028752014  -0.0013740392
       -0.0009337672  -0.0004799709   0.0003191565   0.0011662671  -0.0012057699
       -0.0003091046   0.0004659176   0.0000824342  -0.0001379877  -0.0031922333
        0.0013004217   0.0008686329   0.0030828326   0.0027508691   0.0007068111
       -0.0031699218   0.0010870205  -0.0003629125   0.0022533782   0.0002631712
        0.0006765210  -0.0005571002   0.0008967123  -0.0002144329   0.0004255927
       -0.0010400147   0.0000276442  -0.0007523613   0.0002024415  -0.0000496756
        0.0002577233   0.0000093643   0.0000271892  -0.0003680302   0.0004591088
       -0.0000061865   0.0002793652  -0.0011536031   0.0001263062  -0.0024406325
        0.0019722941   0.0000715931   0.0004398794   0.0000670365  -0.0001317237
       -0.0014261817   0.0007932202  -0.0001368895   0.0028218997  -0.0001756934
       -0.0002112633  -0.0017479984  -0.0021431031  -0.0002745856   0.0051832959
        0.0022294081   0.0000684367  -0.0068710362  -0.0020432281   0.0008870759
        0.0043038470  -0.0379909433  -0.0160569399  -0.0330319772   0.0373659033
       -0.0262243645   0.0509287163  -0.0643419089   0.0528535889   0.0074654580
       -0.0208255547  -0.0034494274   0.0004211807  -0.0000154752   0.0000413369
        0.0000716525  -0.0000122104  -0.0000714437  -0.0000276523  -0.0000029368
       -0.0000569940   0.0000838096  -0.0000853188  -0.0000803727  -0.0000030355
       -0.0000294381  -0.0000064427  -0.0000070118   0.0000332006  -0.0000160918
       -0.0000431556   0.0000353169  -0.0000333978  -0.0000373053   0.0000010584
        0.0000025640  -0.0000014460  -0.0000126477  -0.0000458501  -0.0000041581
       -0.0000272110   0.0001017694  -0.0000644800  -0.0000959746   0.0000780625
        0.0003657935  -0.0001888153   0.0005068031  -0.0000870377  -0.0003618699
       -0.0003234015   0.0027441863   0.0007791598   0.0005594859
       -0.0049918731   0.0088483916  -0.0002982051   0.0101224605  -0.0240933883
       -0.0008287138  -0.0486892930  -0.1167935168  -0.1879738100   0.2262579585
        0.0725535523   0.4806012443  -0.0313807408   0.0164171675  -0.0750179367
        0.0004163698   0.0210304661   0.0139298115  -0.0044354283  -0.0023197046
       -0.0032106984   0.0045794789   0.0011780128   0.0001258958  -0.0038980281
        0.0001892429   0.0002328781   0.0011324602  -0.0017612215  -0.0006638582
        0.0000090424   0.0001417677   0.0002223758   0.0005332615  -0.0010924399
       -0.0002906069   0.0001678448   0.0000406324  -0.0000948664  -0.0016941533
        0.0007584601   0.0004741235   0.0015231743   0.0011793082   0.0003385648
       -0.0018746325   0.0002785013  -0.0001737744   0.0008102384   0.0006571831
        0.0004863919  -0.0002608858   0.0005223730  -0.0000895845   0.0001873024
       -0.0004842284   0.0000239051  -0.0004181025   0.0000968187  -0.0000299379
        0.0001518221   0.0001139432   0.0000126333  -0.0001370796   0.0001031561
        0.0000092243   0.0001386095  -0.0003937328   0.0000588614  -0.0011448286
        0.0007997255   0.0001182934   0.0001912115   0.0000293056  -0.0000742005
       -0.0006877655   0.0003705900  -0.0000751888   0.0014254012  -0.0000818209
       -0.0000134159  -0.0010751754  -0.0009834189  -0.0001470551   0.0026689466
        0.0010937810   0.0000818924  -0.0043917071   0.0005385837   0.0000511167
        0.0067286903  -0.0177276013  -0.0055651398  -0.0340020210   0.0063541257
       -0.0426403499  -0.1215561491   0.0527623085  -0.1765004367   0.0080883874
       -0.0208882994  -0.0017329497   0.0004422422   0.0009263026  -0.0005199694
        0.0000191922  -0.0000054918   0.0000260093  -0.0000272599  -0.0000142753
       -0.0000347083   0.0000360245  -0.0000586677  -0.0000438040  -0.0000143779
       -0.0000215052  -0.0000041618  -0.0000081398   0.0000036340  -0.0000128158
       -0.0000077193   0.0000080270  -0.0000176409  -0.0000113003   0.0000071284
        0.0000038817   0.0000077120  -0.0000168014  -0.0000301843   0.0000209052
       -0.0000107449   0.0000262003  -0.0000521559  -0.0000378275   0.0000455818
       -0.0000986050  -0.0000040538   0.0002551560   0.0005851767  -0.0002640549
        0.0001755236  -0.0053864910   0.0000503066  -0.0012155520
       -0.0022824831   0.0036406752   0.0007382014   0.0073165670  -0.0078244251
       -0.0037546543   0.0154703547   0.0166308193   0.0294104846  -0.1009769319
        0.0864388426  -0.0313807408   0.3153836594  -0.1405522449   0.2062079792
       -0.1376361988   0.0470578793  -0.0968085001  -0.0143184014   0.0227847586
       -0.0116632345   0.0055884666  -0.0006576540  -0.0014069193  -0.0061749252
       -0.0014436857   0.0000718664   0.0037269155  -0.0006684171   0.0000085927
       -0.0029361180  -0.0026049061  -0.0010628096   0.0013354911   0.0014489682
        0.0002891119   0.0002428925  -0.0000840207   0.0000412159  -0.0019906147
        0.0005291447   0.0005318010   0.0025403319   0.0027860129   0.0008837884
       -0.0033200660  -0.0000140975  -0.0005637821   0.0019033564   0.0012529432
        0.0010617894  -0.0006908881   0.0012483476  -0.0002718495   0.0006293189
       -0.0012615674   0.0000187070  -0.0011599778   0.0003348775  -0.0000707645
        0.0003538800   0.0003795539   0.0000503169  -0.0004600539   0.0002306891
        0.0000104331   0.0004005252  -0.0011165572   0.0000503520  -0.0033837554
        0.0023725538   0.0000703105   0.0006552921   0.0008057229  -0.0001834194
       -0.0016227313   0.0004787326  -0.0001344280   0.0033301714  -0.0004755546
       -0.0005021869  -0.0014257750  -0.0032249787   0.0001032029   0.0065662798
        0.0031348579  -0.0000934254  -0.0064826725  -0.0004769306   0.0005822908
       -0.0065882418  -0.0300827499  -0.0317594084  -0.0165461702   0.0183266103
       -0.0070465702  -0.0083503131   0.0181109657  -0.0015754290  -0.0516958507
       -0.0360440596  -0.0498590103  -0.0000719011  -0.0012480016   0.0008938011
        0.0000092677  -0.0000156498  -0.0000652618  -0.0000218507  -0.0000107927
       -0.0000719808   0.0000540642  -0.0000750614  -0.0001880756  -0.0000261709