48
 energy: -80.976721640676 gnorm: 0.000162525260 xtb: 6.7.1 (edcfbbe)
N            4.93577308358876       -5.04103913180014       -0.25331959928801
C            4.17543633568650       -4.18503434072785       -0.20616777211411
C            3.23456880171322       -3.13014795232114       -0.15211039277887
C            3.23128279777587       -2.25367118908792        0.93378242658037
C            2.31185838325557       -1.22600438191919        0.98356829719334
C            1.39030528333130       -1.06737460496746       -0.04860767262468
N            0.48158640748806        0.00251840321783       -0.01088288799232
C            0.82752863097149        1.33988036118532       -0.02111804044869
C            2.18422879970281        1.85702294735121       -0.07583261594710
C            2.44249226258014        3.06671886060703        0.57294965739144
C            3.70436315565714        3.62327558711736        0.55413550352633
C            4.71998581673149        2.96921754952669       -0.12519321247144
Br           6.46992087123329        3.71948035487238       -0.14518869641359
C            4.48173113887016        1.78346573971476       -0.79904331610764
C            3.21479130394058        1.23232697067160       -0.77732118097116
N           -0.22401427112276        2.11737872904262        0.00624422086296
C           -1.30374903524369        1.29463793752256        0.02955778424985
C           -2.67880272171660        1.66081429045614        0.01990023644466
C           -3.07055390915095        3.00254339700683       -0.02570823506321
C           -4.40184182612853        3.33319958217762       -0.07157724052728
C           -5.35852823194673        2.32010343693138       -0.07675043578976
C           -4.98391048169717        0.99771200628841       -0.02589943717720
C           -3.63378597225888        0.61919403987878        0.03207206289984
C           -3.20552814156044       -0.76618612376089        0.12473125345334
C           -4.13075200664458       -1.81491028612286        0.22455561165963
C           -3.73771046465116       -3.12511654168788        0.36145483497360
C           -2.38557197724757       -3.44529009155884        0.42517404276856
C           -1.44663402518617       -2.44882559588433        0.32196966943015
C           -1.82548383544837       -1.10996302570064        0.14883774937093
C           -0.89586921274779       -0.03786549592726        0.03276600654675
C            1.39456916241540       -1.94132479080715       -1.13576360645205
C            2.31085971760195       -2.97047062635419       -1.18739952962435
H            3.94702037633766       -2.38642112483501        1.73086223189859
H            2.29903851327785       -0.54047135249255        1.81748469184556
H            1.63324472233762        3.55855865510480        1.08869356587355
H            3.90211977381846        4.55488400186455        1.06143140251587
H            5.27758905141215        1.29829682817826       -1.34303872099091
H            3.03213217957643        0.32661884087667       -1.33468113661004
H           -2.29717997275247        3.75473384498695       -0.03140942215061
H           -4.70999612773872        4.36739521132456       -0.10902452702573
H           -6.40734253618719        2.57533698095981       -0.12117667553222
H           -5.76006691261040        0.24925625061463       -0.03544078549104
H           -5.18685718975918       -1.60077475108842        0.20542397631747
H           -4.48022343831887       -3.90561539667959        0.43535673597486
H           -2.07453984010266       -4.47042707070855        0.56037024454027
H           -0.40064289665966       -2.70131568466353        0.39581457581235
H            0.67498369869298       -1.80476206385100       -1.92949907447230
H            2.32217175888304       -3.65156018451653       -2.02498156805791
