      -----------------------------------------------------------      
     |                   =====================                   |     
     |                           x T B                           |     
     |                   =====================                   |     
     |                         S. Grimme                         |     
     |          Mulliken Center for Theoretical Chemistry        |     
     |                    University of Bonn                     |     
      -----------------------------------------------------------      

   * xtb version 6.7.1 (edcfbbe) compiled by 'albert@albert-system' on 2024-07-22

   xtb is free software: you can redistribute it and/or modify it under
   the terms of the GNU Lesser General Public License as published by
   the Free Software Foundation, either version 3 of the License, or
   (at your option) any later version.
   
   xtb is distributed in the hope that it will be useful,
   but WITHOUT ANY WARRANTY; without even the implied warranty of
   MERCHANTABILITY or FITNESS FOR A PARTICULAR PURPOSE.  See the
   GNU Lesser General Public License for more details.
   
   Cite this work as:
   * C. Bannwarth, E. Caldeweyher, S. Ehlert, A. Hansen, P. Pracht,
     J. Seibert, S. Spicher, S. Grimme, WIREs Comput. Mol. Sci., 2020, 11,
     e01493. DOI: 10.1002/wcms.1493
   
   for GFN2-xTB:
   * C. Bannwarth, S. Ehlert and S. Grimme., J. Chem. Theory Comput., 2019,
     15, 1652-1671. DOI: 10.1021/acs.jctc.8b01176
   for GFN1-xTB:
   * S. Grimme, C. Bannwarth, P. Shushkov, J. Chem. Theory Comput., 2017,
     13, 1989-2009. DOI: 10.1021/acs.jctc.7b00118
   for GFN0-xTB:
   * P. Pracht, E. Caldeweyher, S. Ehlert, S. Grimme, ChemRxiv, 2019, preprint.
     DOI: 10.26434/chemrxiv.8326202.v1
   for GFN-FF:
   * S. Spicher and S. Grimme, Angew. Chem. Int. Ed., 2020, 59, 15665-15673.
     DOI: 10.1002/anie.202004239
   
   for ALPB and GBSA implicit solvation:
   * S. Ehlert, M. Stahn, S. Spicher, S. Grimme, J. Chem. Theory Comput.,
     2021, 17, 4250-4261. DOI: 10.1021/acs.jctc.1c00471
   
   for ddCOSMO and CPCM-X implicit solvation:
   * M. Stahn, S. Ehlert, S. Grimme, J. Phys. Chem. A,
     2023, XX, XXXX-XXXX. DOI: 10.1021/acs.jpca.3c04382
   
   for DFT-D4:
   * E. Caldeweyher, C. Bannwarth and S. Grimme, J. Chem. Phys., 2017,
     147, 034112. DOI: 10.1063/1.4993215
   * E. Caldeweyher, S. Ehlert, A. Hansen, H. Neugebauer, S. Spicher,
     C. Bannwarth and S. Grimme, J. Chem. Phys., 2019, 150, 154122.
     DOI: 10.1063/1.5090222
   * E. Caldeweyher, J.-M. Mewes, S. Ehlert and S. Grimme, Phys. Chem. Chem. Phys.
     2020, 22, 8499-8512. DOI: 10.1039/D0CP00502A
   
   for sTDA-xTB:
   * S. Grimme and C. Bannwarth, J. Chem. Phys., 2016, 145, 054103.
     DOI: 10.1063/1.4959605
   
   in the mass-spec context:
   * V. Asgeirsson, C. Bauer and S. Grimme, Chem. Sci., 2017, 8, 4879.
     DOI: 10.1039/c7sc00601b
   * J. Koopman and S. Grimme, ACS Omega 2019, 4, 12, 15120-15133.
     DOI: 10.1021/acsomega.9b02011
   
   for metadynamics refer to:
   * S. Grimme, J. Chem. Theory Comput., 2019, 155, 2847-2862
     DOI: 10.1021/acs.jctc.9b00143
   
   for SPH calculations refer to:
   * S. Spicher and S. Grimme, J. Chem. Theory Comput., 2021, 17, 1701-1714
     DOI: 10.1021/acs.jctc.0c01306
   
   for ONIOM refer to:
   * C. Plett, A. Katbashev, S. Ehlert, S. Grimme, M. Bursch,
     Phys. Chem. Chem. Phys., 2023, 25, 17860-17868. DOI: 10.1039/D3CP02178E
   
   for DIPRO refer to:
   * J. Kohn, N. Gildemeister, S. Grimme, D. Fazzi, A. Hansen,
     J. Chem. Phys., 2023, just accepted.
   
   for PTB refer to:
   * S. Grimme, M. Mueller, A. Hansen, J. Chem. Phys., 2023, 158, 124111.
     DOI: 10.1063/5.0137838
   
   with help from (in alphabetical order)
   P. Atkinson, C. Bannwarth, F. Bohle, G. Brandenburg, E. Caldeweyher
   M. Checinski, S. Dohm, S. Ehlert, S. Ehrlich, I. Gerasimov, C. Hölzer
   A. Katbashev, J. Kohn, J. Koopman, C. Lavigne, S. Lehtola, F. März, M. Müller,
   F. Musil, H. Neugebauer, J. Pisarek, C. Plett, P. Pracht, F. Pultar,
   J. Seibert, P. Shushkov, S. Spicher, M. Stahn, M. Steiner, T. Strunk,
   J. Stückrath, T. Rose, and J. Unsleber
   
 * started run on 2025/09/11 at 05:24:05.367     
   ID    Z sym.   atoms
    1    6 C      1-4, 6-17, 19-30, 32-37, 39-46
    2    7 N      5, 18, 38
    3    5 B      31
    4    1 H      47-76

           -------------------------------------------------
          |                Calculation Setup                |
           -------------------------------------------------

          program call               : xtb data2507/toluene/PAB/PAB_toluene_T1_crest.xyz --gfn 2 --uhf 2 --gbsa toluene --ohess vtight --parallel 40 --molden --ceasefiles --namespace data2507/toluene/PAB/PAB_toluene_T1_finalOpt
          calculation namespace      : data2507/toluene/PAB/PAB_toluene_T1_finalOpt
          coordinate file            : data2507/toluene/PAB/PAB_toluene_T1_crest.xyz
          omp threads                :                    40


           -------------------------------------------------
          |                 G F N 2 - x T B                 |
           -------------------------------------------------

        Reference                      10.1021/acs.jctc.8b01176
      * Hamiltonian:
        H0-scaling (s, p, d)           1.850000    2.230000    2.230000
        zeta-weighting                 0.500000
      * Dispersion:
        s8                             2.700000
        a1                             0.520000
        a2                             5.000000
        s9                             5.000000
      * Repulsion:
        kExp                           1.500000    1.000000
        rExp                           1.000000
      * Coulomb:
        alpha                          2.000000
        third order                    shell-resolved
        anisotropic                    true
        a3                             3.000000
        a5                             4.000000
        cn-shift                       1.200000
        cn-exp                         4.000000
        max-rad                        5.000000

      * Solvation model:               GBSA
        Solvent                        toluene
        Parameter file                 internal GFN2-xTB/GBSA
        Dielectric constant                7.0000E+00
        Reference state                gsolv [1 M gas/solution]
        Free energy shift                  4.5239E-03 Eh       2.8388E+00 kcal/mol
        Temperature                        2.9815E+02 K
        Density                            8.6700E-01 kg/L
        Solvent mass                       9.2140E+01 g/mol
        Interaction kernel             Still
        Born radius scaling (c1)           1.5686E+00
        Born radii integrator          GBOBC
        Born offset                        0.0000E+00 a0       0.0000E+00 AA
        H-bond correction              false
        Ion screening                  false
        Surface tension                    1.0000E-05 Eh       1.5569E+01 dyn/cm
        Grid points                               230 per atom

          ...................................................
          :                      SETUP                      :
          :.................................................:
          :  # basis functions                 214          :
          :  # atomic orbitals                 214          :
          :  # shells                          122          :
          :  # electrons                       216          :
          :  max. iterations                   250          :
          :  Hamiltonian                  GFN2-xTB          :
          :  restarted?                      false          :
          :  GBSA solvation                   true          :
          :  PC potential                    false          :
          :  electronic temp.          300.0000000     K    :
          :  accuracy                    1.0000000          :
          :  -> integral cutoff          0.2500000E+02      :
          :  -> integral neglect         0.1000000E-07      :
          :  -> SCF convergence          0.1000000E-05 Eh   :
          :  -> wf. convergence          0.1000000E-03 e    :
          :  Broyden damping             0.4000000          :
          :  net charge                          0          :
          :  unpaired electrons                  2          :
          ...................................................

 iter      E             dE          RMSdq      gap      omega  full diag
   1   -117.1171484 -0.117117E+03  0.462E+00    0.66       0.0  T
   2   -117.1186850 -0.153664E-02  0.321E+00    0.27       1.0  T
   3   -117.0002753  0.118410E+00  0.224E+00    1.14       1.0  T
   4   -117.3384508 -0.338176E+00  0.749E-01    0.45       1.0  T
   5   -117.3691344 -0.306836E-01  0.357E-01    0.48       1.0  T
   6   -117.3781871 -0.905275E-02  0.324E-01    0.37       1.0  T
   7   -117.3827895 -0.460232E-02  0.206E-01    0.36       1.0  T
   8   -117.3845022 -0.171271E-02  0.108E-01    0.41       1.0  T
   9   -117.3845221 -0.199718E-04  0.948E-02    0.42       1.0  T
  10   -117.3855417 -0.101959E-02  0.341E-02    0.41       1.0  T
  11   -117.3855817 -0.399161E-04  0.203E-02    0.41       1.0  T
  12   -117.3855968 -0.151037E-04  0.134E-02    0.41       1.0  T
  13   -117.3856076 -0.108561E-04  0.788E-03    0.41       1.5  T
  14   -117.3856130 -0.536029E-05  0.968E-04    0.41      11.8  T
  15   -117.3856130 -0.249551E-07  0.605E-04    0.41      19.0  T
  16   -117.3856130 -0.211096E-07  0.242E-04    0.41      47.4  T

   *** convergence criteria satisfied after 16 iterations ***

         #    Occupation            Energy/Eh            Energy/eV
      -------------------------------------------------------------
         1        2.0000           -0.6683637             -18.1871
       ...           ...                  ...                  ...
       103        2.0000           -0.3845993             -10.4655
       104        2.0000           -0.3741068             -10.1800
       105        2.0000           -0.3701836             -10.0732
       106        2.0000           -0.3605320              -9.8106
       107        1.8513           -0.3502073              -9.5296
       108        1.1487           -0.3468923              -9.4394
       109        0.9996           -0.2506499              -6.8205 (HOMO)
       110        0.0004           -0.2356438              -6.4122 (LUMO)
       111        0.0000           -0.2328062              -6.3350
       112        0.0000           -0.2320358              -6.3140
       113        0.0000           -0.2315290              -6.3002
       114        0.0000           -0.2312192              -6.2918
       ...           ...                  ...                  ...
       214                          0.7286772              19.8283
      -------------------------------------------------------------
                  HL-Gap            0.0150061 Eh            0.4083 eV
             Fermi-level           -0.2958700 Eh           -8.0510 eV
 
 transition dipole moment (au) for excitation:         108         109
     X       Y       Z   
  -0.1589  -2.0581  -0.2444  total (au/Debye):    2.079   5.284
 dE (eV)             :    2.619
 oscillator strength :  0.39207E+00

 SCC (total)                   0 d,  0 h,  0 min,  0.283 sec
 SCC setup                      ...        0 min,  0.011 sec (  3.914%)
 Dispersion                     ...        0 min,  0.003 sec (  1.089%)
 classical contributions        ...        0 min,  0.000 sec (  0.086%)
 integral evaluation            ...        0 min,  0.008 sec (  2.652%)
 iterations                     ...        0 min,  0.223 sec ( 78.785%)
 molecular gradient             ...        0 min,  0.011 sec (  3.997%)
 printout                       ...        0 min,  0.027 sec (  9.442%)

         :::::::::::::::::::::::::::::::::::::::::::::::::::::
         ::                     SUMMARY                     ::
         :::::::::::::::::::::::::::::::::::::::::::::::::::::
         :: total energy            -115.239717422721 Eh    ::
         :: total w/o Gsasa/hb      -115.197476888169 Eh    ::
         :: gradient norm              0.004335829765 Eh/a0 ::
         :: HOMO-LUMO gap              0.408336994798 eV    ::
         ::.................................................::
         :: SCC energy              -117.383882401966 Eh    ::
         :: -> isotropic ES            0.035521528559 Eh    ::
         :: -> anisotropic ES          0.013308980815 Eh    ::
         :: -> anisotropic XC          0.066182704233 Eh    ::
         :: -> dispersion             -0.115219569198 Eh    ::
         :: -> Gsolv                  -0.044124154566 Eh    ::
         ::    -> Gelec               -0.001883620013 Eh    ::
         ::    -> Gsasa               -0.046764414424 Eh    ::
         ::    -> Ghb                  0.000000000000 Eh    ::
         ::    -> Gshift               0.004523879872 Eh    ::
         :: repulsion energy           2.144164979244 Eh    ::
         :: add. restraining           0.000000000000 Eh    ::
         :: total charge              -0.000000000000 e     ::
         :::::::::::::::::::::::::::::::::::::::::::::::::::::

      ----------------------------------------------------------- 
     |                   =====================                   |
     |                        A N C O P T                        |
     |                   =====================                   |
     |               Approximate Normal Coordinate               |
     |                Rational Function Optimizer                |
      ----------------------------------------------------------- 

Optimization log is written to '/dev/null'
      ----------------------------------------------------------- 
     |                   =====================                   |
     |                        A N C O P T                        |
     |                   =====================                   |
     |               Approximate Normal Coordinate               |
     |                Rational Function Optimizer                |
      ----------------------------------------------------------- 

          ...................................................
          :                      SETUP                      :
          :.................................................:
          :   optimization level         verytight          :
          :   max. optcycles                  1520          :
          :   ANC micro-cycles                  20          :
          :   degrees of freedom               222          :
          :.................................................:
          :   RF solver                   davidson          :
          :   write xtbopt.log                true          :
          :   linear?                        false          :
          :   energy convergence         0.1000000E-06 Eh   :
          :   grad. convergence          0.2000000E-03 Eh/α :
          :   maxmium RF displ.          1.0000000          :
          :   Hlow (freq-cutoff)         0.1000000E-01      :
          :   Hmax (freq-cutoff)         5.0000000          :
          :   S6 in model hess.         20.0000000          :
          ...................................................

generating ANC from exact Hessian ...
Using Lindh-Hessian (1995)
 Shifting diagonal of input Hessian by   9.850500823145550E-003
 Lowest  eigenvalues of input Hessian
    0.000000    0.000000    0.000000    0.000000    0.000000    0.000000
    0.010000    0.010040    0.010138    0.010407    0.010435    0.010755
    0.011219    0.011264    0.011368    0.011517    0.011671    0.011840
 Highest eigenvalues
    2.096030    2.115122    2.122985    2.140931    2.174337    2.183152
 

........................................................................
.............................. CYCLE    1 ..............................
........................................................................

 iter      E             dE          RMSdq      gap      omega  full diag
   1   -117.3856130 -0.117386E+03  0.153E-04    0.41       0.0  T
   2   -117.3856130  0.773308E-08  0.304E-04    0.41      37.7  T
   3   -117.3856130 -0.954292E-08  0.613E-05    0.41     187.1  T
     SCC iter.                  ...        0 min,  0.030 sec
     gradient                   ...        0 min,  0.011 sec
 * total energy  :  -115.2397174 Eh     change       -0.3364264E-08 Eh
   gradient norm :     0.0043362 Eh/α   predicted     0.0000000E+00 (-100.00%)
   displ. norm   :     0.0594740 α      lambda       -0.6340715E-04
   maximum displ.:     0.0388142 α      in ANC's #12, #34, #10, ...

........................................................................
.............................. CYCLE    2 ..............................
........................................................................

 iter      E             dE          RMSdq      gap      omega  full diag
   1   -117.3819094 -0.117382E+03  0.160E-02    0.41       0.0  T
   2   -117.3819102 -0.730372E-06  0.988E-03    0.41       1.2  T
   3   -117.3819021  0.808662E-05  0.953E-03    0.41       1.2  T
   4   -117.3819069 -0.478140E-05  0.603E-03    0.41       1.9  T
   5   -117.3819107 -0.385419E-05  0.768E-04    0.41      14.9  T
   6   -117.3819107 -0.331913E-07  0.500E-04    0.41      22.9  T
   7   -117.3819108 -0.300405E-07  0.138E-04    0.41      83.0  T
     SCC iter.                  ...        0 min,  0.064 sec
     gradient                   ...        0 min,  0.011 sec
 * total energy  :  -115.2397792 Eh     change       -0.6178504E-04 Eh
   gradient norm :     0.0021906 Eh/α   predicted    -0.3932062E-04 ( -36.36%)
   displ. norm   :     0.1360490 α      lambda       -0.9856353E-04
   maximum displ.:     0.0952214 α      in ANC's #12, #10, #13, ...

........................................................................
.............................. CYCLE    3 ..............................
........................................................................

 iter      E             dE          RMSdq      gap      omega  full diag
   1   -117.3772841 -0.117377E+03  0.335E-02    0.42       0.0  T
   2   -117.3772865 -0.240935E-05  0.200E-02    0.41       1.0  T
   3   -117.3772697  0.167609E-04  0.142E-02    0.41       1.0  T
   4   -117.3772769 -0.719320E-05  0.988E-03    0.41       1.2  T
   5   -117.3772872 -0.103278E-04  0.167E-03    0.41       6.9  T
   6   -117.3772875 -0.244085E-06  0.975E-04    0.41      11.8  T
   7   -117.3772876 -0.113537E-06  0.272E-04    0.41      42.2  T
     SCC iter.                  ...        0 min,  0.062 sec
     gradient                   ...        0 min,  0.011 sec
 * total energy  :  -115.2398469 Eh     change       -0.6765019E-04 Eh
   gradient norm :     0.0016303 Eh/α   predicted    -0.5019516E-04 ( -25.80%)
   displ. norm   :     0.1730838 α      lambda       -0.4977565E-04
   maximum displ.:     0.1173274 α      in ANC's #12, #10, #13, ...

........................................................................
.............................. CYCLE    4 ..............................
........................................................................

 iter      E             dE          RMSdq      gap      omega  full diag
   1   -117.3758008 -0.117376E+03  0.422E-02    0.42       0.0  T
   2   -117.3758019 -0.112643E-05  0.248E-02    0.41       1.0  T
   3   -117.3757956  0.628036E-05  0.752E-03    0.41       1.5  T
   4   -117.3757995 -0.391978E-05  0.464E-03    0.41       2.5  T
   5   -117.3758022 -0.263784E-05  0.135E-03    0.41       8.5  T
   6   -117.3758023 -0.110909E-06  0.704E-04    0.41      16.3  T
   7   -117.3758023 -0.399609E-07  0.286E-04    0.41      40.1  T
     SCC iter.                  ...        0 min,  0.062 sec
     gradient                   ...        0 min,  0.011 sec
 * total energy  :  -115.2399078 Eh     change       -0.6098857E-04 Eh
   gradient norm :     0.0029132 Eh/α   predicted    -0.2522317E-04 ( -58.64%)
   displ. norm   :     0.1585316 α      lambda       -0.7082355E-04
   maximum displ.:     0.0985740 α      in ANC's #12, #10, #13, ...

........................................................................
.............................. CYCLE    5 ..............................
........................................................................

 iter      E             dE          RMSdq      gap      omega  full diag
   1   -117.3769789 -0.117377E+03  0.384E-02    0.41       0.0  T
   2   -117.3769791 -0.205705E-06  0.225E-02    0.41       1.0  T
   3   -117.3769739  0.526527E-05  0.658E-03    0.41       1.7  T
   4   -117.3769782 -0.435188E-05  0.330E-03    0.41       3.5  T
   5   -117.3769794 -0.113870E-05  0.665E-04    0.41      17.2  T
   6   -117.3769794 -0.161472E-07  0.443E-04    0.41      25.9  T
   7   -117.3769794 -0.143626E-07  0.199E-04    0.41      57.8  T
     SCC iter.                  ...        0 min,  0.062 sec
     gradient                   ...        0 min,  0.011 sec
 * total energy  :  -115.2399718 Eh     change       -0.6399621E-04 Eh
   gradient norm :     0.0024981 Eh/α   predicted    -0.3630503E-04 ( -43.27%)
   displ. norm   :     0.3286873 α      lambda       -0.1279898E-03
   maximum displ.:     0.1986566 α      in ANC's #12, #10, #13, ...

........................................................................
.............................. CYCLE    6 ..............................
........................................................................

 iter      E             dE          RMSdq      gap      omega  full diag
   1   -117.3788887 -0.117379E+03  0.792E-02    0.41       0.0  T
   2   -117.3788899 -0.118836E-05  0.465E-02    0.40       1.0  T
   3   -117.3788805  0.940356E-05  0.102E-02    0.41       1.1  T
   4   -117.3788886 -0.808132E-05  0.435E-03    0.40       2.6  T
   5   -117.3788907 -0.215814E-05  0.108E-03    0.40      10.6  T
   6   -117.3788907 -0.333594E-07  0.766E-04    0.40      15.0  T
   7   -117.3788908 -0.133385E-07  0.529E-04    0.40      21.7  T
     SCC iter.                  ...        0 min,  0.063 sec
     gradient                   ...        0 min,  0.011 sec
 * total energy  :  -115.2400755 Eh     change       -0.1036460E-03 Eh
   gradient norm :     0.0015040 Eh/α   predicted    -0.7091077E-04 ( -31.58%)
   displ. norm   :     0.6129601 α      lambda       -0.1072053E-03
   maximum displ.:     0.3666714 α      in ANC's #12, #10, #13, ...

........................................................................
.............................. CYCLE    7 ..............................
........................................................................

 iter      E             dE          RMSdq      gap      omega  full diag
   1   -117.3789695 -0.117379E+03  0.146E-01    0.40       0.0  T
   2   -117.3789727 -0.323511E-05  0.859E-02    0.39       1.0  T
   3   -117.3789300  0.427786E-04  0.235E-02    0.39       1.0  T
   4   -117.3789651 -0.351371E-04  0.979E-03    0.39       1.2  T
   5   -117.3789750 -0.992749E-05  0.242E-03    0.39       4.7  T
   6   -117.3789755 -0.431657E-06  0.161E-03    0.39       7.1  T
   7   -117.3789756 -0.170395E-06  0.773E-04    0.39      14.8  T
   8   -117.3789757 -0.264765E-07  0.443E-04    0.39      25.9  T
     SCC iter.                  ...        0 min,  0.072 sec
     gradient                   ...        0 min,  0.010 sec
 * total energy  :  -115.2401808 Eh     change       -0.1053321E-03 Eh
   gradient norm :     0.0036039 Eh/α   predicted    -0.6255448E-04 ( -40.61%)
   displ. norm   :     0.2990438 α      lambda       -0.6406697E-04
   maximum displ.:     0.1770067 α      in ANC's #12, #10, #2, ...

........................................................................
.............................. CYCLE    8 ..............................
........................................................................

 iter      E             dE          RMSdq      gap      omega  full diag
   1   -117.3797355 -0.117380E+03  0.691E-02    0.39       0.0  T
   2   -117.3797360 -0.500927E-06  0.406E-02    0.39       1.0  T
   3   -117.3796916  0.443546E-04  0.218E-02    0.39       1.0  T
   4   -117.3797335 -0.419464E-04  0.545E-03    0.39       2.1  T
   5   -117.3797370 -0.347010E-05  0.132E-03    0.39       8.7  T
   6   -117.3797371 -0.131111E-06  0.800E-04    0.39      14.3  T
   7   -117.3797372 -0.419716E-07  0.368E-04    0.39      31.1  T
     SCC iter.                  ...        0 min,  0.063 sec
     gradient                   ...        0 min,  0.010 sec
 * total energy  :  -115.2402333 Eh     change       -0.5244638E-04 Eh
   gradient norm :     0.0032227 Eh/α   predicted    -0.3489901E-04 ( -33.46%)
   displ. norm   :     0.3785710 α      lambda       -0.7850069E-04
   maximum displ.:     0.2175711 α      in ANC's #12, #10, #2, ...

........................................................................
.............................. CYCLE    9 ..............................
........................................................................

 iter      E             dE          RMSdq      gap      omega  full diag
   1   -117.3804530 -0.117380E+03  0.860E-02    0.39       0.0  T
   2   -117.3804536 -0.591865E-06  0.506E-02    0.39       1.0  T
   3   -117.3803376  0.116043E-03  0.344E-02    0.39       1.0  T
   4   -117.3804502 -0.112583E-03  0.712E-03    0.39       1.6  T
   5   -117.3804561 -0.593205E-05  0.155E-03    0.39       7.4  T
   6   -117.3804563 -0.149498E-06  0.101E-03    0.39      11.3  T
   7   -117.3804563 -0.718155E-07  0.464E-04    0.39      24.7  T
   8   -117.3804563 -0.383631E-08  0.314E-04    0.39      36.6  T
     SCC iter.                  ...        0 min,  0.074 sec
     gradient                   ...        0 min,  0.010 sec
 * total energy  :  -115.2402955 Eh     change       -0.6220973E-04 Eh
   gradient norm :     0.0019543 Eh/α   predicted    -0.4487620E-04 ( -27.86%)
   displ. norm   :     0.7442534 α      lambda       -0.6868299E-04
   maximum displ.:     0.4181016 α      in ANC's #12, #10, #2, ...

........................................................................
.............................. CYCLE   10 ..............................
........................................................................

 iter      E             dE          RMSdq      gap      omega  full diag
   1   -117.3755824 -0.117376E+03  0.169E-01    0.38       0.0  T
   2   -117.3755847 -0.236123E-05  0.994E-02    0.37       1.0  T
   3   -117.3752466  0.338150E-03  0.600E-02    0.37       1.0  T
   4   -117.3755717 -0.325061E-03  0.129E-02    0.37       1.0  T
   5   -117.3755913 -0.196509E-04  0.320E-03    0.37       3.6  T
   6   -117.3755922 -0.853062E-06  0.160E-03    0.37       7.1  T
   7   -117.3755923 -0.163095E-06  0.786E-04    0.37      14.6  T
   8   -117.3755923  0.106902E-07  0.585E-04    0.37      19.6  T
     SCC iter.                  ...        0 min,  0.072 sec
     gradient                   ...        0 min,  0.010 sec
 * total energy  :  -115.2403344 Eh     change       -0.3895309E-04 Eh
   gradient norm :     0.0036047 Eh/α   predicted    -0.4279625E-04 (   9.87%)
   displ. norm   :     0.0689664 α      lambda       -0.7208956E-04
   maximum displ.:     0.0399223 α      in ANC's #12, #13, #6, ...

........................................................................
.............................. CYCLE   11 ..............................
........................................................................

 iter      E             dE          RMSdq      gap      omega  full diag
   1   -117.3807937 -0.117381E+03  0.203E-02    0.39       0.0  T
   2   -117.3807938 -0.112703E-06  0.125E-02    0.38       1.0  T
   3   -117.3807784  0.153640E-04  0.110E-02    0.39       1.0  T
   4   -117.3807915 -0.130504E-04  0.542E-03    0.38       2.1  T
   5   -117.3807944 -0.293088E-05  0.125E-03    0.38       9.2  T
   6   -117.3807945 -0.125791E-06  0.445E-04    0.38      25.8  T
   7   -117.3807945 -0.119213E-07  0.262E-04    0.38      43.7  T
     SCC iter.                  ...        0 min,  0.062 sec
     gradient                   ...        0 min,  0.011 sec
 * total energy  :  -115.2403660 Eh     change       -0.3156082E-04 Eh
   gradient norm :     0.0019411 Eh/α   predicted    -0.3621816E-04 (  14.76%)
   displ. norm   :     0.0585080 α      lambda       -0.1623779E-04
   maximum displ.:     0.0392443 α      in ANC's #10, #2, #7, ...

........................................................................
.............................. CYCLE   12 ..............................
........................................................................

 iter      E             dE          RMSdq      gap      omega  full diag
   1   -117.3807251 -0.117381E+03  0.128E-02    0.38       0.0  T
   2   -117.3807250  0.144551E-06  0.771E-03    0.38       1.5  T
   3   -117.3807159  0.908981E-05  0.941E-03    0.38       1.2  T
   4   -117.3807251 -0.916597E-05  0.138E-03    0.38       8.3  T
   5   -117.3807253 -0.198183E-06  0.519E-04    0.38      22.1  T
   6   -117.3807253 -0.267480E-07  0.200E-04    0.38      57.5  T
     SCC iter.                  ...        0 min,  0.054 sec
     gradient                   ...        0 min,  0.010 sec
 * total energy  :  -115.2403870 Eh     change       -0.2102041E-04 Eh
   gradient norm :     0.0009147 Eh/α   predicted    -0.8136509E-05 ( -61.29%)
   displ. norm   :     0.2065352 α      lambda       -0.4790868E-04
   maximum displ.:     0.1104697 α      in ANC's #10, #2, #7, ...

........................................................................
.............................. CYCLE   13 ..............................
........................................................................

 iter      E             dE          RMSdq      gap      omega  full diag
   1   -117.3814951 -0.117381E+03  0.367E-02    0.38       0.0  T
   2   -117.3814940  0.112754E-05  0.222E-02    0.38       1.0  T
   3   -117.3814338  0.601555E-04  0.258E-02    0.38       1.0  T
   4   -117.3814933 -0.594998E-04  0.507E-03    0.38       2.3  T
   5   -117.3814964 -0.306375E-05  0.200E-03    0.38       5.7  T
   6   -117.3814968 -0.435139E-06  0.690E-04    0.38      16.6  T
   7   -117.3814969 -0.380310E-07  0.337E-04    0.38      34.0  T
     SCC iter.                  ...        0 min,  0.063 sec
     gradient                   ...        0 min,  0.011 sec
 * total energy  :  -115.2404398 Eh     change       -0.5275961E-04 Eh
   gradient norm :     0.0017366 Eh/α   predicted    -0.2441100E-04 ( -53.73%)
   displ. norm   :     0.2746912 α      lambda       -0.4204896E-04
   maximum displ.:     0.1634984 α      in ANC's #10, #2, #7, ...

........................................................................
.............................. CYCLE   14 ..............................
........................................................................

 iter      E             dE          RMSdq      gap      omega  full diag
   1   -117.3813140 -0.117381E+03  0.489E-02    0.37       0.0  T
   2   -117.3813137  0.323825E-06  0.289E-02    0.37       1.0  T
   3   -117.3812727  0.409133E-04  0.207E-02    0.37       1.0  T
   4   -117.3813137 -0.409854E-04  0.345E-03    0.37       3.3  T
   5   -117.3813149 -0.115784E-05  0.177E-03    0.37       6.5  T
   6   -117.3813152 -0.347094E-06  0.569E-04    0.37      20.2  T
   7   -117.3813152 -0.153339E-07  0.364E-04    0.37      31.5  T
     SCC iter.                  ...        0 min,  0.064 sec
     gradient                   ...        0 min,  0.011 sec
 * total energy  :  -115.2404880 Eh     change       -0.4820557E-04 Eh
   gradient norm :     0.0029203 Eh/α   predicted    -0.2173046E-04 ( -54.92%)
   displ. norm   :     0.2653410 α      lambda       -0.5302073E-04
   maximum displ.:     0.1705787 α      in ANC's #10, #2, #7, ...

........................................................................
.............................. CYCLE   15 ..............................
........................................................................

 iter      E             dE          RMSdq      gap      omega  full diag
   1   -117.3800077 -0.117380E+03  0.489E-02    0.37       0.0  T
   2   -117.3800079 -0.223207E-06  0.288E-02    0.37       1.0  T
   3   -117.3799865  0.214179E-04  0.148E-02    0.37       1.0  T
   4   -117.3800079 -0.213462E-04  0.305E-03    0.37       3.8  T
   5   -117.3800087 -0.850089E-06  0.123E-03    0.37       9.4  T
   6   -117.3800088 -0.915298E-07  0.644E-04    0.37      17.8  T
   7   -117.3800088 -0.118163E-07  0.446E-04    0.37      25.7  T
     SCC iter.                  ...        0 min,  0.062 sec
     gradient                   ...        0 min,  0.011 sec
 * total energy  :  -115.2405306 Eh     change       -0.4264182E-04 Eh
   gradient norm :     0.0027482 Eh/α   predicted    -0.2837839E-04 ( -33.45%)
   displ. norm   :     0.3234143 α      lambda       -0.5846804E-04
   maximum displ.:     0.2091784 α      in ANC's #10, #2, #7, ...

........................................................................
.............................. CYCLE   16 ..............................
........................................................................

 iter      E             dE          RMSdq      gap      omega  full diag
   1   -117.3789669 -0.117379E+03  0.597E-02    0.37       0.0  T
   2   -117.3789665  0.381036E-06  0.353E-02    0.37       1.0  T
   3   -117.3788888  0.777666E-04  0.268E-02    0.37       1.0  T
   4   -117.3789648 -0.760082E-04  0.624E-03    0.37       1.8  T
   5   -117.3789682 -0.340495E-05  0.227E-03    0.37       5.0  T
   6   -117.3789686 -0.453175E-06  0.729E-04    0.37      15.7  T
   7   -117.3789687 -0.323592E-07  0.414E-04    0.37      27.7  T
     SCC iter.                  ...        0 min,  0.064 sec
     gradient                   ...        0 min,  0.011 sec
 * total energy  :  -115.2405760 Eh     change       -0.4540642E-04 Eh
   gradient norm :     0.0021820 Eh/α   predicted    -0.3229364E-04 ( -28.88%)
   displ. norm   :     0.2755327 α      lambda       -0.4690630E-04
   maximum displ.:     0.1784082 α      in ANC's #2, #10, #7, ...

........................................................................
.............................. CYCLE   17 ..............................
........................................................................

 iter      E             dE          RMSdq      gap      omega  full diag
   1   -117.3790165 -0.117379E+03  0.511E-02    0.37       0.0  T
   2   -117.3790158  0.740955E-06  0.303E-02    0.37       1.0  T
   3   -117.3789202  0.955402E-04  0.296E-02    0.37       1.0  T
   4   -117.3790153 -0.950075E-04  0.520E-03    0.37       2.2  T
   5   -117.3790177 -0.241079E-05  0.173E-03    0.37       6.6  T
   6   -117.3790179 -0.242438E-06  0.675E-04    0.37      17.0  T
   7   -117.3790179 -0.334206E-07  0.319E-04    0.37      36.0  T
     SCC iter.                  ...        0 min,  0.066 sec
     gradient                   ...        0 min,  0.011 sec
 * total energy  :  -115.2406112 Eh     change       -0.3516719E-04 Eh
   gradient norm :     0.0011875 Eh/α   predicted    -0.2523523E-04 ( -28.24%)
   displ. norm   :     0.3285916 α      lambda       -0.3114765E-04
   maximum displ.:     0.2183414 α      in ANC's #2, #10, #3, ...

........................................................................
.............................. CYCLE   18 ..............................
........................................................................

 iter      E             dE          RMSdq      gap      omega  full diag
   1   -117.3794663 -0.117379E+03  0.636E-02    0.37       0.0  T
   2   -117.3794633  0.303617E-05  0.379E-02    0.37       1.0  T
   3   -117.3792010  0.262314E-03  0.492E-02    0.37       1.0  T
   4   -117.3794662 -0.265289E-03  0.461E-03    0.37       2.5  T
   5   -117.3794682 -0.192953E-05  0.144E-03    0.37       8.0  T
   6   -117.3794683 -0.118671E-06  0.833E-04    0.37      13.8  T
   7   -117.3794683 -0.525751E-07  0.328E-04    0.37      34.9  T
     SCC iter.                  ...        0 min,  0.064 sec
     gradient                   ...        0 min,  0.011 sec
 * total energy  :  -115.2406403 Eh     change       -0.2906167E-04 Eh
   gradient norm :     0.0016236 Eh/α   predicted    -0.1632247E-04 ( -43.84%)
   displ. norm   :     0.1395272 α      lambda       -0.1647602E-04
   maximum displ.:     0.0918593 α      in ANC's #2, #10, #12, ...

........................................................................
.............................. CYCLE   19 ..............................
........................................................................

 iter      E             dE          RMSdq      gap      omega  full diag
   1   -117.3807213 -0.117381E+03  0.288E-02    0.37       0.0  T
   2   -117.3807203  0.941523E-06  0.173E-02    0.37       1.0  T
   3   -117.3806604  0.599334E-04  0.236E-02    0.37       1.0  T
   4   -117.3807212 -0.607685E-04  0.237E-03    0.37       4.8  T
   5   -117.3807217 -0.486272E-06  0.990E-04    0.37      11.6  T
   6   -117.3807218 -0.951590E-07  0.306E-04    0.37      37.4  T
     SCC iter.                  ...        0 min,  0.056 sec
     gradient                   ...        0 min,  0.011 sec
 * total energy  :  -115.2406546 Eh     change       -0.1433929E-04 Eh
   gradient norm :     0.0018359 Eh/α   predicted    -0.8309916E-05 ( -42.05%)
   displ. norm   :     0.1699438 α      lambda       -0.1729629E-04
   maximum displ.:     0.1034222 α      in ANC's #2, #10, #12, ...

........................................................................
.............................. CYCLE   20 ..............................
........................................................................

 iter      E             dE          RMSdq      gap      omega  full diag
   1   -117.3809880 -0.117381E+03  0.364E-02    0.36       0.0  T
   2   -117.3809877  0.259752E-06  0.215E-02    0.36       1.0  T
   3   -117.3809585  0.292109E-04  0.168E-02    0.36       1.0  T
   4   -117.3809874 -0.288271E-04  0.330E-03    0.36       3.5  T
   5   -117.3809884 -0.105783E-05  0.963E-04    0.36      11.9  T
   6   -117.3809885 -0.664241E-07  0.340E-04    0.36      33.8  T
   7   -117.3809885 -0.137801E-08  0.255E-04    0.36      45.0  T
     SCC iter.                  ...        0 min,  0.063 sec
     gradient                   ...        0 min,  0.011 sec
 * total energy  :  -115.2406726 Eh     change       -0.1805310E-04 Eh
   gradient norm :     0.0008361 Eh/α   predicted    -0.8763272E-05 ( -51.46%)
   displ. norm   :     0.1340381 α      lambda       -0.1023496E-04
   maximum displ.:     0.0879294 α      in ANC's #2, #10, #3, ...
 * RMSD in coord.:     0.4920936 α      energy gain  -0.9552265E-03 Eh

generating ANC from exact Hessian ...
Using Lindh-Hessian (1995)
 Shifting diagonal of input Hessian by   9.831771330292137E-003
 Lowest  eigenvalues of input Hessian
    0.000000    0.000000    0.000000    0.000000    0.000000    0.000000
    0.010000    0.010010    0.010113    0.010282    0.010351    0.010617
    0.011152    0.011166    0.011326    0.011402    0.011504    0.011641
 Highest eigenvalues
    2.090381    2.105395    2.115111    2.134215    2.167094    2.177226
 

........................................................................
.............................. CYCLE   21 ..............................
........................................................................

 iter      E             dE          RMSdq      gap      omega  full diag
   1   -117.3814527 -0.117381E+03  0.270E-02    0.36       0.0  T
   2   -117.3814527 -0.113518E-07  0.159E-02    0.36       1.0  T
   3   -117.3814473  0.542590E-05  0.753E-03    0.36       1.5  T
   4   -117.3814526 -0.532710E-05  0.172E-03    0.36       6.7  T
   5   -117.3814529 -0.272219E-06  0.742E-04    0.36      15.5  T
   6   -117.3814530 -0.439932E-07  0.271E-04    0.36      42.3  T
     SCC iter.                  ...        0 min,  0.057 sec
     gradient                   ...        0 min,  0.012 sec
 * total energy  :  -115.2406826 Eh     change       -0.9997448E-05 Eh
   gradient norm :     0.0010785 Eh/α   predicted     0.0000000E+00 (-100.00%)
   displ. norm   :     0.0229608 α      lambda       -0.4890652E-05
   maximum displ.:     0.0111712 α      in ANC's #3, #2, #6, ...

........................................................................
.............................. CYCLE   22 ..............................
........................................................................

 iter      E             dE          RMSdq      gap      omega  full diag
   1   -117.3809635 -0.117381E+03  0.685E-03    0.36       0.0  T
   2   -117.3809636 -0.148592E-07  0.409E-03    0.36       2.8  T
   3   -117.3809626  0.982168E-06  0.308E-03    0.36       3.7  T
   4   -117.3809634 -0.805655E-06  0.141E-03    0.36       8.2  T
   5   -117.3809636 -0.208586E-06  0.339E-04    0.36      33.8  T
   6   -117.3809636 -0.776176E-08  0.101E-04    0.36     113.1  T
     SCC iter.                  ...        0 min,  0.055 sec
     gradient                   ...        0 min,  0.010 sec
 * total energy  :  -115.2406874 Eh     change       -0.4755565E-05 Eh
   gradient norm :     0.0003052 Eh/α   predicted    -0.2451875E-05 ( -48.44%)
   displ. norm   :     0.0401258 α      lambda       -0.3970268E-05
   maximum displ.:     0.0201492 α      in ANC's #3, #2, #6, ...

........................................................................
.............................. CYCLE   23 ..............................
........................................................................

 iter      E             dE          RMSdq      gap      omega  full diag
   1   -117.3806234 -0.117381E+03  0.891E-03    0.36       0.0  T
   2   -117.3806234  0.109775E-07  0.531E-03    0.36       2.2  T
   3   -117.3806209  0.243163E-05  0.444E-03    0.36       2.6  T
   4   -117.3806233 -0.232576E-05  0.132E-03    0.36       8.7  T
   5   -117.3806234 -0.171251E-06  0.268E-04    0.36      42.8  T
   6   -117.3806234 -0.592649E-08  0.876E-05    0.36     130.9  T
     SCC iter.                  ...        0 min,  0.058 sec
     gradient                   ...        0 min,  0.010 sec
 * total energy  :  -115.2406921 Eh     change       -0.4717211E-05 Eh
   gradient norm :     0.0007179 Eh/α   predicted    -0.2001133E-05 ( -57.58%)
   displ. norm   :     0.0754855 α      lambda       -0.5720518E-05
   maximum displ.:     0.0381226 α      in ANC's #3, #2, #6, ...

........................................................................
.............................. CYCLE   24 ..............................
........................................................................

 iter      E             dE          RMSdq      gap      omega  full diag
   1   -117.3805736 -0.117381E+03  0.155E-02    0.36       0.0  T
   2   -117.3805735  0.102858E-06  0.923E-03    0.36       1.2  T
   3   -117.3805652  0.821401E-05  0.835E-03    0.36       1.4  T
   4   -117.3805735 -0.830576E-05  0.983E-04    0.36      11.7  T
   5   -117.3805736 -0.885844E-07  0.257E-04    0.36      44.7  T
   6   -117.3805736 -0.479979E-08  0.113E-04    0.36     101.2  T
     SCC iter.                  ...        0 min,  0.055 sec
     gradient                   ...        0 min,  0.011 sec
 * total energy  :  -115.2406988 Eh     change       -0.6671315E-05 Eh
   gradient norm :     0.0007501 Eh/α   predicted    -0.2881938E-05 ( -56.80%)
   displ. norm   :     0.0939214 α      lambda       -0.5652545E-05
   maximum displ.:     0.0489856 α      in ANC's #3, #2, #6, ...

........................................................................
.............................. CYCLE   25 ..............................
........................................................................

 iter      E             dE          RMSdq      gap      omega  full diag
   1   -117.3807937 -0.117381E+03  0.174E-02    0.36       0.0  T
   2   -117.3807937  0.831839E-08  0.103E-02    0.36       1.1  T
   3   -117.3807904  0.327471E-05  0.527E-03    0.36       2.2  T
   4   -117.3807936 -0.320708E-05  0.119E-03    0.36       9.7  T
   5   -117.3807937 -0.146267E-06  0.285E-04    0.36      40.3  T
   6   -117.3807937 -0.383992E-08  0.183E-04    0.36      62.7  T
     SCC iter.                  ...        0 min,  0.054 sec
     gradient                   ...        0 min,  0.011 sec
 * total energy  :  -115.2407053 Eh     change       -0.6554745E-05 Eh
   gradient norm :     0.0004909 Eh/α   predicted    -0.2842656E-05 ( -56.63%)
   displ. norm   :     0.1001079 α      lambda       -0.5129039E-05
   maximum displ.:     0.0537550 α      in ANC's #3, #2, #6, ...

........................................................................
.............................. CYCLE   26 ..............................
........................................................................

 iter      E             dE          RMSdq      gap      omega  full diag
   1   -117.3810893 -0.117381E+03  0.167E-02    0.36       0.0  T
   2   -117.3810893 -0.110650E-08  0.984E-03    0.36       1.2  T
   3   -117.3810867  0.256349E-05  0.457E-03    0.36       2.5  T
   4   -117.3810892 -0.248987E-05  0.119E-03    0.36       9.7  T
   5   -117.3810894 -0.139026E-06  0.479E-04    0.36      23.9  T
   6   -117.3810894 -0.189794E-07  0.212E-04    0.36      54.2  T
     SCC iter.                  ...        0 min,  0.055 sec
     gradient                   ...        0 min,  0.011 sec
 * total energy  :  -115.2407113 Eh     change       -0.5980475E-05 Eh
   gradient norm :     0.0002704 Eh/α   predicted    -0.2576215E-05 ( -56.92%)
   displ. norm   :     0.0945699 α      lambda       -0.4518296E-05
   maximum displ.:     0.0523594 α      in ANC's #3, #2, #6, ...

........................................................................
.............................. CYCLE   27 ..............................
........................................................................

 iter      E             dE          RMSdq      gap      omega  full diag
   1   -117.3813281 -0.117381E+03  0.143E-02    0.36       0.0  T
   2   -117.3813281  0.678745E-07  0.845E-03    0.36       1.4  T
   3   -117.3813226  0.549333E-05  0.696E-03    0.36       1.6  T
   4   -117.3813281 -0.548542E-05  0.122E-03    0.36       9.4  T
   5   -117.3813282 -0.134426E-06  0.502E-04    0.36      22.9  T
   6   -117.3813282 -0.277558E-07  0.176E-04    0.36      65.1  T
     SCC iter.                  ...        0 min,  0.054 sec
     gradient                   ...        0 min,  0.011 sec
 * total energy  :  -115.2407166 Eh     change       -0.5270235E-05 Eh
   gradient norm :     0.0003179 Eh/α   predicted    -0.2270933E-05 ( -56.91%)
   displ. norm   :     0.0878982 α      lambda       -0.3813804E-05
   maximum displ.:     0.0500062 α      in ANC's #3, #2, #13, ...

........................................................................
.............................. CYCLE   28 ..............................
........................................................................

 iter      E             dE          RMSdq      gap      omega  full diag
   1   -117.3813832 -0.117381E+03  0.125E-02    0.36       0.0  T
   2   -117.3813831  0.103146E-06  0.743E-03    0.36       1.5  T
   3   -117.3813770  0.615307E-05  0.733E-03    0.36       1.6  T
   4   -117.3813832 -0.618218E-05  0.118E-03    0.36       9.8  T
   5   -117.3813833 -0.130293E-06  0.412E-04    0.36      27.9  T
   6   -117.3813833 -0.188439E-07  0.143E-04    0.36      80.0  T
     SCC iter.                  ...        0 min,  0.054 sec
     gradient                   ...        0 min,  0.011 sec
 * total energy  :  -115.2407211 Eh     change       -0.4456101E-05 Eh
   gradient norm :     0.0003280 Eh/α   predicted    -0.1918266E-05 ( -56.95%)
   displ. norm   :     0.0743966 α      lambda       -0.3049888E-05
   maximum displ.:     0.0429298 α      in ANC's #3, #2, #13, ...

........................................................................
.............................. CYCLE   29 ..............................
........................................................................

 iter      E             dE          RMSdq      gap      omega  full diag
   1   -117.3813362 -0.117381E+03  0.104E-02    0.36       0.0  T
   2   -117.3813360  0.167667E-06  0.625E-03    0.36       1.8  T
   3   -117.3813274  0.862497E-05  0.884E-03    0.36       1.3  T
   4   -117.3813362 -0.877080E-05  0.899E-04    0.36      12.8  T
   5   -117.3813363 -0.735179E-07  0.309E-04    0.36      37.1  T
   6   -117.3813363 -0.105411E-07  0.111E-04    0.36     103.5  T
     SCC iter.                  ...        0 min,  0.055 sec
     gradient                   ...        0 min,  0.011 sec
 * total energy  :  -115.2407247 Eh     change       -0.3646332E-05 Eh
   gradient norm :     0.0002700 Eh/α   predicted    -0.1532500E-05 ( -57.97%)
   displ. norm   :     0.0773628 α      lambda       -0.3153500E-05
   maximum displ.:     0.0440630 α      in ANC's #3, #2, #13, ...

........................................................................
.............................. CYCLE   30 ..............................
........................................................................

 iter      E             dE          RMSdq      gap      omega  full diag
   1   -117.3812147 -0.117381E+03  0.111E-02    0.36       0.0  T
   2   -117.3812146  0.760734E-07  0.656E-03    0.36       1.7  T
   3   -117.3812089  0.568804E-05  0.715E-03    0.36       1.6  T
   4   -117.3812147 -0.576234E-05  0.741E-04    0.36      15.5  T
   5   -117.3812148 -0.479011E-07  0.218E-04    0.36      52.7  T
   6   -117.3812148 -0.359853E-08  0.128E-04    0.36      89.9  T
     SCC iter.                  ...        0 min,  0.053 sec
     gradient                   ...        0 min,  0.010 sec
 * total energy  :  -115.2407285 Eh     change       -0.3825966E-05 Eh
   gradient norm :     0.0002070 Eh/α   predicted    -0.1581499E-05 ( -58.66%)
   displ. norm   :     0.0906532 α      lambda       -0.3437845E-05
   maximum displ.:     0.0514526 α      in ANC's #3, #2, #13, ...

........................................................................
.............................. CYCLE   31 ..............................
........................................................................

 iter      E             dE          RMSdq      gap      omega  full diag
   1   -117.3810780 -0.117381E+03  0.129E-02    0.36       0.0  T
   2   -117.3810780  0.360119E-08  0.760E-03    0.36       1.5  T
   3   -117.3810759  0.205664E-05  0.422E-03    0.36       2.7  T
   4   -117.3810779 -0.198612E-05  0.112E-03    0.36      10.2  T
   5   -117.3810780 -0.121507E-06  0.273E-04    0.36      42.1  T
   6   -117.3810780 -0.626950E-08  0.147E-04    0.36      78.1  T
     SCC iter.                  ...        0 min,  0.055 sec
     gradient                   ...        0 min,  0.011 sec
 * total energy  :  -115.2407326 Eh     change       -0.4103152E-05 Eh
   gradient norm :     0.0002417 Eh/α   predicted    -0.1726941E-05 ( -57.91%)
   displ. norm   :     0.0895150 α      lambda       -0.3057819E-05
   maximum displ.:     0.0512312 α      in ANC's #3, #2, #13, ...

........................................................................
.............................. CYCLE   32 ..............................
........................................................................

 iter      E             dE          RMSdq      gap      omega  full diag
   1   -117.3810221 -0.117381E+03  0.124E-02    0.36       0.0  T
   2   -117.3810220  0.563458E-07  0.739E-03    0.36       1.6  T
   3   -117.3810179  0.409710E-05  0.580E-03    0.36       2.0  T
   4   -117.3810220 -0.409545E-05  0.111E-03    0.36      10.3  T
   5   -117.3810221 -0.105919E-06  0.473E-04    0.36      24.2  T
   6   -117.3810222 -0.228891E-07  0.129E-04    0.36      89.2  T
     SCC iter.                  ...        0 min,  0.058 sec
     gradient                   ...        0 min,  0.011 sec
 * total energy  :  -115.2407362 Eh     change       -0.3530547E-05 Eh
   gradient norm :     0.0002483 Eh/α   predicted    -0.1537514E-05 ( -56.45%)
   displ. norm   :     0.0789780 α      lambda       -0.2358688E-05
   maximum displ.:     0.0458550 α      in ANC's #2, #3, #1, ...

........................................................................
.............................. CYCLE   33 ..............................
........................................................................

 iter      E             dE          RMSdq      gap      omega  full diag
   1   -117.3810752 -0.117381E+03  0.109E-02    0.36       0.0  T
   2   -117.3810750  0.160707E-06  0.657E-03    0.36       1.7  T
   3   -117.3810669  0.808999E-05  0.818E-03    0.36       1.4  T
   4   -117.3810751 -0.818592E-05  0.117E-03    0.36       9.8  T
   5   -117.3810753 -0.126222E-06  0.410E-04    0.36      28.0  T
   6   -117.3810753 -0.169906E-07  0.124E-04    0.36      92.1  T
     SCC iter.                  ...        0 min,  0.054 sec
     gradient                   ...        0 min,  0.011 sec
 * total energy  :  -115.2407388 Eh     change       -0.2621040E-05 Eh
   gradient norm :     0.0002167 Eh/α   predicted    -0.1183850E-05 ( -54.83%)
   displ. norm   :     0.0643698 α      lambda       -0.1635524E-05
   maximum displ.:     0.0377682 α      in ANC's #2, #3, #1, ...

........................................................................
.............................. CYCLE   34 ..............................
........................................................................

 iter      E             dE          RMSdq      gap      omega  full diag
   1   -117.3811711 -0.117381E+03  0.905E-03    0.36       0.0  T
   2   -117.3811708  0.267102E-06  0.567E-03    0.37       2.0  T
   3   -117.3811610  0.980306E-05  0.901E-03    0.36       1.3  T
   4   -117.3811710 -0.100045E-04  0.122E-03    0.36       9.4  T
   5   -117.3811712 -0.147267E-06  0.326E-04    0.37      35.1  T
   6   -117.3811712 -0.916073E-08  0.139E-04    0.37      82.4  T
     SCC iter.                  ...        0 min,  0.057 sec
     gradient                   ...        0 min,  0.011 sec
 * total energy  :  -115.2407405 Eh     change       -0.1765160E-05 Eh
   gradient norm :     0.0001481 Eh/α   predicted    -0.8201605E-06 ( -53.54%)
   displ. norm   :     0.0522424 α      lambda       -0.1135711E-05
   maximum displ.:     0.0308305 α      in ANC's #2, #3, #1, ...

........................................................................
.............................. CYCLE   35 ..............................
........................................................................

 iter      E             dE          RMSdq      gap      omega  full diag
   1   -117.3812655 -0.117381E+03  0.771E-03    0.36       0.0  T
   2   -117.3812653  0.152306E-06  0.482E-03    0.37       2.4  T
   3   -117.3812589  0.640447E-05  0.711E-03    0.36       1.6  T
   4   -117.3812654 -0.647021E-05  0.125E-03    0.36       9.2  T
   5   -117.3812656 -0.147516E-06  0.254E-04    0.37      45.2  T
   6   -117.3812656 -0.441013E-08  0.131E-04    0.37      87.5  T
     SCC iter.                  ...        0 min,  0.054 sec
     gradient                   ...        0 min,  0.010 sec
 * total energy  :  -115.2407418 Eh     change       -0.1217302E-05 Eh
   gradient norm :     0.0001177 Eh/α   predicted    -0.5696566E-06 ( -53.20%)
   displ. norm   :     0.0431346 α      lambda       -0.7691291E-06
   maximum displ.:     0.0252064 α      in ANC's #2, #3, #1, ...

........................................................................
.............................. CYCLE   36 ..............................
........................................................................

 iter      E             dE          RMSdq      gap      omega  full diag
   1   -117.3813201 -0.117381E+03  0.670E-03    0.37       0.0  T
   2   -117.3813201  0.249485E-07  0.409E-03    0.37       2.8  T
   3   -117.3813185  0.155728E-05  0.333E-03    0.36       3.4  T
   4   -117.3813200 -0.144222E-05  0.132E-03    0.37       8.7  T
   5   -117.3813201 -0.176440E-06  0.163E-04    0.37      70.2  T
   6   -117.3813201 -0.119076E-08  0.831E-05    0.37     138.0  T
     SCC iter.                  ...        0 min,  0.054 sec
     gradient                   ...        0 min,  0.011 sec
 * total energy  :  -115.2407426 Eh     change       -0.8291269E-06 Eh
   gradient norm :     0.0001225 Eh/α   predicted    -0.3886715E-06 ( -53.12%)
   displ. norm   :     0.0346712 α      lambda       -0.5062625E-06
   maximum displ.:     0.0200089 α      in ANC's #2, #3, #1, ...

........................................................................
.............................. CYCLE   37 ..............................
........................................................................

 iter      E             dE          RMSdq      gap      omega  full diag
   1   -117.3813325 -0.117381E+03  0.572E-03    0.37       0.0  T
   2   -117.3813324  0.152139E-07  0.347E-03    0.37       3.3  T
   3   -117.3813316  0.810686E-06  0.294E-03    0.37       3.9  T
   4   -117.3813324 -0.780616E-06  0.736E-04    0.37      15.6  T
   5   -117.3813325 -0.669718E-07  0.175E-04    0.37      65.5  T
     SCC iter.                  ...        0 min,  0.044 sec
     gradient                   ...        0 min,  0.010 sec
 * total energy  :  -115.2407431 Eh     change       -0.5348516E-06 Eh
   gradient norm :     0.0001147 Eh/α   predicted    -0.2570875E-06 ( -51.93%)
   displ. norm   :     0.0253082 α      lambda       -0.3448519E-06
   maximum displ.:     0.0141791 α      in ANC's #2, #3, #1, ...

........................................................................
.............................. CYCLE   38 ..............................
........................................................................

 iter      E             dE          RMSdq      gap      omega  full diag
   1   -117.3813070 -0.117381E+03  0.450E-03    0.37       0.0  T
   2   -117.3813070  0.718815E-07  0.280E-03    0.37       4.1  T
   3   -117.3813048  0.220637E-05  0.465E-03    0.37       2.5  T
   4   -117.3813070 -0.225000E-05  0.605E-04    0.37      19.0  T
   5   -117.3813071 -0.459147E-07  0.161E-04    0.37      71.3  T
   6   -117.3813071 -0.296154E-08  0.567E-05    0.37     202.5  T
     SCC iter.                  ...        0 min,  0.053 sec
     gradient                   ...        0 min,  0.011 sec
 * total energy  :  -115.2407435 Eh     change       -0.3788445E-06 Eh
   gradient norm :     0.0000791 Eh/α   predicted    -0.1743209E-06 ( -53.99%)
   displ. norm   :     0.0244967 α      lambda       -0.3033937E-06
   maximum displ.:     0.0130415 α      in ANC's #2, #3, #1, ...

........................................................................
.............................. CYCLE   39 ..............................
........................................................................

 iter      E             dE          RMSdq      gap      omega  full diag
   1   -117.3812673 -0.117381E+03  0.459E-03    0.37       0.0  T
   2   -117.3812673  0.442826E-07  0.279E-03    0.37       4.1  T
   3   -117.3812655  0.183630E-05  0.417E-03    0.37       2.8  T
   4   -117.3812673 -0.185918E-05  0.542E-04    0.37      21.1  T
   5   -117.3812673 -0.340075E-07  0.156E-04    0.37      73.8  T
   6   -117.3812673 -0.288468E-08  0.474E-05    0.37     242.0  T
     SCC iter.                  ...        0 min,  0.053 sec
     gradient                   ...        0 min,  0.010 sec
 * total energy  :  -115.2407439 Eh     change       -0.3493829E-06 Eh
   gradient norm :     0.0000709 Eh/α   predicted    -0.1540804E-06 ( -55.90%)
   displ. norm   :     0.0234770 α      lambda       -0.2824435E-06
   maximum displ.:     0.0120900 α      in ANC's #2, #1, #3, ...

........................................................................
.............................. CYCLE   40 ..............................
........................................................................

 iter      E             dE          RMSdq      gap      omega  full diag
   1   -117.3812378 -0.117381E+03  0.456E-03    0.37       0.0  T
   2   -117.3812378  0.417702E-07  0.275E-03    0.37       4.2  T
   3   -117.3812358  0.200507E-05  0.428E-03    0.37       2.7  T
   4   -117.3812378 -0.204851E-05  0.321E-04    0.37      35.7  T
   5   -117.3812378 -0.934563E-08  0.133E-04    0.37      86.4  T
   6   -117.3812378 -0.204285E-08  0.413E-05    0.37     277.9  T
     SCC iter.                  ...        0 min,  0.054 sec
     gradient                   ...        0 min,  0.011 sec
 * total energy  :  -115.2407442 Eh     change       -0.3408528E-06 Eh
   gradient norm :     0.0000825 Eh/α   predicted    -0.1420103E-06 ( -58.34%)
   displ. norm   :     0.0279904 α      lambda       -0.3191845E-06
   maximum displ.:     0.0138530 α      in ANC's #2, #1, #10, ...

........................................................................
.............................. CYCLE   41 ..............................
........................................................................

 iter      E             dE          RMSdq      gap      omega  full diag
   1   -117.3812269 -0.117381E+03  0.557E-03    0.37       0.0  T
   2   -117.3812269  0.287953E-07  0.332E-03    0.36       3.5  T
   3   -117.3812249  0.194130E-05  0.405E-03    0.37       2.8  T
   4   -117.3812269 -0.197123E-05  0.371E-04    0.37      30.9  T
   5   -117.3812269 -0.126135E-07  0.104E-04    0.36     110.1  T
   6   -117.3812269 -0.777831E-09  0.536E-05    0.36     214.0  T
     SCC iter.                  ...        0 min,  0.055 sec
     gradient                   ...        0 min,  0.010 sec
 * total energy  :  -115.2407446 Eh     change       -0.3609263E-06 Eh
   gradient norm :     0.0000836 Eh/α   predicted    -0.1602825E-06 ( -55.59%)
   displ. norm   :     0.0218166 α      lambda       -0.1983428E-06
   maximum displ.:     0.0103646 α      in ANC's #2, #1, #10, ...

........................................................................
.............................. CYCLE   42 ..............................
........................................................................

 iter      E             dE          RMSdq      gap      omega  full diag
   1   -117.3812499 -0.117381E+03  0.434E-03    0.36       0.0  T
   2   -117.3812499  0.210042E-08  0.256E-03    0.36       4.5  T
   3   -117.3812496  0.312103E-06  0.151E-03    0.37       7.6  T
   4   -117.3812499 -0.306445E-06  0.394E-04    0.36      29.1  T
   5   -117.3812499 -0.140407E-07  0.882E-05    0.36     130.1  T
     SCC iter.                  ...        0 min,  0.045 sec
     gradient                   ...        0 min,  0.011 sec
 * total energy  :  -115.2407448 Eh     change       -0.2387133E-06 Eh
   gradient norm :     0.0000645 Eh/α   predicted    -0.1004324E-06 ( -57.93%)
   displ. norm   :     0.0194220 α      lambda       -0.1786534E-06
   maximum displ.:     0.0097937 α      in ANC's #10, #1, #2, ...
 * RMSD in coord.:     0.1239518 α      energy gain  -0.7214529E-04 Eh

generating ANC from exact Hessian ...
Using Lindh-Hessian (1995)
 Shifting diagonal of input Hessian by   9.832671631277249E-003
 Lowest  eigenvalues of input Hessian
    0.000000    0.000000    0.000000    0.000000    0.000000    0.000000
    0.010000    0.010013    0.010132    0.010278    0.010350    0.010619
    0.011159    0.011168    0.011321    0.011422    0.011506    0.011638
 Highest eigenvalues
    2.089842    2.105527    2.114904    2.133857    2.166847    2.176538
 

........................................................................
.............................. CYCLE   43 ..............................
........................................................................

 iter      E             dE          RMSdq      gap      omega  full diag
   1   -117.3812752 -0.117381E+03  0.382E-03    0.36       0.0  T
   2   -117.3812752  0.247979E-09  0.225E-03    0.36       5.1  T
   3   -117.3812750  0.130913E-06  0.108E-03    0.36      10.6  T
   4   -117.3812752 -0.131238E-06  0.190E-04    0.36      60.4  T
   5   -117.3812752 -0.310756E-08  0.107E-04    0.36     107.5  T
     SCC iter.                  ...        0 min,  0.047 sec
     gradient                   ...        0 min,  0.011 sec
 * total energy  :  -115.2407450 Eh     change       -0.2352482E-06 Eh
   gradient norm :     0.0000480 Eh/α   predicted     0.0000000E+00 (-100.00%)
   displ. norm   :     0.0000720 α      lambda        0.0000000E+00
   maximum displ.:     0.0000269 α      in ANC's #16, #10, #204, ...

........................................................................
.............................. CYCLE   44 ..............................
........................................................................

 iter      E             dE          RMSdq      gap      omega  full diag
   1   -117.3812754 -0.117381E+03  0.764E-05    0.36       0.0  T
   2   -117.3812754  0.736307E-09  0.952E-05    0.36     120.5  T
   3   -117.3812754 -0.880732E-09  0.413E-05    0.36     278.0  T
     SCC iter.                  ...        0 min,  0.028 sec
     gradient                   ...        0 min,  0.011 sec
 * total energy  :  -115.2407450 Eh     change       -0.3881766E-08 Eh
   gradient norm :     0.0000385 Eh/α   predicted    -0.1576025E-08 ( -59.40%)
   displ. norm   :     0.0000720 α      lambda        0.0000000E+00
   maximum displ.:     0.0000269 α      in ANC's #16, #10, #204, ...

   *** GEOMETRY OPTIMIZATION CONVERGED AFTER 44 ITERATIONS ***

------------------------------------------------------------------------
 total energy gain   :        -0.0010276 Eh       -0.6448 kcal/mol
 total RMSD          :         0.5284820 a0        0.2797 Å
 total power (kW/mol):        -0.0613180 (step)   -0.7798 (real)
------------------------------------------------------------------------

 ANCopt (total)                0 d,  0 h,  0 min,  3.460 sec
 optimizer setup                ...        0 min,  0.000 sec (  0.007%)
 model hessian                  ...        0 min,  0.130 sec (  3.743%)
 ANC generation                 ...        0 min,  0.019 sec (  0.551%)
 coordinate transformation      ...        0 min,  0.004 sec (  0.117%)
 single point calculation       ...        0 min,  3.279 sec ( 94.753%)
 optimization log               ...        0 min,  0.012 sec (  0.334%)
 hessian update                 ...        0 min,  0.006 sec (  0.168%)
 rational function              ...        0 min,  0.006 sec (  0.187%)

================
 final structure:
================
76
 xtb: 6.7.1 (edcfbbe)
C           -5.06446003523293       -2.71289570930726        1.91601280279558
C           -3.85090150565856       -2.30850736686527        2.45147706848625
C           -3.09703185026247       -1.33783661681549        1.82356781292548
C           -3.54734977909471       -0.75243812084362        0.63724564580904
N           -2.77581905446277        0.21204171736978       -0.01354397734716
C           -3.38005278737353        1.28738162545094       -0.66711854017024
C           -2.82830752096648        1.80271431975035       -1.84323310921483
C           -3.41233307859187        2.88396736194171       -2.47139338574817
C           -4.55429002969162        3.47038151803969       -1.94684014789014
C           -5.10990323954340        2.96053864457928       -0.78281024354762
C           -4.53097857059726        1.88281800960087       -0.14354069092498
C           -1.37963588396966        0.10351567339546       -0.00458331458884
C           -0.58285217755736        1.24765304933999        0.12867799246975
C            0.80479972222715        1.14109580931724        0.12216375461574
C            1.44534981434766       -0.11318142425735        0.00691465388540
C            0.62161215525113       -1.25545707036637       -0.11022141010175
C           -0.76614978416505       -1.14908221154598       -0.12938869014718
N            1.21439053949978       -2.50601227346172       -0.21765552933520
C            0.34503439170745       -3.63625458937300       -0.22450840232903
C           -0.07945318163460       -4.19085444358819       -1.42688761236567
C           -0.93517938242491       -5.27785645237171       -1.41872038411592
C           -1.37069911061313       -5.81300513463335       -0.21675819312076
C           -0.94803898018736       -5.25932771811913        0.98064852402018
C           -0.09228277038197       -4.17186301447680        0.98067512216180
C            2.57330309114819       -2.71601586969412       -0.38349515072196
C            3.02997662693514       -4.02195087127397       -0.58179566981218
C            4.36860577242159       -4.27437685490473       -0.84272096336902
C            5.25882756577282       -3.21326045883444       -0.92949520061909
C            4.82023476521193       -1.92476170441267       -0.69223434823521
C            3.48940631492023       -1.62371052313673       -0.35523299526165
B            2.95361293150295       -0.22770842843820        0.00322575844571
C            3.69653444718329        1.07089802912466        0.35822876297434
C            5.06044588070852        1.16718544684230        0.68342085691623
C            5.68919472119173        2.37385379288551        0.92308968776682
C            4.96628481500836        3.55660698365750        0.85635526642188
C            3.60257022327003        3.50901921902434        0.60786415724064
C            2.95532229221559        2.28818926281879        0.39850365074182
N            1.58013727154160        2.28650892850498        0.23507574547503
C            0.89252003557640        3.53612127483859        0.24674752979665
C            0.58056730562918        4.15787299599776       -0.95577193453149
C           -0.10220329789057        5.36166361135110       -0.95132506998508
C           -0.47540866282597        5.94593113715935        0.24782603287979
C           -0.16302637550394        5.32589915078908        1.44709848285784
C            0.51891420763389        4.12203992787684        1.45082755376667
C           -4.77038751163282       -1.16538697348942        0.10171986402980
C           -5.51878231085833       -2.13331761129661        0.74075887812064
H           -5.65162229875633       -3.47193831485657        2.41041555483375
H           -3.49217691062109       -2.74887557884106        3.37051969752623
H           -2.15770668648478       -1.01508603226700        2.24809535141830
H           -1.94525137346406        1.34033510425035       -2.25934112871854
H           -2.97701900854077        3.26875688516812       -3.38222667074048
H           -5.00842604011942        4.31575682380411       -2.44132078023859
H           -5.99738951528616        3.41294155528991       -0.36438380224985
H           -4.95785881410219        1.49720788851558        0.77087491455715
H           -1.06827680771119        2.20549029511405        0.23136481407724
H           -1.39120870367091       -2.02153214843712       -0.23849859442390
H            0.26684609933432       -3.76581128850609       -2.35763640339020
H           -1.26381072084772       -5.70642176813931       -2.35390266331233
H           -2.03843424063389       -6.66136311578822       -0.21394924139628
H           -1.28550460724581       -5.67404649340371        1.91870433607765
H            0.24437469463790       -3.73270398903506        1.90811730795310
H            2.34039522513726       -4.85172811206200       -0.54530495916055
H            4.70324192146616       -5.29017048438393       -0.99435957086177
H            6.29756783900681       -3.39728624895500       -1.16883881613228
H            5.52446187649313       -1.11208734710401       -0.77870307352536
H            5.63608895148114        0.25782072438786        0.75753775158550
H            6.74642233359437        2.39847742185356        1.15071436640777
H            5.44985116814677        4.50954671133620        1.01435207658085
H            3.04352783903307        4.43240888050001        0.58899378503029
H            0.87743324465011        3.69318119276937       -1.88436910381242
H           -0.34361281014453        5.84294576990293       -1.88721196831445
H           -1.00881687996215        6.88455458644352        0.24854300659112
H           -0.45274065365785        5.77909427966043        2.38350888152781
H            0.76717265897643        3.62913462134679        2.37942690272409
H           -5.12032752020250       -0.72564419161616       -0.82097020493876
H           -6.46082247998772       -2.44537574589948        0.31362633561055
 
 Bond Distances (Angstroems)
 ---------------------------
C1-C2=1.3867         C1-C46=1.3869        C1-H47=1.0795        C2-C1=1.3867         C2-C3=1.3801         C2-H48=1.0804        
C3-C2=1.3801         C3-C4=1.3974         C3-H49=1.0801        C4-C3=1.3974         C4-N5=1.3961         C4-C45=1.3975        
N5-C4=1.3961         N5-C6=1.3959         N5-C12=1.4004        C6-N5=1.3959         C6-C7=1.3976         C6-C11=1.3976        
C7-C6=1.3976         C7-C8=1.3801         C7-H50=1.0802        C8-C7=1.3801         C8-C9=1.3868         C8-H51=1.0804        
C9-C8=1.3868         C9-C10=1.3869        C9-H52=1.0795        C10-C9=1.3869        C10-C11=1.3803       C10-H53=1.0805       
C11-C6=1.3976        C11-C10=1.3803       C11-H54=1.0803       C12-N5=1.4004        C12-C13=1.4006       C12-C17=1.4003       
C13-C12=1.4006       C13-C14=1.3918       C13-H55=1.0787       C14-C13=1.3918       C14-C15=1.4131       C14-N38=1.3878       
C15-C14=1.4131       C15-C16=1.4132       C15-B31=1.5126       C16-C15=1.4132       C16-C17=1.3920       C16-N18=1.3881       
C17-C12=1.4003       C17-C16=1.3920       C17-H56=1.0788       N18-C16=1.3881       N18-C19=1.4259       N18-C25=1.3850       
C19-N18=1.4259       C19-C20=1.3905       C19-C24=1.3895       C20-C19=1.3905       C20-C21=1.3834       C20-H57=1.0802       
C21-C20=1.3834       C21-C22=1.3859       C21-H58=1.0799       C22-C21=1.3859       C22-C23=1.3853       C22-H59=1.0796       
C23-C22=1.3853       C23-C24=1.3838       C23-H60=1.0797       C24-C19=1.3895       C24-C23=1.3838       C24-H61=1.0800       
C25-N18=1.3850       C25-C26=1.3976       C25-C30=1.4259       C26-C25=1.3976       C26-C27=1.3870       C26-H62=1.0795       
C27-C26=1.3870       C27-C28=1.3878       C27-H63=1.0802       C28-C27=1.3878       C28-C29=1.3816       C28-H64=1.0817       
C29-C28=1.3816       C29-C30=1.4055       C29-H65=1.0788       C30-C25=1.4259       C30-C29=1.4055       C30-B31=1.5377       
B31-C15=1.5126       B31-C30=1.5377       B31-C32=1.5376       C32-B31=1.5376       C32-C33=1.4054       C32-C37=1.4258       
C33-C32=1.4054       C33-C34=1.3816       C33-H66=1.0788       C34-C33=1.3816       C34-C35=1.3878       C34-H67=1.0817       
C35-C34=1.3878       C35-C36=1.3870       C35-H68=1.0802       C36-C35=1.3870       C36-C37=1.3976       C36-H69=1.0796       
C37-C32=1.4258       C37-C36=1.3976       C37-N38=1.3849       N38-C14=1.3878       N38-C37=1.3849       N38-C39=1.4264       
C39-N38=1.4264       C39-C40=1.3892       C39-C44=1.3902       C40-C39=1.3892       C40-C41=1.3839       C40-H70=1.0800       
C41-C40=1.3839       C41-C42=1.3851       C41-H71=1.0797       C42-C41=1.3851       C42-C43=1.3857       C42-H72=1.0796       
C43-C42=1.3857       C43-C44=1.3836       C43-H73=1.0799       C44-C39=1.3902       C44-C43=1.3836       C44-H74=1.0802       
C45-C4=1.3975        C45-C46=1.3803       C45-H75=1.0804       C46-C1=1.3869        C46-C45=1.3803       C46-H76=1.0804       
H47-C1=1.0795        H48-C2=1.0804        H49-C3=1.0801        H50-C7=1.0802        H51-C8=1.0804        H52-C9=1.0795        
H53-C10=1.0805       H54-C11=1.0803       H55-C13=1.0787       H56-C17=1.0788       H57-C20=1.0802       H58-C21=1.0799       
H59-C22=1.0796       H60-C23=1.0797       H61-C24=1.0800       H62-C26=1.0795       H63-C27=1.0802       H64-C28=1.0817       
H65-C29=1.0788       H66-C33=1.0788       H67-C34=1.0817       H68-C35=1.0802       H69-C36=1.0796       H70-C40=1.0800       
H71-C41=1.0797       H72-C42=1.0796       H73-C43=1.0799       H74-C44=1.0802       H75-C45=1.0804       H76-C46=1.0804       
 C  H  Rav=1.0800 sigma=0.0007  Rmin=1.0787  Rmax=1.0817    30
 C  B  Rav=1.5293 sigma=0.0118  Rmin=1.5126  Rmax=1.5377     3
 C  C  Rav=1.3923 sigma=0.0112  Rmin=1.3801  Rmax=1.4259    42
 N  C  Rav=1.3989 sigma=0.0154  Rmin=1.3849  Rmax=1.4264     9
 
 selected bond angles (degree)
 --------------------
C46-C1-C2=119.47               H47-C1-C2=120.28               H47-C1-C46=120.25              C3-C2-C1=120.49                
H48-C2-C1=120.01               H48-C2-C3=119.49               C4-C3-C2=120.32                H49-C3-C2=120.42               
H49-C3-C4=119.26               N5-C4-C3=120.47                C45-C4-C3=118.92               C45-C4-N5=120.61               
C6-N5-C4=120.75                C12-N5-C4=119.63               C12-N5-C6=119.62               C7-C6-N5=120.48                
C11-C6-N5=120.61               C11-C6-C7=118.90               C8-C7-C6=120.32                H50-C7-C6=119.28               
H50-C7-C8=120.40               C9-C8-C7=120.50                H51-C8-C7=119.49               H51-C8-C9=120.01               
C10-C9-C8=119.47               H52-C9-C8=120.28               H52-C9-C10=120.25              C11-C10-C9=120.51              
H53-C10-C9=120.01              H53-C10-C11=119.48             
 
 selected dihedral angles (degree)
 ---------------------------------
C3-C2-C1-C46=359.97           C3-C2-C1-H47=180.04           H48-C2-C1-C46=179.54          H48-C2-C1-H47=359.61          
C4-C3-C2-C1=359.86            C4-C3-C2-H48=180.28           H49-C3-C2-C1=179.25           H49-C3-C2-H48=359.68          
N5-C4-C3-C2=181.18            N5-C4-C3-H49=  1.78           C45-C4-C3-C2=  0.06           C45-C4-C3-H49=180.67          
C6-N5-C4-C3=215.85            C6-N5-C4-C45= 36.98           C12-N5-C4-C3= 35.51           C12-N5-C4-C45=216.64          
C7-C6-N5-C4=215.11            C7-C6-N5-C12= 35.46           C11-C6-N5-C4= 36.35           C11-C6-N5-C12=216.69          
C8-C7-C6-N5=181.38            C8-C7-C6-C11=  0.16           H50-C7-C6-N5=  1.89           H50-C7-C6-C11=180.68          
C9-C8-C7-C6=359.84            C9-C8-C7-H50=179.31           H51-C8-C7-C6=180.26           H51-C8-C7-H50=359.74          
C10-C9-C8-C7=359.91           C10-C9-C8-H51=179.48          H52-C9-C8-C7=180.02           H52-C9-C8-H51=359.60          
C11-C10-C9-C8=  0.35          C11-C10-C9-H52=180.23         H53-C10-C9-C8=179.77          H53-C10-C9-H52=359.66         
           -------------------------------------------------
          |                Final Singlepoint                |
           -------------------------------------------------

          ...................................................
          :                      SETUP                      :
          :.................................................:
          :  # basis functions                 214          :
          :  # atomic orbitals                 214          :
          :  # shells                          122          :
          :  # electrons                       216          :
          :  max. iterations                   250          :
          :  Hamiltonian                  GFN2-xTB          :
          :  restarted?                      false          :
          :  GBSA solvation                   true          :
[...]
    42   6 C       43   6 C                                       1.3857406
    39   6 C       44   6 C                                       1.3902126
    43   6 C       44   6 C                                       1.3835947
     4   6 C       45   6 C                                       1.3975465
     1   6 C       46   6 C                                       1.3869180
    45   6 C       46   6 C                                       1.3803462
     1   6 C       47   1 H                                       1.0795089
     2   6 C       48   1 H                                       1.0803921
     3   6 C       49   1 H                                       1.0801498
     7   6 C       50   1 H                                       1.0801522
     8   6 C       51   1 H                                       1.0803605
     9   6 C       52   1 H                                       1.0795417
    10   6 C       53   1 H                                       1.0804542
    11   6 C       54   1 H                                       1.0803139
    13   6 C       55   1 H                                       1.0787187 (min)
    17   6 C       56   1 H                                       1.0787830
    20   6 C       57   1 H                                       1.0802215
    21   6 C       58   1 H                                       1.0799226
    22   6 C       59   1 H                                       1.0796247
    23   6 C       60   1 H                                       1.0797331
    24   6 C       61   1 H                                       1.0799760
    26   6 C       62   1 H                                       1.0795298
    27   6 C       63   1 H                                       1.0801910
    28   6 C       64   1 H                                       1.0817266
    29   6 C       65   1 H                                       1.0788200
    33   6 C       66   1 H                                       1.0787969
    34   6 C       67   1 H                                       1.0817346
    35   6 C       68   1 H                                       1.0802286
    36   6 C       69   1 H                                       1.0795986
    40   6 C       70   1 H                                       1.0799818
    41   6 C       71   1 H                                       1.0797201
    42   6 C       72   1 H                                       1.0796013
    43   6 C       73   1 H                                       1.0799004
    44   6 C       74   1 H                                       1.0802245
    45   6 C       75   1 H                                       1.0803652
    46   6 C       76   1 H                                       1.0803992

 * 4 distinct bonds (by element types)

   Z      Z             #   av. dist./Å        max./Å        min./Å
   1 H    6 C          30     1.0799557     1.0817346     1.0787187
   5 B    6 C           3     1.5293025     1.5376572     1.5126097
   6 C    6 C          42     1.3922894     1.4258945     1.3801376
   6 C    7 N           9     1.3989367     1.4263538     1.3848631

           -------------------------------------------------
          |               Frequency Printout                |
           -------------------------------------------------
 projected vibrational frequencies (cm⁻¹)
eigval :       -0.00    -0.00    -0.00     0.00     0.00     0.00
eigval :       11.54    15.22    19.65    22.11    26.85    34.47
eigval :       35.50    54.18    61.44    64.07    67.76    71.74
eigval :       76.26    80.64    90.34   115.45   138.75   162.07
eigval :      177.38   182.99   189.92   205.52   210.15   220.58
eigval :      236.38   237.73   239.35   258.95   264.95   268.37
eigval :      315.22   338.48   367.72   372.34   374.51   375.75
eigval :      378.35   379.77   383.53   394.81   397.52   408.48
eigval :      436.71   443.50   473.88   475.50   478.22   480.67
eigval :      492.24   494.07   495.82   509.56   531.89   559.06
eigval :      569.75   577.82   584.60   585.08   587.83   591.78
eigval :      595.24   597.97   602.80   627.89   640.47   650.81
eigval :      654.62   656.44   664.37   672.07   674.66   679.28
eigval :      692.65   731.94   740.14   741.92   747.08   750.46
eigval :      755.34   765.25   771.79   788.20   827.75   832.12
eigval :      846.83   860.79   869.22   869.65   870.71   872.87
eigval :      874.32   874.73   883.72   886.35   889.22   892.31
eigval :      895.53   898.89   903.95   904.66   910.07   911.38
eigval :      915.85   923.05   923.98   925.45   926.28   926.62
eigval :      927.68   928.48   931.17   974.71   985.78   990.98
eigval :      997.24  1046.70  1073.62  1076.29  1077.44  1079.51
eigval :     1080.33  1080.74  1092.56  1106.29  1111.90  1113.37
eigval :     1118.81  1122.44  1128.93  1151.96  1168.88  1174.07
eigval :     1175.37  1176.41  1176.71  1177.10  1183.36  1183.91
eigval :     1185.40  1188.96  1193.51  1198.52  1214.94  1221.08
eigval :     1244.53  1244.96  1251.00  1254.87  1271.12  1271.55
eigval :     1273.38  1275.08  1284.55  1285.77  1289.58  1297.03
eigval :     1306.58  1307.45  1309.93  1323.55  1328.67  1332.53
eigval :     1337.12  1350.16  1368.66  1371.29  1395.52  1405.73
eigval :     1413.79  1429.31  1429.79  1431.41  1440.21  1445.60
eigval :     1461.59  1462.07  1464.19  1466.93  1472.69  1479.75
eigval :     1503.96  1507.71  1518.52  1548.89  1551.59  1558.25
eigval :     1568.36  1570.70  1571.03  1580.43  1582.61  1586.52
eigval :     3052.94  3053.64  3070.43  3071.26  3071.44  3071.96
eigval :     3072.06  3072.22  3077.62  3077.93  3080.13  3080.36
eigval :     3081.92  3082.97  3084.56  3085.26  3086.77  3086.91
eigval :     3088.21  3089.12  3090.66  3090.87  3092.47  3093.28
eigval :     3093.99  3097.97  3098.59  3099.17  3100.71  3101.64
 reduced masses (amu)
   1: 11.47   2: 11.50   3: 11.45   4: 11.29   5: 11.30   6: 11.17   7: 10.74   8: 10.66
   9: 10.56  10: 10.41  11: 10.48  12: 10.03  13: 10.96  14: 10.67  15: 10.32  16: 10.60
  17: 10.47  18: 10.39  19: 10.59  20: 11.02  21: 10.13  22: 10.35  23: 10.86  24: 10.54
  25: 10.92  26: 10.99  27: 10.93  28: 11.05  29: 10.28  30: 10.44  31: 10.39  32: 10.55
  33: 10.50  34: 10.75  35: 10.50  36: 10.48  37: 10.63  38: 10.84  39: 11.13  40:  9.83
  41:  9.64  42:  9.17  43:  9.94  44:  9.65  45:  9.17  46: 11.05  47: 11.14  48: 11.22
  49: 11.13  50: 10.46  51: 10.34  52: 10.16  53: 10.95  54: 10.43  55: 10.37  56: 10.64
  57: 11.02  58: 11.25  59: 10.62  60: 11.67  61: 11.29  62: 11.10  63: 11.21  64: 11.22
  65: 11.16  66: 11.30  67: 11.47  68: 11.42  69: 11.43  70: 11.27  71: 11.10  72: 10.89
  73: 11.42  74: 10.19  75: 10.02  76: 11.17  77:  8.80  78:  9.05  79: 11.67  80:  9.66
  81:  3.68  82:  8.91  83:  3.82  84:  3.94  85:  4.96  86:  6.88  87:  6.99  88:  3.97
  89:  3.94  90:  3.44  91:  3.42  92: 11.27  93:  3.77  94:  3.33  95:  3.34  96:  3.70
  97:  3.31  98:  3.34  99:  3.99 100:  4.16 101: 11.05 102: 10.88 103:  6.49 104:  5.64
 105:  4.38 106:  8.10 107: 11.23 108:  5.54 109:  7.97 110:  3.02 111:  3.29 112:  3.27
 113:  3.91 114:  3.27 115:  3.95 116:  4.00 117:  3.16 118: 11.01 119: 10.98 120: 10.90
 121: 10.56 122: 10.21 123: 10.17 124:  9.08 125:  6.69 126:  6.94 127:  7.04 128:  8.11
 129:  6.77 130:  6.67 131:  3.90 132:  3.94 133:  4.02 134:  4.02 135:  6.81 136:  7.16
 137:  5.39 138:  2.43 139:  1.35 140:  1.35 141:  1.37 142:  1.36 143:  2.37 144:  2.14
 145:  2.17 146:  2.02 147:  2.91 148:  4.73 149:  8.42 150:  6.37 151:  8.53 152:  8.50
 153:  4.87 154:  9.74 155:  8.22 156:  4.09 157:  3.69 158:  4.26 159:  8.37 160: 10.89
 161:  8.90 162: 10.29 163: 11.76 164: 11.73 165: 10.62 166: 11.58 167: 11.92 168: 11.68
 169: 11.11 170: 10.73 171:  9.58 172:  9.61 173:  8.84 174:  9.31 175: 11.72 176:  8.93
 177:  8.94 178:  9.16 179:  9.24 180:  9.77 181:  9.07 182:  9.04 183:  9.17 184:  9.30
 185: 10.28 186: 10.47 187: 11.13 188: 11.03 189: 11.14 190: 11.32 191: 11.35 192: 11.45
 193: 11.48 194: 11.38 195: 11.49 196: 11.45 197: 11.46 198: 11.45 199:  1.78 200:  1.78
 201:  1.76 202:  1.76 203:  1.80 204:  1.77 205:  1.78 206:  1.81 207:  1.75 208:  1.76
 209:  1.78 210:  1.78 211:  1.83 212:  1.83 213:  1.87 214:  1.87 215:  1.84 216:  1.84
 217:  1.84 218:  1.84 219:  1.88 220:  1.88 221:  1.84 222:  1.92 223:  1.92 224:  1.92
 225:  1.90 226:  1.85 227:  1.81 228:  1.81
 IR intensities (km·mol⁻¹)
   1:  2.33   2:  0.64   3:  0.45   4:  1.34   5:  1.72   6:  2.22   7:  2.26   8:  1.55
   9:  3.58  10:  0.51  11:  0.96  12:  0.40  13:  0.48  14:  2.86  15:  2.55  16:  0.27
  17:  0.79  18:  1.59  19:  4.01  20:  1.23  21:  0.31  22:  0.30  23:  0.11  24:  0.05
  25:  0.26  26: 11.04  27:  7.06  28:  1.00  29:  0.07  30:  1.26  31:  0.14  32:  2.26
  33:  1.41  34:  0.26  35:  3.28  36:  0.86  37: 16.33  38:  0.33  39: 10.42  40: 12.13
  41:  9.21  42:  2.09  43:  4.52  44:  0.80  45: 13.85  46:  0.44  47:  0.51  48:  2.78
  49:  0.40  50:  5.71  51:  1.91  52: 27.78  53: 10.75  54:  1.44  55: 12.35  56:  0.85
  57:  1.28  58:  1.27  59:  4.87  60:  0.29  61:  1.26  62:  0.33  63:  1.86  64:  1.44
  65:  2.24  66:  0.05  67:  0.14  68:  4.13  69:  2.33  70: 19.72  71:  0.08  72:  2.71
  73:  1.59  74:  0.01  75: 12.92  76:  1.02  77:  0.06  78: 11.34  79: 14.00  80:  0.17
  81: 46.33  82:  3.94  83:  1.75  84: 33.23  85:  1.10  86:  5.28  87:  6.29  88: 24.16
  89: 43.09  90:  8.81  91: 30.11  92:  0.67  93:  1.48  94: 13.16  95: 66.40  96:  8.14
  97:  2.13  98:  0.24  99:  0.88 100:  1.26 101:  0.30 102: 21.47 103:  7.40 104:  2.93
 105: 10.41 106:  1.18 107:  1.86 108:  2.39 109:  0.81 110:  0.41 111:  5.81 112:  1.24
 113:  9.11 114: 19.57 115:  0.45 116:  5.80 117: 11.95 118:  7.41 119: 29.64 120: 14.30
 121:  5.95 122:  5.55 123:  2.20 124:  1.26 125: 12.80 126:  7.77 127:  1.07 128: 10.21
 129: 29.66 130:  7.39 131: 21.58 132:  1.97 133:  2.21 134:  0.94 135: 14.78 136:  2.43
 137: 29.54 138: 13.21 139:  3.25 140:  3.56 141:  0.80 142:  8.12 143: 10.91 144:  3.40
 145:  6.61 146: 70.08 147:  2.22 148:  2.96 149: 18.48 150:378.99 151:217.41 152:122.78
 153: 23.33 154:  7.53 155: 25.03 156: 14.77 157: 16.38 158: 13.22 159: 25.47 160:306.74
 161:  5.46 162:215.12 163:  0.33 164:  3.28 165:321.02 166:  1.08 167:  0.66 168: 91.94
 169: 35.97 170: 44.05 171: 76.73 172: 23.91 173:278.06 174:343.96 175:  4.63 176:  4.44
 177:  1.00 178: 10.58 179:  1.91 180: 49.42 181: 98.29 182: 77.81 183: 85.56 184:  1.33
 185: 36.54 186: 60.92 187:250.80 188:234.49 189:739.38 190:452.35 191:  5.56 192:  1.54
 193:  2.94 194:320.22 195: 13.93 196:212.77 197: 32.77 198: 57.48 199: 15.56 200:226.63
 201: 46.28 202: 87.88 203:130.78 204: 34.61 205:  6.91 206:209.78 207:  0.81 208:  5.40
 209:  4.02 210: 14.01 211:130.35 212: 16.05 213:110.66 214:203.37 215:289.83 216:125.60
 217: 98.89 218:107.58 219:101.90 220: 95.15 221:  7.61 222:208.71 223:277.73 224: 47.71
 225: 56.40 226:662.21 227:  9.12 228:  9.79
 Raman intensities (Ä⁴*amu⁻¹)
   1:  0.00   2:  0.00   3:  0.00   4:  0.00   5:  0.00   6:  0.00   7:  0.00   8:  0.00
   9:  0.00  10:  0.00  11:  0.00  12:  0.00  13:  0.00  14:  0.00  15:  0.00  16:  0.00
  17:  0.00  18:  0.00  19:  0.00  20:  0.00  21:  0.00  22:  0.00  23:  0.00  24:  0.00
  25:  0.00  26:  0.00  27:  0.00  28:  0.00  29:  0.00  30:  0.00  31:  0.00  32:  0.00
  33:  0.00  34:  0.00  35:  0.00  36:  0.00  37:  0.00  38:  0.00  39:  0.00  40:  0.00
  41:  0.00  42:  0.00  43:  0.00  44:  0.00  45:  0.00  46:  0.00  47:  0.00  48:  0.00
  49:  0.00  50:  0.00  51:  0.00  52:  0.00  53:  0.00  54:  0.00  55:  0.00  56:  0.00
  57:  0.00  58:  0.00  59:  0.00  60:  0.00  61:  0.00  62:  0.00  63:  0.00  64:  0.00
  65:  0.00  66:  0.00  67:  0.00  68:  0.00  69:  0.00  70:  0.00  71:  0.00  72:  0.00
  73:  0.00  74:  0.00  75:  0.00  76:  0.00  77:  0.00  78:  0.00  79:  0.00  80:  0.00
  81:  0.00  82:  0.00  83:  0.00  84:  0.00  85:  0.00  86:  0.00  87:  0.00  88:  0.00
  89:  0.00  90:  0.00  91:  0.00  92:  0.00  93:  0.00  94:  0.00  95:  0.00  96:  0.00
  97:  0.00  98:  0.00  99:  0.00 100:  0.00 101:  0.00 102:  0.00 103:  0.00 104:  0.00
 105:  0.00 106:  0.00 107:  0.00 108:  0.00 109:  0.00 110:  0.00 111:  0.00 112:  0.00
 113:  0.00 114:  0.00 115:  0.00 116:  0.00 117:  0.00 118:  0.00 119:  0.00 120:  0.00
 121:  0.00 122:  0.00 123:  0.00 124:  0.00 125:  0.00 126:  0.00 127:  0.00 128:  0.00
 129:  0.00 130:  0.00 131:  0.00 132:  0.00 133:  0.00 134:  0.00 135:  0.00 136:  0.00
 137:  0.00 138:  0.00 139:  0.00 140:  0.00 141:  0.00 142:  0.00 143:  0.00 144:  0.00
 145:  0.00 146:  0.00 147:  0.00 148:  0.00 149:  0.00 150:  0.00 151:  0.00 152:  0.00
 153:  0.00 154:  0.00 155:  0.00 156:  0.00 157:  0.00 158:  0.00 159:  0.00 160:  0.00
 161:  0.00 162:  0.00 163:  0.00 164:  0.00 165:  0.00 166:  0.00 167:  0.00 168:  0.00
 169:  0.00 170:  0.00 171:  0.00 172:  0.00 173:  0.00 174:  0.00 175:  0.00 176:  0.00
 177:  0.00 178:  0.00 179:  0.00 180:  0.00 181:  0.00 182:  0.00 183:  0.00 184:  0.00
 185:  0.00 186:  0.00 187:  0.00 188:  0.00 189:  0.00 190:  0.00 191:  0.00 192:  0.00
 193:  0.00 194:  0.00 195:  0.00 196:  0.00 197:  0.00 198:  0.00 199:  0.00 200:  0.00
 201:  0.00 202:  0.00 203:  0.00 204:  0.00 205:  0.00 206:  0.00 207:  0.00 208:  0.00
 209:  0.00 210:  0.00 211:  0.00 212:  0.00 213:  0.00 214:  0.00 215:  0.00 216:  0.00
 217:  0.00 218:  0.00 219:  0.00 220:  0.00 221:  0.00 222:  0.00 223:  0.00 224:  0.00
 225:  0.00 226:  0.00 227:  0.00 228:  0.00
 output can be read by thermo (or use thermo option).
 writing <g98.out> molden fake output.
 recommended (thermochemical) frequency scaling factor: 1.0
           -------------------------------------------------
          |             Thermodynamic Functions             |
           -------------------------------------------------

Molecule has no symmetry elements
It seems to be the C1 point group
c1  symmetry found (for desy threshold:  0.10E+00) used in thermo

          ...................................................
          :                      SETUP                      :
          :.................................................:
          :  # frequencies                         222      :
          :  # imaginary freq.                       0      :
          :  linear?                             false      :
          :  only rotor calc.                    false      :
          :  symmetry                               c1      :
          :  rotational number                       1      :
          :  scaling factor                  1.0000000      :
          :  rotor cutoff                   50.0000000 cm⁻¹ :
          :  imag. cutoff                  -20.0000000 cm⁻¹ :
          :.................................................:

    mode    ω/cm⁻¹     T·S(HO)/kcal·mol⁻¹    T·S(FR)/kcal·mol⁻¹   T·S(vib)
   ------------------------------------------------------------------------
       1     11.54    -2.30354 (  0.28%)    -1.49080 ( 99.72%)    -1.49310
       2     15.22    -2.13980 (  0.85%)    -1.40891 ( 99.15%)    -1.41513
       3     19.65    -1.98855 (  2.33%)    -1.33325 ( 97.67%)    -1.34851
       4     22.11    -1.91857 (  3.68%)    -1.29823 ( 96.32%)    -1.32109
       5     26.85    -1.80358 (  7.68%)    -1.24068 ( 92.32%)    -1.28392
       6     34.47    -1.65598 ( 18.42%)    -1.16675 ( 81.58%)    -1.25686
       7     35.50    -1.63850 ( 20.26%)    -1.15799 ( 79.74%)    -1.25536
       8     54.18    -1.38894 ( 57.97%)    -1.03273 ( 42.03%)    -1.23922
       9     61.44    -1.31496 ( 69.51%)    -0.99550 ( 30.49%)    -1.21756
      10     64.07    -1.29032 ( 72.94%)    -0.98309 ( 27.06%)    -1.20719
      11     67.76    -1.25740 ( 77.13%)    -0.96649 ( 22.87%)    -1.19088
      12     71.74    -1.22392 ( 80.91%)    -0.94959 ( 19.09%)    -1.17154
      13     76.26    -1.18808 ( 84.40%)    -0.93149 ( 15.60%)    -1.14806
      14     80.64    -1.15538 ( 87.12%)    -0.91494 ( 12.88%)    -1.12442
      15     90.34    -1.08907 ( 91.42%)    -0.88131 (  8.58%)    -1.07125
      16    115.45    -0.94668 ( 96.60%)    -0.80865 (  3.40%)    -0.94199
      17    138.75    -0.84109 ( 98.34%)    -0.75418 (  1.66%)    -0.83964
      18    162.07    -0.75298 ( 99.10%)    -0.70817 (  0.90%)    -0.75258
      19    177.38    -0.70237 ( 99.37%)    -0.68142 (  0.63%)    -0.70224
      20    182.99    -0.68506 ( 99.45%)    -0.67220 (  0.55%)    -0.68499
      21    189.92    -0.66446 ( 99.52%)    -0.66119 (  0.48%)    -0.66445
      22    205.52    -0.62107 ( 99.65%)    -0.63780 (  0.35%)    -0.62113
      23    210.15    -0.60892 ( 99.68%)    -0.63120 (  0.32%)    -0.60900
      24    220.58    -0.58267 ( 99.74%)    -0.61685 (  0.26%)    -0.58276
      25    236.38    -0.54560 ( 99.80%)    -0.59636 (  0.20%)    -0.54570
      26    237.73    -0.54258 ( 99.80%)    -0.59467 (  0.20%)    -0.54268
      27    239.35    -0.53896 ( 99.81%)    -0.59266 (  0.19%)    -0.53906
      28    258.95    -0.49756 ( 99.86%)    -0.56934 (  0.14%)    -0.49766
      29    264.95    -0.48567 ( 99.87%)    -0.56256 (  0.13%)    -0.48577
      30    268.37    -0.47903 ( 99.88%)    -0.55876 (  0.12%)    -0.47912
   ------------------------------------------------------------------------

   temp. (K)  partition function   enthalpy   heat capacity  entropy
                                   cal/mol     cal/K/mol   cal/K/mol   J/K/mol
 298.15  VIB  0.550E+17            21410.789    136.404    132.927
         ROT  0.550E+08              888.752      2.981     38.399
         INT  0.303E+25            22299.541    139.385    171.326
         TR   0.138E+29             1481.254      4.968     44.976
         TOT                       23780.7949   144.3529   216.3017   905.0064

       T/K    H(0)-H(T)+PV         H(T)/Eh          T*S/Eh         G(T)/Eh
   ------------------------------------------------------------------------
    298.15    0.378971E-01    0.620541E+00    0.102772E+00    0.517769E+00
   ------------------------------------------------------------------------

         :::::::::::::::::::::::::::::::::::::::::::::::::::::
         ::                  THERMODYNAMIC                  ::
         :::::::::::::::::::::::::::::::::::::::::::::::::::::
         :: total free energy        -114.722975677492 Eh   ::
         ::.................................................::
         :: total energy             -115.240745031819 Eh   ::
         :: zero point energy           0.582644169588 Eh   ::
         :: G(RRHO) w/o ZPVE           -0.064874815262 Eh   ::
         :: G(RRHO) contrib.            0.517769354327 Eh   ::
         :::::::::::::::::::::::::::::::::::::::::::::::::::::

optimized geometry written to: xtbopt.xyz


           -------------------------------------------------
          | TOTAL ENERGY             -115.240745031819 Eh   |
          | TOTAL ENTHALPY           -114.620203753282 Eh   |
          | TOTAL FREE ENERGY        -114.722975677492 Eh   |
          | GRADIENT NORM               0.000040080603 Eh/α |
          | HOMO-LUMO GAP               0.364541778537 eV   |
           -------------------------------------------------

------------------------------------------------------------------------
 * finished run on 2025/09/11 at 05:24:13.305     
------------------------------------------------------------------------
 total:
 * wall-time:     0 d,  0 h,  0 min,  7.936 sec
 *  cpu-time:     0 d,  0 h,  4 min, 49.128 sec
 * ratio c/w:    36.431 speedup
 SCF:
 * wall-time:     0 d,  0 h,  0 min,  0.284 sec
 *  cpu-time:     0 d,  0 h,  0 min, 10.045 sec
 * ratio c/w:    35.313 speedup
 ANC optimizer:
 * wall-time:     0 d,  0 h,  0 min,  3.530 sec
 *  cpu-time:     0 d,  0 h,  2 min, 21.166 sec
 * ratio c/w:    39.996 speedup
 analytical hessian:
 * wall-time:     0 d,  0 h,  0 min,  3.589 sec
 *  cpu-time:     0 d,  0 h,  2 min,  8.882 sec
 * ratio c/w:    35.909 speedup

