$hessian                                                                        
        0.3913639523  -0.2081767846  -0.1880275016  -0.0808488436  -0.0226179542
        0.0758117087  -0.0027993881  -0.0125740924   0.0206444321  -0.0025671290
        0.0051368595  -0.0114535398  -0.0000709038   0.0001235479   0.0004590223
        0.0001036909   0.0000452036  -0.0001299957   0.0000924605   0.0000584644
        0.0000328571   0.0000060316  -0.0000369801  -0.0000040654   0.0000218091
        0.0000230654  -0.0000235754   0.0000170538   0.0000003395  -0.0000247290
       -0.0000056533   0.0000020244   0.0000202308  -0.0001133397   0.0001270108
        0.0002543192  -0.0000090737   0.0000210411   0.0000208549   0.0000306337
       -0.0000174343   0.0000338307   0.0000007385  -0.0000431182   0.0000105746
        0.0000824774   0.0000601326   0.0000224485  -0.0000767345   0.0000138360
       -0.0000357945  -0.0000105003   0.0000251595  -0.0000692266   0.0000296823
       -0.0000799038   0.0000088732  -0.0000306099  -0.0000120790  -0.0000440328
        0.0000233660   0.0000047154   0.0000343064   0.0000101282  -0.0000144829
        0.0000242289  -0.0000251631  -0.0000042719   0.0000008855  -0.0279656170
        0.0240541065   0.0174627231  -0.1277696471   0.1349704284  -0.0289660107
       -0.1576488278   0.0665366095   0.1142053024   0.0026189792   0.0080299730
       -0.0122289784   0.0014365156   0.0043489820   0.0054560973  -0.0000218584
       -0.0000210899   0.0000241711  -0.0000104589  -0.0000011754   0.0000033923
       -0.0000016848  -0.0000004002  -0.0000073823   0.0000052038  -0.0000034008
        0.0000028212   0.0000032488  -0.0000194327  -0.0000308709  -0.0000731768
       -0.0000958004  -0.0000289412   0.0000036305   0.0000110322   0.0000107107
        0.0000107499   0.0000070438   0.0000078735   0.0000067961  -0.0000018294
       -0.0000055287   0.0000057189   0.0000345872  -0.0000396902  -0.0000125242
       -0.0000163106  -0.0000262821   0.0000067374  -0.0000013568  -0.0000021624
       -0.0000024217   0.0000013718  -0.0000002030  -0.0000070072   0.0000111193
        0.0000133040  -0.0000349517   0.0000791056   0.0000602834   0.0014173998
        0.0042921330   0.0052930523   0.0028085103  -0.0042799947   0.0012302064
       -0.2081767846   0.5078493918  -0.1240522894   0.0144329897  -0.1360375695
        0.0806998180  -0.0404385150   0.0424388538   0.0141494134   0.0054197782
       -0.0407532303   0.0317214200   0.0000164531   0.0000301622  -0.0001746598
       -0.0002468762  -0.0001599398   0.0001121630  -0.0002029764  -0.0001207284
        0.0000379270   0.0000029911   0.0000689410   0.0000224968  -0.0000363531
        0.0000105294   0.0000576963  -0.0000338082  -0.0000703175   0.0000240937
        0.0000318097   0.0000571194  -0.0001120549  -0.0001595721   0.0000645639
       -0.0000431524  -0.0001480083  -0.0000808253  -0.0000717933   0.0001492650
       -0.0000444461   0.0001066331   0.0000419277   0.0001512543  -0.0001029256
       -0.0001734279  -0.0001322664  -0.0001117482   0.0000279655   0.0000290453
        0.0002255412   0.0000685906  -0.0001872348   0.0000882944  -0.0000622810
        0.0001883496   0.0000368447   0.0000942821  -0.0000301752   0.0000777887
       -0.0000215260  -0.0000693104  -0.0000598492  -0.0000471485   0.0000893223
       -0.0000857752   0.0002876438   0.0000508839  -0.0000002461   0.0522527182
       -0.0183378481  -0.0571653638   0.0974406745  -0.2559649454   0.0821935833
        0.0665118075  -0.0745832231  -0.0560516230  -0.0033401968  -0.0147246927
        0.0226145847   0.0043581986   0.0023739912  -0.0003749647  -0.0000455610
        0.0000258773   0.0001175915  -0.0000071696   0.0000131142  -0.0000044455
       -0.0000048980   0.0000019223   0.0000087847   0.0000011999   0.0000010566
        0.0000056970  -0.0000138753   0.0000088262   0.0000158531   0.0000679349
        0.0002061954   0.0000410049   0.0000165391   0.0000087329  -0.0000188497
       -0.0000111538   0.0000217698   0.0000037746  -0.0000108366   0.0000161612
        0.0000053387   0.0000219329   0.0000636468  -0.0000610290   0.0000196700
       -0.0000113731   0.0000117217   0.0000041877  -0.0000008195   0.0000005258
       -0.0000004648  -0.0000154357  -0.0000030156   0.0000172512  -0.0000117179
       -0.0000263318   0.0001082165  -0.0002201239  -0.0001583289   0.0041530401
        0.0023330812   0.0003191997   0.0076343658  -0.0145465688   0.0059806560
       -0.1880275016  -0.1240522894   0.5454827740   0.0334364878   0.1368314473
       -0.2578126425   0.0524453198  -0.0278876019  -0.0469587294  -0.0117398337
        0.0316336555  -0.0242251494  -0.0001091398  -0.0004552658  -0.0007847264
        0.0001125330   0.0001689651   0.0000900899   0.0003160890   0.0000842674
       -0.0000860954  -0.0000313190  -0.0000866420   0.0000285794   0.0000044457
       -0.0000538199  -0.0000705053   0.0000508738   0.0001137513   0.0000303628
       -0.0000803428  -0.0000712319   0.0001506469   0.0003890151  -0.0002492813
       -0.0003189458   0.0001121824   0.0001130140   0.0000027383  -0.0001954199
        0.0000658939  -0.0001040974  -0.0000098849  -0.0001024603   0.0000877126
        0.0000465934   0.0000586640   0.0001048154   0.0000480406  -0.0000582941
       -0.0001507109  -0.0000074167   0.0001373064  -0.0000001871  -0.0000061356
       -0.0000377564  -0.0000290152  -0.0000051359   0.0000437170   0.0000100573
       -0.0000247398   0.0000520345   0.0000105715   0.0000198754  -0.0000017023
        0.0000261998  -0.0000838836  -0.0000414635  -0.0000151299  -0.0141462209
       -0.0148055332   0.0389683526   0.0127451185   0.0261313860  -0.0949651190
        0.1141801985  -0.0560296510  -0.1449286484   0.0011211463   0.0057328465
       -0.0067425441   0.0052369000   0.0002797200  -0.0001072414   0.0002351998
        0.0000036355  -0.0002653888   0.0000359643  -0.0000037641  -0.0000090260
        0.0000043169   0.0000008966  -0.0000127502  -0.0000051194   0.0000014083
       -0.0000005527   0.0000129720   0.0000147273   0.0000266285   0.0000101396
       -0.0001159030   0.0000051534  -0.0000152060  -0.0000181512   0.0000068137
        0.0000068255  -0.0000406300  -0.0000069750   0.0000046527  -0.0000209764
       -0.0000037787  -0.0000072953  -0.0001000373   0.0001245434  -0.0000028377
        0.0000310992   0.0000290007  -0.0000055933   0.0000043976   0.0000026999
        0.0000012151   0.0000067809   0.0000160346  -0.0000039943  -0.0000019769
        0.0000133771   0.0000421386   0.0000426832   0.0000225802   0.0053677638
       -0.0003431363  -0.0000651726  -0.0114789875   0.0230252710  -0.0075766003
       -0.0808488436   0.0144329897   0.0334364878   0.3887204719  -0.2115273849
       -0.1736895352  -0.1827314975   0.0606683634   0.1421245257  -0.0288968535
        0.0507959823  -0.0136022983   0.0025057168   0.0036175500   0.0003015577
        0.0004866005  -0.0001642601  -0.0003832281   0.0002162935   0.0000170236
       -0.0000439463   0.0000199532  -0.0000603629  -0.0001215264   0.0000096133
       -0.0000213578  -0.0000482680   0.0000192996   0.0000468405  -0.0000156419
        0.0001093967   0.0001136634  -0.0000194596   0.0000634255  -0.0000703029
        0.0004390100   0.0002575159   0.0002642591   0.0000084114  -0.0001373069
        0.0000808228  -0.0001661628   0.0000292866  -0.0001497749   0.0001955522
        0.0001483555   0.0000537834   0.0001022094   0.0000251979  -0.0003306262
       -0.0000833807  -0.0001918664   0.0004772451   0.0002386999  -0.0000501293
       -0.0000365346  -0.0000779543  -0.0000407654   0.0000570872  -0.0000183275
        0.0000177291   0.0000517369   0.0000336580   0.0000189544  -0.0000099172
        0.0000427603  -0.0001042621  -0.0001182578   0.0000053450  -0.0190764789
       -0.0055752004   0.0269714831   0.0270989287  -0.0194285813  -0.0170202675
       -0.0052334835  -0.0088960749   0.0189512505  -0.1000727472   0.1086804040
       -0.0250914550  -0.0044786513   0.0019553011   0.0060077846  -0.0005320554
       -0.0000887202   0.0000028221   0.0000120195   0.0000119275   0.0000035822
        0.0000168036   0.0000086965  -0.0000263773   0.0000092414   0.0000011966
       -0.0000283204  -0.0000017100  -0.0000325029  -0.0000299759  -0.0000430148
       -0.0001055027  -0.0000148362  -0.0000207315  -0.0000048348   0.0000126228
       -0.0000064183  -0.0000064570  -0.0000078021  -0.0000004575   0.0000019180
       -0.0000121504  -0.0000049916   0.0000222911   0.0000412132  -0.0000250323
        0.0000004253  -0.0000354395  -0.0000113897   0.0000082234  -0.0000093133
       -0.0000002484   0.0000083138  -0.0000024999  -0.0000011107   0.0000128399
        0.0000069419  -0.0000768439   0.0001678248   0.0000986425  -0.0001730293
       -0.0005555961   0.0002115604   0.0029751155   0.0056255403   0.0013120462
       -0.0226179542  -0.1360375695   0.1368314473  -0.2115273849   0.5137970705
       -0.1357331715   0.0966878616  -0.1127001361  -0.0718702213   0.0230417884
       -0.0180054478  -0.0150564657   0.0046173067  -0.0014188946   0.0031063177
       -0.0001015708  -0.0000516073  -0.0001707127  -0.0002515710  -0.0000693612
       -0.0001129250   0.0000580478   0.0000837928   0.0000159315  -0.0000253356
        0.0000256923   0.0000847223  -0.0000421513  -0.0000688483  -0.0000089587
        0.0000790448   0.0000387058  -0.0001659108  -0.0004965654   0.0000377136
        0.0003137067   0.0001116477   0.0000492221   0.0002056450  -0.0000801507
       -0.0000498150  -0.0001563985   0.0000161177  -0.0000428566   0.0000634938
        0.0001135430   0.0000195827  -0.0000600587  -0.0000288136   0.0000213938
        0.0001288178   0.0007831848  -0.0005706127  -0.0008139615   0.0001810252
       -0.0001493473   0.0000867132  -0.0000196663  -0.0000646418   0.0000343173
       -0.0000238242   0.0000310115  -0.0000244800  -0.0000161503  -0.0000198182
        0.0000091846  -0.0000350627  -0.0000576728  -0.0000110920  -0.0061854425
        0.0006685213   0.0026048477   0.0083579582  -0.0324720328   0.0253968195
        0.0024235193   0.0048997121  -0.0085321456   0.1086171790  -0.2213071992
        0.0509587912  -0.0088224151   0.0047574715   0.0096920124   0.0001636646
        0.0001458543   0.0000878414  -0.0000201497   0.0000047678  -0.0000030611
       -0.0000210948  -0.0000059880   0.0000245079  -0.0000138624   0.0000074505
        0.0000230591  -0.0000070986   0.0000366970   0.0000489025   0.0000204189
        0.0000706069  -0.0000377521   0.0000154448   0.0000262237   0.0000026296
        0.0000016902   0.0000243130   0.0000236684   0.0000203121  -0.0000061352
        0.0000326063  -0.0000203131   0.0000074326  -0.0000531810   0.0000353604
        0.0000252699   0.0000322743   0.0000109590  -0.0000087370   0.0000024075
        0.0000096523   0.0000121186  -0.0000015351  -0.0000067435  -0.0000044152
       -0.0000072520   0.0000583598  -0.0000544642  -0.0000493680  -0.0003827441
        0.0006235529  -0.0001852875   0.0053219786  -0.0022485764   0.0032432737
        0.0758117087   0.0806998180  -0.2578126425  -0.1736895352  -0.1357331715
        0.5421494277   0.0990445870  -0.0159447759  -0.1832650694   0.0178265635
       -0.0563302128   0.0388989862   0.0008744064   0.0034634430   0.0026414874
        0.0001192064  -0.0002281103  -0.0005350307  -0.0005272785  -0.0002176659
       -0.0000143472  -0.0001176916   0.0000032266   0.0001360655  -0.0000146354
       -0.0000002684   0.0000887411  -0.0000097726  -0.0000856503  -0.0000201535
       -0.0000049817   0.0001079250  -0.0000489697  -0.0008560043   0.0003484376
        0.0003617173  -0.0000785947  -0.0000613083   0.0000195087   0.0001651358
       -0.0001565851   0.0000556089  -0.0000324037   0.0001041539  -0.0001016285
       -0.0000032066  -0.0000946229  -0.0001092596   0.0001105175   0.0003092826
        0.0000758890  -0.0000272527  -0.0001090373   0.0001381874  -0.0000808536
        0.0002027236   0.0000014425   0.0000707842  -0.0000391446   0.0000380240
       -0.0000005420  -0.0001136940  -0.0000703098  -0.0000463541   0.0000855723
       -0.0000687209   0.0002829971   0.0000011359  -0.0000344964   0.0280188798
        0.0015554251  -0.0498343455  -0.0486298031   0.0678833642  -0.0015448074
        0.0060989803   0.0086691740  -0.0186276338  -0.0255620005   0.0506311222
       -0.0555251127   0.0190165253  -0.0076800756  -0.0197889612   0.0001191122
       -0.0000617604   0.0003039912  -0.0000025602   0.0000263328  -0.0000148172
       -0.0000050184  -0.0000010747   0.0000160801   0.0000232857   0.0000052525
        0.0000130645  -0.0000005816   0.0000299969  -0.0000066807  -0.0000002668
        0.0001610591   0.0000539015   0.0000155527   0.0000073816  -0.0000052515
       -0.0000291284   0.0000229631   0.0000385724   0.0000073390  -0.0000100535
        0.0000358093  -0.0000679644   0.0000156814   0.0000727413   0.0000272682
       -0.0000186522   0.0000200170   0.0000056569  -0.0000070805   0.0000116442
       -0.0000022496  -0.0000180295   0.0000011106   0.0000260395  -0.0000079663
        0.0000015864   0.0000299293  -0.0001616848  -0.0000780119   0.0003707900
       -0.0001138344  -0.0002760524   0.0017234140   0.0028609880   0.0026086988
       -0.0027993881  -0.0404385150   0.0524453198  -0.1827314975   0.0966878616
        0.0990445870   0.3887771067  -0.2008545460  -0.1824825573  -0.1242042307
        0.0924672387   0.0067892457  -0.0130384120   0.0188075635   0.0021044255
       -0.0002681563   0.0000816405  -0.0009421658  -0.0025934351  -0.0002897244
        0.0003759129   0.0000853894   0.0003158426  -0.0001478689  -0.0000269578
        0.0000830242   0.0002863255  -0.0001034729  -0.0002831958  -0.0000353095
        0.0003738031   0.0002039266  -0.0005371094  -0.0015570916   0.0006776967
       -0.0000666463  -0.0000713096  -0.0002963439  -0.0001617897   0.0002570054
       -0.0001135699   0.0000797964  -0.0000083183   0.0001480248  -0.0001127900
        0.0000068273  -0.0000856773  -0.0000541317   0.0001162819   0.0001291257
       -0.0002267212  -0.0016213331   0.0015880542   0.0028895744  -0.0006899413
        0.0007285645  -0.0003863740   0.0001769157   0.0001995061   0.0000749745
       -0.0000045897  -0.0000788366  -0.0000317612   0.0001099166  -0.0000044196
       -0.0000782690   0.0003733310   0.0002387165   0.0001816523   0.0250501212
        0.0068767015  -0.0451568904  -0.0329440107   0.0297676735   0.0081513968
        0.0043067917   0.0018966953   0.0031876885  -0.0120870742   0.0080200599
        0.0095176765  -0.0461604353  -0.0173155338   0.0411711716  -0.0023421812
       -0.0011120103   0.0004564706  -0.0000574311  -0.0000022503  -0.0000250587
       -0.0000172500  -0.0000244772   0.0000497778   0.0000039892   0.0000001067
        0.0000162435  -0.0000322397   0.0000304528  -0.0000049754  -0.0000170246
        0.0001413194   0.0000661961   0.0000348940   0.0000052604   0.0000083671
       -0.0000379556   0.0000214112   0.0000418973   0.0000256542  -0.0000028025
        0.0000532696  -0.0001243007  -0.0000509253  -0.0000275683  -0.0000283481
       -0.0000656203  -0.0000089504  -0.0000605805   0.0000638580  -0.0000151931
       -0.0000279519  -0.0000233865   0.0000077337  -0.0000109328  -0.0000079570
       -0.0000182291   0.0000324969  -0.0002515853  -0.0001811377   0.0040945715
        0.0016965410   0.0037004064  -0.0001592453   0.0004245112   0.0000013875
       -0.0125740924   0.0424388538  -0.0278876019   0.0606683634  -0.1127001361
       -0.0159447759  -0.2008545460   0.4888049289  -0.1294619266   0.1236183450
       -0.2306256508   0.0269559681   0.0111751891  -0.0133496070  -0.0055273790
       -0.0010946591  -0.0003448437   0.0009708380  -0.0006854993  -0.0001456817
        0.0001806308  -0.0000117052   0.0000580635   0.0001132806  -0.0000017762
       -0.0000151562  -0.0000001812  -0.0000054289  -0.0000350059   0.0000110854
       -0.0001810932  -0.0000375150   0.0000400063   0.0021025722  -0.0010141477
       -0.0009360450   0.0002958511   0.0003551109  -0.0000160265  -0.0002653516
        0.0000508135  -0.0000626752  -0.0000228726  -0.0000790813   0.0001117944
       -0.0000641694  -0.0000251852   0.0001603751   0.0005871670  -0.0001501848
       -0.0001577290   0.0006519171  -0.0002028027  -0.0013411351   0.0002909760
       -0.0005280345   0.0000814698  -0.0001670075  -0.0000695337  -0.0000894400
        0.0000199693   0.0001501550   0.0001119874  -0.0000209436  -0.0000497263
        0.0001662758  -0.0005379951   0.0000597073  -0.0000414268  -0.0178217924
       -0.0306737740   0.0641457871   0.0291101574  -0.0330869257  -0.0134504474
        0.0016912342   0.0014180600   0.0046593828   0.0193380376  -0.0114662295
       -0.0150534070  -0.0174770350  -0.0997816024   0.1078123549   0.0000939463
        0.0004870835  -0.0000373453  -0.0000081166   0.0000040047  -0.0000136451
       -0.0000458308  -0.0000066767   0.0000370775  -0.0000151762   0.0000059491
        0.0000562994  -0.0000317830   0.0000852376   0.0000741437  -0.0000239566
       -0.0002911707   0.0000565178  -0.0000164258  -0.0000102410   0.0000271404
        0.0000329477  -0.0000563469  -0.0000038990  -0.0000089136  -0.0000270660
        0.0000372757  -0.0000731802  -0.0002640160   0.0002115409   0.0000239937
        0.0000913520   0.0000465057   0.0000211151   0.0000145725   0.0000172603
        0.0000079325   0.0000483320  -0.0000104991  -0.0000150761   0.0000066240
        0.0000004731   0.0002033629   0.0001177964   0.0002405074   0.0019240826
        0.0010180590   0.0044128962   0.0001672662  -0.0001783622  -0.0007032892
        0.0206444321   0.0141494134  -0.0469587294   0.1421245257  -0.0718702213
       -0.1832650694  -0.1824825573  -0.1294619266   0.5599395004  -0.0316208574
        0.0776130889  -0.0934625436   0.0102150320  -0.0155263191   0.0022047359
        0.0004144801  -0.0009225283   0.0002495348   0.0002023779   0.0002080843
       -0.0004099914   0.0000955785   0.0001217566  -0.0001012865  -0.0000046662
        0.0000405016   0.0000513777  -0.0001186033  -0.0000021726  -0.0000583341
        0.0002390158   0.0000263868   0.0000591985   0.0015446452  -0.0015093022
       -0.0004082258   0.0001636353  -0.0000179233  -0.0004333561  -0.0000065716
        0.0002050090   0.0000193569  -0.0000201754  -0.0000721014   0.0000030248
        0.0002256566   0.0001771308   0.0002276800  -0.0001518208  -0.0006457055
       -0.0004599925   0.0016286721  -0.0007458349  -0.0027858449   0.0006264860
       -0.0006040108   0.0004064672  -0.0001722265  -0.0002070330  -0.0000195130
       -0.0000018658   0.0000712508   0.0000571014  -0.0001136710  -0.0001075154
        0.0000384446  -0.0002033135  -0.0000252907  -0.0000375173  -0.0166263794
        0.0249323724  -0.0018378990   0.0085462624  -0.0142162076  -0.0023580976
        0.0034962795   0.0043772571  -0.0026487011  -0.0031033306   0.0019404931
        0.0037610376   0.0413490077   0.1080020920  -0.2299050061  -0.0003570621
       -0.0000302823   0.0004415977   0.0000424102   0.0000492250   0.0000516215
        0.0000376409   0.0000206564   0.0000160981   0.0000119686   0.0000354723
       -0.0000488418  -0.0000158965   0.0000137563   0.0001035848   0.0000215658
       -0.0000008478  -0.0001249970  -0.0000583899  -0.0000379435  -0.0000080247
       -0.0000350501  -0.0000325077  -0.0000447666  -0.0000294057  -0.0000020308
       -0.0000896108   0.0000423174  -0.0001038162  -0.0002574931   0.0000180954
        0.0000402463  -0.0000085451   0.0000887326  -0.0000981824  -0.0000054376
        0.0000700789  -0.0000185919  -0.0000024168   0.0000529943  -0.0000125340
        0.0000611690   0.0000109382   0.0001009445  -0.0000625818   0.0034064465
        0.0047770024  -0.0025118313  -0.0001974323  -0.0006313108   0.0006231232
       -0.0025671290   0.0054197782  -0.0117398337  -0.0288968535   0.0230417884
        0.0178265635  -0.1242042307   0.1236183450  -0.0316208574   0.3563113722
       -0.1634529999  -0.1367326469  -0.1014817036   0.0262598614   0.0462684511
       -0.0141252180   0.0007402709   0.0162464521  -0.0008509955   0.0004279364
        0.0004850844   0.0000249329   0.0003165449   0.0004769105  -0.0000113051
        0.0000071428   0.0000688329  -0.0001953953   0.0000262187   0.0007831482
       -0.0016215592  -0.0016290619   0.0006457066   0.0110838229  -0.0008121014
       -0.0013836979  -0.0015550230  -0.0020961237  -0.0015503301   0.0000623503
        0.0004952015   0.0008550756  -0.0001100839   0.0001597871  -0.0003882038
       -0.0006235697   0.0004344443   0.0003953788  -0.0014350200  -0.0005598168
       -0.0013311656  -0.0140473892   0.0127603342   0.0085302404  -0.0015808816
        0.0000974600  -0.0005906745   0.0000464218   0.0008647750  -0.0002826813
        0.0001035023   0.0001128423   0.0002467240   0.0004850853   0.0001158525
        0.0001030974  -0.0002711171   0.0004143908   0.0010916942  -0.0793873248
       -0.0249927921   0.0738233590  -0.0036537675  -0.0130761403   0.0196703841
        0.0004250234  -0.0001817783  -0.0005423701   0.0017222146   0.0044104285
        0.0051848889   0.0029478829  -0.0032343223   0.0007258010  -0.0005550194
       -0.0006335781   0.0000013656   0.0001597707   0.0001699701  -0.0000506366
        0.0000096326   0.0000588711  -0.0000521644  -0.0000714987  -0.0001023130
        0.0000152975  -0.0000477083   0.0000022947  -0.0000877852   0.0002691150
       -0.0003546584  -0.0004199656  -0.0001935029  -0.0001759535  -0.0000537131
        0.0000234198  -0.0001695007  -0.0002104653  -0.0001807822   0.0000012327
       -0.0002752678   0.0002143150  -0.0001171858  -0.0000966095  -0.0001215270
       -0.0000236855   0.0000320280  -0.0000122914   0.0000469167  -0.0000929936
       -0.0000104556  -0.0001060428   0.0000657313   0.0001579469  -0.0001005792
        0.0001010949  -0.0006493534  -0.0000553101  -0.0002889196   0.0029655917
        0.0077887411  -0.0112163892   0.0014483055   0.0040825145   0.0053640611
        0.0051368595  -0.0407532303   0.0316336555   0.0507959823  -0.0180054478
       -0.0563302128   0.0924672387  -0.2306256508   0.0776130889  -0.1634529999
        0.5006854179  -0.1371144535   0.0324514399  -0.0729200322  -0.0259053202
       -0.0085984377   0.0079460211   0.0114517354  -0.0010927828  -0.0003440861
        0.0008774157   0.0000724653   0.0001920711   0.0003561452   0.0000690179
       -0.0000001091  -0.0000884807  -0.0002414284   0.0001377805   0.0008145089
       -0.0028914712  -0.0027928564   0.0013334594   0.0008586363  -0.0053936706
       -0.0157206521  -0.0006694668  -0.0010106377  -0.0015097513   0.0000684906
        0.0000370324   0.0003472722  -0.0001260039   0.0000652501  -0.0002500932
       -0.0005022734   0.0001742745   0.0000970001   0.0001297280  -0.0003629359
       -0.0003577863   0.0162672455  -0.0127901189  -0.0114544806   0.0024446908
       -0.0013532415   0.0013238735  -0.0001635031  -0.0012141155   0.0001335895
       -0.0001295582   0.0000905022  -0.0001130269  -0.0003867453  -0.0005343582
        0.0001700471  -0.0009394351   0.0002514462  -0.0009754827   0.0093538595
       -0.1369259636   0.0793944121  -0.0407627472   0.0424271647   0.0141380093
       -0.0001274814  -0.0003271980   0.0005632427   0.0039591618   0.0022809536
        0.0000686101   0.0066632306  -0.0142581586   0.0065810891  -0.0027160473
       -0.0010763278   0.0002727480   0.0000019998  -0.0000453024  -0.0000120890
       -0.0000856337  -0.0000264197   0.0000090573  -0.0002923381  -0.0001676069
        0.0001998880   0.0000123986  -0.0000857674  -0.0001541976   0.0000348413
       -0.0006562465   0.0000724284   0.0001143136   0.0000723833   0.0000671778
        0.0000838392  -0.0000003864   0.0000817656   0.0000465244  -0.0000320244
        0.0000916932   0.0000112480  -0.0001753195   0.0000830095   0.0000593208
        0.0001540081  -0.0000282999   0.0001180952  -0.0000965507   0.0000705080
        0.0000456342   0.0001376634  -0.0001048738  -0.0001409307   0.0000740175
       -0.0001183033   0.0003560302   0.0004201209  -0.0000973939  -0.0029782902
       -0.0155333204   0.0225659477   0.0046752823   0.0023609756  -0.0000764807
       -0.0114535398   0.0317214200  -0.0242251494  -0.0136022983  -0.0150564657
        0.0388989862   0.0067892457   0.0269559681  -0.0934625436  -0.1367326469
       -0.1371144535   0.5231343880   0.0585531904  -0.0266456303  -0.1077964833
        0.0127557993   0.0006726358  -0.0127015091  -0.0004492723  -0.0006984504
        0.0000956899  -0.0000799308  -0.0001939750  -0.0000766699   0.0000258261
       -0.0001379091  -0.0001871934   0.0004779276   0.0001100212  -0.0005669751
        0.0015822835   0.0007432324  -0.0001956859   0.0015349589  -0.0157259973
       -0.0268657335   0.0000610442  -0.0009467366  -0.0004152232  -0.0004397787
        0.0003167706   0.0003633239  -0.0002530332  -0.0000424499  -0.0003215514
       -0.0010274252   0.0005761136   0.0002687693  -0.0004271328  -0.0001596478
       -0.0012047973  -0.0007747470  -0.0006510496   0.0079570571  -0.0011759073
        0.0018217389  -0.0009660977   0.0004221037   0.0003316923   0.0000901191
       -0.0000452622  -0.0001686378  -0.0001596645   0.0001656303   0.0002279642
       -0.0000509187  -0.0000782719   0.0009234548  -0.0003431647   0.0353954081
        0.1310604119  -0.2403061550   0.0515317684  -0.0275174122  -0.0467946626
       -0.0004469075   0.0005824085   0.0000960690   0.0057122244  -0.0000421828
       -0.0000815033  -0.0115482843   0.0229415354  -0.0081080888  -0.0001909599
        0.0000076148   0.0003872372  -0.0001746164  -0.0002505980   0.0000266278
       -0.0001221682  -0.0000807831   0.0000681089  -0.0000578442   0.0000707326
        0.0000463099  -0.0000860481   0.0000459555   0.0000616276   0.0002286301
        0.0000296042   0.0001656375   0.0002249738   0.0001917647   0.0000966651
        0.0002374469   0.0000094261   0.0000669032   0.0002010307  -0.0000487387
        0.0001730703   0.0002212934  -0.0001254847  -0.0001019765  -0.0000896549
       -0.0001329139  -0.0000408122  -0.0001952486   0.0001966849   0.0000216658
       -0.0001310315   0.0000293761   0.0000031045  -0.0001135345   0.0000421493
       -0.0001019379  -0.0010258825   0.0000448640   0.0001023154  -0.0004933355
        0.0060606586  -0.0069002828   0.0050939769   0.0000253177  -0.0001488960
       -0.0000709038   0.0000164531  -0.0001091398   0.0025057168   0.0046173067
        0.0008744064  -0.0130384120   0.0111751891   0.0102150320  -0.1014817036
        0.0324514399   0.0585531904   0.4682663035  -0.0000538411   0.0001063451
       -0.1015010421  -0.0586239042   0.0323288143  -0.0051871614  -0.0098664306
        0.0014527068   0.0039227017  -0.0030093167   0.0016512976  -0.0000706877
        0.0001095753   0.0000163928   0.0024824783  -0.0008641562   0.0046328385
       -0.0131067014  -0.0102850811   0.0111660334  -0.1010912275  -0.0322846791
       -0.0585625457  -0.0130300438  -0.0111492988  -0.0103112117   0.0024974355
       -0.0046379251  -0.0008691976  -0.0000695495  -0.0000155489   0.0001117227
        0.0039418617  -0.0016622433  -0.0030011391  -0.0051089623  -0.0014487179
       -0.0098223248  -0.1010735279   0.0584967250  -0.0324149945  -0.0051699348
        0.0098671233  -0.0014923529   0.0039460938   0.0030227793  -0.0016447135
       -0.0000698398  -0.0001122038  -0.0000164345   0.0025215882   0.0008814571
       -0.0046208880  -0.0129551002   0.0102383069  -0.0111566696  -0.0052451790
        0.0014949140   0.0099087268   0.0039261096   0.0016360772   0.0030301652
       -0.0007740430  -0.0006242666  -0.0005662938  -0.0006409766   0.0002542712
        0.0004386439  -0.0008746997  -0.0018091016  -0.0003297029  -0.0013049516
        0.0016827447  -0.0003998799  -0.0003313912  -0.0000893429   0.0000919065
       -0.0007721567   0.0005640338  -0.0006256633  -0.0006441729  -0.0004420143
        0.0002546257  -0.0008691418   0.0003238197  -0.0018111833  -0.0008778290
        0.0018106667   0.0003241946  -0.0006420133  -0.0002552361  -0.0004433174
       -0.0007772346   0.0006268388   0.0005634860  -0.0003290837  -0.0000914282
       -0.0000884406  -0.0013149307   0.0004030759   0.0016776169  -0.0013147037
       -0.0016813661   0.0003975993  -0.0003319080   0.0000907977  -0.0000931220
       -0.0007793179  -0.0005658645   0.0006251072  -0.0006385564   0.0004399552
       -0.0002550019  -0.0008838265  -0.0003302469   0.0018081789  -0.0013051751
       -0.0003948217  -0.0016863816  -0.0003342001   0.0000934849   0.0000915675
        0.0001235479   0.0000301622  -0.0004552658   0.0036175500  -0.0014188946
        0.0034634430   0.0188075635  -0.0133496070  -0.0155263191   0.0262598614
       -0.0729200322  -0.0266456303  -0.0000538411   0.4197897343  -0.0000045502
       -0.0463328628  -0.1079532339   0.0258122132  -0.0177848458  -0.0220335176
        0.0059251326  -0.0017110168  -0.0007739456  -0.0045190549  -0.0004583280
       -0.0007854026   0.0001734569  -0.0002939244   0.0026397338  -0.0031004494
       -0.0021450200   0.0021857666   0.0055389602  -0.0260878161  -0.0728223008
       -0.0266684476  -0.0187358200  -0.0133004173  -0.0155961477  -0.0036400728
       -0.0014051089   0.0034480456  -0.0001213069   0.0000304712  -0.0004560479
       -0.0020774995   0.0007590072   0.0041867456   0.0064896849   0.0058772356
        0.0053087334   0.0462147797  -0.1081228782   0.0260746676   0.0177328608
       -0.0220741457   0.0060042511   0.0017230752  -0.0007803292  -0.0045083586
        0.0004566165  -0.0007858140   0.0001750988   0.0003066391   0.0026386845
       -0.0030913973   0.0021430072   0.0021650971   0.0055656301  -0.0064964737
        0.0058852366   0.0052634312   0.0020525445   0.0007529496   0.0041915401
       -0.0006315080  -0.0004420592  -0.0004507139   0.0009712119  -0.0005544366
       -0.0006480993  -0.0009112153  -0.0001376553  -0.0015008326   0.0008370420
        0.0004985711   0.0014287516  -0.0008690363  -0.0008266024   0.0002984270