$hessian                                                                        
        0.5204801946   0.0110369565   0.0022435612  -0.0599850036   0.0209032794
        0.0065135153  -0.0000263532  -0.0236189660  -0.0072130427  -0.0072066537
        0.0166299368   0.0110670828  -0.0000885940   0.0012200230  -0.0002911039
       -0.0005314086  -0.0003664111  -0.0001068993   0.0000107733  -0.0001332167
        0.0000590356  -0.0008144824  -0.0004097872  -0.0002499253  -0.0004471966
       -0.0001619624   0.0027736541  -0.0001669537   0.0001136595  -0.0002546448
        0.0001420206  -0.0000526065  -0.0000057626  -0.0000046042   0.0000526344
       -0.0000060633   0.0000109787  -0.0000052547   0.0000049907  -0.0000129501
       -0.0000029038  -0.0000011669   0.0000200652  -0.0000078722  -0.0000005673
       -0.0000409144  -0.0000023698   0.0000012894  -0.0000010123  -0.0000036887
       -0.0000005432  -0.0000038671   0.0000028171   0.0000012243   0.0000001894
       -0.0000025414   0.0000000880   0.0000002842  -0.0000040725  -0.0000004507
        0.0000012485   0.0000035610   0.0000011602   0.0000050726   0.0000024468
       -0.0000057351   0.0000065790   0.0000060620  -0.0000003501  -0.0000025405
       -0.0000029290   0.0000011475  -0.0000027128  -0.0000044875  -0.0000010000
       -0.0000099642  -0.0000073733   0.0000068177   0.0000008623   0.0000028579
       -0.0000004972  -0.0000000828   0.0000038227  -0.0000008223   0.0000025930
       -0.0000031860   0.0000011280  -0.0000078587  -0.0000098325  -0.0000063164
       -0.0000036340  -0.0000035890   0.0000012155  -0.0000027213  -0.0000032866
       -0.0000008560   0.0000063903   0.0000055530   0.0000005485   0.0000029743
        0.0000048845   0.0000092196   0.0000019365   0.0000018749  -0.0000026830
       -0.0000010130  -0.0000038993  -0.0000007648  -0.0000028525  -0.0000009592
        0.0000005821   0.0000017776  -0.0000027959   0.0000005725  -0.0000303648
        0.0000410862   0.0000015247  -0.0000013201  -0.0000695236  -0.0000021512
        0.0000319108   0.0000462353   0.0000040253  -0.0000030188  -0.0000160384
       -0.0000019430  -0.0000048096   0.0000002664   0.0000001196   0.0000230619
        0.0000114523  -0.0000010508  -0.0000241509   0.0000004453   0.0000303678
       -0.0000041643   0.0000022871  -0.0000243055  -0.0000223304   0.0000032931
        0.0000071854   0.0000118547  -0.0000010702   0.0000038151   0.0000072220
        0.0000008307   0.0000002366   0.0000286910  -0.0000046378   0.0000103795
       -0.0000115047   0.0000003409   0.0000000352  -0.0000001286   0.0000026910
        0.0000000545   0.0000000470  -0.0000008496  -0.0000000775   0.0000282102
       -0.0000043392  -0.0000101958   0.0000074809   0.0000007929   0.0000001520
        0.0000123520  -0.0000012606  -0.0000038757  -0.0000232667   0.0000033403
       -0.0000067615  -0.0000047162   0.0000014649   0.0000239693  -0.0000224708
        0.0000036181  -0.0000281611  -0.0000149436  -0.0000062414  -0.0000006459
        0.0000232299   0.0000262899  -0.0000014597  -0.0000135320  -0.0000325498
       -0.0000019730   0.0000094344   0.0000022021  -0.0000017750   0.0000339559
       -0.0000285840   0.0000039174  -0.0000062346   0.0000591473  -0.0000032448
       -0.0000137347  -0.0000508809  -0.0000018845   0.0002434766   0.0008625391
       -0.0015251961  -0.0005576675  -0.0002819324  -0.0002007163   0.0000435159
       -0.0001219642  -0.0000315588  -0.0003764343  -0.0002052744  -0.0003238097
       -0.0002242504   0.0006260910   0.0010972363  -0.0036290732   0.0145456718
       -0.0024309313  -0.0844446762   0.0488784755  -0.0763432310  -0.2236154087
       -0.0901631399  -0.0510059490  -0.1366389339   0.0049559781   0.1175901800
       -0.0039526958  -0.0037066354  -0.0017126920   0.0008171948  -0.0005248395
        0.0002109985   0.0009141999  -0.0005246245  -0.0003287401   0.0000655655
        0.0002853213  -0.0001390049   0.0000037074   0.0000098955  -0.0000179816
        0.0000610151   0.0001182071   0.0000372120  -0.0000616120   0.0001090200
        0.0001596575  -0.0000288841  -0.0000026577   0.0000158469  -0.0000148220
        0.0000045384   0.0000013170  -0.0000054804  -0.0000248888  -0.0000021303
       -0.0000013016  -0.0000066917  -0.0000015824   0.0000008225  -0.0000002682
       -0.0000010398  -0.0000008483   0.0000001584   0.0000018865   0.0000002517
        0.0000016551   0.0000019877   0.0000018898   0.0000012766   0.0000010413
        0.0000007640   0.0000011558   0.0000013160   0.0000011049   0.0000009320
       -0.0000018227  -0.0000034764  -0.0000015567   0.0000001223  -0.0000000022
        0.0000018507   0.0000012526   0.0000004574   0.0000011939  -0.0000019722
        0.0000012042  -0.0000018929   0.0000003573   0.0000022097   0.0000027732
       -0.0000014174   0.0000006784   0.0000006731  -0.0000021623   0.0000001851
       -0.0000009430  -0.0000013472   0.0000014244  -0.0000002196   0.0000008477
       -0.0000002785   0.0000018301  -0.0000000505  -0.0000016674   0.0000009839
        0.0000001322  -0.0000006877  -0.0000009900   0.0000003701  -0.0000030426
        0.0000000316   0.0000009614   0.0000010147   0.0000001721   0.0000014825
        0.0000010796   0.0000002252  -0.0000024090  -0.0000019547   0.0000005941
        0.0000003435  -0.0000009843  -0.0000003796  -0.0000002353  -0.0000007463
       -0.0000003633   0.0000002211  -0.0000000993   0.0000023571   0.0000002239
       -0.0000005099   0.0000010019   0.0000001222  -0.0000007081   0.0000010783
       -0.0000001272  -0.0000004566  -0.0000011651   0.0000000355  -0.0000018873
        0.0000005471  -0.0000002934   0.0000008791   0.0000001684   0.0000023054
        0.0000011321   0.0000002588  -0.0000019719  -0.0000027532   0.0000000988
       -0.0000004364   0.0000013692  -0.0000015185   0.0000015841  -0.0000261480
        0.0001260402  -0.0000482275   0.0000452290   0.0000798106   0.0000298835
        0.0000010368   0.0000098719   0.0000293734   0.0000387571  -0.0002267181
        0.0004048221
        0.0110369565   0.4412984512  -0.0243385331   0.0135872218  -0.1601246860
       -0.0274212891  -0.0028615205  -0.0208235330  -0.0069616192   0.0069838858
       -0.0044296139  -0.0094641354  -0.0001116255  -0.0006428152   0.0015806805
        0.0005905030   0.0000561961  -0.0003230684  -0.0000788647   0.0001472504
        0.0000709922   0.0002749013   0.0001256469  -0.0002307013  -0.0011389440
       -0.0002482430  -0.0001133553   0.0003830762  -0.0001695803  -0.0007374543
       -0.0000993434   0.0002615841   0.0000482591   0.0000147161  -0.0000503344
       -0.0000199027   0.0000342588   0.0000251629  -0.0000110332  -0.0000341813
       -0.0000695120  -0.0000007669  -0.0000009950   0.0000837096   0.0000063541
       -0.0000125517  -0.0000543750  -0.0000097938   0.0000114467  -0.0000491011
       -0.0000048859  -0.0000249408   0.0000272627   0.0000024100   0.0000237981
        0.0000095478   0.0000011017  -0.0000220338  -0.0000422847  -0.0000099041
        0.0000132619   0.0000449466   0.0000593159   0.0000250872   0.0000063103
       -0.0000376239   0.0000320196   0.0000297058   0.0000100544  -0.0000143078
       -0.0000164781   0.0000000882  -0.0000164888  -0.0000069859   0.0000063551
       -0.0000457452  -0.0000332897   0.0000180175   0.0000115297   0.0000189783
       -0.0000000410  -0.0000015311   0.0000115055  -0.0000033492   0.0000055016
       -0.0000060872   0.0000013771  -0.0000337671  -0.0000365985  -0.0000197736
       -0.0000112985  -0.0000130149  -0.0000002999  -0.0000143244  -0.0000165182
       -0.0000037778   0.0000374969   0.0000269914  -0.0000061663   0.0000163390
        0.0000158438   0.0000293474   0.0000219072   0.0000187026  -0.0000407494
       -0.0000056821  -0.0000117834  -0.0000027714   0.0000088208  -0.0000088685
       -0.0000009864  -0.0000149388   0.0000355583  -0.0000000851  -0.0000242879
       -0.0000814346  -0.0000005936   0.0000565025   0.0001416967   0.0000045675
       -0.0000311680  -0.0001279353  -0.0000085078  -0.0000019508   0.0000254823
        0.0000019000   0.0000099454   0.0000135497   0.0000010753   0.0000271349
        0.0000044794  -0.0000006309  -0.0000127956  -0.0000012210   0.0000173944
       -0.0000168746   0.0000016897  -0.0000085941  -0.0000173533   0.0000021475
       -0.0000016880   0.0000092033  -0.0000010670  -0.0000026094   0.0000067846
       -0.0000005862  -0.0000010041   0.0000233490  -0.0000037733   0.0000086025
       -0.0000139790  -0.0000013629  -0.0000001681   0.0000004268   0.0000046250
       -0.0000000897  -0.0000002455  -0.0000040584  -0.0000000754   0.0000235248
       -0.0000032773  -0.0000085719   0.0000068331  -0.0000006222   0.0000009926
        0.0000093765  -0.0000006939   0.0000025756  -0.0000175615   0.0000024324
        0.0000015550  -0.0000174468   0.0000013951   0.0000083360  -0.0000121133
       -0.0000054909  -0.0000170573   0.0000115107  -0.0000060394   0.0000008287
        0.0000107048   0.0000122225   0.0000060528  -0.0000055746   0.0000041857
        0.0000001011   0.0000005495  -0.0000220575   0.0000009494  -0.0000388855
        0.0001254721  -0.0000017451   0.0000454335  -0.0002072114  -0.0000064948
       -0.0000096462   0.0001250701   0.0000079314  -0.0017803279  -0.0010580084
        0.0017407597   0.0007046555   0.0003625854   0.0004233131   0.0000356385
        0.0000670714   0.0000572482   0.0006682758   0.0002611976   0.0001504917
        0.0003495172  -0.0003417823  -0.0011085290   0.0092057991  -0.0225317398
        0.0058371179   0.0483519757  -0.1013228323   0.0922520582  -0.0896901070
       -0.0873652059  -0.0248071143   0.0044141948  -0.0416913816  -0.0064637057
       -0.0027531760  -0.0019042279  -0.0010952033   0.0008221919   0.0007269055
        0.0004905861   0.0009238559   0.0005101714   0.0000272915  -0.0000039482
       -0.0000687561   0.0003702753  -0.0000218525  -0.0000516880  -0.0000086073
       -0.0000162151  -0.0000217063  -0.0000151991  -0.0000040761  -0.0000026447
       -0.0000077512  -0.0000084395  -0.0000233411   0.0000070661   0.0000207391
        0.0000008203   0.0000032285   0.0000048388   0.0000394967   0.0000116968
        0.0000108448   0.0000135007   0.0000013760  -0.0000048986  -0.0000006831
        0.0000003927  -0.0000039285  -0.0000011828   0.0000045234   0.0000000859
        0.0000023794   0.0000044611   0.0000081095   0.0000004771  -0.0000006847
        0.0000023494  -0.0000006692   0.0000036271   0.0000052739   0.0000007805
       -0.0000039022  -0.0000015147  -0.0000044408   0.0000029122  -0.0000005928
        0.0000017049   0.0000030210   0.0000012358   0.0000022506  -0.0000041382
        0.0000011117  -0.0000041599   0.0000013430   0.0000034620   0.0000033849
       -0.0000011594   0.0000025467   0.0000012776  -0.0000065396  -0.0000036596
       -0.0000022946  -0.0000101300  -0.0000080544   0.0000001550   0.0000002532
        0.0000073158  -0.0000010666   0.0000017220   0.0000032027  -0.0000054238
       -0.0000000001  -0.0000037547   0.0000046254  -0.0000002922   0.0000041956
       -0.0000009446  -0.0000020668   0.0000013818  -0.0000004673   0.0000044887
       -0.0000044744   0.0000001242   0.0000089145  -0.0000030446   0.0000003865
        0.0000010429  -0.0000020518  -0.0000007956  -0.0000040594  -0.0000020467
       -0.0000009289   0.0000038189   0.0000024816   0.0000003061  -0.0000000608
       -0.0000015842   0.0000007433   0.0000038676  -0.0000015569   0.0000008939
       -0.0000039054   0.0000023814   0.0000003252   0.0000000794  -0.0000029545
        0.0000005562  -0.0000011364  -0.0000043265   0.0000005765  -0.0000090203
        0.0000014506  -0.0000000663  -0.0000047803   0.0000042765  -0.0000009476
        0.0000022897  -0.0000020527  -0.0000095117  -0.0000012750   0.0000426790
       -0.0000776094   0.0001006870  -0.0000300328  -0.0001206068  -0.0000298495
       -0.0000179417  -0.0000312900  -0.0000179996   0.0001795048  -0.0007435611
        0.0000098375
        0.0022435612  -0.0243385331   0.5214339001   0.0043630743  -0.0263551560
       -0.0692326891  -0.0010225757  -0.0097886010  -0.0017688262   0.0099117930
       -0.0214134800  -0.0104387511   0.0003067154  -0.0004170128  -0.0009939178
        0.0003355099   0.0002718539   0.0007549978   0.0001796195  -0.0000487123
       -0.0001909199   0.0009208722   0.0005755565   0.0003743073  -0.0001815279
        0.0005444257  -0.0039226724  -0.0003333184  -0.0006950326   0.0022163601
        0.0000311578   0.0000613410   0.0000173652  -0.0000096585   0.0000052354
        0.0000218049   0.0000072061   0.0000033319   0.0000056501  -0.0000228167
       -0.0000354137  -0.0000041637   0.0000235123   0.0000150064  -0.0000045250
       -0.0000170352   0.0000129935   0.0000272127   0.0000054949  -0.0000118793
        0.0000007308  -0.0000043610   0.0000059471   0.0000084677   0.0000052157
        0.0000015063  -0.0000021312  -0.0000094029  -0.0000080045   0.0000159061
       -0.0000004321   0.0000053948   0.0000013764   0.0000095963   0.0000020293
       -0.0000079823   0.0000115631   0.0000093672   0.0000022300  -0.0000046476
       -0.0000052208   0.0000032774  -0.0000037593  -0.0000053177  -0.0000010413
       -0.0000112431  -0.0000074799   0.0000076783   0.0000033565   0.0000054804
       -0.0000010462  -0.0000002914   0.0000046633   0.0000008136   0.0000020681
       -0.0000013517   0.0000022747  -0.0000140831  -0.0000148098  -0.0000052755
       -0.0000039326  -0.0000045090  -0.0000020997  -0.0000056675  -0.0000033988
        0.0000031495   0.0000069513   0.0000072401  -0.0000046868   0.0000019409
        0.0000088560   0.0000108811   0.0000158299   0.0000067679  -0.0000275353
       -0.0000012146  -0.0000024420   0.0000003891   0.0000033952   0.0000008550
        0.0000007542  -0.0000072547   0.0000166419   0.0000029286   0.0000217278
       -0.0000621804  -0.0000023545   0.0000027182   0.0001112517   0.0000054721
       -0.0000244829  -0.0000857038  -0.0000037290  -0.0000022897   0.0000125296
       -0.0000001308  -0.0000023314   0.0000063743  -0.0000007046  -0.0000017962
       -0.0000016424   0.0000036887   0.0000060210  -0.0000008093  -0.0000103529
       -0.0000068254   0.0000002576   0.0000002719  -0.0000053981   0.0000003917
       -0.0000041985   0.0000035911  -0.0000006586  -0.0000020144   0.0000046409
       -0.0000006268  -0.0000026449   0.0000022958  -0.0000003369   0.0000037185
       -0.0000002101  -0.0000004993  -0.0000001229   0.0000009432   0.0000021959
        0.0000002868   0.0000006045  -0.0000022168   0.0000003761   0.0000031430
       -0.0000003499  -0.0000029872   0.0000042150  -0.0000004071   0.0000022573
        0.0000031905  -0.0000003764   0.0000032946  -0.0000044321   0.0000005096
        0.0000029440  -0.0000059094   0.0000003617   0.0000004487   0.0000035197
       -0.0000018105   0.0000054325  -0.0000002375  -0.0000028030  -0.0000007755
        0.0000110940   0.0000097903  -0.0000000121  -0.0000059059  -0.0000036628
        0.0000013346   0.0000016593  -0.0000120487   0.0000005870  -0.0000345865
        0.0000778288   0.0000039172   0.0000225386  -0.0001270573  -0.0000015210
        0.0000093783   0.0000742912  -0.0000039298   0.0006447131   0.0014167935
       -0.0035973285  -0.0008221615  -0.0006574272  -0.0000777163  -0.0001749927
        0.0001923174  -0.0001271993  -0.0002097143  -0.0006786018   0.0005290121
       -0.0000039763   0.0012226979  -0.0012345973  -0.0058740220   0.0197690010
        0.0036821082  -0.0763367111   0.0928150897  -0.1845782809  -0.0508559713
       -0.0248827609  -0.0590312228   0.1172429109  -0.0068585862  -0.1920606276
       -0.0014221946  -0.0012234569  -0.0000516817   0.0004253464  -0.0005089547
        0.0001537975   0.0002900964   0.0006474266   0.0002831490   0.0004197384
       -0.0010592438  -0.0012515186   0.0000048922   0.0000280684   0.0000008897
       -0.0000377787  -0.0001640094  -0.0000493623   0.0001232879  -0.0000459443
       -0.0001863386  -0.0000155678  -0.0000160656  -0.0000190934   0.0000020975
        0.0000021958  -0.0000044970   0.0000043938  -0.0000045659  -0.0000185349
        0.0000032207   0.0000000016  -0.0000090914  -0.0000030675  -0.0000003747
       -0.0000024333  -0.0000022399   0.0000004884   0.0000035123  -0.0000000168
        0.0000014768   0.0000025486   0.0000011181   0.0000024490   0.0000006005
        0.0000013602   0.0000016619   0.0000025988   0.0000005459  -0.0000009555
       -0.0000012826  -0.0000012054  -0.0000020070  -0.0000017482   0.0000001323
        0.0000020637   0.0000020229  -0.0000000813  -0.0000002524  -0.0000013250
        0.0000006489  -0.0000019687   0.0000001027   0.0000022557   0.0000025072
        0.0000001965   0.0000008280   0.0000000923  -0.0000016016   0.0000004057
       -0.0000017648   0.0000025942   0.0000025719  -0.0000008329  -0.0000022767
        0.0000016723   0.0000002525  -0.0000001313   0.0000009517  -0.0000033824
       -0.0000006112  -0.0000015028   0.0000018393  -0.0000004830   0.0000023072
       -0.0000000351  -0.0000017424   0.0000008180  -0.0000000011   0.0000027169
       -0.0000013763   0.0000001426   0.0000028601  -0.0000016878   0.0000002026
        0.0000006987  -0.0000006649  -0.0000001527  -0.0000013496  -0.0000011101
       -0.0000002207   0.0000015653   0.0000008225   0.0000002505  -0.0000002335
       -0.0000009905   0.0000003368   0.0000016064  -0.0000004498   0.0000003991
       -0.0000012235   0.0000007726  -0.0000000138  -0.0000001687  -0.0000020224
        0.0000003537  -0.0000004816  -0.0000012366   0.0000003702  -0.0000025579
        0.0000011461   0.0000000755  -0.0000015749   0.0000018892  -0.0000000031
        0.0000004508  -0.0000012725  -0.0000042464  -0.0000003584  -0.0000907601
        0.0001335149  -0.0001537679   0.0000273322   0.0001487922   0.0000502538
       -0.0000104704  -0.0000515449  -0.0000184951  -0.0000771172   0.0013757810
       -0.0005350921
       -0.0599850036   0.0135872218   0.0043630743   0.4518401292  -0.0105196095
       -0.0093160497  -0.1387953316  -0.0410632105  -0.0227360906  -0.1080240361
        0.0049766684   0.0592818043   0.0057169114  -0.0036247256   0.0010424639
        0.0014631514   0.0031030542  -0.0016923546  -0.0005276641  -0.0000377026
        0.0006892306  -0.0022962571   0.0044629249  -0.0008416833  -0.0201332011
        0.0040302390   0.0199354630   0.0030919665  -0.0030155817  -0.0001758205
       -0.0007258778   0.0003800461   0.0000011746   0.0001809966  -0.0000656479
       -0.0000305617   0.0000159200   0.0000198950  -0.0000201800  -0.0001269153
       -0.0001814994  -0.0000122095   0.0000710618   0.0001618599   0.0000175618
        0.0002898381  -0.0002559381   0.0000091342   0.0000597761  -0.0001271863
       -0.0000079003   0.0000299912   0.0000602037   0.0000085444   0.0000989770
       -0.0000237535   0.0000008024  -0.0000469210  -0.0000940179  -0.0000316383
        0.0000238174   0.0000686849   0.0000802338   0.0000488062   0.0000204009
       -0.0000538620   0.0000491716   0.0000450725   0.0000020552  -0.0000217273
       -0.0000200573   0.0000034989  -0.0000203764  -0.0000232871   0.0000034365
       -0.0000743333  -0.0000517231   0.0000301242   0.0000184341   0.0000239742
       -0.0000012185  -0.0000158168   0.0000170383  -0.0000071600   0.0000061641
       -0.0000156801   0.0000024155  -0.0000517308  -0.0000555730  -0.0000372736
       -0.0000270716  -0.0000195219   0.0000028727  -0.0000220324  -0.0000259912
       -0.0000073291   0.0000624221   0.0000449594   0.0000082020   0.0000314689
        0.0000338126   0.0000806241   0.0000375026   0.0000166886  -0.0000510278
       -0.0000333970  -0.0000004422  -0.0000013821  -0.0000059945  -0.0000285296
       -0.0000050887  -0.0000338677   0.0001187555   0.0000034791  -0.0002473088
       -0.0000445522   0.0000016676   0.0002235258   0.0002230173   0.0000356457
       -0.0000431443  -0.0002539306  -0.0000108737   0.0000232766  -0.0000240066
        0.0000024063  -0.0000765073   0.0000546617   0.0000031300   0.0000112563
        0.0000300657  -0.0000006125  -0.0000300258  -0.0000075794   0.0000269668
       -0.0000075501   0.0000093814  -0.0000949682  -0.0000934439   0.0000134825
        0.0000102720   0.0000586472  -0.0000061118  -0.0000040833   0.0000581516
        0.0000014902  -0.0000184959   0.0000756871  -0.0000118554   0.0000492728
       -0.0000033282   0.0000025370   0.0000004867   0.0000110768   0.0000158789
        0.0000010044   0.0000104581  -0.0000099561  -0.0000000558   0.0000756273
       -0.0000111726  -0.0000478055   0.0000577402   0.0000007813   0.0000198877
        0.0000587062  -0.0000077275   0.0000050128  -0.0000949145   0.0000127051
       -0.0000105454  -0.0000081323   0.0000072587   0.0000953742  -0.0000309807
        0.0000227834  -0.0000263740   0.0000482292  -0.0000410054   0.0000005702
        0.0000651178   0.0000667777  -0.0000325287  -0.0000306367  -0.0001303140
       -0.0000036063  -0.0000550264  -0.0000950410   0.0000004486   0.0000070092
        0.0003077135   0.0000017525   0.0000555105  -0.0003606975   0.0000178198
       -0.0000912207   0.0001301110   0.0000069244  -0.0135019082   0.0142085647
       -0.0195085992  -0.0031258973   0.0036464697   0.0022690465  -0.0001865481
        0.0002823066  -0.0007625406  -0.0002448998   0.0019456174   0.0039022938
        0.0076701044  -0.0061477084   0.0067036769  -0.0815029668   0.0258999058
       -0.0351423252  -0.0029183488   0.0124066511   0.0015846652   0.0028848143
       -0.0234636543  -0.0065885947  -0.0047105689   0.0172958529   0.0067604135
        0.0019568650  -0.0011272595  -0.0000846397  -0.0147039454  -0.0047360994
       -0.0067563182  -0.0211297093  -0.0093621915  -0.0018183203  -0.0007571405
       -0.0006346364  -0.0010414044   0.0002589268   0.0001870126  -0.0006521514
       -0.0001847931  -0.0005142163  -0.0003348624  -0.0006869837  -0.0000802675
        0.0008220609  -0.0000831084  -0.0000310816  -0.0000027128   0.0000379799
        0.0000240738   0.0000067285  -0.0000494502   0.0000287407  -0.0000042572
        0.0000102282   0.0000216656  -0.0000040049  -0.0000103276  -0.0000069656
       -0.0000051322  -0.0000087236   0.0000013108   0.0000175744   0.0000017949
        0.0000075829   0.0000112961   0.0000083041   0.0000115778   0.0000032329
        0.0000046318   0.0000002813   0.0000040878   0.0000084975   0.0000003334
       -0.0000060112  -0.0000018740  -0.0000036876   0.0000008351   0.0000019829
        0.0000060674   0.0000051184   0.0000052847   0.0000056104  -0.0000095085
       -0.0000012767  -0.0000050511  -0.0000000532   0.0000078102   0.0000076249
       -0.0000059941   0.0000055944   0.0000049289  -0.0000164263  -0.0000082888
       -0.0000071706  -0.0000263829  -0.0000146180  -0.0000055787   0.0000030216
        0.0000108349  -0.0000001403   0.0000021596  -0.0000054031  -0.0000251261
       -0.0000017303  -0.0000044543   0.0000058169  -0.0000007348  -0.0000121914
       -0.0000007391   0.0000059197   0.0000095935   0.0000009954   0.0000103360
        0.0000112659   0.0000015690  -0.0000240699  -0.0000118807   0.0000024592
        0.0000018492  -0.0000046410  -0.0000004750   0.0000005310  -0.0000046205
       -0.0000004284   0.0000004687  -0.0000043301   0.0000078170   0.0000006664
       -0.0000039640   0.0000045318   0.0000000673  -0.0000042506   0.0000044991
        0.0000005669  -0.0000052281  -0.0000037939   0.0000001004  -0.0000121177
        0.0000020224  -0.0000012179   0.0000105173   0.0000006813   0.0000247639
        0.0000093692   0.0000003407  -0.0000098518  -0.0000120177  -0.0000011051
       -0.0000057311   0.0000104018  -0.0000069863  -0.0000008025  -0.0005331675
        0.0003749620  -0.0009287156  -0.0001963507  -0.0006101074  -0.0000592314
        0.0001812514  -0.0003296719   0.0009311619  -0.0006568096  -0.0011102482
        0.0001636239
        0.0209032794  -0.1601246860  -0.0263551560  -0.0105196095   0.4351747879
       -0.0195123362  -0.0483067702  -0.0815651971  -0.0123551194   0.0033695211
       -0.0566136100   0.0027224562  -0.0077248140  -0.0001447886   0.0099123968
        0.0034203269   0.0037261634   0.0036620652  -0.0000066217   0.0000267705
       -0.0004290509   0.0043362874   0.0033800172   0.0022038638   0.0086313540
        0.0011065790  -0.0094505592  -0.0030379165  -0.0018938773  -0.0002301226
        0.0003045565  -0.0002893058   0.0000277177  -0.0001510854   0.0001779504
        0.0000127806  -0.0000579770  -0.0000435290   0.0000045835   0.0000661691
        0.0000862807  -0.0000034871  -0.0000373863  -0.0001459777  -0.0000216741
        0.0000003536   0.0001389181  -0.0000216497  -0.0000235186   0.0000821590
        0.0000085119   0.0000270131  -0.0000473533  -0.0000071781  -0.0000389750
       -0.0000020664  -0.0000014926   0.0000148196   0.0000732691   0.0000193032
       -0.0000131594  -0.0000605085  -0.0000617897  -0.0000384375  -0.0000100853
        0.0000433887  -0.0000376945  -0.0000338434  -0.0000080856   0.0000145831
        0.0000160615  -0.0000060289   0.0000120820   0.0000174220  -0.0000030326
        0.0000575617   0.0000432673  -0.0000266063  -0.0000079363  -0.0000293455
        0.0000030074   0.0000066244  -0.0000211965   0.0000064064  -0.0000065520
        0.0000136630  -0.0000027046   0.0000390540   0.0000455637   0.0000276274
        0.0000143875   0.0000155450  -0.0000033563   0.0000114684   0.0000212371
        0.0000091398  -0.0000465001  -0.0000286001   0.0000046116  -0.0000237252
       -0.0000173388  -0.0000578263  -0.0000182465  -0.0000256847   0.0000389382
        0.0000076931   0.0000066651   0.0000015476   0.0000082005   0.0000106954
       -0.0000007945   0.0000176643  -0.0000715219   0.0000019060   0.0001013933
        0.0000458068   0.0000040208  -0.0000941448  -0.0001369682  -0.0000165874
        0.0000355419   0.0001231287   0.0000046649  -0.0000178813   0.0000109206
       -0.0000036471   0.0000417128  -0.0000242476  -0.0000010364   0.0000158699
       -0.0000072482  -0.0000007703  -0.0000039553   0.0000045065   0.0000123155
       -0.0000018459  -0.0000035829   0.0000297389   0.0000288374  -0.0000046567
       -0.0000001232  -0.0000201056   0.0000018154   0.0000041978  -0.0000232748
       -0.0000006754   0.0000097118  -0.0000143261   0.0000021302  -0.0000160889
       -0.0000090364  -0.0000007285  -0.0000001618  -0.0000058819  -0.0000053945
       -0.0000004774  -0.0000050858   0.0000036528  -0.0000000021  -0.0000147816
        0.0000021290   0.0000155057  -0.0000227496  -0.0000002768  -0.0000100491
       -0.0000197747   0.0000026830  -0.0000045489   0.0000285636  -0.0000039896
        0.0000009145  -0.0000023498  -0.0000028892  -0.0000305267  -0.0000015893
       -0.0000094045  -0.0000102611  -0.0000368248   0.0000160167  -0.0000011712
       -0.0000103295  -0.0000092723   0.0000160641   0.0000024611   0.0000416000
        0.0000005518   0.0000363172   0.0000404324  -0.0000006318  -0.0000043874
       -0.0001283602   0.0000067719  -0.0000273856   0.0001519029  -0.0000188245
        0.0000069276  -0.0000682061  -0.0000044999   0.0096057038  -0.0057963285
        0.0094194361   0.0037552223   0.0042192594   0.0006952508   0.0002464555
       -0.0003432689   0.0003134800   0.0016450771   0.0055015665   0.0010224827
       -0.0019269601  -0.0022440131   0.0072595573   0.0273570570  -0.0845919799
        0.0481146314   0.0050781311  -0.0190824907  -0.0014050987  -0.0003914421
       -0.0173520633  -0.0052352543   0.0029723121  -0.0044066304  -0.0033291448
       -0.0242017672  -0.0164416209  -0.0082150034   0.0098114167   0.0053120361
        0.0032063008  -0.0022896281  -0.0006842874   0.0003724758  -0.0012002425
       -0.0020320551  -0.0006357860  -0.0002653305   0.0000481141   0.0006788691
       -0.0006019899  -0.0011046605  -0.0003477419   0.0002554449  -0.0003151365
       -0.0005443958  -0.0000286339  -0.0000430210  -0.0000092296  -0.0000266014
       -0.0000110208  -0.0000028785   0.0000266103  -0.0000949892  -0.0000049597
       -0.0000115049  -0.0000190923   0.0000033522   0.0000094908   0.0000018136
        0.0000038139   0.0000063111  -0.0000022558  -0.0000093366   0.0000008437
       -0.0000054048  -0.0000055166  -0.0000040201  -0.0000121134  -0.0000020848
       -0.0000030563   0.0000000317  -0.0000015899  -0.0000071659  -0.0000026616
        0.0000042693  -0.0000007846   0.0000113250  -0.0000059086   0.0000000902
       -0.0000041055  -0.0000031686  -0.0000023338  -0.0000043464   0.0000065131
       -0.0000027994   0.0000055925  -0.0000012387  -0.0000039601  -0.0000080523
        0.0000043379  -0.0000010542  -0.0000047299   0.0000103030   0.0000061520
        0.0000018651   0.0000152202   0.0000118388  -0.0000004657  -0.0000007744
       -0.0000084673   0.0000021833   0.0000002266  -0.0000022042   0.0000089113
        0.0000007017   0.0000010018  -0.0000021763  -0.0000000862   0.0000052117
        0.0000003615  -0.0000030389  -0.0000038783  -0.0000002614  -0.0000034624
       -0.0000057115  -0.0000005264   0.0000120960   0.0000044228  -0.0000007572
       -0.0000006102   0.0000012328  -0.0000001897  -0.0000012123   0.0000014507
       -0.0000002119   0.0000006062   0.0000028607  -0.0000029260  -0.0000002431
        0.0000014987  -0.0000015735   0.0000008001   0.0000014349  -0.0000014283
       -0.0000011143   0.0000026322   0.0000009604   0.0000000236   0.0000045660
       -0.0000004804   0.0000002918  -0.0000055643   0.0000000812  -0.0000127384
       -0.0000035199   0.0000002274   0.0000025231   0.0000054363   0.0000005240
        0.0000031105  -0.0000057571  -0.0000003818   0.0000019314   0.0000144663
       -0.0004454444   0.0002912980  -0.0005339261  -0.0010799277  -0.0004895104
        0.0001160308   0.0001299581  -0.0000815823  -0.0005400878  -0.0021370564
       -0.0012284440
        0.0065135153  -0.0274212891  -0.0692326891  -0.0093160497  -0.0195123362
        0.4934789688  -0.0249454404  -0.0114324757  -0.0688305182   0.0618316932
        0.0012114946  -0.1413052195   0.0131641857   0.0038540299  -0.0295201152