$hessian                                                                        
        0.4725772020   0.0374820690   0.0254629093  -0.1200862798   0.0497652668
        0.0335431980   0.0036574294  -0.0015570903  -0.0010649651  -0.0218012978
        0.0146145172  -0.0037704367  -0.0008957955  -0.0004322690   0.0017698664
       -0.0005102210  -0.0005118560  -0.0007159020   0.0001547007  -0.0000151258
       -0.0000980185  -0.0003929023  -0.0006703418  -0.0006201485   0.0003393008
        0.0021839292  -0.0015300173  -0.0004301715  -0.0000566648   0.0000521152
        0.0003009301   0.0000658769   0.0000307470  -0.0000460282  -0.0000562729
       -0.0000273559   0.0000696446   0.0000783659   0.0000483495  -0.0002084867
       -0.0003732866  -0.0002149933   0.0000904500   0.0005149869   0.0002975092
        0.0000030416  -0.0003738637  -0.0002153705   0.0000031383   0.0000967745
        0.0000540856   0.0000219913  -0.0000138008  -0.0000079813   0.0000055838
        0.0000088724   0.0000039103  -0.0000069054  -0.0000076246  -0.0000043341
       -0.0000041177   0.0000137927   0.0000079798  -0.0000098828  -0.0000188730
       -0.0000113774   0.0000073297   0.0000207903   0.0000115357  -0.0000174792
       -0.0000110639  -0.0000068032   0.0000003813   0.0000093618   0.0000048820
       -0.0000026902  -0.0000096502  -0.0000053875   0.0000433948   0.0000067932
        0.0000041826  -0.0000686922  -0.0000808065  -0.0000494855   0.0002236063
        0.0003070484   0.0001854329  -0.0002657689  -0.0004749811  -0.0002778664
        0.0001340167   0.0003872361   0.0002217144  -0.0000723463  -0.0000879480
       -0.0000531462   0.0004113455  -0.0004026398   0.0024343221  -0.0003807209
       -0.0008071934  -0.0003083546   0.0001839286  -0.0000920027   0.0000281465
       -0.0005289815  -0.0008784786  -0.0000847177  -0.0009646103   0.0014052487
       -0.0011496175  -0.0201896813   0.0017825844   0.0152394821  -0.1135898811
       -0.0753171966   0.0824068023  -0.0743105518  -0.0690676567  -0.0433599842
       -0.1243365670   0.0444237632  -0.1069842477   0.0002355876  -0.0016562286
       -0.0010491427   0.0006030051  -0.0005134824  -0.0002368526   0.0005998352
       -0.0003998498  -0.0003726609  -0.0001533188   0.0000479451   0.0003669955
       -0.0000100548   0.0000339116   0.0000433998  -0.0000179291   0.0001146252
        0.0000720372  -0.0000952411   0.0000933737  -0.0001076777  -0.0000356573
        0.0000216084   0.0000148004  -0.0000244107   0.0000146553   0.0000077703
       -0.0000014369  -0.0000070766  -0.0000038047   0.0000024940   0.0000024185
        0.0000021199   0.0000012368   0.0000013726   0.0000006888  -0.0000001402
       -0.0000039437  -0.0000027991   0.0000001753   0.0000024217   0.0000009849
       -0.0000008590  -0.0000035601  -0.0000030698   0.0000007894  -0.0000083730
       -0.0000057739   0.0000007582   0.0000050656   0.0000024413  -0.0000028817
       -0.0000543401  -0.0000307340  -0.0000815587  -0.0000489476   0.0001338942
       -0.0000103029   0.0001089070   0.0000707269  -0.0000100079   0.0000523271
        0.0000145237  -0.0001074387   0.0003465793  -0.0001645272
        0.0374820690   0.4940301322  -0.0231942870   0.0426664619  -0.0905014565
       -0.0197291769   0.0167838607  -0.0191909291  -0.0135580879   0.0129093637
       -0.0065791796   0.0010451077  -0.0000047062  -0.0000623702   0.0001818000
        0.0000579231   0.0004284617  -0.0001031921   0.0001604682   0.0000287585
        0.0000990420   0.0001660967   0.0003371039   0.0004124274  -0.0005624812
       -0.0016810466   0.0007183731   0.0002357787   0.0005061328  -0.0009533170
       -0.0000950666   0.0001447811   0.0000871248   0.0000594282   0.0000318633
       -0.0000093602  -0.0000053923  -0.0000320086  -0.0000259814   0.0001556270
        0.0003029710   0.0001851158  -0.0001542878  -0.0004120104  -0.0002396974
        0.0000782198   0.0002721863   0.0001610111   0.0000207909  -0.0001119627
       -0.0000628346  -0.0000302659   0.0000325924   0.0000213043   0.0000168130
       -0.0000173541  -0.0000080973  -0.0000000197   0.0000219854   0.0000170580
        0.0000037251  -0.0000345417  -0.0000235653   0.0000123273   0.0000520345
        0.0000305495  -0.0000327209  -0.0000527361  -0.0000317733   0.0000297566
        0.0000259252   0.0000159385  -0.0000217408  -0.0000208464  -0.0000160841
        0.0000293299   0.0000039017   0.0000009278  -0.0000608396  -0.0000061990
       -0.0000081378   0.0000996682   0.0000740303   0.0000470879  -0.0001611096
       -0.0002922222  -0.0001761684   0.0001647934   0.0004906678   0.0002729062
       -0.0000634625  -0.0003552737  -0.0001939362  -0.0000114940   0.0000294070
        0.0000015297  -0.0008519511  -0.0017230314   0.0019143881  -0.0002063650
       -0.0004476387  -0.0003991846  -0.0003053804  -0.0000180715  -0.0000199037
        0.0004869816   0.0001470259  -0.0006398027  -0.0004205095  -0.0003706227
        0.0014975585  -0.0092342352   0.0075116624   0.0036365538  -0.0756212708
       -0.1192827696   0.0854266539  -0.0688938911  -0.1921543729  -0.0928490607
        0.0440851168  -0.0675319132   0.0579932261  -0.0008038366  -0.0044419237
       -0.0031656186   0.0004936963   0.0008010284   0.0007189128   0.0010461464
        0.0008118033  -0.0000026629   0.0008717287  -0.0006997703   0.0002231585
        0.0000249944  -0.0000195870  -0.0000361670   0.0000597774  -0.0000457703
       -0.0000431681   0.0000324352  -0.0000207571   0.0000769902  -0.0000270399
       -0.0000231953   0.0000006374   0.0000027281  -0.0000198476  -0.0000045680
       -0.0000031993   0.0000090365   0.0000051134  -0.0000117501  -0.0000113600
       -0.0000051000  -0.0000111234  -0.0000039706  -0.0000010133  -0.0000106318
        0.0000077222   0.0000043453  -0.0000106978  -0.0000016228  -0.0000011878
       -0.0000065206   0.0000092984   0.0000035513  -0.0000053067   0.0000176882
        0.0000090533  -0.0000027777  -0.0000084272  -0.0000027890   0.0000002814
        0.0000263036   0.0000243583  -0.0001341187  -0.0000887428   0.0000901979
       -0.0000715562   0.0000492992   0.0000650323   0.0000075831  -0.0000216211
        0.0000034336  -0.0004082214   0.0000813490   0.0005134550
        0.0254629093  -0.0231942870   0.5130726768   0.0289793562  -0.0199039671
       -0.0751775355   0.0106767859  -0.0130331800  -0.0074091024  -0.0154534170
        0.0094478191   0.0058755347  -0.0005009146   0.0013289629  -0.0011297108
        0.0005663566  -0.0007386677   0.0004969948  -0.0004223152  -0.0000582796
       -0.0000288736  -0.0002766780  -0.0007505391  -0.0004308762  -0.0007755377
        0.0018113910  -0.0028639602   0.0001956676  -0.0009498347   0.0013831583
       -0.0000570281   0.0000889395   0.0000678978   0.0000365165  -0.0000036969
        0.0000405468  -0.0000120004  -0.0000309115  -0.0000106211   0.0001080193
        0.0002154373   0.0001135633  -0.0001079427  -0.0002855488  -0.0001568133
        0.0000530194   0.0001876707   0.0001069680   0.0000121470  -0.0000726888
       -0.0000506049  -0.0000195111   0.0000279363   0.0000103705   0.0000085791
       -0.0000105942  -0.0000060314   0.0000015452   0.0000162349   0.0000062780
        0.0000027498  -0.0000247846  -0.0000112971   0.0000104274   0.0000344656
        0.0000181792  -0.0000242625  -0.0000351620  -0.0000219859   0.0000217634
        0.0000148278   0.0000122432  -0.0000147977  -0.0000175115  -0.0000047455
        0.0000206326   0.0000017566   0.0000042650  -0.0000407672  -0.0000055568
        0.0000012331   0.0000693352   0.0000503940   0.0000310170  -0.0001297163
       -0.0002104666  -0.0001198009   0.0001236566   0.0003427103   0.0002077446
       -0.0000306016  -0.0002400800  -0.0001615214  -0.0000103339   0.0000095513
        0.0000334855  -0.0003004495   0.0007380405  -0.0029422399   0.0002882813
        0.0008001749   0.0003352746   0.0003070138   0.0001289090  -0.0000208893
       -0.0001205611   0.0000574638   0.0007696590   0.0001850654   0.0002985184
       -0.0007834032   0.0187861236  -0.0051926032  -0.0097200275   0.0821340604
        0.0852162822  -0.1380368960  -0.0432535833  -0.0928387936  -0.1024469847
       -0.1071233409   0.0582577659  -0.1788411540  -0.0005058449  -0.0031399478
       -0.0014567605   0.0008883900   0.0000405954   0.0004470681   0.0000726027
        0.0007255548   0.0004656059  -0.0008608206   0.0008573542  -0.0002433088
       -0.0000028340   0.0000040508  -0.0000094627  -0.0001067063   0.0001040144
        0.0000374376  -0.0001674292   0.0000484097  -0.0001592830  -0.0000168867
       -0.0000053174  -0.0000230336   0.0000026547  -0.0000056660  -0.0000159466
        0.0000005287   0.0000079808   0.0000005689  -0.0000077431  -0.0000045650
       -0.0000083523  -0.0000082715  -0.0000002051  -0.0000038190  -0.0000079362
        0.0000058783   0.0000014976  -0.0000070528  -0.0000018991   0.0000001855
       -0.0000052322   0.0000044983   0.0000050272  -0.0000027201   0.0000090032
        0.0000096142  -0.0000011246  -0.0000043143  -0.0000046542   0.0000023753
        0.0000250401   0.0000030422   0.0000993669   0.0001075038  -0.0001028548
        0.0000997384  -0.0000913039  -0.0000611554   0.0000246365  -0.0000375647
       -0.0000051113   0.0011340558  -0.0001271994  -0.0010883209
       -0.1200862798   0.0426664619   0.0289793562   0.4498261353   0.0070013902
        0.0057577781  -0.0680734184  -0.0262478862  -0.0166280140  -0.1008740213
        0.0180491426  -0.0512134603   0.0081847501   0.0016192157   0.0017733586
        0.0009418665  -0.0033202521   0.0022863126  -0.0008392503   0.0000392175
       -0.0003209627  -0.0036996921  -0.0030446301  -0.0000597788  -0.0210041252
        0.0060280318  -0.0211038139   0.0042700090   0.0018461060   0.0009698720
       -0.0007204075  -0.0001106490  -0.0000249668   0.0002870085   0.0001981014
        0.0001230791  -0.0000322584  -0.0002379559  -0.0001376871   0.0002733000
        0.0010789809   0.0006232555  -0.0002312672  -0.0016018452  -0.0008747265
        0.0000821299   0.0009873189   0.0005745856   0.0000876104  -0.0003568567
       -0.0002157515  -0.0001118058   0.0000560419   0.0000327682   0.0000484392
       -0.0000496306  -0.0000226118  -0.0000057634   0.0000664657   0.0000394978
        0.0000184370  -0.0000873449  -0.0000511116   0.0000040434   0.0001565898
        0.0000714899  -0.0000574407  -0.0001485994  -0.0000852783   0.0000690752
        0.0000693311   0.0000411689  -0.0000385386  -0.0000485907  -0.0000298901
        0.0000660671   0.0000265019   0.0000116913  -0.0001148243  -0.0000450250
       -0.0000274124   0.0002484684   0.0003041632   0.0001804632  -0.0003751090
       -0.0008853430  -0.0005294609   0.0005684817   0.0015143682   0.0008201096
       -0.0003332228  -0.0010237286  -0.0006043804   0.0003180652   0.0003095293
        0.0002039899  -0.0194580562  -0.0171515402   0.0152349385  -0.0038530860
       -0.0014334111  -0.0025417812  -0.0007939475  -0.0002789791   0.0002189862
        0.0005717927   0.0007083565  -0.0041250657   0.0086387784   0.0033457948
       -0.0008617328  -0.0957011792  -0.0369262595   0.0362466502  -0.0162371979
        0.0075372379   0.0089482203   0.0056194947  -0.0025214735  -0.0017733711
       -0.0172891896   0.0114649049   0.0041071792   0.0064705538   0.0164529666
        0.0103397004  -0.0076324845  -0.0130110162  -0.0108897820  -0.0070814618
       -0.0145111838  -0.0064745959  -0.0004163588   0.0001931906   0.0009011784
        0.0002194447  -0.0005028178   0.0008323497  -0.0000158066   0.0002093437
        0.0003789360  -0.0005979022   0.0003536092  -0.0008364181  -0.0000177473
       -0.0000883800  -0.0000504118   0.0000308450  -0.0000447518  -0.0000196260
       -0.0000041498   0.0000476373   0.0000270142  -0.0000435938  -0.0000410112
       -0.0000274030  -0.0000529019  -0.0000112418  -0.0000084452  -0.0000512863
        0.0000268041   0.0000155214  -0.0000609286  -0.0000052798  -0.0000058000
       -0.0000431419   0.0000385762   0.0000218631  -0.0000212913   0.0000597859
        0.0000359940  -0.0000314734  -0.0000450064  -0.0000260841  -0.0000489720
        0.0000748549   0.0000350114  -0.0005739330  -0.0006244637   0.0007117784
       -0.0000216838   0.0004282799   0.0000350616   0.0001975285   0.0005793115
       -0.0008515250  -0.0003971267   0.0008675413  -0.0001578107
        0.0497652668  -0.0905014565  -0.0199039671   0.0070013902   0.4423420272
       -0.0359161845  -0.0333202946  -0.1294634932  -0.0424341916   0.0206901360
       -0.0697581870   0.0357939683   0.0082177212  -0.0080713597   0.0158290806
       -0.0031854900   0.0027746687   0.0045053299   0.0000958563  -0.0002330120
       -0.0000828582  -0.0028864173   0.0035414792   0.0022355605  -0.0008309943
        0.0050958302  -0.0037900337   0.0018242104  -0.0027664822  -0.0001497492
       -0.0001331989  -0.0006019158  -0.0002782201  -0.0000908316   0.0000916154
        0.0000918829  -0.0000238975  -0.0001588858  -0.0000965610   0.0000671081
        0.0002807648   0.0001533221  -0.0000283422  -0.0003070272  -0.0001666148
        0.0000657824   0.0001560806   0.0000865542   0.0000193581  -0.0000720054
       -0.0000379465  -0.0000194526   0.0000153784   0.0000097444   0.0000128515
       -0.0000110392  -0.0000072874  -0.0000026568   0.0000124161   0.0000065484
        0.0000003135  -0.0000204582  -0.0000123076   0.0000060002   0.0000331207
        0.0000147457  -0.0000179506  -0.0000356379  -0.0000178673   0.0000163040
        0.0000119801   0.0000088218  -0.0000172537  -0.0000145529  -0.0000067415
        0.0000169070   0.0000027573   0.0000045335  -0.0000292783  -0.0000126526
       -0.0000051479   0.0000625942   0.0000520736   0.0000349124  -0.0000776054
       -0.0001432799  -0.0001003101   0.0001981487   0.0002835291   0.0001596381
       -0.0001901516  -0.0003077113  -0.0001834601   0.0003236277   0.0001684083
        0.0001535674  -0.0101776019  -0.0025953611   0.0038228232  -0.0016237396
        0.0042389347   0.0017874430  -0.0003291559  -0.0004256170   0.0000103042
        0.0005896395   0.0046393625   0.0034835350  -0.0031698111  -0.0103633375
        0.0137552629  -0.0396979809  -0.0974062631   0.0489318459  -0.0102697452
        0.0073098233   0.0053851733   0.0177157126  -0.0155269909  -0.0104489265
        0.0102376642  -0.0068256817  -0.0025829521  -0.0037624365  -0.0161694245
       -0.0102430362   0.0005803984   0.0045384240   0.0017797553  -0.0090678805
       -0.0181218503  -0.0077557895   0.0010578149  -0.0016317077  -0.0013779758
        0.0003359272  -0.0002524713   0.0007334100   0.0002891712  -0.0009379932
       -0.0006598280  -0.0003109874   0.0000303354  -0.0003248049  -0.0000330119
       -0.0000512841  -0.0000451759  -0.0000248371  -0.0000319080  -0.0000210862
       -0.0000055498   0.0000132493   0.0000040479  -0.0000108052  -0.0000088863
       -0.0000076034  -0.0000114900  -0.0000023015  -0.0000017823  -0.0000118588
        0.0000057639   0.0000037791  -0.0000127429  -0.0000013233   0.0000006056
       -0.0000079503   0.0000073126   0.0000061918  -0.0000035934   0.0000117137
        0.0000100113  -0.0000037956  -0.0000094203  -0.0000037701   0.0000310706
        0.0000438858   0.0000014353   0.0000634804  -0.0001232001   0.0000992849
        0.0003525998  -0.0008711535  -0.0007384756  -0.0002631697  -0.0001424355
        0.0002512341   0.0000149038  -0.0017231669  -0.0017536979
        0.0335431980  -0.0197291769  -0.0751775355   0.0057577781  -0.0359161845
        0.4755837642  -0.0211533491  -0.0426720756  -0.0883363356  -0.0552713515
        0.0344963383  -0.1334064429  -0.0084120123   0.0125281385  -0.0238952916
        0.0019843823   0.0044944617   0.0008186289  -0.0003643890  -0.0000655312
       -0.0003979070  -0.0003805713   0.0021514764   0.0024488994  -0.0106580194
       -0.0004190676  -0.0017243055   0.0009804233  -0.0000868312  -0.0028436509
       -0.0000676097  -0.0002909004  -0.0003027536  -0.0000656576   0.0000977145
       -0.0000131579  -0.0000188380  -0.0000926365  -0.0000661338   0.0000516959
        0.0001538316   0.0001014283  -0.0000229137  -0.0001746002  -0.0000959285
        0.0000324768   0.0000863818   0.0000521886   0.0000102765  -0.0000389121
       -0.0000218836  -0.0000102444   0.0000081075   0.0000049805   0.0000052287
       -0.0000070395  -0.0000029982  -0.0000016701   0.0000034497   0.0000065795
        0.0000009518  -0.0000090405  -0.0000087583   0.0000039234   0.0000170838
        0.0000079323  -0.0000114703  -0.0000188399  -0.0000108101   0.0000091825
        0.0000049889   0.0000067979  -0.0000097242  -0.0000080670  -0.0000050474
        0.0000100371   0.0000028284   0.0000004915  -0.0000153459  -0.0000026383
       -0.0000064809   0.0000342120   0.0000272613   0.0000196812  -0.0000548918
       -0.0000772807  -0.0000599001   0.0001198844   0.0001580564   0.0000917128
       -0.0001048774  -0.0001964242  -0.0000854950   0.0001973579   0.0001471355
        0.0000116034   0.0048510606   0.0004513952   0.0047600117  -0.0022521684
        0.0019133549   0.0019152248   0.0002381473   0.0000305202  -0.0002566569
       -0.0038440489   0.0036029016  -0.0006814269   0.0093442158   0.0169404242
       -0.0220651898   0.0402674772   0.0501875822  -0.1109779099   0.0163832922
       -0.0090279858  -0.0088214173   0.0111816943  -0.0098704750  -0.0066396224
       -0.0155644051   0.0112759734   0.0063657321  -0.0025967189  -0.0108294590
       -0.0068550828  -0.0101999264  -0.0180994046  -0.0146599187   0.0050810914
        0.0126854973   0.0074580087  -0.0004178328  -0.0017988484  -0.0002894505
       -0.0004663184   0.0003094178  -0.0006187250   0.0002814681  -0.0006996287
       -0.0002464834   0.0002273614   0.0000296083   0.0000051059  -0.0000166314
       -0.0000447320  -0.0000040555  -0.0000157061  -0.0000255479  -0.0000042746
       -0.0000002693   0.0000059976   0.0000034591  -0.0000056869  -0.0000048787
       -0.0000044267  -0.0000065505  -0.0000012036  -0.0000004130  -0.0000065479
        0.0000028925   0.0000016636  -0.0000070429  -0.0000011574   0.0000009377
       -0.0000044552   0.0000032799   0.0000035182  -0.0000012559   0.0000053602
        0.0000067149  -0.0000015548  -0.0000051885  -0.0000015311   0.0000187671
        0.0000106105   0.0000240442  -0.0003513344  -0.0002344040   0.0001282474
        0.0001418546  -0.0007073379  -0.0003074412   0.0004519276   0.0006644338
       -0.0007052247   0.0011720231  -0.0013410059  -0.0002272901
        0.0036574294   0.0167838607   0.0106767859  -0.0680734184  -0.0333202946
       -0.0211533491   0.5131199853  -0.0217884591  -0.0136552291  -0.0104405803
       -0.0102594988  -0.0159697234  -0.0004714924  -0.0014564334   0.0003491944
       -0.0005819149   0.0004813745   0.0000718832   0.0000645217   0.0001013045
        0.0000059613  -0.0007157568   0.0004578687   0.0002419271   0.0000509712
        0.0009491600  -0.0023283953  -0.0002421760  -0.0000805298  -0.0000082734
        0.0001936900   0.0000248892   0.0000114549  -0.0000575899  -0.0000220156
       -0.0000117908   0.0000397405   0.0000288875   0.0000168019  -0.0000987401
       -0.0001312996  -0.0000770403   0.0000138198   0.0002261104   0.0001302017
        0.0000348787  -0.0001785151  -0.0001035665   0.0000202617   0.0000292428
        0.0000193843  -0.0000017574   0.0000036577   0.0000027927   0.0000167768
       -0.0000000948  -0.0000002810  -0.0000082656   0.0000122471   0.0000076131
        0.0000012319  -0.0000069847  -0.0000026721  -0.0000066750   0.0000175999
        0.0000116842  -0.0000080108  -0.0000109427  -0.0000047109   0.0000016244
        0.0000074294   0.0000059363  -0.0000068399  -0.0000016043   0.0000009992
        0.0000181833  -0.0000088458  -0.0000025886   0.0000035586  -0.0000034263
       -0.0000002289  -0.0000060258  -0.0000309151  -0.0000174767   0.0001588216
        0.0001398927   0.0000824484  -0.0001374816  -0.0002057839  -0.0001172932
        0.0000042901   0.0001573771   0.0000898768   0.0000253294  -0.0000374633
       -0.0000212977   0.0002174114  -0.0015814177   0.0017076130  -0.0006639344
        0.0003736079   0.0003248285   0.0000835139   0.0000574471   0.0000761371
       -0.0005649780   0.0002164946   0.0004450075  -0.0004924902  -0.0002658584
       -0.0015353230  -0.0096003107  -0.0181768602  -0.0017457444   0.0008617776
        0.0005138206   0.0000060377  -0.0026596116   0.0034318381   0.0022845688
        0.0008923583   0.0002765504   0.0004524667  -0.1877155334   0.0969344638
        0.0661952522  -0.1240186432   0.0424378203  -0.1064768376  -0.1129331584
       -0.0755690138   0.0804144154   0.0000849852  -0.0002898561   0.0001754965
        0.0000139265  -0.0000236721  -0.0000100682   0.0000424857  -0.0000877593
       -0.0000719274  -0.0000900113   0.0000098675  -0.0001586469  -0.0000053444
        0.0000195210   0.0000105898  -0.0000210168  -0.0000040183  -0.0000030519
        0.0000019789  -0.0000016114  -0.0000005026  -0.0000031963  -0.0000030207
       -0.0000009380  -0.0000064179  -0.0000009171   0.0000005877  -0.0000075499
        0.0000012249   0.0000024293  -0.0000080920   0.0000012941   0.0000025240
       -0.0000071051   0.0000027385   0.0000041048  -0.0000041419   0.0000050048
        0.0000047071  -0.0000023789  -0.0000031311  -0.0000009788  -0.0000439109
       -0.0000152814  -0.0000124252  -0.0000788437  -0.0001305450   0.0000720568
        0.0000457961  -0.0000961992  -0.0000502974   0.0000156529  -0.0000185666
       -0.0000198720   0.0000983929   0.0001082393  -0.0003432381
       -0.0015570903  -0.0191909291  -0.0130331800  -0.0262478862  -0.1294634932
       -0.0426720756  -0.0217884591   0.4641191797  -0.0407471038  -0.0017456505
        0.0059173084  -0.0031472780  -0.0000415909  -0.0009839882   0.0018741429
       -0.0006725807   0.0001867448  -0.0007462596   0.0003073817   0.0001780164
        0.0000560578   0.0001183241  -0.0000440383  -0.0002319240   0.0012194405
       -0.0009257167   0.0010974033  -0.0003325771   0.0003608584  -0.0010468638
        0.0001518938   0.0002177743   0.0001208429   0.0000081573  -0.0001032819
       -0.0000635511   0.0000749634   0.0001022687   0.0000575331  -0.0001792564
       -0.0004055246  -0.0002286744   0.0001280247   0.0005453415   0.0003121073
       -0.0000506880  -0.0003590253  -0.0002058984  -0.0000256346   0.0001249422
        0.0000698684   0.0000410758  -0.0000336161  -0.0000225942  -0.0000124968
        0.0000165852   0.0000069193  -0.0000008924  -0.0000222011  -0.0000189309
       -0.0000146065   0.0000299452   0.0000224493  -0.0000070388  -0.0000481749
       -0.0000299588   0.0000183454   0.0000456052   0.0000266426  -0.0000257735
       -0.0000233488  -0.0000183614   0.0000057605   0.0000163774   0.0000101014
       -0.0000185294  -0.0000089685  -0.0000053774   0.0000442663   0.0000110307
        0.0000056701  -0.0000868331  -0.0000957248  -0.0000625806   0.0001499636
        0.0003163517   0.0002002417  -0.0002281518  -0.0004925717  -0.0002989668
        0.0001321566   0.0004100328   0.0002499257  -0.0001211498  -0.0000979807
       -0.0000992761   0.0013203727  -0.0021123000   0.0016937148  -0.0007410108
        0.0003832636   0.0005446228  -0.0001457611  -0.0000177420   0.0001029632
       -0.0005426562   0.0004687354   0.0000983577  -0.0002541643  -0.0000920137
       -0.0006468518  -0.0139203270  -0.0213724550  -0.0021582585  -0.0006984497
        0.0007444640   0.0006242355   0.0025760836  -0.0022796381  -0.0018747327
       -0.0009887308   0.0004718070  -0.0000617657   0.0967568792  -0.1076170091
       -0.0431351547   0.0426742016  -0.0628555906   0.0553615845  -0.0751542790
       -0.1248306647   0.0873414236   0.0002240227   0.0000723637   0.0006739364
        0.0000119854  -0.0000454360  -0.0000036772   0.0000508803   0.0000233424
        0.0000423339   0.0001018042  -0.0000248767   0.0000504187  -0.0000222383
        0.0000497274   0.0000424206  -0.0000049887   0.0000333749   0.0000207563
       -0.0000099009  -0.0000073251  -0.0000048242   0.0000101231   0.0000118811
        0.0000093158   0.0000118362   0.0000056937   0.0000041439   0.0000088046
       -0.0000062530  -0.0000045479   0.0000142092   0.0000048443   0.0000013980
        0.0000099789  -0.0000065552  -0.0000078284   0.0000046507  -0.0000115765
       -0.0000104317   0.0000064974   0.0000120416   0.0000066830   0.0000057902
       -0.0000336807  -0.0000005594  -0.0000699782  -0.0000999638   0.0001070302
        0.0000009355  -0.0001099040  -0.0000790070   0.0000013397  -0.0000360949
       -0.0000531476  -0.0004807783  -0.0010222388  -0.0001156030
       -0.0010649651  -0.0135580879  -0.0074091024  -0.0166280140  -0.0424341916
       -0.0883363356  -0.0136552291  -0.0407471038   0.5033287730  -0.0146321372
       -0.0148794688  -0.0177675625  -0.0002284007  -0.0001367304  -0.0006253041
       -0.0002704581   0.0001899600   0.0007774829  -0.0003101480   0.0000067290
       -0.0000898349  -0.0008734975   0.0007013958   0.0002600490   0.0006907208
        0.0011359881  -0.0033832980  -0.0001227781  -0.0010404089   0.0013496177
        0.0000852281   0.0001323207   0.0000978817   0.0000106568  -0.0000656079
       -0.0000220886   0.0000403008   0.0000582530   0.0000403057  -0.0001079755
       -0.0002523871  -0.0001509718   0.0000721433   0.0003366302   0.0002003297
       -0.0000357082  -0.0002251685  -0.0001302250  -0.0000155431   0.0000767070
        0.0000399265   0.0000278699  -0.0000252944  -0.0000086354  -0.0000101812
        0.0000068369   0.0000043634  -0.0000025067  -0.0000241162  -0.0000016257
       -0.0000065420   0.0000268436   0.0000037311  -0.0000035445  -0.0000344152
       -0.0000191452   0.0000113215   0.0000312313   0.0000126075  -0.0000181697
       -0.0000182590  -0.0000067304   0.0000028926   0.0000135026  -0.0000007167
       -0.0000125408  -0.0000027711  -0.0000065464   0.0000296645   0.0000112513
        0.0000010191  -0.0000577143  -0.0000622579  -0.0000333249   0.0000845757
        0.0002036993   0.0001039814  -0.0001373758  -0.0003115181  -0.0001665798
        0.0000961746   0.0002670392   0.0001311253  -0.0000745108  -0.0000985532
        0.0000008907   0.0006432204   0.0017192446  -0.0023373367   0.0004980575
       -0.0004398591  -0.0001974964   0.0004047038   0.0001527459   0.0000911507
       -0.0004387704  -0.0008895760   0.0005138812  -0.0000363751   0.0014916372
       -0.0014480847   0.0051186282   0.0099377679   0.0084513098  -0.0007682245
       -0.0002274899   0.0002828103   0.0017399909  -0.0019000369  -0.0007291713
       -0.0003489235   0.0007032804   0.0005064405   0.0661186995  -0.0432103843
       -0.0740366308  -0.1061460225   0.0552103665  -0.1844940593   0.0804761636
        0.0875210744  -0.1329714130  -0.0006670122  -0.0006351982  -0.0012742197
       -0.0000009191  -0.0000528345  -0.0000128493  -0.0000187162  -0.0001440176
       -0.0000936201  -0.0001268315   0.0000604989  -0.0001715368  -0.0000148469
        0.0000399481   0.0000073112  -0.0000007967   0.0000215411   0.0000104621
       -0.0000005575  -0.0000061732  -0.0000029135   0.0000071936   0.0000068403
        0.0000035159   0.0000076594   0.0000035463   0.0000005463   0.0000056697
       -0.0000040041  -0.0000058286   0.0000077143   0.0000026120  -0.0000005330
        0.0000060141  -0.0000050011  -0.0000070272   0.0000026370  -0.0000074409
       -0.0000069770   0.0000038250   0.0000094029   0.0000012617   0.0000058680
       -0.0000065882  -0.0000281181   0.0001455022   0.0000895171  -0.0000983102
        0.0000514663   0.0001109596   0.0000422863   0.0000085372  -0.0000050344
       -0.0000145118   0.0004328376   0.0011706069  -0.0001743958
       -0.0218012978   0.0129093637  -0.0154534170  -0.1008740213   0.0206901360
       -0.0552713515  -0.0104405803  -0.0017456505  -0.0146321372   0.5883479446
        0.1145523551   0.0421213469  -0.1283524178  -0.0465237973   0.0309792522
        0.0486202157   0.0003065910   0.0236297419  -0.0342572575  -0.0209070007
        0.0172931293  -0.0309605506   0.0246842752  -0.0535293078  -0.2638706203
       -0.0593233110  -0.0144282496  -0.0322876775  -0.0246737580   0.0214857387
        0.0025222117  -0.0009013896   0.0017440619  -0.0011206937  -0.0003830439
       -0.0003152057   0.0002511156   0.0007429180   0.0002118432  -0.0007927536
       -0.0028948685  -0.0016706279   0.0006365073   0.0041933976   0.0023619639
       -0.0001295257  -0.0027520981  -0.0015609613  -0.0001606112   0.0009124566
        0.0005272361   0.0002462927  -0.0001656944  -0.0000956373  -0.0000846032
        0.0001257749   0.0000575962  -0.0000001649  -0.0001314426  -0.0000770322
       -0.0000602198   0.0001884294   0.0001095796  -0.0000347960  -0.0003190449
       -0.0001610208   0.0001085727   0.0003135127   0.0001793359  -0.0001651465
       -0.0001437357  -0.0000836596   0.0000681726   0.0001056504   0.0000615041
       -0.0001270482  -0.0000764707  -0.0000390185   0.0002843102   0.0001146832
        0.0000605154  -0.0006056614  -0.0007689927  -0.0004781381   0.0012409723
        0.0023777767   0.0014564046  -0.0016296467  -0.0039606731  -0.0022464520
        0.0009593582   0.0030687651   0.0016010820  -0.0008869409  -0.0009885679
       -0.0008598805  -0.0023742488   0.0027686009  -0.0049982620   0.0002164409
       -0.0006879495   0.0011772680  -0.0009078923   0.0001408963  -0.0007368009
        0.0010095147  -0.0000497576   0.0005171653  -0.0020860420  -0.0022336290
        0.0019625185   0.0095849797  -0.0015830626   0.0070569765   0.0001317200
       -0.0005365811  -0.0005364415   0.0006924508  -0.0003202370  -0.0003241705
       -0.0039662459   0.0031339695   0.0008552011   0.0006902478   0.0004788925
        0.0006188933  -0.0006886640  -0.0017387297  -0.0017294990  -0.0002880552
        0.0003291910   0.0001314789  -0.0156875650  -0.0173882262   0.0188443063
       -0.0004291857   0.0000663826  -0.0039550314  -0.0001374669  -0.0003132203
        0.0003634417  -0.0006464213  -0.0003543235  -0.0030201142  -0.0000403939