$hessian                                                                        
        0.4746291905   0.0442802162   0.0000243366  -0.1204336954   0.0597327032
        0.0000400224   0.0041983969  -0.0021598714  -0.0000007696  -0.0204816460
        0.0105036567  -0.0109142685  -0.0009236248   0.0006971203   0.0012419111
       -0.0002579439  -0.0006883351  -0.0001553994  -0.0000078736  -0.0001674826
        0.0000829335  -0.0003924865  -0.0009198014  -0.0003003465   0.0000613096
        0.0010200909  -0.0021229257  -0.0000961295   0.0000359035  -0.0000005651
        0.0001920629  -0.0000548397   0.0000000267  -0.0000153722   0.0000074198
        0.0000001846   0.0000197117  -0.0000257470  -0.0000000319  -0.0000129431
       -0.0000264436  -0.0000000171  -0.0000137692  -0.0000224246  -0.0000000211
        0.0000196720   0.0000433194   0.0000001599  -0.0000112697  -0.0000019683
        0.0000000370  -0.0000049795   0.0000125304   0.0000000817   0.0000082863
        0.0000036720   0.0000000935   0.0000021344   0.0000052047   0.0000000465
        0.0000018209  -0.0000125313  -0.0000000167   0.0000095205  -0.0000047111
       -0.0000000072   0.0000120267   0.0000030001  -0.0000000415   0.0000045759
        0.0000073008  -0.0000000498   0.0000017022  -0.0000021152  -0.0000000940
        0.0000016819  -0.0000074053  -0.0000001119   0.0000040671  -0.0000068993
       -0.0000000974  -0.0000162350   0.0000093421   0.0000000065   0.0000148598
       -0.0000396948  -0.0000000664  -0.0000290244  -0.0000034008  -0.0000001268
        0.0000249650   0.0000244216   0.0000000701   0.0000175375   0.0000181150
       -0.0000001048   0.0000608933   0.0010171942   0.0021267312  -0.0003927532
       -0.0009205105   0.0002985256  -0.0000079590  -0.0001671724  -0.0000832860
       -0.0002577891  -0.0006884380   0.0001535406  -0.0009238453   0.0006985789
       -0.0012396702  -0.0204945402   0.0104900772   0.0109246691  -0.1194247177
       -0.0183850359   0.1119720287  -0.0766886537  -0.0837219699  -0.0000949864
       -0.1192760413  -0.0181480062  -0.1119508193   0.0002100024  -0.0022329671
       -0.0000019737   0.0005750525  -0.0005858891   0.0001029193   0.0005745917
       -0.0005858418  -0.0001038766  -0.0001099694   0.0002275441   0.0002918685
       -0.0000025818   0.0000416066   0.0000291229  -0.0000085435   0.0001440732
        0.0000057160  -0.0000901803   0.0000901305  -0.0001253918  -0.0000263915
        0.0000033823   0.0000000459  -0.0000234204  -0.0000151967   0.0000000510
        0.0000051822  -0.0000012152   0.0000000739  -0.0000035413  -0.0000067964
        0.0000000893  -0.0000058710  -0.0000021973   0.0000000523  -0.0000051571
        0.0000023658   0.0000000047  -0.0000076461   0.0000004718  -0.0000000507
       -0.0000060668   0.0000042645  -0.0000001029   0.0000002109   0.0000053935
       -0.0000001163   0.0000041618  -0.0000033544  -0.0000000769   0.0000108970
       -0.0000253527  -0.0000000541  -0.0000903274   0.0000899615   0.0001255844
       -0.0000085839   0.0001443024  -0.0000054012  -0.0000025842   0.0000419187
       -0.0000290436  -0.0001103565   0.0002283333  -0.0002910226
        0.0442802162   0.4775785693  -0.0000322084   0.0527543337  -0.1078044798
       -0.0000286790   0.0193779885  -0.0280173024  -0.0000216288   0.0023596575
        0.0018872015   0.0034728785  -0.0003439982   0.0003045065  -0.0004782714
        0.0000860011   0.0000005084   0.0000465348   0.0001544003   0.0000490901
       -0.0000507306   0.0000752328  -0.0000826402   0.0003506744  -0.0007261761
       -0.0005670757  -0.0008519941  -0.0000593912  -0.0002094188  -0.0000028903
        0.0001606138   0.0001416336   0.0000001035  -0.0000101413  -0.0000065257
       -0.0000004197   0.0000374523   0.0000100962  -0.0000000373   0.0000012767
       -0.0000129018   0.0000000130   0.0000141978   0.0000057272   0.0000000691
        0.0000058118   0.0000404612  -0.0000000765  -0.0000059565   0.0000026641
        0.0000000707  -0.0000023397   0.0000027955  -0.0000001059  -0.0000006568
        0.0000027020   0.0000000552  -0.0000008558   0.0000004902  -0.0000000400
       -0.0000051191  -0.0000040170  -0.0000000012   0.0000048836  -0.0000038863
       -0.0000000221   0.0000049594  -0.0000029303   0.0000000212   0.0000011972
        0.0000100938   0.0000000375  -0.0000046030  -0.0000051352   0.0000000656
       -0.0000002857  -0.0000040973   0.0000000751  -0.0000209995  -0.0000032934
       -0.0000000757  -0.0000049757   0.0000014659   0.0000001068  -0.0000241123
       -0.0000521794  -0.0000000293   0.0000141929   0.0000194192   0.0000000566
        0.0000298851   0.0000180764   0.0000000387  -0.0000604411  -0.0000663830
       -0.0000000181  -0.0007255299  -0.0005668857   0.0008588394   0.0000750352
       -0.0000842031  -0.0003514315   0.0001542897   0.0000490693   0.0000512842
        0.0000861023  -0.0000004499  -0.0000477357  -0.0003453880   0.0003039039
        0.0004821471   0.0023231354   0.0019166633  -0.0034621804  -0.0188272889
       -0.0466281724   0.0251300730  -0.0834328874  -0.2471461777  -0.0002316569
       -0.0185913122  -0.0465197459  -0.0248311507  -0.0010606061  -0.0064143574
       -0.0000058334   0.0009389544   0.0009714639   0.0003666536   0.0009385580
        0.0009707871  -0.0003648665   0.0003217174  -0.0000915566   0.0001541461
        0.0000255089  -0.0000265609  -0.0000454786  -0.0000188731   0.0000126874
       -0.0000482445  -0.0001106782   0.0000517049  -0.0000401983  -0.0000358779
       -0.0000002464   0.0000000128  -0.0000071870   0.0000004385  -0.0000000082
       -0.0000030021   0.0000039883  -0.0000001901  -0.0000016395   0.0000028109
       -0.0000000615   0.0000000695   0.0000025609  -0.0000000387  -0.0000017203
        0.0000004734   0.0000000109   0.0000013883   0.0000016912   0.0000000387
        0.0000010416  -0.0000001032   0.0000000783  -0.0000004343   0.0000027183
        0.0000000963   0.0000006950  -0.0000032293   0.0000000510  -0.0000113616
        0.0000099310   0.0000000490  -0.0001110248   0.0000514476   0.0000405336
       -0.0000191056   0.0000127133   0.0000482983   0.0000254913  -0.0000269669
        0.0000454317   0.0003196812  -0.0000896328  -0.0001522412
        0.0000243366  -0.0000322084   0.5279407672   0.0000340050  -0.0000263755
       -0.0623867964   0.0000169840  -0.0000260349   0.0010218976  -0.0208758410
        0.0127481560  -0.0034541278  -0.0004191642   0.0006694373  -0.0011953540
       -0.0000293210  -0.0005705818   0.0007429416  -0.0000508769   0.0000368071
       -0.0002924916  -0.0002534913  -0.0011356183   0.0003827395   0.0003977660
        0.0006868289  -0.0045971740  -0.0000004957  -0.0000026834   0.0032083096
        0.0000000411   0.0000000828   0.0000238163  -0.0000000504  -0.0000000614
        0.0000391940   0.0000000709   0.0000000414   0.0000098075   0.0000000017
       -0.0000000757  -0.0000114755   0.0000001013   0.0000000027   0.0000052260
        0.0000000779   0.0000000320  -0.0000090588  -0.0000000565  -0.0000000466
        0.0000049490   0.0000000125  -0.0000000506   0.0000001309   0.0000002089
        0.0000000596   0.0000062418   0.0000000132   0.0000000490  -0.0000061222
        0.0000000359  -0.0000000923   0.0000002041  -0.0000000837  -0.0000000181
       -0.0000050036  -0.0000000237  -0.0000000529   0.0000008708  -0.0000000014
        0.0000000067  -0.0000055061   0.0000000109  -0.0000000570   0.0000017329
       -0.0000000598  -0.0000000320  -0.0000060815  -0.0000000368  -0.0000000155
        0.0000058914  -0.0000000081   0.0000000174   0.0000005608  -0.0000000852
       -0.0000000405  -0.0000032384   0.0000001022  -0.0000000461   0.0000163519
       -0.0000001080   0.0000000749  -0.0000299882   0.0000000902  -0.0000001099
        0.0000330795  -0.0003972757  -0.0006797123  -0.0045963450   0.0002533341
        0.0011344016   0.0003844743   0.0000511196  -0.0000362810  -0.0002923907
        0.0000292778   0.0005689292   0.0007438736   0.0004187717  -0.0006643450
       -0.0011982986   0.0208721374  -0.0127355901  -0.0034679852   0.1119185668
        0.0247797868  -0.2034483267  -0.0000948652  -0.0002307620  -0.0443157519
       -0.1118974286  -0.0244794226  -0.2036860115  -0.0000008520  -0.0000066693
        0.0005394664   0.0004787444  -0.0003709808   0.0002267283  -0.0004768769
        0.0003716392   0.0002259589  -0.0012620004   0.0008518505  -0.0010267700
        0.0000044295  -0.0000766638  -0.0000059234  -0.0001329757   0.0001483237
       -0.0000337164  -0.0002160393   0.0000198950  -0.0001840987   0.0000000281
        0.0000000897  -0.0000213204   0.0000000276  -0.0000000095  -0.0000091211
       -0.0000001727  -0.0000001107  -0.0000026504   0.0000000411  -0.0000000391
       -0.0000014797   0.0000000005  -0.0000000425  -0.0000000814  -0.0000000017
       -0.0000000271   0.0000000572  -0.0000000040  -0.0000000343  -0.0000002246
       -0.0000000264  -0.0000000262   0.0000010912  -0.0000000186  -0.0000000181
        0.0000000091  -0.0000000205  -0.0000000192  -0.0000031698  -0.0000000603
        0.0000000684  -0.0000184857   0.0002159103  -0.0000195159  -0.0001838752
        0.0001329534  -0.0001481531  -0.0000338503  -0.0000043920   0.0000767646
       -0.0000056788   0.0012635132  -0.0008507209  -0.0010283976
       -0.1204336954   0.0527543337   0.0000340050   0.4553704057   0.0066372029
       -0.0000028287  -0.0707551835  -0.0327158227  -0.0000292338  -0.0994798381
       -0.0110311160  -0.0533621082   0.0083880077   0.0021655952   0.0038977025
       -0.0008503327  -0.0017318577   0.0027273075   0.0000825191   0.0000106932
       -0.0011202369  -0.0038784711  -0.0024017397   0.0021796636  -0.0195504816
       -0.0052185354  -0.0226667405   0.0034528246   0.0016598865   0.0000030915
       -0.0003035841  -0.0001236385  -0.0000002259   0.0002526942   0.0001416180
        0.0000002877  -0.0000102919   0.0000245131   0.0000000439   0.0000717440
        0.0000118274  -0.0000001314  -0.0000379019   0.0000323738  -0.0000000870
       -0.0000005632  -0.0000838303   0.0000001692   0.0000203857   0.0000055256
       -0.0000000185   0.0000194030  -0.0000086440   0.0000000077   0.0000037628
       -0.0000105208   0.0000000141  -0.0000026417  -0.0000076659  -0.0000000270
        0.0000063139   0.0000215226  -0.0000000227  -0.0000037562  -0.0000003832
        0.0000000232  -0.0000014587   0.0000082212  -0.0000000173  -0.0000039613
       -0.0000160482   0.0000000078   0.0000018701   0.0000129885  -0.0000000006
        0.0000088417   0.0000091623  -0.0000000059   0.0000154404   0.0000027176
        0.0000000280   0.0000184866  -0.0000089142   0.0000000286   0.0000239738
        0.0000751900   0.0000000059   0.0000102536  -0.0000108713  -0.0000000840
       -0.0000481459  -0.0000329037   0.0000000132   0.0003252393  -0.0000371110
       -0.0000002716  -0.0195626655  -0.0052569320   0.0226490271  -0.0038773611
       -0.0023969047  -0.0021854796   0.0000820076   0.0000085270   0.0011202275
       -0.0008481651  -0.0017263898  -0.0027296333   0.0083853078   0.0021717561
       -0.0038786914  -0.0995233548  -0.0111250089   0.0533622089  -0.0164974428
        0.0115458531   0.0032140814   0.0062009213  -0.0038179188  -0.0000023730
       -0.0164842820   0.0115421156  -0.0032002755   0.0066468545   0.0195655585
        0.0000183802  -0.0077596622  -0.0162844154  -0.0023503453  -0.0077605120
       -0.0162886607   0.0023212303  -0.0003788271   0.0005927794   0.0007139936
        0.0001971136   0.0000240458   0.0009828442   0.0000395279   0.0003660515
        0.0001885144  -0.0006814086  -0.0000409851  -0.0009976552  -0.0000500487
        0.0000079251  -0.0000000599   0.0000167273   0.0000152074   0.0000000245
        0.0000020221  -0.0000005739   0.0000000171   0.0000040988   0.0000030802
       -0.0000000053   0.0000047130   0.0000010711  -0.0000000065   0.0000034195
       -0.0000014442  -0.0000000047   0.0000045037   0.0000023040   0.0000000059
        0.0000036853   0.0000003005   0.0000000098  -0.0000000140   0.0000015635
        0.0000000125  -0.0000005414   0.0000049653   0.0000000107  -0.0000546717
        0.0000089799   0.0000000628  -0.0006816461  -0.0000427742   0.0009972049
        0.0000396634   0.0003661657  -0.0001878689   0.0001972326   0.0000258326
       -0.0009823266  -0.0003790545   0.0005941564  -0.0007134900
        0.0597327032  -0.1078044798  -0.0000263755   0.0066372029   0.4255805379
       -0.0000566722  -0.0400354057  -0.1571929160  -0.0000868058  -0.0109689886
       -0.0570174388  -0.0132865991   0.0020229368  -0.0000661666   0.0006679138
       -0.0017812109   0.0063000835   0.0005421870   0.0000564886   0.0000012405
       -0.0003318384  -0.0023752188   0.0059090413   0.0005394136  -0.0049794853
        0.0004169990  -0.0053994670   0.0015629185  -0.0030423720   0.0000001635
       -0.0000972381   0.0001310915   0.0000000527   0.0000182427   0.0000663902
        0.0000000700  -0.0000014431  -0.0000201096  -0.0000000044   0.0000225009
        0.0000027541  -0.0000000578  -0.0000185998  -0.0000016305  -0.0000000317
        0.0000003831  -0.0000263624   0.0000000275   0.0000067993   0.0000011260
        0.0000000785   0.0000037667  -0.0000035497  -0.0000000622   0.0000010465
       -0.0000029175   0.0000000905  -0.0000000902  -0.0000059576  -0.0000000240
        0.0000003078   0.0000051185  -0.0000000043   0.0000000461  -0.0000021488
        0.0000000040   0.0000001410   0.0000043711  -0.0000000004  -0.0000001856
       -0.0000046309   0.0000000053  -0.0000020724  -0.0000009336   0.0000000056
       -0.0000026305   0.0000001995   0.0000000087   0.0000050048  -0.0000025398
       -0.0000000864   0.0000004313   0.0000014831   0.0000000852   0.0000234644
        0.0000234039  -0.0000000615  -0.0000151865  -0.0000156532   0.0000000104
        0.0000093626  -0.0000163488   0.0000001290   0.0001135171   0.0000280755
        0.0000003479  -0.0049966544   0.0004044555   0.0053934479  -0.0023732804
        0.0059104059  -0.0005306362   0.0000553879   0.0000004264   0.0003325777
       -0.0017745193   0.0063025430  -0.0005274255   0.0020051032  -0.0000695970
       -0.0006104652  -0.0110664822  -0.0570636483   0.0134308110   0.0000718059
        0.0010854379  -0.0010183934   0.0206326079  -0.0228302648  -0.0000164548
        0.0001083207   0.0010536154   0.0010241358  -0.0048226486  -0.0234048706
       -0.0000211606  -0.0048155034  -0.0077207420  -0.0024048401  -0.0048330875
       -0.0077653022   0.0023943400   0.0005847526  -0.0026983535   0.0002061723
        0.0000042058   0.0001606992   0.0002254902   0.0003728634  -0.0014603384
        0.0000635723  -0.0000305868  -0.0005274661  -0.0002214618  -0.0000376685
       -0.0000589578  -0.0000000978  -0.0000026655  -0.0000020545   0.0000000066
       -0.0000004171   0.0000009332  -0.0000001078  -0.0000005041   0.0000009447
       -0.0000000029   0.0000011694   0.0000014835  -0.0000000029   0.0000011616
       -0.0000000735   0.0000000051   0.0000025066   0.0000018365   0.0000000104
        0.0000032593  -0.0000007096   0.0000000123   0.0000035817  -0.0000021088
        0.0000000177   0.0000027735   0.0000008102   0.0000000023   0.0000350162
       -0.0000397567  -0.0000001291  -0.0000298442  -0.0005275605   0.0002205488
        0.0003730311  -0.0014602221  -0.0000665380   0.0000034092   0.0001608631
       -0.0002235945   0.0005833974  -0.0026981883  -0.0002123425
        0.0000400224  -0.0000286790  -0.0623867964  -0.0000028287  -0.0000566722
        0.4968667440  -0.0000351406  -0.0000865181  -0.0619959756  -0.0556029288
       -0.0139749745  -0.1480783801  -0.0105416554  -0.0027439744  -0.0321943497
        0.0034293221   0.0007253098  -0.0025877541  -0.0003457892  -0.0000803906
       -0.0003260764   0.0010191679   0.0001974567   0.0007123031  -0.0092306239
       -0.0021130069   0.0017650167   0.0000028395   0.0000003892  -0.0032746180
       -0.0000001538   0.0000001746  -0.0001195829   0.0000000584   0.0000002006
       -0.0000575197  -0.0000000614  -0.0000000159   0.0000078675   0.0000000863
       -0.0000000319   0.0000035313  -0.0000000096   0.0000000341   0.0000018834
        0.0000000346  -0.0000000758  -0.0000058662  -0.0000000331   0.0000001058
        0.0000044936   0.0000000563  -0.0000000963  -0.0000001188   0.0000001306
        0.0000000318   0.0000046106   0.0000000012   0.0000000760  -0.0000001955
        0.0000000384  -0.0000000310   0.0000012228  -0.0000000519   0.0000000171
       -0.0000023662  -0.0000000047  -0.0000000103   0.0000011927   0.0000000204
       -0.0000000007  -0.0000008637  -0.0000000150  -0.0000000305   0.0000016291
       -0.0000000144   0.0000000163  -0.0000041456   0.0000000744   0.0000000280
       -0.0000001733  -0.0000000819  -0.0000000308   0.0000032084   0.0000000124
        0.0000000351  -0.0000044306  -0.0000000047   0.0000000230  -0.0000059942
        0.0000000520  -0.0000000922   0.0000328556   0.0000001606   0.0000001615
       -0.0000802313   0.0092136088   0.0021081500   0.0017903823  -0.0010250826
       -0.0001895847   0.0007098690   0.0003460623   0.0000810805  -0.0003247755
       -0.0034317543  -0.0007106828  -0.0025922839   0.0105607795   0.0028001330
       -0.0321884202   0.0556026566   0.0141215863  -0.1479861647   0.0189674058
       -0.0153997919  -0.0019845957   0.0000223542  -0.0000236024   0.0000200482
       -0.0189758390   0.0154133423  -0.0019653353  -0.0000046338  -0.0000214688
        0.0000256268  -0.0094706344  -0.0225151438  -0.0020143296   0.0094610917
        0.0225047503  -0.0019688870  -0.0010113655  -0.0002183634   0.0007712222
       -0.0005471540  -0.0001473784  -0.0009954033   0.0000781740   0.0000283010
        0.0001874861   0.0003792852   0.0001087589   0.0001207437  -0.0000000949
       -0.0000000567   0.0000135435   0.0000000087  -0.0000000054  -0.0000057181
       -0.0000001328  -0.0000000661   0.0000008316   0.0000000182   0.0000000024
        0.0000004582   0.0000000014  -0.0000000071   0.0000017397  -0.0000000015
       -0.0000000033   0.0000005931   0.0000000034   0.0000000006   0.0000005036
       -0.0000000008  -0.0000000043  -0.0000002578  -0.0000000015  -0.0000000066
       -0.0000021055   0.0000000023   0.0000000002   0.0000034802   0.0000000581
       -0.0000000367   0.0000165889  -0.0003795960  -0.0001102138   0.0001212305
       -0.0000775953  -0.0000309390   0.0001872029   0.0005475888   0.0001494456
       -0.0009956818   0.0010121072   0.0002123761   0.0007712876
        0.0041983969   0.0193779885   0.0000169840  -0.0707551835  -0.0400354057
       -0.0000351406   0.5116693468  -0.0261583267  -0.0000233618  -0.0101759449
       -0.0169553762  -0.0081431036  -0.0005108500  -0.0010601931   0.0009726411
       -0.0004710255   0.0004824218  -0.0001662224   0.0000407397   0.0001447179
        0.0000170149  -0.0006241090   0.0006380700  -0.0000739493   0.0000818713
       -0.0006987465  -0.0022481207  -0.0001952240   0.0000584345  -0.0000005771
        0.0002349202   0.0001355133   0.0000001117  -0.0000372708  -0.0000126354
       -0.0000000638   0.0000305537  -0.0000111063   0.0000000137  -0.0000226588
       -0.0000110694  -0.0000000670   0.0000046073  -0.0000204342  -0.0000000071
        0.0000180055   0.0000689063   0.0000001044  -0.0000131739   0.0000003460
       -0.0000000183  -0.0000053134   0.0000148396   0.0000000635   0.0000068920
        0.0000051639  -0.0000000056   0.0000007659   0.0000099051   0.0000000202
        0.0000007384  -0.0000116868  -0.0000000163   0.0000100288  -0.0000028470
       -0.0000000024   0.0000138254   0.0000006608   0.0000000021   0.0000045313
        0.0000129444   0.0000000057   0.0000016980   0.0000001307  -0.0000000215
        0.0000075343  -0.0000085680  -0.0000000211  -0.0000046539  -0.0000043535
        0.0000000217  -0.0000150034   0.0000073162  -0.0000000397  -0.0000072608
       -0.0000597430  -0.0000000785  -0.0000071592   0.0000071836   0.0000000512
        0.0000214737   0.0000324034   0.0000001066   0.0000051217  -0.0000148790
        0.0000000007   0.0000806403  -0.0007024009   0.0022482512  -0.0006243238
        0.0006383244   0.0000745934   0.0000408524   0.0001447728  -0.0000164392
       -0.0004715446   0.0004823850   0.0001668779  -0.0005097419  -0.0010588822
       -0.0009748738  -0.0101823345  -0.0169752808   0.0081117059   0.0008149644
        0.0005178606  -0.0002523790  -0.0026200991   0.0042461065   0.0000029341
        0.0008138332   0.0005170873   0.0002534597  -0.1843658492   0.1172581395
        0.0001121530  -0.1183163589  -0.0199787748  -0.1101856412  -0.1182998837
       -0.0201798465   0.1101434415   0.0001058192  -0.0001220972   0.0003060102
        0.0000164527  -0.0000101758   0.0000028522   0.0000482259  -0.0001344271
       -0.0000141233  -0.0000649836  -0.0001559630  -0.0001212432  -0.0000011410
        0.0000200770   0.0000000277  -0.0000163714  -0.0000125860  -0.0000000023
        0.0000050085  -0.0000003929   0.0000000497  -0.0000029688  -0.0000046977
        0.0000000130  -0.0000056463  -0.0000009968   0.0000000164  -0.0000059279
        0.0000032478   0.0000000115  -0.0000064664   0.0000015814  -0.0000000028
       -0.0000062218   0.0000049237  -0.0000000058  -0.0000037667   0.0000087581
       -0.0000000153  -0.0000009757  -0.0000039851  -0.0000000157  -0.0000326449
       -0.0000115909  -0.0000000049  -0.0000650505  -0.0001561812   0.0001210776
        0.0000481968  -0.0001345221   0.0000138971   0.0000164486  -0.0000100786
       -0.0000028721   0.0001056387  -0.0001219598  -0.0003060779
       -0.0021598714  -0.0280173024  -0.0000260349  -0.0327158227  -0.1571929160
       -0.0000865181  -0.0261583267   0.4397673384  -0.0000823973  -0.0089055381
       -0.0083903902  -0.0083916282  -0.0000844824  -0.0000610096   0.0010910010
       -0.0003100989   0.0002119804  -0.0001372567  -0.0001740187   0.0000486029
        0.0000947713  -0.0003715053   0.0002107534  -0.0004750988   0.0010742018
       -0.0005540255  -0.0001953032   0.0000884613  -0.0001812037  -0.0000029556
       -0.0001099078   0.0000968155   0.0000000631   0.0000834975  -0.0000468590
        0.0000001904   0.0000025313  -0.0000029274   0.0000000160  -0.0000150320
       -0.0000240872  -0.0000000717  -0.0000129862   0.0000221183  -0.0000000436
        0.0000024596  -0.0000098632   0.0000001535  -0.0000008139   0.0000020525
        0.0000000949   0.0000080756  -0.0000012828  -0.0000000299   0.0000024064
        0.0000011682   0.0000001672   0.0000009341  -0.0000027904   0.0000000075
        0.0000016336   0.0000028945  -0.0000000028   0.0000012894  -0.0000047448
        0.0000000180   0.0000036794   0.0000027730  -0.0000000360   0.0000036250
        0.0000041312  -0.0000000285  -0.0000033382  -0.0000030090  -0.0000000633
        0.0000001143  -0.0000046111  -0.0000000746  -0.0000080041  -0.0000034395
       -0.0000001286  -0.0000033146   0.0000049827   0.0000001072   0.0000019628
       -0.0000041845  -0.0000000206  -0.0000168804   0.0000161292  -0.0000000772
       -0.0000317817   0.0000175344   0.0000000656   0.0000135436  -0.0000045114
       -0.0000001547   0.0010756017  -0.0005552352   0.0002024527  -0.0003727777
        0.0002117367   0.0004746438  -0.0001738882   0.0000487883  -0.0000942122
       -0.0003107237   0.0002129317   0.0001365267  -0.0000843031  -0.0000602935
       -0.0010889916  -0.0089298313  -0.0084415734   0.0083800879  -0.0010305598
        0.0007580824   0.0002724391   0.0031053262  -0.0036078812  -0.0000027628
       -0.0010300514   0.0007574492  -0.0002717553   0.1170493879  -0.1397023164
       -0.0000907231  -0.0195442721  -0.0473737517  -0.0303956290  -0.0197438914
       -0.0474850100   0.0306879749  -0.0001947849  -0.0003003818   0.0000276527
       -0.0000045041  -0.0000446648   0.0000571122   0.0000372253  -0.0000507182
        0.0000475086   0.0000456288   0.0000288087  -0.0000209167  -0.0000043324
        0.0000345998   0.0000001230  -0.0000003717   0.0000068701   0.0000000427
        0.0000013778   0.0000006861  -0.0000000467  -0.0000002097   0.0000003669
        0.0000000633  -0.0000017004   0.0000017253   0.0000000369  -0.0000034439
        0.0000024046   0.0000000082  -0.0000005283   0.0000020403  -0.0000000283
        0.0000001683   0.0000033330  -0.0000000582   0.0000026128   0.0000067457
       -0.0000000600   0.0000082484   0.0000009302  -0.0000000504   0.0000153687
        0.0000134047  -0.0000000221   0.0000453650   0.0000285987   0.0000213086
        0.0000371814  -0.0000508703  -0.0000475284  -0.0000045616  -0.0000442228
       -0.0000571948  -0.0001954495  -0.0003026998  -0.0000267329
       -0.0000007696  -0.0000216288   0.0010218976  -0.0000292338  -0.0000868058
       -0.0619959756  -0.0000233618  -0.0000823973   0.5274959477  -0.0125073013
       -0.0210516102  -0.0036027274  -0.0001747717  -0.0007852172  -0.0011350743
       -0.0002735382   0.0005607414   0.0007028764  -0.0000140768  -0.0000642074
       -0.0002935188  -0.0007035397   0.0009369333   0.0003772537   0.0007666342
       -0.0004999468  -0.0045399193  -0.0000010243  -0.0000029015   0.0032874357
        0.0000001388   0.0000001258   0.0000098541   0.0000001836  -0.0000000711
       -0.0000137118   0.0000001147   0.0000000130   0.0000000710  -0.0000000591
        0.0000001265  -0.0000079029   0.0000001221  -0.0000000810   0.0000061212
       -0.0000000685   0.0000002317  -0.0000089403  -0.0000000298   0.0000003386
       -0.0000003663   0.0000001354  -0.0000002516   0.0000007119   0.0000000841
       -0.0000000286   0.0000014403  -0.0000000053   0.0000001850   0.0000028040
        0.0000000687  -0.0000000968  -0.0000013000  -0.0000000451   0.0000000551
       -0.0000022844   0.0000000135  -0.0000000583   0.0000005384   0.0000000600
        0.0000000046   0.0000023294  -0.0000000857  -0.0000000835  -0.0000004626
        0.0000000348   0.0000000125  -0.0000018689   0.0000001749   0.0000000664
        0.0000003341  -0.0000002312  -0.0000001750   0.0000029817  -0.0000001733
       -0.0000001395  -0.0000157651   0.0000000823   0.0000000478   0.0000176227
        0.0000000128  -0.0000000598  -0.0000085017  -0.0000001501  -0.0000001220
        0.0000422671  -0.0007630891   0.0005063960  -0.0045378439   0.0007025661
       -0.0009370276   0.0003765623   0.0000140422   0.0000648176  -0.0002936167
        0.0002723715  -0.0005616871   0.0007022095   0.0001745774   0.0007876888
       -0.0011344576   0.0124903060   0.0210368365  -0.0035464948  -0.0002497252
       -0.0005576281   0.0002226125   0.0000020975  -0.0000031128   0.0005407380
        0.0002484275   0.0005582726   0.0002227667   0.0001119682  -0.0000901628
       -0.0444521614  -0.1100122193  -0.0307064985  -0.2036741881   0.1099694755
        0.0309982490  -0.2035752435  -0.0006089550  -0.0012206286  -0.0008659725
       -0.0000312907   0.0000714109  -0.0000124564  -0.0000461148  -0.0001972859
       -0.0000279646  -0.0001781601  -0.0001238403  -0.0001716311   0.0000000195
        0.0000001147  -0.0000205108   0.0000000243   0.0000000168   0.0000033717
       -0.0000001052  -0.0000000616  -0.0000005646   0.0000000187   0.0000000018
        0.0000019297  -0.0000000012  -0.0000000288   0.0000017938  -0.0000000277
       -0.0000000173  -0.0000004990  -0.0000000138  -0.0000000027   0.0000013028
       -0.0000000090  -0.0000000135  -0.0000019672  -0.0000000179  -0.0000000085
       -0.0000044465   0.0000000129   0.0000000022  -0.0000034432   0.0000000154
        0.0000000699  -0.0000188132   0.0001781501   0.0001241740  -0.0001714078
        0.0000462102   0.0001972020  -0.0000276950   0.0000313392  -0.0000713384
       -0.0000126865   0.0006087123   0.0012210899  -0.0008633901
       -0.0204816460   0.0023596575  -0.0208758410  -0.0994798381  -0.0109689886
       -0.0556029288  -0.0101759449  -0.0089055381  -0.0125073013   0.6084929448
        0.1081864793  -0.0276152158  -0.1333576212  -0.0201246994   0.0542078975
        0.0533114378   0.0126224043   0.0239943199  -0.0414694952  -0.0084102525
        0.0278657310  -0.0312115846  -0.0077513598  -0.0674792748  -0.2787732148
       -0.0532270708   0.0278800329  -0.0317945397  -0.0076316025   0.0207368943
        0.0012636770  -0.0000443998   0.0024137969  -0.0009500794  -0.0001418525
       -0.0000773193   0.0000727013  -0.0002165749  -0.0001627962   0.0000080856
       -0.0000419070   0.0000660287   0.0000591355  -0.0000654035  -0.0000085775
        0.0000587499   0.0002339280   0.0000459988  -0.0000523811  -0.0000061173
       -0.0000245327  -0.0000346753   0.0000367246  -0.0000085939   0.0000069707
        0.0000251994  -0.0000035383   0.0000055007   0.0000259462  -0.0000049613
       -0.0000099550  -0.0000476068  -0.0000019449   0.0000264388  -0.0000073024
       -0.0000031772   0.0000253629  -0.0000084178  -0.0000013241   0.0000150264
        0.0000443271  -0.0000020060  -0.0000028399  -0.0000239341   0.0000027039
       -0.0000014817  -0.0000251446  -0.0000011590  -0.0000481856  -0.0000163079
       -0.0000078442  -0.0000463293   0.0000223117  -0.0000048542  -0.0000602673
       -0.0002134280   0.0000920895  -0.0000501156   0.0000203513  -0.0001056568
        0.0001242541   0.0002219736  -0.0001543862  -0.0007802382  -0.0001966456
       -0.0003139083  -0.0000807535  -0.0000369128  -0.0026305363   0.0005027617
        0.0000957858  -0.0000205188  -0.0001666079  -0.0000279195  -0.0006597276
        0.0009289049   0.0001613064  -0.0000599934  -0.0021764920  -0.0008015668
        0.0040040285   0.0081631662   0.0019863847   0.0071048618   0.0003154282
       -0.0008216447  -0.0000528726   0.0008758362  -0.0004460684   0.0000161860
       -0.0041396697   0.0032704544  -0.0011094035   0.0006816473   0.0007081249
        0.0002623904  -0.0008746209  -0.0026835000  -0.0006821674  -0.0001614442
        0.0004748061  -0.0000593758  -0.0172726254  -0.0039083996   0.0252421178
       -0.0004546407  -0.0018267056  -0.0031337841  -0.0001304276  -0.0000313253
        0.0007294869  -0.0004059834  -0.0017655795  -0.0021515358   0.0000250699