 Entering Gaussian System
 *********************************************
 Gaussian 98:
 frequency output generated by the xtb code
 *********************************************
                         Standard orientation:
 --------------------------------------------------------------------
  Center     Atomic     Atomic              Coordinates (Angstroms)
  Number     Number      Type              X           Y           Z
 --------------------------------------------------------------------
    1          8             0      -11.194345   -2.019640   -1.144606
    2         15             0       -9.907743   -2.026813   -0.437751
    3          6             0       -9.912003   -1.052441    1.103547
    4          6             0       -9.936350    0.329565    0.975881
    5          6             0       -9.976679    1.127838    2.103473
    6          6             0      -10.001334    0.543980    3.360314
    7          6             0       -9.995939   -0.835006    3.487153
    8          6             0       -9.952825   -1.636552    2.359177
    9          6             0       -9.319383   -3.693779   -0.012249
   10          6             0       -8.133168   -3.915327    0.676788
   11          6             0       -7.735356   -5.210717    0.950816
   12          6             0       -8.514616   -6.281508    0.538981
   13          6             0       -9.696192   -6.059864   -0.149049
   14          6             0      -10.097742   -4.764986   -0.426115
   15          6             0       -8.568538   -1.283012   -1.420807
   16          6             0       -8.734338   -1.162270   -2.793676
   17          6             0       -7.756652   -0.587829   -3.597928
   18          6             0       -6.580222   -0.104911   -3.055323
   19          6             0       -6.392728   -0.207837   -1.682190
   20          6             0       -7.386395   -0.802148   -0.880808
   21          8             0       -7.037275   -0.814371    0.431888
   22          6             0       -5.814775   -0.217185    0.506240
   23          6             0       -5.069985    0.000114    1.650509
   24          6             0       -3.844192    0.620627    1.501718
   25          6             0       -3.360081    1.023948    0.250258
   26          6             0       -2.048098    1.680181    0.144972
   27          6             0       -1.861570    2.767097   -0.705102
   28          6             0       -0.628579    3.380473   -0.812165
   29          6             0        0.458214    2.917217   -0.082209
   30          6             0        1.798585    3.615831   -0.149740
   31          6             0        2.964477    2.664532   -0.070750
   32          6             0        4.169202    3.031594    0.554210
   33          6             0        5.246850    2.197295    0.568647
   34          6             0        5.217362    0.900997   -0.049233
   35          6             0        6.313513    0.026710   -0.017925
   36          6             0        6.213843   -1.356546   -0.422706
   37          6             0        7.273111   -2.200415   -0.390992
   38          6             0        8.546655   -1.765184    0.065254
   39          7             0        9.620993   -2.628392    0.107418
   40          6             0        9.968634   -3.542596   -0.873474
   41          6             0        9.403474   -3.756707   -2.122994
   42          6             0        9.971648   -4.721295   -2.934857
   43          6             0       11.086561   -5.450617   -2.525276
   44          6             0       11.679974   -5.214245   -1.299408
   45          6             0       11.128240   -4.250061   -0.468497
   46          6             0       11.495454   -3.730423    0.818168
   47          6             0       12.513659   -4.030256    1.711385
   48          6             0       12.560580   -3.351605    2.914702
   49          6             0       11.593482   -2.402358    3.240800
   50          6             0       10.570216   -2.086125    2.365954
   51          6             0       10.540022   -2.733543    1.138567
   52          6             0        8.676756   -0.410933    0.475538
   53          6             0        7.624204    0.440491    0.427019
   54          6             0        3.984222    0.566268   -0.705049
   55          6             0        2.919576    1.415657   -0.719665
   56          6             0        1.998618    4.440838   -1.408811
   57          6             0        2.071334    4.011873   -2.717507
   58          6             0        2.287926    4.952428   -3.714495
   59          6             0        2.439375    6.296292   -3.404364
   60          6             0        2.375268    6.731814   -2.091101
   61          6             0        2.154238    5.798687   -1.091390
   62          6             0        2.032192    5.955514    0.347768
   63          6             0        2.086295    7.086442    1.146155
   64          6             0        1.932744    6.940520    2.515184
   65          6             0        1.726395    5.689705    3.076938
   66          6             0        1.670658    4.552800    2.281620
   67          6             0        1.828620    4.691454    0.919737
   68          6             0        0.273359    1.839760    0.777187
   69          6             0       -0.960031    1.229774    0.888651
   70          6             0       -4.122031    0.803260   -0.890760
   71          6             0       -5.353439    0.179236   -0.764226
   72          1             0       -9.922595    0.766397   -0.014609
   73          1             0       -9.987834    2.203804    2.005790
   74          1             0      -10.029397    1.166430    4.242886
   75          1             0      -10.024423   -1.287608    4.467955
   76          1             0       -9.948352   -2.713997    2.451224
   77          1             0       -7.536123   -3.076035    1.000430
   78          1             0       -6.814993   -5.388935    1.488259
   79          1             0       -8.198258   -7.291289    0.756807
   80          1             0      -10.302218   -6.895167   -0.468217
   81          1             0      -11.015117   -4.560794   -0.959361
   82          1             0       -9.660621   -1.518608   -3.220278
   83          1             0       -7.924552   -0.513111   -4.661847
   84          1             0       -5.823476    0.347905   -3.677381
   85          1             0       -5.440403   -0.300073    2.617778
   86          1             0       -3.247816    0.820927    2.378991
   87          1             0       -2.697720    3.150115   -1.271835
   88          1             0       -0.509242    4.228510   -1.470806
   89          1             0        4.234791    3.994959    1.039896
   90          1             0        6.136390    2.517210    1.086531
   91          1             0        5.252142   -1.749388   -0.709146
   92          1             0        7.146251   -3.242831   -0.644650
   93          1             0        8.559588   -3.177746   -2.464422
   94          1             0        9.546979   -4.907331   -3.909827
   95          1             0       11.499434   -6.198705   -3.185297
   96          1             0       12.559373   -5.760775   -0.994217
   97          1             0       13.247696   -4.784222    1.470741
   98          1             0       13.346855   -3.568529    3.622134
   99          1             0       11.639257   -1.908697    4.199832
  100          1             0        9.810725   -1.371775    2.643060
  101          1             0        9.655081   -0.051243    0.759359
  102          1             0        7.787543    1.475018    0.680421
  103          1             0        3.901273   -0.371718   -1.230059
  104          1             0        2.012621    1.123798   -1.230873
  105          1             0        1.957465    2.967165   -2.965722
  106          1             0        2.339920    4.633749   -4.745284
  107          1             0        2.610272    7.009841   -4.197274
  108          1             0        2.495234    7.778010   -1.851582
  109          1             0        2.244769    8.061951    0.710879
  110          1             0        1.972824    7.811119    3.153658
  111          1             0        1.607427    5.598026    4.146620
  112          1             0        1.509332    3.581384    2.724901
  113          1             0        1.108127    1.467133    1.353626
  114          1             0       -1.076884    0.378928    1.544120
  115          1             0       -3.754215    1.093696   -1.862868
 --------------------------------------------------------------------
     1 basis functions        1 primitive gaussians
     1 alpha electrons        1 beta electrons
 
 Harmonic frequencies (cm**-1), IR intensities (km*mol⁻¹),
 Raman scattering activities (A**4/amu), Raman depolarization ratios,
 reduced masses (AMU), force constants (mDyne/A) and normal coordinates:
                      1                      2                      3
                        a                      a                      a 
 Frequencies --     4.7540                 5.8519                 7.6534
 Red. masses --    12.0060                11.5388                10.8861
 Frc consts  --     0.0000                 0.0000                 0.0000
 IR Inten    --     0.1083                 0.1432                 0.9999
 Raman Activ --     0.0000                 0.0000                 0.0000
 Depolar     --     0.0000                 0.0000                 0.0000
 Atom AN      X      Y      Z        X      Y      Z        X      Y      Z
   1   8     0.09  -0.11   0.01    -0.07   0.13   0.12    -0.02   0.03  -0.03
   2  15     0.13  -0.11   0.01    -0.06   0.09   0.09    -0.02   0.02  -0.04
   3   6     0.06  -0.09   0.02     0.04  -0.03   0.11    -0.01  -0.02  -0.00
   4   6     0.02  -0.09   0.03     0.04  -0.02   0.18    -0.01  -0.02   0.04
   5   6     0.00  -0.10   0.05     0.10  -0.08   0.22    -0.02  -0.05   0.06
   6   6     0.02  -0.12   0.04     0.16  -0.14   0.19    -0.02  -0.08   0.04
   7   6     0.05  -0.12   0.02     0.15  -0.15   0.12    -0.02  -0.09   0.00
   8   6     0.07  -0.10   0.01     0.09  -0.09   0.08    -0.02  -0.06  -0.02
   9   6     0.13  -0.06  -0.02    -0.05   0.02  -0.06    -0.01   0.01  -0.07
  10   6     0.13  -0.03  -0.02    -0.02  -0.03  -0.13    -0.00  -0.01  -0.08
  11   6     0.17  -0.02  -0.04    -0.02  -0.05  -0.21     0.00  -0.01  -0.11
  12   6     0.21  -0.04  -0.05    -0.06  -0.02  -0.23     0.01  -0.00  -0.14
  13   6     0.20  -0.07  -0.05    -0.09   0.04  -0.16     0.01   0.01  -0.13
  14   6     0.16  -0.08  -0.03    -0.08   0.06  -0.07    -0.00   0.01  -0.10
  15   6     0.06  -0.02   0.01    -0.06   0.08   0.04    -0.01   0.04  -0.01
  16   6     0.05  -0.02   0.01    -0.10   0.14   0.05    -0.01   0.06  -0.01
  17   6     0.04   0.01   0.01    -0.12   0.16   0.05    -0.01   0.07   0.00
  18   6     0.03   0.03   0.01    -0.10   0.13   0.03    -0.01   0.06   0.01
  19   6     0.03   0.03   0.01    -0.06   0.07   0.02    -0.01   0.04   0.01
  20   6     0.05   0.00   0.01    -0.04   0.05   0.02    -0.01   0.03   0.00
  21   8     0.06   0.00   0.01     0.00  -0.01   0.01    -0.02   0.02   0.00
  22   6     0.04   0.03   0.01     0.01  -0.02  -0.00    -0.02   0.01   0.01
  23   6     0.04   0.03   0.01     0.04  -0.07  -0.02    -0.02  -0.00   0.02
  24   6     0.02   0.05   0.01     0.04  -0.07  -0.03    -0.02   0.00   0.03
  25   6     0.02   0.07   0.01     0.01  -0.03  -0.03    -0.02   0.01   0.03
  26   6     0.01   0.08   0.01     0.01  -0.03  -0.04    -0.01   0.01   0.04
  27   6    -0.00   0.08   0.01    -0.00  -0.01  -0.02    -0.01   0.01   0.04
  28   6    -0.00   0.09   0.01    -0.01  -0.01  -0.03    -0.00   0.00   0.03
  29   6     0.00   0.09  -0.00     0.01  -0.03  -0.06    -0.01  -0.00   0.04
  30   6     0.00   0.09  -0.02     0.00  -0.02  -0.06    -0.00  -0.01   0.03
  31   6    -0.00   0.08  -0.03     0.01  -0.01  -0.06    -0.00  -0.02   0.03
  32   6     0.01   0.06  -0.04     0.00  -0.00  -0.06     0.01   0.00  -0.00
  33   6    -0.00   0.05  -0.05     0.01   0.00  -0.05     0.01   0.00  -0.00
  34   6    -0.03   0.04  -0.04     0.02   0.01  -0.06    -0.00  -0.01   0.04
  35   6    -0.04   0.02  -0.04     0.02   0.01  -0.05    -0.00  -0.01   0.03
  36   6    -0.07   0.02  -0.03     0.04   0.01  -0.06    -0.02  -0.04   0.13
  37   6    -0.09  -0.00  -0.01     0.04   0.01  -0.03    -0.02  -0.03   0.13
  38   6    -0.08  -0.02  -0.01     0.02   0.01   0.00     0.01  -0.00   0.02
  39   7    -0.11  -0.05   0.01     0.02   0.01   0.04     0.01   0.01   0.01
  40   6    -0.12  -0.07   0.02     0.05   0.01   0.05    -0.05  -0.06   0.05
  41   6    -0.12  -0.07   0.02     0.09   0.01   0.03    -0.14  -0.16   0.10
  42   6    -0.14  -0.10   0.04     0.11   0.01   0.05    -0.20  -0.22   0.13
  43   6    -0.16  -0.12   0.05     0.10   0.01   0.08    -0.17  -0.18   0.11
  44   6    -0.16  -0.12   0.05     0.06   0.01   0.10    -0.08  -0.09   0.05
  45   6    -0.14  -0.10   0.04     0.04   0.01   0.08    -0.02  -0.03   0.02
  46   6    -0.14  -0.09   0.04    -0.00   0.01   0.09     0.07   0.06  -0.05
  47   6    -0.15  -0.11   0.05    -0.03   0.01   0.13     0.13   0.14  -0.10
  48   6    -0.14  -0.09   0.04    -0.07   0.01   0.13     0.22   0.22  -0.15
  49   6    -0.12  -0.06   0.02    -0.08   0.01   0.10     0.23   0.24  -0.15
  50   6    -0.11  -0.05   0.01    -0.05   0.01   0.07     0.17   0.17  -0.10
  51   6    -0.12  -0.06   0.02    -0.01   0.01   0.06     0.08   0.08  -0.05
  52   6    -0.06  -0.02  -0.02     0.01   0.01   0.01     0.03   0.03  -0.08
  53   6    -0.04  -0.00  -0.04     0.01   0.01  -0.02     0.02   0.02  -0.07
  54   6    -0.03   0.06  -0.04     0.03   0.00  -0.07    -0.02  -0.04   0.08
  55   6    -0.02   0.08  -0.04     0.02  -0.00  -0.07    -0.02  -0.04   0.07
  56   6    -0.01   0.09  -0.02    -0.01  -0.01  -0.06     0.00  -0.03   0.01
  57   6    -0.03   0.09  -0.02    -0.01  -0.00  -0.06    -0.00  -0.05   0.02
  58   6    -0.03   0.09  -0.02    -0.03   0.00  -0.05     0.00  -0.07   0.01
  59   6    -0.02   0.09  -0.02    -0.04   0.00  -0.05     0.01  -0.07  -0.01
  60   6    -0.00   0.09  -0.01    -0.03  -0.00  -0.05     0.02  -0.05  -0.02
  61   6     0.00   0.09  -0.01    -0.02  -0.01  -0.05     0.01  -0.03  -0.01
  62   6     0.02   0.08  -0.01    -0.02  -0.02  -0.05     0.02  -0.01  -0.01
  63   6     0.04   0.08  -0.01    -0.03  -0.02  -0.04     0.03   0.00  -0.02
  64   6     0.06   0.08  -0.01    -0.02  -0.03  -0.04     0.03   0.02  -0.02
  65   6     0.06   0.08  -0.01    -0.01  -0.04  -0.05     0.03   0.03  -0.00
  66   6     0.04   0.08  -0.01    -0.00  -0.03  -0.05     0.01   0.02   0.01
  67   6     0.02   0.08  -0.01    -0.00  -0.02  -0.05     0.01   0.00   0.01
  68   6     0.01   0.09  -0.00     0.02  -0.04  -0.07    -0.01   0.01   0.05
  69   6     0.01   0.08   0.00     0.02  -0.05  -0.07    -0.02   0.01   0.05
  70   6     0.02   0.06   0.01    -0.03   0.02  -0.01    -0.01   0.03   0.03
  71   6     0.03   0.04   0.01    -0.03   0.02   0.00    -0.01   0.03   0.02
  72   1     0.00  -0.02   0.01    -0.00   0.01   0.06    -0.00   0.00   0.01
  73   1    -0.01  -0.03   0.02     0.03  -0.02   0.08    -0.00  -0.01   0.02
  74   1     0.00  -0.04   0.01     0.06  -0.05   0.07    -0.01  -0.03   0.02
  75   1     0.02  -0.04   0.00     0.06  -0.06   0.03    -0.01  -0.03  -0.00
  76   1     0.03  -0.03  -0.00     0.03  -0.03   0.01    -0.00  -0.02  -0.01
  77   1     0.03  -0.01  -0.00     0.00  -0.02  -0.03    -0.00  -0.00  -0.02
  78   1     0.05  -0.00  -0.01    -0.00  -0.03  -0.08     0.00  -0.01  -0.03
  79   1     0.07  -0.01  -0.02    -0.02  -0.01  -0.08     0.00  -0.00  -0.05
  80   1     0.07  -0.02  -0.02    -0.03   0.02  -0.05     0.00   0.00  -0.05
  81   1     0.04  -0.03  -0.01    -0.03   0.03  -0.01    -0.00   0.01  -0.03
  82   1     0.02  -0.01   0.00    -0.04   0.05   0.02    -0.00   0.02  -0.00
  83   1     0.01   0.00   0.00    -0.05   0.06   0.02    -0.00   0.03   0.00
  84   1     0.00   0.02   0.00    -0.03   0.04   0.01    -0.00   0.02   0.01
  85   1     0.01   0.01   0.00     0.02  -0.03  -0.00    -0.01  -0.00   0.00
  86   1     0.01   0.02   0.00     0.02  -0.03  -0.01    -0.01  -0.00   0.01
  87   1    -0.00   0.02   0.01    -0.00   0.00   0.00    -0.00   0.00   0.01
  88   1    -0.00   0.03   0.00    -0.00   0.00  -0.00     0.00  -0.00   0.01
  89   1     0.01   0.02  -0.01    -0.00  -0.00  -0.01     0.00   0.00  -0.01
  90   1     0.00   0.01  -0.01     0.00   0.00  -0.01     0.01   0.00  -0.01
  91   1    -0.02   0.01  -0.01     0.01   0.00  -0.02    -0.01  -0.02   0.06
  92   1    -0.03   0.00  -0.00     0.01   0.00  -0.01    -0.01  -0.02   0.06
  93   1    -0.03  -0.02   0.00     0.03   0.00   0.00    -0.05  -0.05   0.03
  94   1    -0.04  -0.03   0.01     0.04   0.00   0.01    -0.08  -0.08   0.05
  95   1    -0.05  -0.04   0.02     0.04   0.00   0.03    -0.06  -0.07   0.04
  96   1    -0.05  -0.04   0.02     0.02   0.00   0.04    -0.02  -0.02   0.01
  97   1    -0.05  -0.04   0.02    -0.01   0.00   0.04     0.03   0.04  -0.03
  98   1    -0.05  -0.03   0.01    -0.03   0.00   0.04     0.08   0.08  -0.06
  99   1    -0.03  -0.02   0.00    -0.03   0.00   0.03     0.09   0.09  -0.06
 100   1    -0.03  -0.01  -0.00    -0.02   0.00   0.01     0.05   0.05  -0.03
 101   1    -0.01  -0.01  -0.01     0.00   0.00   0.01     0.01   0.01  -0.05
 102   1    -0.00  -0.00  -0.01     0.00   0.00  -0.00     0.01   0.01  -0.04
 103   1    -0.01   0.02  -0.01     0.01   0.00  -0.02    -0.01  -0.01   0.03
 104   1    -0.01   0.03  -0.01     0.01  -0.00  -0.02    -0.01  -0.01   0.03
 105   1    -0.01   0.03  -0.01    -0.00  -0.00  -0.02    -0.00  -0.02   0.01
 106   1    -0.01   0.03  -0.01    -0.01   0.00  -0.02    -0.00  -0.02   0.00
 107   1    -0.01   0.03  -0.00    -0.01   0.00  -0.01     0.00  -0.02  -0.01
 108   1     0.00   0.03  -0.00    -0.01  -0.00  -0.01     0.01  -0.01  -0.01
 109   1     0.01   0.02  -0.00    -0.01  -0.01  -0.01     0.01  -0.00  -0.01
 110   1     0.02   0.02  -0.00    -0.01  -0.01  -0.01     0.01   0.01  -0.01
 111   1     0.02   0.02  -0.00    -0.00  -0.01  -0.01     0.01   0.01  -0.00
 112   1     0.01   0.02  -0.00     0.00  -0.01  -0.02     0.00   0.01   0.01
 113   1     0.00   0.03  -0.00     0.01  -0.02  -0.03    -0.01   0.00   0.01
 114   1     0.01   0.02   0.00     0.01  -0.02  -0.02    -0.01   0.00   0.01
 115   1     0.00   0.02   0.00    -0.01   0.01  -0.00    -0.00   0.01   0.01
                      4                      5                      6
                        a                      a                      a 
 Frequencies --    10.5480                12.1529                18.4115
 Red. masses --    11.0388                10.8558                11.2449
 Frc consts  --     0.0000                 0.0000                 0.0000
 IR Inten    --     0.1389                 0.2244                 0.4061
 Raman Activ --     0.0000                 0.0000                 0.0000
 Depolar     --     0.0000                 0.0000                 0.0000
 Atom AN      X      Y      Z        X      Y      Z        X      Y      Z
   1   8     0.01   0.05   0.01     0.01   0.07   0.01    -0.04  -0.09   0.12
   2  15     0.02   0.01  -0.00     0.03  -0.01  -0.01    -0.02  -0.05   0.09
   3   6     0.06   0.04  -0.02     0.10  -0.01  -0.00     0.02  -0.01   0.04
   4   6     0.06   0.03  -0.06     0.02  -0.01  -0.02    -0.12  -0.01   0.00
   5   6     0.11   0.07  -0.08     0.11   0.00  -0.03    -0.08   0.02  -0.02
   6   6     0.16   0.10  -0.06     0.27   0.02  -0.02     0.09   0.05   0.00
   7   6     0.17   0.11  -0.02     0.34   0.02   0.00     0.23   0.06   0.04
   8   6     0.12   0.07  -0.00     0.26   0.01   0.01     0.19   0.03   0.06
   9   6    -0.06  -0.01   0.02    -0.05  -0.04  -0.03     0.07  -0.00   0.05
  10   6    -0.04  -0.05  -0.01    -0.00  -0.10  -0.14     0.12   0.04  -0.02
  11   6    -0.10  -0.06   0.02    -0.06  -0.12  -0.15     0.18   0.06  -0.03
  12   6    -0.17  -0.03   0.08    -0.17  -0.08  -0.06     0.18   0.03   0.03
  13   6    -0.18   0.00   0.12    -0.22  -0.01   0.05     0.13  -0.02   0.10
  14   6    -0.13   0.02   0.09    -0.16   0.01   0.06     0.08  -0.03   0.11
  15   6     0.03  -0.05  -0.02     0.04  -0.05  -0.01    -0.07   0.01   0.00
  16   6     0.03  -0.06  -0.02     0.05  -0.07  -0.02    -0.10  -0.01   0.01
  17   6     0.04  -0.08  -0.02     0.06  -0.08  -0.02    -0.13  -0.00  -0.02
  18   6     0.04  -0.08  -0.03     0.06  -0.07  -0.01    -0.13   0.03  -0.05
  19   6     0.04  -0.07  -0.03     0.04  -0.05  -0.01    -0.09   0.05  -0.05
  20   6     0.04  -0.06  -0.02     0.03  -0.04  -0.01    -0.07   0.05  -0.03
  21   8     0.04  -0.07  -0.03     0.02  -0.03  -0.01    -0.06   0.08  -0.04
  22   6     0.04  -0.06  -0.03     0.01  -0.01   0.00    -0.05   0.08  -0.07
  23   6     0.04  -0.06  -0.03    -0.01   0.02   0.01    -0.03   0.09  -0.08
  24   6     0.04  -0.06  -0.03    -0.02   0.03   0.02    -0.03   0.08  -0.11
  25   6     0.04  -0.06  -0.03    -0.00   0.01   0.02    -0.05   0.05  -0.12
  26   6     0.03  -0.05  -0.03    -0.01   0.03   0.03    -0.03   0.02  -0.14
  27   6     0.01  -0.03  -0.01    -0.00   0.01   0.00    -0.00   0.01  -0.14
  28   6     0.00  -0.01  -0.00    -0.01   0.01   0.01     0.01  -0.01  -0.12
  29   6     0.01  -0.00  -0.01    -0.01   0.04   0.03    -0.01  -0.02  -0.10
  30   6    -0.00   0.02   0.00    -0.01   0.03   0.02    -0.00  -0.03  -0.03
  31   6     0.01   0.03  -0.05    -0.02   0.03   0.05    -0.01  -0.03  -0.01
  32   6     0.02   0.03  -0.06    -0.02   0.02   0.06    -0.03  -0.04   0.03
  33   6     0.03   0.04  -0.09    -0.03   0.01   0.09    -0.03  -0.04   0.06
  34   6     0.02   0.05  -0.10    -0.03   0.00   0.10    -0.01  -0.03   0.04
  35   6     0.02   0.04  -0.11    -0.04  -0.00   0.12    -0.02  -0.03   0.06
  36   6     0.00   0.03  -0.07    -0.05  -0.00   0.11    -0.01  -0.04   0.07
  37   6    -0.01   0.02  -0.05    -0.05  -0.00   0.09    -0.01  -0.03   0.07
  38   6     0.00   0.02  -0.06    -0.04  -0.00   0.07    -0.01  -0.02   0.06
  39   7    -0.01   0.01  -0.03    -0.04  -0.00   0.03    -0.00  -0.02   0.04
  40   6    -0.03  -0.05   0.02    -0.06   0.03  -0.01    -0.01  -0.01   0.02
  41   6    -0.03  -0.10   0.03    -0.08   0.07  -0.00    -0.04  -0.01   0.04
  42   6    -0.05  -0.15   0.08    -0.10   0.09  -0.04    -0.05  -0.00   0.02
  43   6    -0.06  -0.15   0.12    -0.09   0.08  -0.09    -0.03   0.01  -0.01
  44   6    -0.06  -0.10   0.11    -0.06   0.05  -0.10    -0.00   0.01  -0.02
  45   6    -0.04  -0.05   0.06    -0.04   0.02  -0.06     0.01   0.01  -0.01
  46   6    -0.04   0.01   0.04    -0.02  -0.02  -0.05     0.03   0.01  -0.02
  47   6    -0.04   0.03   0.05     0.00  -0.04  -0.08     0.06   0.02  -0.05
  48   6    -0.03   0.09   0.02     0.03  -0.08  -0.06     0.08   0.02  -0.05
  49   6    -0.02   0.12  -0.03     0.03  -0.09  -0.01     0.08   0.00  -0.02
  50   6    -0.01   0.10  -0.05     0.01  -0.07   0.02     0.05  -0.01   0.01
  51   6    -0.02   0.04  -0.02    -0.01  -0.03   0.00     0.03  -0.01   0.01
  52   6     0.02   0.04  -0.12    -0.04  -0.01   0.10    -0.01  -0.02   0.06
  53   6     0.03   0.05  -0.14    -0.04  -0.01   0.12    -0.02  -0.03   0.07
  54   6     0.02   0.05  -0.10    -0.03   0.01   0.10     0.01  -0.02  -0.01
  55   6     0.01   0.04  -0.07    -0.02   0.02   0.07     0.01  -0.02  -0.03
  56   6    -0.03   0.07   0.03     0.00  -0.00  -0.00     0.04   0.01  -0.00
  57   6    -0.03   0.13   0.02     0.01  -0.04   0.01     0.10   0.05  -0.01
  58   6    -0.05   0.17   0.05     0.02  -0.07  -0.02     0.15   0.08   0.03
  59   6    -0.08   0.16   0.11     0.03  -0.07  -0.06     0.13   0.07   0.08
  60   6    -0.08   0.11   0.12     0.03  -0.03  -0.07     0.07   0.03   0.09
  61   6    -0.05   0.06   0.09     0.01   0.00  -0.04     0.03   0.00   0.05
  62   6    -0.04   0.00   0.10     0.01   0.05  -0.05    -0.03  -0.04   0.05
  63   6    -0.05  -0.03   0.14     0.01   0.07  -0.08    -0.08  -0.06   0.08
  64   6    -0.03  -0.09   0.14    -0.00   0.11  -0.08    -0.13  -0.11   0.07
  65   6     0.01  -0.12   0.09    -0.02   0.13  -0.04    -0.15  -0.13   0.03
  66   6     0.02  -0.08   0.04    -0.02   0.11  -0.01    -0.10  -0.10  -0.01
  67   6    -0.01  -0.02   0.05    -0.01   0.07  -0.01    -0.05  -0.06   0.00
  68   6     0.03  -0.02  -0.03    -0.02   0.06   0.06    -0.04  -0.03  -0.11
  69   6     0.04  -0.04  -0.04    -0.01   0.06   0.06    -0.05  -0.01  -0.14
  70   6     0.04  -0.07  -0.03     0.02  -0.02   0.01    -0.07   0.05  -0.11
  71   6     0.04  -0.07  -0.03     0.03  -0.03   0.00    -0.08   0.07  -0.08
  72   1     0.00   0.00  -0.02    -0.03  -0.01  -0.01    -0.07  -0.01  -0.00
  73   1     0.03   0.02  -0.03     0.01   0.00  -0.01    -0.06   0.00  -0.01
  74   1     0.06   0.04  -0.02     0.10   0.01  -0.01     0.03   0.02  -0.00
  75   1     0.06   0.04  -0.00     0.14   0.01   0.00     0.11   0.02   0.02
  76   1     0.03   0.02   0.01     0.09   0.00   0.01     0.09   0.01   0.03
  77   1     0.00  -0.02  -0.02     0.02  -0.04  -0.06     0.03   0.02  -0.02
  78   1    -0.03  -0.03  -0.00    -0.01  -0.05  -0.07     0.06   0.03  -0.02
  79   1    -0.06  -0.01   0.03    -0.06  -0.03  -0.02     0.07   0.01   0.01
  80   1    -0.07   0.01   0.05    -0.09   0.01   0.03     0.04  -0.01   0.04
  81   1    -0.04   0.01   0.03    -0.06   0.02   0.04     0.01  -0.02   0.05
  82   1     0.01  -0.01  -0.00     0.02  -0.02  -0.01    -0.03  -0.01   0.01
  83   1     0.01  -0.02  -0.01     0.02  -0.03  -0.01    -0.04  -0.00  -0.01
  84   1     0.01  -0.03  -0.01     0.02  -0.02  -0.00    -0.04   0.01  -0.02
  85   1     0.01  -0.02  -0.01    -0.01   0.01   0.00    -0.01   0.03  -0.02
  86   1     0.01  -0.02  -0.01    -0.01   0.02   0.01    -0.00   0.02  -0.04
  87   1     0.00  -0.01  -0.00     0.00  -0.00  -0.00     0.00   0.01  -0.04
  88   1    -0.00   0.00   0.00    -0.00  -0.00  -0.00     0.01  -0.00  -0.03
  89   1     0.01   0.01  -0.01    -0.01   0.01   0.01    -0.01  -0.01   0.01
  90   1     0.01   0.01  -0.03    -0.01   0.00   0.03    -0.01  -0.01   0.03
  91   1    -0.00   0.01  -0.02    -0.01   0.00   0.03    -0.01  -0.01   0.03
  92   1    -0.01   0.00  -0.00    -0.01   0.00   0.02    -0.00  -0.01   0.02
  93   1    -0.00  -0.03  -0.00    -0.03   0.02   0.01    -0.02  -0.01   0.02
  94   1    -0.01  -0.06   0.03    -0.04   0.04  -0.01    -0.02  -0.00   0.01
  95   1    -0.02  -0.06   0.05    -0.03   0.03  -0.04    -0.01   0.00  -0.01
  96   1    -0.02  -0.03   0.04    -0.02   0.01  -0.04     0.00   0.01  -0.01
  97   1    -0.02   0.00   0.03     0.00  -0.01  -0.03     0.02   0.01  -0.02
  98   1    -0.01   0.03   0.01     0.01  -0.03  -0.03     0.03   0.01  -0.02
  99   1    -0.00   0.05  -0.02     0.02  -0.03   0.00     0.03   0.00  -0.00
 100   1     0.00   0.04  -0.02     0.01  -0.02   0.02     0.01  -0.01   0.01
 101   1     0.01   0.01  -0.04    -0.01  -0.01   0.03    -0.00  -0.01   0.02
 102   1     0.01   0.02  -0.05    -0.01  -0.01   0.04    -0.01  -0.01   0.02
 103   1     0.01   0.02  -0.03    -0.01  -0.00   0.03     0.01  -0.00  -0.01
 104   1     0.00   0.01  -0.02    -0.01   0.00   0.02     0.01  -0.00  -0.02
 105   1    -0.00   0.04  -0.01    -0.00  -0.01   0.01     0.03   0.02  -0.01
 106   1    -0.02   0.06   0.01     0.01  -0.03  -0.00     0.06   0.03   0.01
 107   1    -0.03   0.06   0.04     0.01  -0.03  -0.02     0.05   0.03   0.03
 108   1    -0.03   0.03   0.05     0.01  -0.01  -0.03     0.02   0.01   0.04
 109   1    -0.02  -0.00   0.05     0.01   0.02  -0.03    -0.02  -0.01   0.03
 110   1    -0.01  -0.03   0.05     0.00   0.04  -0.03    -0.05  -0.04   0.03
 111   1     0.01  -0.05   0.03    -0.01   0.05  -0.01    -0.05  -0.05   0.01
 112   1     0.01  -0.03   0.00    -0.01   0.04   0.01    -0.03  -0.03  -0.01
 113   1     0.01  -0.01  -0.01    -0.01   0.02   0.02    -0.01  -0.02  -0.03
 114   1     0.02  -0.02  -0.02    -0.01   0.02   0.02    -0.02  -0.00  -0.04
 115   1     0.01  -0.02  -0.01     0.01  -0.01   0.00    -0.03   0.01  -0.03
                      7                      8                      9
                        a                      a                      a 
 Frequencies --    19.6027                25.2589                30.4759
 Red. masses --    10.8683                10.7624                10.7980
 Frc consts  --     0.0000                 0.0000                 0.0000
 IR Inten    --     0.1502                 0.1649                 0.1494
 Raman Activ --     0.0000                 0.0000                 0.0000
 Depolar     --     0.0000                 0.0000                 0.0000
 Atom AN      X      Y      Z        X      Y      Z        X      Y      Z
   1   8    -0.00  -0.05  -0.03    -0.03   0.02   0.02    -0.03   0.03   0.07
   2  15    -0.01  -0.05  -0.03    -0.04  -0.01   0.02    -0.01   0.06   0.04
   3   6    -0.02  -0.03  -0.02    -0.00  -0.04   0.03     0.07   0.07   0.01
   4   6    -0.21  -0.03  -0.07     0.16  -0.03   0.10     0.26   0.07   0.00
   5   6    -0.20   0.00  -0.09     0.17  -0.08   0.14     0.39   0.08  -0.00
   6   6    -0.00   0.04  -0.07     0.01  -0.14   0.11     0.31   0.09   0.00
   7   6     0.19   0.04  -0.02    -0.16  -0.15   0.04     0.10   0.09   0.01
   8   6     0.19   0.01   0.00    -0.17  -0.10  -0.00    -0.02   0.08   0.01
   9   6     0.01  -0.03  -0.03    -0.06  -0.02   0.01     0.03   0.05   0.01
  10   6     0.06  -0.03  -0.11    -0.07  -0.04   0.02    -0.02   0.08   0.11
  11   6     0.06  -0.03  -0.11    -0.10  -0.04   0.04     0.05   0.09   0.05
  12   6     0.02  -0.03  -0.03    -0.12  -0.03   0.05     0.17   0.07  -0.11
  13   6    -0.03  -0.03   0.05    -0.11  -0.01   0.04     0.22   0.03  -0.21
  14   6    -0.03  -0.03   0.05    -0.08  -0.01   0.02     0.15   0.02  -0.15
  15   6    -0.01  -0.01  -0.00    -0.01  -0.05   0.00    -0.02  -0.01  -0.02
  16   6     0.02  -0.04  -0.01    -0.00  -0.10  -0.00     0.01  -0.06  -0.02
  17   6     0.03  -0.03   0.01     0.00  -0.14  -0.03     0.03  -0.11  -0.03
  18   6     0.00   0.01   0.03    -0.00  -0.12  -0.04     0.03  -0.11  -0.03
  19   6    -0.03   0.04   0.03    -0.01  -0.06  -0.04     0.01  -0.06  -0.02
  20   6    -0.03   0.03   0.02    -0.01  -0.03  -0.02    -0.01  -0.02  -0.02
  21   8    -0.07   0.07   0.03    -0.01   0.03  -0.02    -0.04   0.02  -0.02
  22   6    -0.08   0.08   0.04    -0.02   0.04  -0.04    -0.04   0.01  -0.01
  23   6    -0.10   0.10   0.06    -0.03   0.10  -0.04    -0.07   0.05   0.01
  24   6    -0.10   0.11   0.07    -0.04   0.11  -0.06    -0.07   0.04   0.02
  25   6    -0.07   0.09   0.07    -0.03   0.05  -0.07    -0.04  -0.00   0.01
  26   6    -0.07   0.07   0.08    -0.03   0.05  -0.08    -0.04  -0.00   0.03
  27   6    -0.04   0.06   0.08     0.00   0.02  -0.11    -0.02  -0.02   0.00
  28   6    -0.03   0.03   0.07     0.01   0.02  -0.09    -0.02  -0.03   0.01
  29   6    -0.04   0.01   0.07    -0.02   0.04  -0.04    -0.04  -0.01   0.04
  30   6    -0.02  -0.03   0.05    -0.01   0.03   0.00    -0.03  -0.02   0.04
  31   6    -0.04  -0.05   0.03    -0.02   0.01   0.01    -0.04  -0.04   0.05
  32   6    -0.01  -0.05  -0.01    -0.03  -0.00   0.03    -0.04  -0.05   0.05
  33   6    -0.01  -0.05  -0.05    -0.03  -0.01   0.02    -0.05  -0.06   0.04
  34   6    -0.03  -0.04  -0.06    -0.03   0.01  -0.00    -0.06  -0.05   0.02
  35   6    -0.01  -0.02  -0.11    -0.03   0.01  -0.02    -0.05  -0.04  -0.02
  36   6     0.01  -0.02  -0.14    -0.03   0.01  -0.03    -0.04  -0.04  -0.04
  37   6     0.02  -0.01  -0.14    -0.03   0.01  -0.04    -0.04  -0.03  -0.05
  38   6     0.01  -0.00  -0.12    -0.03   0.01  -0.03    -0.04  -0.03  -0.05
  39   7     0.01   0.00  -0.07    -0.03   0.02  -0.02    -0.04  -0.02  -0.04
  40   6     0.06  -0.01  -0.03    -0.01   0.01  -0.01     0.00  -0.02  -0.02
  41   6     0.11  -0.05  -0.05    -0.00  -0.00  -0.01     0.02  -0.05  -0.03
  42   6     0.16  -0.06  -0.01     0.01  -0.01  -0.00     0.06  -0.04  -0.01
  43   6     0.16  -0.03   0.05     0.01   0.00   0.01     0.08  -0.01   0.01
  44   6     0.10   0.01   0.07     0.00   0.02   0.01     0.06   0.02   0.01
  45   6     0.06   0.01   0.03    -0.01   0.02   0.00     0.02   0.01  -0.00
  46   6    -0.00   0.04   0.03    -0.02   0.03   0.00    -0.01   0.04  -0.00
  47   6    -0.04   0.08   0.08    -0.03   0.05   0.01    -0.01   0.07   0.01
  48   6    -0.10   0.10   0.07    -0.04   0.06   0.00    -0.05   0.08   0.01
  49   6    -0.12   0.09   0.01    -0.05   0.05  -0.01    -0.08   0.06  -0.01
  50   6    -0.09   0.06  -0.04    -0.05   0.04  -0.02    -0.08   0.02  -0.03
  51   6    -0.03   0.04  -0.03    -0.03   0.03  -0.01    -0.04   0.01  -0.02
  52   6    -0.00   0.00  -0.14    -0.03   0.02  -0.04    -0.04  -0.03  -0.06
  53   6    -0.01  -0.00  -0.14    -0.03   0.01  -0.03    -0.05  -0.03  -0.04
  54   6    -0.06  -0.05   0.00    -0.03   0.02  -0.00    -0.07  -0.05   0.04
  55   6    -0.06  -0.05   0.05    -0.03   0.02   0.00    -0.06  -0.04   0.06
  56   6    -0.00  -0.05   0.04     0.07   0.03   0.01    -0.03  -0.04   0.03
  57   6    -0.04  -0.07   0.04     0.09   0.04   0.01    -0.01  -0.05   0.04
  58   6    -0.01  -0.09   0.03     0.22   0.03   0.03    -0.02  -0.06   0.03
  59   6     0.07  -0.09   0.01     0.34   0.01   0.05    -0.05  -0.06   0.01
  60   6     0.10  -0.07   0.01     0.32   0.00   0.06    -0.07  -0.04   0.00
  61   6     0.07  -0.05   0.02     0.18   0.01   0.04    -0.05  -0.03   0.01
  62   6     0.09  -0.03   0.02     0.13   0.01   0.03    -0.06  -0.01   0.01
  63   6     0.15  -0.03   0.01     0.19  -0.00   0.04    -0.08  -0.00  -0.00
  64   6     0.16  -0.01   0.01     0.11  -0.00   0.04    -0.08   0.01  -0.00
  65   6     0.10   0.01   0.03    -0.02   0.01   0.01    -0.06   0.02   0.01
  66   6     0.03   0.00   0.04    -0.08   0.02   0.00    -0.03   0.01   0.03
  67   6     0.03  -0.02   0.03     0.00   0.02   0.01    -0.04  -0.01   0.03
  68   6    -0.06   0.02   0.08    -0.04   0.06  -0.02    -0.05   0.01   0.07
  69   6    -0.07   0.05   0.09    -0.05   0.07  -0.04    -0.05   0.02   0.06
  70   6    -0.05   0.07   0.06    -0.02  -0.00  -0.07    -0.00  -0.04   0.00
  71   6    -0.05   0.07   0.05    -0.01  -0.01  -0.05    -0.01  -0.04  -0.01
  72   1    -0.10  -0.02  -0.02     0.08   0.01   0.04     0.09   0.02   0.00
  73   1    -0.10  -0.00  -0.04     0.09  -0.02   0.06     0.16   0.02  -0.00
  74   1     0.00   0.02  -0.03     0.00  -0.05   0.04     0.12   0.03  -0.00
  75   1     0.10   0.02  -0.00    -0.08  -0.06   0.00     0.01   0.03   0.00
  76   1     0.10   0.00   0.01    -0.09  -0.03  -0.02    -0.05   0.02   0.00
  77   1     0.03  -0.01  -0.05    -0.02  -0.01   0.00    -0.03   0.03   0.07
  78   1     0.03  -0.01  -0.05    -0.03  -0.02   0.01     0.00   0.03   0.04
  79   1     0.01  -0.01  -0.01    -0.04  -0.01   0.02     0.07   0.02  -0.05
  80   1    -0.02  -0.01   0.03    -0.04  -0.00   0.02     0.09   0.00  -0.10
  81   1    -0.02  -0.01   0.03    -0.02   0.00   0.01     0.05  -0.00  -0.06
  82   1     0.01  -0.02  -0.01    -0.00  -0.03   0.00     0.00  -0.01  -0.01
  83   1     0.01  -0.01   0.00     0.00  -0.05  -0.01     0.02  -0.04  -0.01
  84   1     0.00   0.01   0.01     0.00  -0.04  -0.02     0.01  -0.04  -0.01
  85   1    -0.03   0.03   0.02    -0.01   0.04  -0.01    -0.03   0.03   0.00
  86   1    -0.03   0.03   0.02    -0.01   0.05  -0.02    -0.03   0.02   0.01
  87   1    -0.01   0.02   0.02     0.01   0.00  -0.04    -0.00  -0.01  -0.01
  88   1    -0.00   0.01   0.02     0.01  -0.00  -0.03    -0.00  -0.01  -0.00
  89   1     0.00  -0.01  -0.00    -0.01  -0.00   0.01    -0.01  -0.02   0.02
  90   1     0.00  -0.01  -0.02    -0.01  -0.01   0.01    -0.01  -0.02   0.01
  91   1     0.01  -0.01  -0.05    -0.01   0.00  -0.01    -0.01  -0.01  -0.01
  92   1     0.01  -0.00  -0.05    -0.01   0.00  -0.01    -0.01  -0.01  -0.02
  93   1     0.03  -0.02  -0.03    -0.00  -0.00  -0.01     0.00  -0.02  -0.01
  94   1     0.06  -0.02  -0.01     0.00  -0.01  -0.00     0.02  -0.02  -0.00
  95   1     0.06  -0.01   0.02     0.01   0.00   0.01     0.03   0.00   0.00
  96   1     0.03   0.01   0.03     0.00   0.01   0.01     0.02   0.02   0.01
  97   1    -0.00   0.02   0.04    -0.01   0.02   0.01     0.00   0.03   0.01
  98   1    -0.04   0.04   0.03    -0.01   0.02   0.00    -0.01   0.03   0.00
  99   1    -0.05   0.03   0.00    -0.02   0.02  -0.00    -0.03   0.02  -0.00
 100   1    -0.03   0.02  -0.02    -0.02   0.01  -0.01    -0.03  -0.00  -0.01
 101   1    -0.00   0.00  -0.04    -0.01   0.00  -0.01    -0.01  -0.01  -0.02
 102   1    -0.00   0.00  -0.05    -0.01   0.00  -0.01    -0.01  -0.01  -0.01
 103   1    -0.02  -0.02   0.01    -0.01   0.01  -0.00    -0.02  -0.01   0.01
 104   1    -0.02  -0.02   0.03    -0.01   0.01  -0.00    -0.02  -0.01   0.02
 105   1    -0.03  -0.02   0.02     0.00   0.02  -0.00     0.00  -0.02   0.01
 106   1    -0.01  -0.03   0.01     0.07   0.01   0.01    -0.00  -0.02   0.01
 107   1     0.03  -0.03   0.00     0.13   0.00   0.02    -0.02  -0.02  -0.00
 108   1     0.05  -0.02  -0.00     0.12  -0.00   0.02    -0.03  -0.01  -0.00
 109   1     0.06  -0.01  -0.00     0.09  -0.00   0.02    -0.03  -0.00  -0.01
 110   1     0.06  -0.00   0.00     0.05  -0.00   0.01    -0.03   0.01  -0.00
 111   1     0.03   0.01   0.01    -0.02   0.00   0.00    -0.02   0.01   0.00
 112   1    -0.00   0.00   0.01    -0.05   0.01  -0.00    -0.00   0.00   0.01
 113   1    -0.02   0.00   0.02    -0.02   0.02   0.00    -0.02   0.01   0.03
 114   1    -0.03   0.02   0.03    -0.02   0.02  -0.01    -0.02   0.01   0.02
 115   1    -0.01   0.02   0.02    -0.00  -0.01  -0.02     0.01  -0.02   0.00
                     10                     11                     12
                        a                      a                      a 
 Frequencies --    31.1459                32.7954                36.2957
 Red. masses --    11.0396                10.9244                11.2779
 Frc consts  --     0.0000                 0.0000                 0.0000
 IR Inten    --     0.3244                 0.9671                 0.0802
 Raman Activ --     0.0000                 0.0000                 0.0000
 Depolar     --     0.0000                 0.0000                 0.0000
 Atom AN      X      Y      Z        X      Y      Z        X      Y      Z
   1   8    -0.00  -0.08   0.01    -0.02  -0.03   0.02    -0.07   0.05   0.08
   2  15     0.01  -0.06  -0.02    -0.02  -0.02   0.02    -0.09   0.04   0.12
   3   6     0.03   0.00  -0.03    -0.00   0.01  -0.00    -0.05   0.05   0.06
   4   6     0.07   0.00  -0.07    -0.03   0.01  -0.03    -0.15   0.04   0.01
   5   6     0.11   0.03  -0.10    -0.03   0.03  -0.05    -0.17   0.08  -0.02
   6   6     0.11   0.07  -0.08     0.02   0.06  -0.03    -0.07   0.13   0.00
   7   6     0.07   0.08  -0.04     0.05   0.06  -0.00     0.03   0.13   0.05
   8   6     0.03   0.04  -0.02     0.04   0.04   0.01     0.04   0.09   0.08
   9   6     0.03  -0.02   0.03     0.01  -0.00   0.01    -0.04   0.02   0.02
  10   6    -0.00  -0.01   0.09    -0.01   0.00   0.04    -0.06   0.01   0.05
  11   6    -0.01   0.00   0.13     0.01   0.01   0.03    -0.00   0.00  -0.08
  12   6     0.02  -0.01   0.11     0.04   0.00  -0.01     0.09   0.00  -0.25
  13   6     0.05  -0.03   0.05     0.05  -0.01  -0.03     0.11   0.01  -0.29
  14   6     0.05  -0.04   0.01     0.04  -0.01  -0.02     0.04   0.02  -0.15
  15   6    -0.03  -0.00  -0.03    -0.03   0.01   0.00    -0.04  -0.02   0.06
  16   6    -0.10   0.14  -0.01    -0.06   0.06   0.01    -0.01  -0.09   0.05
  17   6    -0.15   0.24   0.00    -0.07   0.09   0.01     0.02  -0.19   0.03
  18   6    -0.13   0.20  -0.01    -0.05   0.06   0.01     0.04  -0.21   0.02
  19   6    -0.06   0.06  -0.03    -0.03   0.00   0.00     0.01  -0.13   0.03
  20   6    -0.01  -0.04  -0.04    -0.01  -0.02  -0.00    -0.02  -0.04   0.05
  21   8     0.05  -0.19  -0.07     0.01  -0.08  -0.01    -0.04   0.01   0.06
  22   6     0.04  -0.15  -0.05     0.01  -0.08  -0.01    -0.01  -0.03   0.04
  23   6     0.08  -0.26  -0.06     0.03  -0.13  -0.01    -0.01   0.00   0.03
  24   6     0.06  -0.21  -0.05     0.03  -0.12  -0.01     0.00  -0.04   0.01
  25   6     0.00  -0.08  -0.02     0.01  -0.08  -0.00     0.02  -0.10  -0.01
  26   6    -0.02  -0.04  -0.00     0.01  -0.06   0.01     0.02  -0.09  -0.02
  27   6    -0.05   0.02   0.06     0.00  -0.06   0.01    -0.00  -0.11  -0.05
  28   6    -0.06   0.04   0.07    -0.00  -0.04   0.03    -0.02  -0.07  -0.05
  29   6    -0.04   0.01   0.02    -0.01  -0.03   0.04    -0.02  -0.03  -0.03
  30   6    -0.04   0.01   0.01    -0.02  -0.01   0.06    -0.03   0.00  -0.03
  31   6    -0.04   0.01  -0.01    -0.01   0.01   0.10    -0.01   0.03  -0.05
  32   6    -0.04  -0.00   0.01    -0.02   0.02   0.11    -0.00   0.06  -0.09
  33   6    -0.05  -0.01   0.01     0.01   0.05   0.08     0.01   0.08  -0.08
  34   6    -0.06  -0.01   0.01     0.04   0.07   0.02     0.01   0.06  -0.04
  35   6    -0.06  -0.02   0.02     0.07   0.10  -0.04     0.00   0.05   0.00
  36   6    -0.07  -0.02   0.03     0.08   0.11  -0.07    -0.00   0.04   0.04
  37   6    -0.07  -0.02   0.04     0.09   0.13  -0.10    -0.00   0.04   0.06
  38   6    -0.07  -0.02   0.04     0.09   0.13  -0.10    -0.00   0.05   0.05
  39   7    -0.07  -0.01   0.03     0.08   0.12  -0.09    -0.00   0.05   0.04
  40   6    -0.04   0.01   0.02     0.01   0.05  -0.05    -0.03   0.05   0.02
  41   6    -0.05  -0.00   0.03     0.04   0.08  -0.07    -0.05   0.08   0.03
  42   6    -0.02   0.03   0.01    -0.04  -0.00  -0.02    -0.07   0.08   0.01
  43   6     0.01   0.07  -0.02    -0.14  -0.12   0.05    -0.09   0.05  -0.01
  44   6     0.02   0.09  -0.02    -0.15  -0.14   0.06    -0.07   0.02  -0.01
  45   6    -0.01   0.05  -0.00    -0.07  -0.06   0.01    -0.04   0.02   0.01
  46   6    -0.01   0.06  -0.00    -0.07  -0.06   0.01    -0.02   0.00   0.01
  47   6     0.02   0.10  -0.02    -0.13  -0.15   0.06    -0.02  -0.03  -0.01
  48   6     0.01   0.09  -0.02    -0.10  -0.12   0.04     0.01  -0.04   0.00
  49   6    -0.03   0.04   0.01    -0.01  -0.01  -0.02     0.04  -0.02   0.02
  50   6    -0.06   0.01   0.02     0.05   0.08  -0.07     0.03   0.01   0.03
  51   6    -0.05   0.02   0.02     0.03   0.05  -0.05     0.00   0.02   0.03
  52   6    -0.07  -0.02   0.04     0.08   0.13  -0.10    -0.00   0.05   0.05
  53   6    -0.07  -0.02   0.03     0.07   0.12  -0.07    -0.00   0.05   0.02
  54   6    -0.05   0.01  -0.02     0.04   0.05   0.03     0.01   0.04  -0.04
  55   6    -0.04   0.02  -0.02     0.02   0.02   0.07     0.00   0.02  -0.04
  56   6    -0.03   0.00   0.00     0.03  -0.05   0.04    -0.03   0.02  -0.02
  57   6    -0.11  -0.00  -0.00     0.09  -0.09   0.06    -0.09   0.04  -0.03
  58   6    -0.06  -0.02  -0.01     0.17  -0.13   0.04    -0.05   0.04  -0.02
  59   6     0.07  -0.03  -0.00     0.20  -0.13   0.01     0.06   0.03   0.01
  60   6     0.15  -0.03  -0.00     0.14  -0.08  -0.01     0.12   0.00   0.02
  61   6     0.09  -0.01   0.00     0.06  -0.04   0.01     0.07   0.00   0.01
  62   6     0.13  -0.00   0.00    -0.02   0.01  -0.01     0.10  -0.02   0.01
  63   6     0.25  -0.01   0.01    -0.07   0.04  -0.04     0.21  -0.04   0.03
  64   6     0.25  -0.00   0.01    -0.16   0.09  -0.05     0.22  -0.05   0.03
  65   6     0.13   0.02   0.01    -0.21   0.11  -0.02     0.12  -0.05   0.01
  66   6     0.01   0.02   0.00    -0.16   0.08   0.02     0.01  -0.03  -0.01
  67   6     0.02   0.01   0.00    -0.06   0.03   0.03     0.01  -0.01  -0.01
  68   6    -0.01  -0.03  -0.03    -0.00  -0.03   0.04     0.01  -0.02  -0.01
  69   6     0.00  -0.06  -0.04     0.00  -0.05   0.02     0.02  -0.05  -0.01
  70   6    -0.04   0.02  -0.02    -0.01  -0.04   0.00     0.03  -0.15  -0.00
  71   6    -0.02  -0.02  -0.03    -0.01  -0.04  -0.00     0.02  -0.12   0.02
  72   1     0.02  -0.01  -0.02    -0.02  -0.00  -0.01    -0.06  -0.00  -0.00
  73   1     0.04   0.01  -0.04    -0.01   0.01  -0.02    -0.07   0.02  -0.02
  74   1     0.04   0.03  -0.03     0.01   0.02  -0.01    -0.02   0.05  -0.01
  75   1     0.02   0.03  -0.01     0.02   0.02   0.00     0.03   0.05   0.02
  76   1    -0.00   0.01   0.00     0.02   0.01   0.01     0.04   0.03   0.04
  77   1    -0.01   0.00   0.03    -0.01   0.00   0.02    -0.04   0.00   0.05
  78   1    -0.01   0.00   0.05    -0.00   0.00   0.01    -0.01  -0.00  -0.02
  79   1     0.00  -0.00   0.04     0.01   0.00  -0.00     0.04  -0.00  -0.10
  80   1     0.02  -0.01   0.01     0.02  -0.00  -0.02     0.05   0.00  -0.12
  81   1     0.02  -0.02  -0.01     0.01  -0.00  -0.01     0.02   0.01  -0.05
  82   1    -0.03   0.05  -0.00    -0.02   0.02   0.00    -0.01  -0.02   0.02
  83   1    -0.06   0.10   0.01    -0.03   0.04   0.01     0.01  -0.07   0.01
  84   1    -0.05   0.08   0.00    -0.02   0.02   0.00     0.02  -0.08   0.00
  85   1     0.04  -0.11  -0.02     0.01  -0.05  -0.01    -0.01   0.02   0.01
  86   1     0.03  -0.08  -0.01     0.01  -0.04  -0.00     0.00  -0.00   0.00
  87   1    -0.02   0.01   0.03     0.00  -0.02   0.00    -0.00  -0.04  -0.02
  88   1    -0.02   0.02   0.03    -0.00  -0.01   0.01    -0.01  -0.02  -0.02
  89   1    -0.01  -0.00   0.00    -0.01   0.00   0.04    -0.00   0.02  -0.03
  90   1    -0.02  -0.01   0.01     0.00   0.01   0.02     0.00   0.03  -0.03
  91   1    -0.02  -0.00   0.01     0.02   0.03  -0.02    -0.00   0.01   0.01
  92   1    -0.02  -0.01   0.01     0.03   0.04  -0.03    -0.00   0.01   0.02
  93   1    -0.02  -0.01   0.01     0.03   0.05  -0.03    -0.01   0.03   0.01
  94   1    -0.01   0.01   0.00    -0.01   0.00  -0.01    -0.02   0.03   0.00
  95   1     0.01   0.03  -0.01    -0.06  -0.05   0.02    -0.03   0.02  -0.01
  96   1     0.01   0.04  -0.01    -0.06  -0.07   0.03    -0.02  -0.00  -0.01
  97   1     0.01   0.04  -0.01    -0.06  -0.07   0.03    -0.01  -0.01  -0.01
  98   1     0.01   0.03  -0.01    -0.05  -0.06   0.02     0.00  -0.02  -0.00
  99   1    -0.01   0.01   0.00     0.00   0.01  -0.01     0.02  -0.01   0.01
 100   1    -0.02  -0.01   0.01     0.04   0.05  -0.03     0.02   0.01   0.01
 101   1    -0.02  -0.01   0.01     0.02   0.04  -0.03    -0.00   0.01   0.02
 102   1    -0.02  -0.01   0.01     0.02   0.03  -0.02    -0.00   0.01   0.01
 103   1    -0.01   0.00  -0.01     0.02   0.02   0.00     0.01   0.01  -0.01
 104   1    -0.01   0.01  -0.01     0.01   0.00   0.02     0.00   0.00  -0.01
 105   1    -0.06   0.00  -0.00     0.02  -0.03   0.02    -0.05   0.02  -0.01
 106   1    -0.04  -0.00  -0.00     0.06  -0.05   0.02    -0.03   0.02  -0.01
 107   1     0.03  -0.01  -0.00     0.08  -0.05  -0.00     0.03   0.01   0.01
 108   1     0.07  -0.01  -0.00     0.05  -0.02  -0.01     0.06  -0.00   0.01
 109   1     0.10  -0.01   0.00    -0.01   0.01  -0.02     0.08  -0.01   0.01
 110   1     0.10  -0.00   0.00    -0.06   0.03  -0.02     0.09  -0.02   0.01
 111   1     0.04   0.01   0.00    -0.08   0.04  -0.01     0.03  -0.02   0.00
 112   1    -0.02   0.01   0.00    -0.06   0.03   0.01    -0.02  -0.01  -0.01
 113   1     0.00  -0.01  -0.02    -0.00  -0.00   0.02     0.00   0.00   0.00
 114   1     0.01  -0.03  -0.03     0.00  -0.02   0.00     0.01  -0.01   0.00
 115   1    -0.02   0.04  -0.00    -0.01  -0.00   0.00     0.01  -0.06  -0.00
                     13                     14                     15
                        a                      a                      a 
 Frequencies --    40.0961                48.3412                55.3736
 Red. masses --    11.0630                11.0994                10.7797
 Frc consts  --     0.0000                 0.0000                 0.0000
 IR Inten    --     1.4469                 0.3243                 0.1054
 Raman Activ --     0.0000                 0.0000                 0.0000
 Depolar     --     0.0000                 0.0000                 0.0000
 Atom AN      X      Y      Z        X      Y      Z        X      Y      Z
   1   8     0.04   0.05   0.02    -0.04   0.05   0.06    -0.02  -0.01   0.06
   2  15     0.04   0.03   0.06    -0.02   0.11   0.00    -0.01  -0.05   0.06
   3   6    -0.00   0.02   0.03    -0.00   0.04   0.02     0.00  -0.04   0.04
   4   6    -0.13   0.01   0.00    -0.02   0.05   0.08    -0.11  -0.04   0.02
   5   6    -0.21   0.04  -0.01    -0.06  -0.00   0.12    -0.13  -0.03   0.01
   6   6    -0.16   0.06  -0.00    -0.09  -0.06   0.09    -0.03  -0.01   0.02
   7   6    -0.03   0.06   0.03    -0.06  -0.07   0.03     0.08  -0.01   0.04
   8   6     0.05   0.04   0.05    -0.02  -0.01  -0.01     0.10  -0.02   0.06
   9   6    -0.00   0.00   0.01     0.04   0.09   0.00    -0.03  -0.04   0.02
  10   6    -0.01  -0.03   0.02     0.15   0.12  -0.17    -0.14  -0.07   0.19
  11   6    -0.03  -0.05  -0.03     0.20   0.14  -0.17    -0.19  -0.08   0.21
  12   6    -0.03  -0.03  -0.10     0.13   0.12   0.03    -0.12  -0.06   0.04
  13   6    -0.01   0.01  -0.11     0.01   0.08   0.22     0.00  -0.04  -0.16
  14   6    -0.00   0.03  -0.06    -0.03   0.06   0.20     0.04  -0.03  -0.17
  15   6     0.05   0.01   0.05    -0.04   0.06  -0.05    -0.02  -0.03   0.01
  16   6     0.03   0.04   0.06    -0.05   0.02  -0.05    -0.08  -0.02   0.02
  17   6     0.04   0.02   0.05    -0.02  -0.06  -0.07    -0.11  -0.00  -0.01
  18   6     0.05  -0.01   0.05     0.02  -0.11  -0.10    -0.09   0.00  -0.06
  19   6     0.06  -0.04   0.04     0.02  -0.07  -0.10    -0.04  -0.01  -0.06
  20   6     0.06  -0.03   0.05    -0.02   0.02  -0.08    -0.01  -0.02  -0.03
  21   8     0.09  -0.06   0.05    -0.02   0.05  -0.09     0.04  -0.03  -0.05
  22   6     0.09  -0.08   0.04     0.02  -0.04  -0.09     0.03   0.00  -0.08
  23   6     0.12  -0.10   0.03     0.02  -0.05  -0.09     0.04   0.04  -0.10
  24   6     0.11  -0.09   0.02     0.04  -0.11  -0.10     0.02   0.06  -0.13
  25   6     0.09  -0.07   0.01     0.07  -0.15  -0.10     0.00   0.05  -0.15
  26   6     0.08  -0.04   0.00     0.06  -0.13  -0.07     0.01   0.05  -0.13
  27   6     0.05  -0.05  -0.02     0.06  -0.15  -0.09     0.06   0.02  -0.16
  28   6     0.03  -0.02  -0.03     0.03  -0.08  -0.02     0.07   0.03  -0.09
  29   6     0.04   0.03  -0.01     0.01  -0.01   0.06     0.02   0.07   0.00
  30   6     0.03   0.05  -0.01    -0.01   0.02   0.07     0.05   0.04   0.04
  31   6     0.01   0.03   0.01    -0.01   0.02   0.09     0.02   0.01   0.09
  32   6    -0.01  -0.04   0.09    -0.01  -0.01   0.11     0.01  -0.03   0.12
  33   6    -0.04  -0.08   0.10    -0.02  -0.02   0.10    -0.01  -0.06   0.15
  34   6    -0.05  -0.04   0.02    -0.03  -0.00   0.07    -0.01  -0.05   0.13
  35   6    -0.07  -0.06  -0.00    -0.02   0.00   0.03     0.00  -0.03   0.07
  36   6    -0.09  -0.05  -0.03    -0.02   0.01  -0.00     0.02  -0.02   0.01
  37   6    -0.11  -0.07  -0.04    -0.02   0.01  -0.03     0.04   0.00  -0.05
  38   6    -0.10  -0.10  -0.03    -0.02   0.01  -0.04     0.04   0.01  -0.06
  39   7    -0.11  -0.11  -0.02    -0.02   0.01  -0.04     0.05   0.01  -0.06
  40   6    -0.04  -0.08  -0.01    -0.01  -0.00  -0.02     0.05  -0.01  -0.04
  41   6    -0.03  -0.15  -0.00     0.00  -0.02  -0.03     0.07  -0.02  -0.04
  42   6     0.05  -0.10  -0.00     0.01  -0.02  -0.01     0.06  -0.05  -0.01
  43   6     0.13   0.01  -0.01     0.01  -0.02   0.01     0.03  -0.07   0.02
  44   6     0.12   0.08  -0.02     0.00  -0.00   0.01     0.02  -0.06   0.03
  45   6     0.03   0.03  -0.02    -0.01   0.01  -0.01     0.03  -0.03  -0.00
  46   6     0.00   0.07  -0.03    -0.02   0.02  -0.01     0.01  -0.02  -0.00
  47   6     0.04   0.17  -0.04    -0.03   0.03   0.01    -0.01  -0.03   0.02
  48   6    -0.02   0.17  -0.04    -0.05   0.04   0.00    -0.02  -0.02   0.01
  49   6    -0.11   0.07  -0.02    -0.06   0.03  -0.01    -0.00   0.01  -0.02
  50   6    -0.15  -0.03  -0.01    -0.05   0.02  -0.03     0.02   0.02  -0.04
  51   6    -0.09  -0.02  -0.02    -0.03   0.02  -0.03     0.03   0.01  -0.04
  52   6    -0.08  -0.10  -0.02    -0.01   0.01  -0.03     0.03   0.00  -0.03
  53   6    -0.06  -0.09  -0.00    -0.01   0.00   0.00     0.01  -0.02   0.03
  54   6    -0.03   0.02  -0.04    -0.03   0.01   0.07    -0.02  -0.03   0.14
  55   6    -0.00   0.06  -0.05    -0.02   0.02   0.08    -0.00  -0.01   0.12
  56   6     0.05   0.04  -0.01    -0.02  -0.01   0.05     0.04   0.03   0.03
  57   6     0.12   0.04  -0.00    -0.06  -0.04   0.06     0.05   0.01   0.04
  58   6     0.17   0.04   0.00    -0.11  -0.06   0.03    -0.05   0.01   0.02
  59   6     0.14   0.04   0.01    -0.12  -0.05  -0.00    -0.16   0.03  -0.01
  60   6     0.07   0.05  -0.00    -0.07  -0.02  -0.01    -0.16   0.05  -0.01
  61   6     0.03   0.05  -0.01    -0.02  -0.00   0.02    -0.05   0.04   0.01
  62   6    -0.04   0.06  -0.01     0.02   0.03   0.02    -0.01   0.05   0.01
  63   6    -0.12   0.07  -0.03     0.07   0.04  -0.01     0.02   0.06  -0.00
  64   6    -0.19   0.08  -0.03     0.11   0.07   0.00     0.12   0.07   0.01
  65   6    -0.17   0.08  -0.03     0.11   0.09   0.03     0.19   0.07   0.03
  66   6    -0.08   0.07  -0.02     0.05   0.07   0.06     0.15   0.06   0.04
  67   6    -0.02   0.05  -0.01     0.01   0.04   0.05     0.06   0.05   0.03
  68   6     0.07   0.04   0.01     0.01   0.01   0.07    -0.03   0.09   0.02
  69   6     0.09   0.00   0.01     0.04  -0.06   0.01    -0.04   0.09  -0.05
  70   6     0.08  -0.07   0.02     0.08  -0.17  -0.11    -0.02   0.03  -0.13
  71   6     0.08  -0.07   0.04     0.05  -0.11  -0.11    -0.01   0.01  -0.10
  72   1    -0.05  -0.00  -0.00    -0.00   0.03   0.03    -0.05  -0.02   0.00
  73   1    -0.09   0.01  -0.01    -0.02  -0.00   0.05    -0.06  -0.01  -0.00
  74   1    -0.07   0.02  -0.00    -0.04  -0.03   0.03    -0.01   0.00   0.00
  75   1     0.00   0.02   0.01    -0.02  -0.03   0.00     0.05   0.00   0.02
  76   1     0.04   0.01   0.02     0.00  -0.01  -0.02     0.05  -0.01   0.02
  77   1    -0.00  -0.02   0.02     0.06   0.04  -0.09    -0.05  -0.02   0.09
  78   1    -0.01  -0.02  -0.01     0.08   0.05  -0.09    -0.08  -0.03   0.11
  79   1    -0.01  -0.01  -0.04     0.05   0.04   0.01    -0.05  -0.02   0.02
  80   1    -0.00   0.01  -0.05    -0.02   0.02   0.11     0.02  -0.01  -0.09
  81   1     0.00   0.02  -0.02    -0.03   0.01   0.10     0.04  -0.00  -0.09
  82   1     0.01   0.02   0.02    -0.02   0.01  -0.01    -0.03  -0.00   0.01
  83   1     0.01   0.01   0.02    -0.00  -0.03  -0.02    -0.04   0.00  -0.00
  84   1     0.02  -0.01   0.01     0.01  -0.06  -0.04    -0.04   0.00  -0.02
  85   1     0.04  -0.03   0.01    -0.00  -0.00  -0.03     0.02   0.01  -0.03
  86   1     0.04  -0.03   0.00     0.01  -0.03  -0.03     0.01   0.03  -0.04
  87   1     0.01  -0.02  -0.01     0.02  -0.06  -0.04     0.03  -0.00  -0.07
  88   1     0.00  -0.01  -0.01     0.01  -0.03  -0.01     0.03   0.00  -0.03
  89   1    -0.00  -0.02   0.05    -0.00  -0.01   0.04     0.01  -0.01   0.04
  90   1    -0.02  -0.04   0.05    -0.01  -0.01   0.04    -0.01  -0.02   0.05
  91   1    -0.03  -0.01  -0.01    -0.01   0.00   0.00     0.01  -0.01   0.00
  92   1    -0.04  -0.02  -0.02    -0.01   0.00  -0.02     0.02   0.00  -0.03
  93   1    -0.03  -0.07   0.00     0.00  -0.01  -0.01     0.03  -0.00  -0.02
  94   1     0.02  -0.04   0.00     0.01  -0.01  -0.00     0.02  -0.02  -0.01
  95   1     0.06   0.01  -0.00     0.01  -0.01   0.00     0.01  -0.03   0.01
  96   1     0.05   0.05  -0.01    -0.00   0.00   0.01    -0.00  -0.02   0.02
  97   1     0.03   0.07  -0.01    -0.01   0.01   0.01    -0.01  -0.02   0.01
  98   1     0.00   0.07  -0.01    -0.02   0.01   0.00    -0.01  -0.01   0.01
  99   1    -0.05   0.02  -0.01    -0.02   0.01  -0.00    -0.00   0.01  -0.01
 100   1    -0.06  -0.03  -0.00    -0.02   0.01  -0.01     0.01   0.01  -0.02
 101   1    -0.02  -0.04  -0.01    -0.00   0.00  -0.02     0.01   0.00  -0.02
 102   1    -0.01  -0.03  -0.00    -0.00   0.00   0.00     0.00  -0.01   0.01
 103   1    -0.01   0.01  -0.03    -0.01   0.00   0.02    -0.01  -0.01   0.05
 104   1     0.00   0.03  -0.03    -0.01   0.01   0.02    -0.00  -0.00   0.03
 105   1     0.04   0.01  -0.00    -0.02  -0.01   0.02     0.04  -0.00   0.02
 106   1     0.06   0.01   0.00    -0.04  -0.02   0.01    -0.01  -0.00   0.01
 107   1     0.05   0.01   0.00    -0.05  -0.02  -0.01    -0.07   0.01  -0.01
 108   1     0.01   0.01   0.00    -0.02  -0.00  -0.01    -0.07   0.02  -0.01
 109   1    -0.04   0.02  -0.01     0.02   0.01  -0.01    -0.01   0.02  -0.01
 110   1    -0.08   0.03  -0.01     0.05   0.02  -0.00     0.04   0.02  -0.00
 111   1    -0.06   0.02  -0.01     0.04   0.03   0.01     0.08   0.02   0.01
 112   1    -0.02   0.02  -0.00     0.02   0.03   0.02     0.06   0.02   0.02
 113   1     0.02   0.02   0.00    -0.00   0.02   0.04    -0.02   0.03   0.03
 114   1     0.03   0.00   0.01     0.01  -0.01   0.01    -0.02   0.03  -0.01
 115   1     0.02  -0.02   0.01     0.03  -0.06  -0.03    -0.01   0.01  -0.04
                     16                     17                     18
                        a                      a                      a 
 Frequencies --    57.1087                59.1847                70.8480
 Red. masses --    10.0286                11.2660                10.8413
 Frc consts  --     0.0000                 0.0000                 0.0000
 IR Inten    --     3.0115                 0.0970                 0.3304
 Raman Activ --     0.0000                 0.0000                 0.0000
 Depolar     --     0.0000                 0.0000                 0.0000
 Atom AN      X      Y      Z        X      Y      Z        X      Y      Z
   1   8    -0.02  -0.00  -0.03    -0.00   0.07  -0.15    -0.03   0.00   0.09
   2  15    -0.02   0.01  -0.04    -0.03   0.09  -0.16    -0.01  -0.01   0.06
   3   6    -0.01  -0.02  -0.01    -0.03  -0.04  -0.04     0.02   0.00   0.04
   4   6    -0.05  -0.01   0.01    -0.17  -0.03   0.06    -0.00   0.00   0.03
   5   6    -0.03  -0.03   0.02    -0.10  -0.11   0.12    -0.04   0.01   0.03
   6   6     0.03  -0.05   0.02     0.12  -0.19   0.08    -0.04   0.01   0.03
   7   6     0.07  -0.05  -0.00     0.25  -0.20  -0.01    -0.02   0.01   0.03
   8   6     0.05  -0.03  -0.02     0.17  -0.12  -0.07     0.01   0.01   0.04
   9   6     0.00   0.01  -0.02     0.00   0.07  -0.08    -0.01  -0.01   0.03
  10   6    -0.02   0.04   0.03    -0.10   0.14   0.12    -0.02  -0.02   0.04
  11   6    -0.03   0.04   0.09    -0.13   0.16   0.29    -0.03  -0.03   0.02
  12   6    -0.01   0.03   0.08    -0.05   0.13   0.24    -0.02  -0.02  -0.03
  13   6     0.02   0.01   0.02     0.07   0.06   0.02    -0.00  -0.01  -0.04
  14   6     0.03   0.00  -0.03     0.09   0.03  -0.14    -0.00  -0.00  -0.01
  15   6    -0.02   0.03  -0.02    -0.00   0.08  -0.05    -0.03  -0.04  -0.02
  16   6    -0.04   0.08  -0.02     0.06   0.04  -0.06    -0.04  -0.10  -0.02
  17   6    -0.04   0.08  -0.01     0.11  -0.03  -0.05    -0.05  -0.13  -0.05
  18   6    -0.02   0.04  -0.01     0.10  -0.05  -0.02    -0.05  -0.08  -0.08
  19   6    -0.00  -0.00  -0.02     0.04  -0.00  -0.01    -0.04  -0.01  -0.07
  20   6    -0.01   0.00  -0.02    -0.01   0.07  -0.02    -0.03  -0.00  -0.05
  21   8    -0.01  -0.03  -0.03    -0.06   0.11  -0.01    -0.02   0.03  -0.07
  22   6    -0.00  -0.04  -0.02    -0.03   0.04   0.01    -0.02   0.03  -0.08
  23   6    -0.01  -0.04  -0.02    -0.04   0.03   0.02    -0.01   0.02  -0.09
  24   6    -0.01  -0.04  -0.01    -0.01  -0.02   0.04    -0.01   0.01  -0.09
  25   6     0.01  -0.05  -0.01     0.03  -0.07   0.04    -0.03   0.03  -0.09
  26   6     0.01  -0.04   0.01     0.03  -0.07   0.04    -0.01   0.02  -0.05
  27   6     0.04  -0.13  -0.11    -0.01  -0.05   0.06    -0.02   0.17   0.14
  28   6     0.04  -0.12  -0.10    -0.02  -0.03   0.04    -0.01   0.17   0.23
  29   6    -0.00   0.00   0.03     0.00  -0.04   0.00     0.01   0.01   0.10
  30   6    -0.01   0.00   0.02    -0.02  -0.01  -0.01     0.01   0.01   0.12
  31   6     0.00   0.01  -0.01    -0.00   0.01  -0.02     0.05   0.04   0.07
  32   6     0.12   0.16  -0.32    -0.03  -0.03   0.06     0.09   0.09  -0.03
  33   6     0.14   0.18  -0.37    -0.03  -0.02   0.06     0.13   0.13  -0.14
  34   6     0.03   0.04  -0.08     0.00   0.02  -0.03     0.12   0.12  -0.12
  35   6     0.01   0.02  -0.04    -0.00   0.01  -0.02     0.09   0.08  -0.09
  36   6    -0.03  -0.01   0.08    -0.01   0.02  -0.03     0.03   0.08  -0.06
  37   6    -0.05  -0.03   0.10    -0.02   0.01  -0.01    -0.02   0.01   0.01
  38   6    -0.03  -0.03   0.03    -0.02   0.00   0.01    -0.01  -0.06   0.04
  39   7    -0.04  -0.04   0.03    -0.03  -0.00   0.01    -0.05  -0.11   0.06
  40   6    -0.02  -0.02   0.01    -0.02   0.00   0.01    -0.03  -0.08   0.03
  41   6    -0.04  -0.02   0.02    -0.03   0.00   0.01    -0.06  -0.12   0.06
  42   6    -0.00   0.03  -0.01    -0.03   0.00   0.01    -0.02  -0.07   0.03
  43   6     0.04   0.08  -0.05    -0.02   0.01   0.00     0.06   0.01  -0.02
  44   6     0.04   0.07  -0.05    -0.02   0.01  -0.00     0.08   0.05  -0.04
  45   6     0.01   0.02  -0.01    -0.02   0.01   0.00     0.03  -0.01  -0.01
  46   6    -0.01   0.00   0.00    -0.01   0.01  -0.00     0.04  -0.01  -0.01
  47   6    -0.00   0.01   0.00     0.00   0.03  -0.01     0.09   0.05  -0.05
  48   6    -0.03  -0.01   0.02     0.01   0.03  -0.01     0.06   0.01  -0.03
  49   6    -0.05  -0.04   0.03    -0.00   0.01  -0.00    -0.01  -0.08   0.02
  50   6    -0.05  -0.05   0.03    -0.01   0.00   0.01    -0.05  -0.12   0.06
  51   6    -0.03  -0.03   0.02    -0.02   0.00   0.01    -0.02  -0.08   0.03
  52   6     0.01  -0.01  -0.06    -0.02  -0.00   0.03     0.05  -0.06   0.02
  53   6     0.04   0.02  -0.11    -0.01   0.00   0.02     0.10   0.01  -0.04
  54   6    -0.07  -0.08   0.17     0.04   0.06  -0.11     0.11   0.12  -0.08
  55   6    -0.09  -0.10   0.20     0.03   0.05  -0.11     0.07   0.07   0.02
  56   6     0.01   0.00   0.03    -0.02  -0.01  -0.01    -0.00  -0.03   0.09
  57   6     0.11  -0.01   0.04    -0.07  -0.00  -0.02    -0.05  -0.08   0.10
  58   6     0.15  -0.02   0.04    -0.05  -0.00  -0.01    -0.07  -0.12   0.06
  59   6     0.10  -0.02   0.04     0.02  -0.01  -0.01    -0.03  -0.12   0.01
  60   6     0.00   0.00   0.03     0.06  -0.02  -0.00     0.02  -0.07  -0.00
  61   6    -0.03   0.01   0.02     0.03  -0.02  -0.01     0.02  -0.03   0.04
  62   6    -0.06   0.01   0.02     0.03  -0.02  -0.01     0.02   0.02   0.03
  63   6    -0.10   0.02   0.02     0.04  -0.02  -0.01    -0.02   0.06  -0.01
  64   6    -0.06   0.01   0.02    -0.01  -0.01  -0.01    -0.07   0.11  -0.01
  65   6     0.02   0.00   0.03    -0.07  -0.01  -0.02    -0.08   0.13   0.03
  66   6     0.05  -0.00   0.03    -0.07  -0.01  -0.02    -0.03   0.10   0.08
  67   6     0.00   0.00   0.03    -0.02  -0.01  -0.01     0.01   0.04   0.08
  68   6    -0.04   0.11   0.15     0.04  -0.07  -0.02     0.01  -0.13  -0.07
  69   6    -0.03   0.09   0.14     0.05  -0.08   0.00    -0.00  -0.13  -0.16
  70   6     0.02  -0.06  -0.01     0.05  -0.07   0.03    -0.04   0.05  -0.09
  71   6     0.01  -0.04  -0.02     0.03  -0.02   0.01    -0.03   0.03  -0.09
  72   1    -0.03   0.00   0.00    -0.09   0.01   0.02    -0.00   0.00   0.01
  73   1    -0.02  -0.01   0.01    -0.06  -0.03   0.05    -0.02   0.00   0.01
  74   1     0.02  -0.02   0.01     0.06  -0.07   0.04    -0.02   0.00   0.01
  75   1     0.04  -0.02  -0.00     0.12  -0.08  -0.01    -0.01   0.01   0.01
  76   1     0.02  -0.01  -0.01     0.07  -0.04  -0.04     0.01   0.00   0.01
  77   1    -0.01   0.01   0.01    -0.05   0.05   0.04    -0.01  -0.01   0.02
  78   1    -0.01   0.02   0.04    -0.06   0.06   0.13    -0.01  -0.01   0.01
  79   1    -0.01   0.01   0.04    -0.02   0.04   0.11    -0.00  -0.01  -0.01
  80   1     0.01  -0.00   0.01     0.04   0.01  -0.01     0.00  -0.00  -0.02
  81   1     0.01  -0.00  -0.02     0.05  -0.00  -0.08     0.00   0.00  -0.01
  82   1    -0.01   0.03  -0.00     0.02   0.01  -0.03    -0.01  -0.04  -0.00
  83   1    -0.01   0.03  -0.00     0.04  -0.02  -0.02    -0.01  -0.06  -0.02
  84   1    -0.00   0.01  -0.00     0.04  -0.03  -0.00    -0.02  -0.03  -0.03
  85   1    -0.00  -0.01  -0.01    -0.02   0.02   0.01    -0.00   0.01  -0.02
  86   1    -0.01  -0.01   0.00    -0.01  -0.01   0.01     0.00  -0.00  -0.03
  87   1     0.02  -0.06  -0.06    -0.01  -0.01   0.03    -0.01   0.08   0.07
  88   1     0.02  -0.06  -0.06    -0.01  -0.00   0.02    -0.01   0.08   0.11
  89   1     0.06   0.08  -0.16    -0.02  -0.02   0.04     0.03   0.03  -0.01
  90   1     0.07   0.09  -0.18    -0.02  -0.02   0.04     0.05   0.05  -0.07
  91   1    -0.01  -0.01   0.04    -0.00   0.01  -0.01     0.01   0.04  -0.03
  92   1    -0.02  -0.01   0.05    -0.01   0.00  -0.00    -0.02   0.00   0.01
  93   1    -0.02  -0.02   0.02    -0.01  -0.00   0.00    -0.03  -0.05   0.02
  94   1    -0.00   0.01  -0.00    -0.01   0.00   0.00    -0.01  -0.03   0.01
  95   1     0.02   0.04  -0.02    -0.01   0.00   0.00     0.03   0.02  -0.01
  96   1     0.02   0.03  -0.02    -0.00   0.01  -0.00     0.04   0.03  -0.02
  97   1     0.01   0.01  -0.00     0.00   0.01  -0.01     0.04   0.03  -0.03
  98   1    -0.01  -0.00   0.00     0.01   0.01  -0.01     0.03   0.02  -0.02
  99   1    -0.02  -0.02   0.01     0.00   0.00   0.00    -0.01  -0.03   0.01
 100   1    -0.02  -0.02   0.01    -0.01  -0.00   0.01    -0.03  -0.05   0.03
 101   1     0.01  -0.01  -0.02    -0.01  -0.00   0.01     0.02  -0.03   0.02
 102   1     0.02   0.01  -0.05    -0.00   0.00   0.01     0.04   0.00  -0.01
 103   1    -0.05  -0.05   0.10     0.02   0.03  -0.05     0.03   0.04  -0.04
 104   1    -0.05  -0.06   0.11     0.02   0.02  -0.05     0.02   0.01   0.01
 105   1     0.04  -0.01   0.02    -0.03   0.00  -0.01    -0.03  -0.03   0.04
 106   1     0.07  -0.01   0.01    -0.02   0.00  -0.01    -0.03  -0.05   0.02
 107   1     0.04  -0.01   0.01     0.01  -0.00  -0.00    -0.01  -0.04  -0.00
 108   1    -0.01   0.00   0.01     0.03  -0.01   0.00     0.01  -0.02  -0.01
 109   1    -0.04   0.01   0.00     0.02  -0.01  -0.00    -0.01   0.01  -0.01
 110   1    -0.03   0.01   0.01    -0.00  -0.00  -0.00    -0.03   0.04  -0.01
 111   1     0.02  -0.00   0.01    -0.03  -0.00  -0.01    -0.03   0.05   0.01
 112   1     0.03  -0.00   0.01    -0.03  -0.00  -0.01    -0.01   0.03   0.03
 113   1    -0.02   0.06   0.07     0.02  -0.02  -0.02     0.00  -0.07  -0.04
 114   1    -0.01   0.05   0.07     0.02  -0.03  -0.00    -0.00  -0.07  -0.09
 115   1     0.01  -0.02  -0.00     0.03  -0.03   0.01    -0.01   0.02  -0.02
                     19                     20                     21
                        a                      a                      a 
 Frequencies --    77.8863                83.0841                85.5284
 Red. masses --    11.6235                10.2985                11.1159
 Frc consts  --     0.0000                 0.0000                 0.0000
 IR Inten    --     1.1388                 0.0974                 3.6250
 Raman Activ --     0.0000                 0.0000                 0.0000
 Depolar     --     0.0000                 0.0000                 0.0000
 Atom AN      X      Y      Z        X      Y      Z        X      Y      Z
   1   8    -0.07  -0.12  -0.11     0.02  -0.00   0.01    -0.03  -0.05  -0.11
   2  15    -0.15  -0.11  -0.05     0.03  -0.00   0.01    -0.11  -0.05  -0.04
   3   6    -0.13  -0.06  -0.04     0.02  -0.00   0.00    -0.11  -0.03  -0.03
   4   6    -0.02  -0.06  -0.08     0.02  -0.00  -0.00    -0.04  -0.03  -0.04
   5   6     0.12  -0.02  -0.10    -0.00   0.00  -0.01     0.07  -0.02  -0.05
   6   6     0.15   0.01  -0.09    -0.01   0.01  -0.00     0.11  -0.00  -0.04
   7   6     0.01   0.02  -0.05    -0.01   0.01   0.00     0.02  -0.00  -0.03
   8   6    -0.12  -0.02  -0.03     0.01   0.00   0.00    -0.08  -0.02  -0.02
   9   6    -0.06  -0.06  -0.02     0.02  -0.01  -0.00    -0.06  -0.02  -0.01
  10   6    -0.04  -0.01  -0.05     0.01  -0.02   0.00    -0.04   0.02  -0.03
  11   6     0.01   0.00  -0.04    -0.01  -0.03   0.01     0.00   0.03  -0.03
  12   6     0.03  -0.03  -0.01    -0.02  -0.02   0.00     0.03   0.01  -0.01
  13   6     0.00  -0.07   0.02    -0.01  -0.00  -0.01     0.01  -0.03   0.01
  14   6    -0.04  -0.08   0.01     0.01   0.00  -0.01    -0.03  -0.05   0.00
  15   6    -0.06   0.01   0.06     0.01   0.01   0.00    -0.02   0.00   0.06
  16   6    -0.06   0.03   0.06     0.01   0.02   0.00     0.02  -0.05   0.05
  17   6    -0.08   0.07   0.07    -0.00   0.04   0.00     0.01  -0.06   0.05
  18   6    -0.08   0.07   0.08     0.00   0.03   0.00    -0.01  -0.01   0.06
  19   6    -0.08   0.04   0.08     0.01   0.01   0.00    -0.04   0.04   0.07
  20   6    -0.08   0.05   0.08     0.01   0.01   0.00    -0.05   0.06   0.08
  21   8    -0.09   0.09   0.10     0.01   0.01   0.00    -0.05   0.11   0.09
  22   6    -0.07   0.07   0.07     0.01   0.01   0.00    -0.02   0.07   0.06
  23   6    -0.05   0.08   0.05     0.00   0.03   0.00     0.03   0.03   0.03
  24   6    -0.02   0.03   0.02     0.00   0.03   0.00     0.06  -0.03  -0.00
  25   6     0.01  -0.05   0.01     0.01   0.01  -0.00     0.03  -0.04  -0.01
  26   6     0.03  -0.09  -0.02     0.01   0.00  -0.01     0.05  -0.07  -0.05
  27   6     0.09  -0.21  -0.17     0.02  -0.04  -0.07     0.01   0.02   0.06
  28   6     0.07  -0.19  -0.16     0.02  -0.04  -0.07     0.01   0.03   0.06
  29   6     0.03  -0.03   0.00     0.01   0.00  -0.03     0.05  -0.04  -0.03
  30   6     0.01   0.03   0.03    -0.00   0.02  -0.02     0.03  -0.00  -0.02
  31   6     0.04   0.06   0.04     0.02   0.03  -0.01     0.06   0.04   0.01
  32   6     0.02   0.03   0.10     0.05   0.08  -0.09     0.04   0.07   0.01
  33   6     0.04   0.05   0.06     0.04   0.07  -0.04     0.04   0.08   0.08
  34   6     0.08   0.10  -0.05     0.02  -0.00   0.10     0.04   0.04   0.15
  35   6     0.07   0.08  -0.05     0.01  -0.01   0.12     0.02   0.02   0.19
  36   6     0.06   0.11  -0.15     0.01  -0.02   0.11    -0.07  -0.02   0.33
  37   6     0.01   0.06  -0.10     0.03  -0.00   0.01    -0.05  -0.01   0.17
  38   6     0.00  -0.03   0.02     0.05  -0.01  -0.05     0.01   0.05  -0.08
  39   7    -0.03  -0.07   0.03     0.06  -0.01  -0.08     0.01   0.04  -0.12
  40   6    -0.01  -0.05   0.02     0.06  -0.03  -0.05     0.01   0.01  -0.08
  41   6    -0.03  -0.09   0.03     0.06  -0.09  -0.04    -0.04  -0.08  -0.04
  42   6    -0.02  -0.09   0.03     0.07  -0.12  -0.00    -0.03  -0.09  -0.02
  43   6     0.02  -0.05   0.02     0.08  -0.09   0.01     0.03  -0.01  -0.03
  44   6     0.04  -0.00  -0.01     0.08  -0.04   0.01     0.06   0.06  -0.06
  45   6     0.02  -0.01  -0.01     0.07  -0.02  -0.03     0.03   0.06  -0.07
  46   6     0.03   0.00  -0.02     0.05  -0.01  -0.03    -0.01   0.06  -0.05
  47   6     0.09   0.05  -0.06     0.02  -0.02  -0.00    -0.09   0.03   0.03
  48   6     0.08   0.03  -0.05    -0.02  -0.04   0.01    -0.20  -0.01   0.06
  49   6     0.01  -0.06   0.01    -0.03  -0.05  -0.01    -0.22  -0.01   0.01
  50   6    -0.03  -0.10   0.04    -0.00  -0.03  -0.04    -0.13   0.03  -0.08
  51   6    -0.01  -0.06   0.02     0.04  -0.01  -0.05    -0.02   0.05  -0.09
  52   6     0.01  -0.05   0.11     0.04  -0.02  -0.00     0.08   0.06  -0.15
  53   6     0.05  -0.01   0.09     0.03  -0.03   0.09     0.07   0.06  -0.01
  54   6     0.12   0.15  -0.14    -0.01  -0.04   0.17     0.06   0.01   0.13
  55   6     0.09   0.12  -0.07    -0.00  -0.03   0.11     0.07   0.02   0.05
  56   6     0.01   0.02   0.02    -0.02   0.04  -0.01     0.02   0.00  -0.02
  57   6     0.01   0.01   0.03    -0.28   0.08  -0.04     0.07  -0.00  -0.02
  58   6    -0.01   0.01   0.02    -0.36   0.10  -0.04     0.07   0.00  -0.02
  59   6    -0.04   0.01   0.00    -0.14   0.07  -0.00     0.02   0.01  -0.02
  60   6    -0.03   0.02   0.00     0.14   0.02   0.03    -0.03   0.01  -0.02
  61   6    -0.01   0.02   0.01     0.16   0.01   0.02    -0.02   0.01  -0.02
  62   6     0.01   0.04   0.01     0.16  -0.00   0.02    -0.02   0.00  -0.02
  63   6     0.04   0.05  -0.01     0.16  -0.01   0.03    -0.01  -0.01  -0.01
  64   6     0.06   0.07  -0.01    -0.11   0.01  -0.00     0.05  -0.03  -0.00
  65   6     0.04   0.08   0.01    -0.36   0.04  -0.04     0.08  -0.03  -0.01
  66   6     0.01   0.07   0.03    -0.29   0.04  -0.04     0.06  -0.03  -0.02
  67   6    -0.00   0.04   0.02    -0.03   0.01  -0.01     0.01  -0.00  -0.02
  68   6     0.00   0.06   0.10    -0.00   0.04   0.02     0.09  -0.14  -0.15
  69   6     0.01   0.04   0.10    -0.00   0.04   0.03     0.09  -0.16  -0.16
  70   6    -0.03  -0.05   0.03     0.01   0.00  -0.00    -0.02   0.01   0.01
  71   6    -0.06   0.03   0.06     0.01   0.01   0.00    -0.03   0.05   0.05
  72   1    -0.01  -0.03  -0.03     0.01  -0.00  -0.00    -0.02  -0.01  -0.01
  73   1     0.06  -0.01  -0.04    -0.00   0.00  -0.00     0.04  -0.01  -0.02
  74   1     0.08   0.01  -0.03    -0.01   0.00  -0.00     0.06   0.00  -0.01
  75   1     0.01   0.01  -0.01    -0.01   0.00   0.00     0.01   0.00  -0.01
  76   1    -0.06  -0.01   0.00     0.00   0.00   0.00    -0.04  -0.01  -0.00
  77   1    -0.02   0.00  -0.02     0.01  -0.01   0.00    -0.02   0.01  -0.01
  78   1     0.01   0.01  -0.02    -0.00  -0.01   0.00     0.00   0.02  -0.01
  79   1     0.02  -0.00  -0.00    -0.01  -0.01   0.00     0.02   0.01  -0.00
  80   1     0.01  -0.03   0.01    -0.00   0.00  -0.00     0.01  -0.02   0.01
  81   1    -0.02  -0.03   0.01     0.00   0.00  -0.00    -0.01  -0.02   0.00
  82   1    -0.01   0.00   0.02     0.00   0.01   0.00     0.01  -0.03   0.01
  83   1    -0.02   0.03   0.02    -0.00   0.01   0.00     0.01  -0.03   0.01
  84   1    -0.02   0.02   0.03    -0.00   0.01   0.00    -0.00  -0.00   0.02
  85   1    -0.01   0.04   0.02    -0.00   0.01   0.00     0.01   0.01   0.01
  86   1    -0.00   0.01   0.01    -0.00   0.01   0.00     0.03  -0.02  -0.01
  87   1     0.04  -0.09  -0.09     0.01  -0.02  -0.03    -0.00   0.02   0.04
  88   1     0.03  -0.08  -0.08     0.01  -0.02  -0.03    -0.01   0.03   0.04
  89   1    -0.00  -0.00   0.05     0.02   0.04  -0.05     0.01   0.03  -0.01
  90   1     0.01   0.01   0.03     0.02   0.04  -0.03     0.01   0.03   0.02
  91   1     0.02   0.05  -0.07     0.00  -0.01   0.05    -0.04  -0.01   0.17
  92   1    -0.01   0.02  -0.05     0.01   0.00  -0.01    -0.02  -0.01   0.07
  93   1    -0.01  -0.04   0.01     0.01  -0.04  -0.02    -0.03  -0.04  -0.00
  94   1    -0.01  -0.04   0.01     0.02  -0.05   0.00    -0.02  -0.05   0.00
  95   1     0.01  -0.01   0.01     0.02  -0.03   0.01     0.02  -0.00  -0.01
  96   1     0.02   0.01  -0.00     0.02  -0.01   0.01     0.03   0.03  -0.02
  97   1     0.04   0.03  -0.03     0.01  -0.01   0.00    -0.02   0.01   0.02
  98   1     0.03   0.02  -0.02    -0.01  -0.02   0.01    -0.08  -0.02   0.04
  99   1    -0.00  -0.02   0.01    -0.02  -0.02   0.00    -0.09  -0.01   0.01
 100   1    -0.02  -0.05   0.03    -0.00  -0.01  -0.02    -0.04   0.01  -0.04
 101   1     0.00  -0.03   0.06     0.01  -0.01  -0.01     0.04   0.02  -0.09
 102   1     0.02  -0.01   0.05     0.01  -0.01   0.04     0.03   0.02  -0.02
 103   1     0.04   0.06  -0.07    -0.01  -0.03   0.08     0.02  -0.00   0.04
 104   1     0.03   0.04  -0.03    -0.00  -0.02   0.04     0.03   0.00   0.00
 105   1     0.01   0.00   0.01    -0.13   0.03  -0.02     0.03  -0.00  -0.01
 106   1    -0.00  -0.00   0.01    -0.18   0.04  -0.02     0.03  -0.00  -0.00
 107   1    -0.02   0.00  -0.00    -0.06   0.02  -0.00     0.01   0.00  -0.00
 108   1    -0.01   0.01  -0.00     0.08  -0.00   0.01    -0.02   0.00  -0.01
 109   1     0.01   0.01  -0.01     0.09  -0.01   0.01    -0.01  -0.00  -0.00
 110   1     0.03   0.02  -0.01    -0.04   0.00   0.00     0.02  -0.01   0.00
 111   1     0.02   0.03   0.00    -0.18   0.02  -0.02     0.04  -0.01  -0.00
 112   1     0.00   0.02   0.01    -0.14   0.02  -0.02     0.03  -0.01  -0.01
 113   1    -0.01   0.04   0.06    -0.00   0.02   0.01     0.03  -0.06  -0.06
 114   1    -0.00   0.03   0.06    -0.00   0.02   0.02     0.04  -0.07  -0.07
 115   1    -0.01  -0.03   0.00     0.00  -0.00  -0.00    -0.01   0.00   0.00
                     22                     23                     24
                        a                      a                      a 
 Frequencies --    89.0119                94.8973               103.6680
 Red. masses --    11.2205                11.2995                11.2839
 Frc consts  --     0.0000                 0.0000                 0.0000
 IR Inten    --     1.4038                 0.1924                 1.0983
 Raman Activ --     0.0000                 0.0000                 0.0000
 Depolar     --     0.0000                 0.0000                 0.0000
 Atom AN      X      Y      Z        X      Y      Z        X      Y      Z
   1   8     0.09  -0.02   0.10     0.06   0.03   0.13     0.06  -0.07   0.05
   2  15     0.17  -0.02   0.05     0.17   0.04   0.04     0.10  -0.04   0.03
   3   6     0.12   0.00   0.02     0.15   0.03   0.02     0.05  -0.02   0.01
   4   6     0.09  -0.00   0.00     0.09   0.03   0.03     0.06  -0.02  -0.02
   5   6    -0.01   0.01  -0.01    -0.04   0.02   0.04     0.03   0.00  -0.04
   6   6    -0.09   0.03  -0.01    -0.12   0.01   0.03    -0.02   0.03  -0.02
   7   6    -0.05   0.03   0.01    -0.03   0.01   0.02    -0.03   0.03   0.00
   8   6     0.06   0.02   0.03     0.10   0.02   0.02     0.01   0.00   0.02
   9   6     0.09  -0.03   0.00     0.09   0.01   0.01     0.07  -0.03  -0.02
  10   6     0.06  -0.10   0.03     0.07  -0.05   0.03     0.05  -0.09   0.01
  11   6    -0.03  -0.13   0.04    -0.01  -0.08   0.04    -0.03  -0.11   0.03
  12   6    -0.09  -0.08   0.01    -0.06  -0.04   0.02    -0.08  -0.08   0.01
  13   6    -0.04  -0.01  -0.04    -0.02   0.03  -0.02    -0.04  -0.02  -0.03
  14   6     0.04   0.02  -0.04     0.05   0.05  -0.02     0.04   0.00  -0.04
  15   6     0.04   0.02  -0.02     0.03   0.01  -0.07     0.01   0.05   0.00
  16   6     0.03   0.04  -0.02     0.02   0.03  -0.07     0.04  -0.03  -0.01
  17   6     0.00   0.09  -0.02     0.03   0.05  -0.05     0.03  -0.01  -0.01
  18   6     0.00   0.10  -0.02     0.03   0.04  -0.05    -0.01   0.07  -0.00
  19   6     0.02   0.08  -0.02     0.03   0.01  -0.05    -0.03   0.13   0.01
  20   6     0.03   0.06  -0.03     0.03  -0.00  -0.07    -0.04   0.16   0.02
  21   8     0.01   0.09  -0.03    -0.01  -0.02  -0.07    -0.08   0.26   0.03
  22   6    -0.01   0.10  -0.02    -0.02   0.00  -0.03    -0.05   0.17   0.01
  23   6    -0.03   0.13  -0.01    -0.08   0.02   0.00    -0.01   0.11   0.00
  24   6    -0.02   0.10  -0.00    -0.08   0.03   0.04     0.06  -0.04  -0.02
  25   6     0.02   0.02  -0.01    -0.04   0.02   0.05     0.08  -0.10  -0.03
  26   6     0.05  -0.05  -0.03    -0.04  -0.00   0.05     0.10  -0.16  -0.05
  27   6     0.09  -0.13  -0.12    -0.03  -0.05   0.00     0.05  -0.10   0.02
  28   6     0.09  -0.14  -0.11    -0.02  -0.07  -0.04     0.02  -0.05   0.05
  29   6     0.04  -0.08  -0.00    -0.03  -0.06  -0.03     0.03  -0.05   0.02
  30   6     0.03  -0.06   0.04    -0.04  -0.05  -0.03    -0.00   0.00   0.02
  31   6     0.03  -0.04   0.04    -0.01   0.00  -0.01     0.01   0.03  -0.01
  32   6    -0.01  -0.07   0.13    -0.02   0.07  -0.03     0.05   0.07  -0.12
  33   6     0.01  -0.05   0.07     0.00   0.11   0.00     0.03   0.05  -0.09
  34   6     0.03   0.02  -0.07     0.04   0.09   0.05    -0.04  -0.01   0.04
  35   6     0.03   0.03  -0.09     0.03   0.08   0.11    -0.06  -0.04   0.07
  36   6    -0.05  -0.02   0.10     0.03   0.12  -0.02    -0.04   0.00  -0.07
  37   6    -0.07  -0.04   0.17     0.03   0.12  -0.11    -0.03   0.01  -0.12
[...]
 107   1    -0.00  -0.00   0.00    -0.00  -0.01   0.01    -0.00  -0.01   0.01
 108   1     0.00   0.00   0.00    -0.00  -0.00  -0.00    -0.00  -0.01  -0.00
 109   1    -0.00  -0.00   0.00    -0.00  -0.00   0.00    -0.00  -0.00   0.00
 110   1     0.00   0.00   0.00    -0.00  -0.00  -0.00    -0.00  -0.00  -0.00
 111   1    -0.00  -0.00   0.00     0.00   0.00  -0.00     0.00   0.00  -0.00
 112   1    -0.00  -0.00   0.00    -0.00  -0.00   0.00    -0.00  -0.00   0.00
 113   1     0.00  -0.00   0.00    -0.01   0.00  -0.01    -0.00   0.00  -0.00
 114   1    -0.00  -0.00   0.00     0.00   0.01  -0.00    -0.00  -0.00   0.00
 115   1     0.01   0.01  -0.03     0.01   0.00  -0.01    -0.09  -0.07   0.23
                    334                    335                    336
                        a                      a                      a 
 Frequencies --  3100.2188              3100.5965              3101.4438
 Red. masses --     1.8539                 1.8980                 1.9019
 Frc consts  --     0.0000                 0.0000                 0.0000
 IR Inten    --    10.7394                36.7537                 8.2343
 Raman Activ --     0.0000                 0.0000                 0.0000
 Depolar     --     0.0000                 0.0000                 0.0000
 Atom AN      X      Y      Z        X      Y      Z        X      Y      Z
   1   8    -0.00  -0.00  -0.00     0.00   0.00   0.00    -0.00  -0.00  -0.00
   2  15     0.00   0.00   0.00    -0.00  -0.00  -0.00     0.00   0.00  -0.00
   3   6    -0.00  -0.00   0.00    -0.00   0.00   0.00    -0.00  -0.00   0.00
   4   6    -0.00   0.00  -0.00    -0.00  -0.00   0.00    -0.00   0.00  -0.00
   5   6     0.00  -0.00   0.00     0.00  -0.00   0.00     0.00  -0.00   0.00
   6   6     0.00  -0.00  -0.00     0.00  -0.00  -0.00     0.00  -0.00  -0.00
   7   6     0.00   0.00  -0.00     0.00   0.00  -0.00     0.00   0.00  -0.00
   8   6    -0.00   0.00  -0.00    -0.00  -0.00   0.00    -0.00   0.00  -0.00
   9   6    -0.00  -0.00  -0.00    -0.00  -0.00   0.00    -0.00  -0.00   0.00
  10   6     0.00   0.00   0.00    -0.00  -0.00  -0.00    -0.00  -0.00  -0.00
  11   6    -0.00  -0.00  -0.00    -0.00   0.00  -0.00    -0.00   0.00  -0.00
  12   6    -0.00   0.00  -0.00    -0.00   0.00  -0.00    -0.00   0.00  -0.00
  13   6     0.00   0.00   0.00    -0.00  -0.00   0.00     0.00   0.00   0.00
  14   6     0.00  -0.00   0.00     0.00  -0.00   0.00     0.00  -0.00   0.00
  15   6     0.00   0.00  -0.00    -0.00   0.00   0.00     0.00   0.00   0.00
  16   6     0.00   0.00   0.00    -0.00  -0.00  -0.00     0.01   0.00   0.00
  17   6     0.00  -0.00   0.00    -0.00   0.00  -0.00     0.00  -0.00   0.01
  18   6    -0.00  -0.00   0.00     0.00   0.00  -0.00    -0.01  -0.01   0.01
  19   6    -0.00  -0.00  -0.00     0.00   0.00   0.00    -0.00  -0.00  -0.00
  20   6     0.00   0.00  -0.00    -0.00  -0.00  -0.00     0.00   0.00  -0.00
  21   8     0.00   0.00   0.00     0.00   0.00   0.00     0.00  -0.00   0.00
  22   6    -0.00  -0.00  -0.00    -0.00  -0.00   0.00    -0.00  -0.00   0.00
  23   6    -0.00  -0.00   0.00    -0.00  -0.00   0.00    -0.00  -0.00   0.01
  24   6     0.00   0.00   0.00     0.00   0.00   0.00     0.00   0.00   0.00
  25   6    -0.00  -0.00  -0.00     0.00   0.00  -0.00    -0.00  -0.00  -0.00
  26   6     0.00  -0.00   0.00    -0.00  -0.00   0.00     0.00   0.00   0.00
  27   6     0.00  -0.00   0.00    -0.00   0.00  -0.00     0.00  -0.00   0.00
  28   6    -0.00   0.00  -0.00     0.00   0.00  -0.00    -0.00  -0.00   0.00
  29   6    -0.00   0.00  -0.00     0.00  -0.00   0.00    -0.00   0.00   0.00
  30   6    -0.00  -0.00  -0.00     0.00   0.00   0.00    -0.00   0.00  -0.00
  31   6     0.00  -0.00   0.00    -0.00  -0.00  -0.00     0.00  -0.00   0.00
  32   6    -0.00  -0.06  -0.03     0.00   0.01   0.00    -0.00  -0.00  -0.00
  33   6    -0.18  -0.06  -0.10     0.02   0.01   0.01    -0.01  -0.00  -0.01
  34   6    -0.01   0.00  -0.00     0.00  -0.00   0.00    -0.00   0.00  -0.00
  35   6    -0.00   0.00   0.00     0.00  -0.00   0.00     0.00   0.00   0.00
  36   6    -0.03  -0.01  -0.01     0.01   0.00   0.00    -0.01  -0.00  -0.00
  37   6    -0.00  -0.01  -0.00    -0.00  -0.01  -0.00     0.00   0.01   0.00
  38   6     0.00  -0.00  -0.00    -0.00  -0.00  -0.00    -0.00   0.00  -0.00
  39   7    -0.00   0.00   0.00    -0.00  -0.00   0.00     0.00  -0.00   0.00
  40   6    -0.00   0.00   0.00    -0.00   0.00   0.00     0.00  -0.00  -0.00
  41   6    -0.02   0.01  -0.01    -0.11   0.07  -0.04     0.11  -0.07   0.04
  42   6    -0.01  -0.00  -0.02    -0.04  -0.02  -0.10     0.05   0.02   0.10
  43   6     0.01  -0.01  -0.01     0.03  -0.05  -0.04    -0.03   0.06   0.05
  44   6     0.01  -0.00   0.00     0.03  -0.02   0.01    -0.04   0.03  -0.02
  45   6     0.00   0.00   0.00     0.00  -0.00   0.00    -0.00  -0.00  -0.00
  46   6    -0.00   0.00   0.00    -0.00   0.00   0.00    -0.00   0.00   0.00
  47   6    -0.00   0.00   0.00    -0.03   0.03   0.01    -0.03   0.04   0.01
  48   6    -0.00   0.00  -0.00    -0.05   0.02  -0.05    -0.06   0.02  -0.05
  49   6    -0.00  -0.00  -0.00    -0.01  -0.05  -0.10    -0.00  -0.05  -0.10
  50   6     0.00  -0.00  -0.00     0.11  -0.10  -0.04     0.09  -0.09  -0.03
  51   6     0.00  -0.00  -0.00     0.00  -0.00   0.00     0.00  -0.00   0.00
  52   6     0.04   0.02   0.01    -0.01  -0.00  -0.00    -0.00  -0.00  -0.00
  53   6     0.02   0.13   0.03    -0.00  -0.01  -0.00     0.00   0.02   0.00
  54   6     0.00   0.05   0.03    -0.00  -0.00  -0.00     0.00   0.00   0.00
  55   6     0.01   0.00   0.01    -0.00   0.00  -0.00     0.00   0.00   0.00
  56   6    -0.00  -0.00   0.00    -0.00   0.00   0.00    -0.00   0.00  -0.00
  57   6    -0.00  -0.00  -0.00    -0.00  -0.00  -0.00     0.00   0.00   0.00
  58   6     0.00  -0.00  -0.00     0.00  -0.00  -0.00    -0.00   0.00   0.00
  59   6     0.00   0.00  -0.00     0.00   0.00  -0.00    -0.00  -0.00   0.00
  60   6     0.00   0.00   0.00    -0.00  -0.00  -0.00    -0.00  -0.00  -0.00
  61   6     0.00   0.00   0.00     0.00  -0.00  -0.00     0.00  -0.00  -0.00
  62   6     0.00  -0.00   0.00    -0.00   0.00  -0.00    -0.00  -0.00   0.00
  63   6     0.00   0.00  -0.00    -0.00  -0.00   0.00    -0.00  -0.00   0.00
  64   6    -0.00  -0.00  -0.00    -0.00  -0.00  -0.00    -0.00  -0.00  -0.00
  65   6     0.00   0.00  -0.00     0.00   0.00  -0.00     0.00   0.00  -0.00
  66   6     0.00   0.00  -0.00     0.00   0.00  -0.00     0.00   0.00  -0.00
  67   6     0.00   0.00   0.00    -0.00   0.00   0.00    -0.00   0.00   0.00
  68   6    -0.00   0.00  -0.00    -0.00   0.00  -0.00    -0.00   0.00  -0.00
  69   6    -0.00   0.00  -0.00     0.00   0.00  -0.00     0.00   0.00  -0.00
  70   6    -0.00  -0.00   0.00     0.00   0.00  -0.00    -0.00  -0.00   0.01
  71   6     0.00   0.00   0.00    -0.00   0.00  -0.00     0.00   0.00   0.00
  72   1     0.00  -0.00   0.00    -0.00   0.00  -0.00     0.00  -0.00   0.00
  73   1    -0.00   0.00  -0.00    -0.00   0.00  -0.00    -0.00   0.00  -0.00
  74   1    -0.00   0.00   0.00    -0.00   0.00   0.00    -0.00   0.00   0.00
  75   1    -0.00  -0.00   0.00    -0.00  -0.00   0.00    -0.00  -0.00   0.00
  76   1     0.00  -0.00   0.00    -0.00   0.00  -0.00     0.00  -0.00   0.00
  77   1    -0.00  -0.00  -0.00     0.00   0.00   0.00     0.00   0.00   0.00
  78   1     0.00  -0.00   0.00     0.00  -0.00   0.00     0.00  -0.00   0.00
  79   1     0.00  -0.00   0.00     0.00  -0.00   0.00     0.00  -0.01   0.00
  80   1    -0.00  -0.00  -0.00     0.00   0.00   0.00    -0.00  -0.01  -0.00
  81   1    -0.00   0.00  -0.00    -0.00   0.00  -0.00    -0.00   0.00  -0.00
  82   1    -0.00  -0.00  -0.00     0.00   0.00   0.00    -0.02  -0.01  -0.01
  83   1    -0.00   0.00  -0.01     0.00  -0.00   0.00    -0.01   0.00  -0.04
  84   1     0.01   0.01  -0.01    -0.00  -0.00   0.00     0.04   0.02  -0.03
  85   1     0.00   0.00  -0.01     0.00   0.00  -0.00     0.02   0.01  -0.04
  86   1    -0.00  -0.00  -0.00    -0.00  -0.00  -0.00    -0.01  -0.00  -0.01
  87   1    -0.00   0.00  -0.00     0.00  -0.00   0.00    -0.00   0.00  -0.00
  88   1    -0.00  -0.00   0.00    -0.00  -0.00   0.00     0.00   0.00  -0.00
  89   1     0.01   0.17   0.09    -0.00  -0.02  -0.01     0.00   0.02   0.01
  90   1     0.62   0.21   0.35    -0.07  -0.02  -0.04     0.04   0.01   0.02
  91   1     0.09   0.04   0.03    -0.02  -0.01  -0.01     0.04   0.02   0.01
  92   1     0.00   0.04   0.01     0.00   0.03   0.01    -0.00  -0.03  -0.01
  93   1     0.07  -0.05   0.03     0.38  -0.25   0.15    -0.37   0.25  -0.15
  94   1     0.03   0.01   0.06     0.14   0.06   0.33    -0.15  -0.07  -0.34
  95   1    -0.02   0.03   0.03    -0.08   0.15   0.13     0.10  -0.19  -0.16
  96   1    -0.02   0.01  -0.01    -0.09   0.06  -0.03     0.14  -0.09   0.05
  97   1     0.01  -0.01  -0.00     0.08  -0.09  -0.03     0.12  -0.12  -0.04
  98   1     0.01  -0.00   0.01     0.17  -0.05   0.16     0.18  -0.05   0.17
  99   1     0.00   0.01   0.01     0.02   0.18   0.34     0.02   0.16   0.32
 100   1    -0.00   0.00   0.00    -0.36   0.34   0.13    -0.32   0.30   0.12
 101   1    -0.14  -0.05  -0.04     0.04   0.02   0.01     0.02   0.01   0.01
 102   1    -0.07  -0.47  -0.11     0.01   0.03   0.01    -0.01  -0.06  -0.02
 103   1    -0.02  -0.19  -0.11     0.00   0.00   0.00    -0.00  -0.01  -0.01
 104   1    -0.03  -0.01  -0.02     0.00   0.00   0.00    -0.01  -0.00  -0.00
 105   1     0.00   0.01   0.00     0.00   0.00   0.00    -0.00  -0.01  -0.00
 106   1    -0.00   0.00   0.01    -0.00   0.00   0.00     0.00  -0.00  -0.01
 107   1    -0.00  -0.00   0.00    -0.00  -0.00   0.00     0.00   0.01  -0.01
 108   1    -0.00  -0.00  -0.00     0.00   0.00   0.00     0.00   0.01   0.00
 109   1    -0.00  -0.00   0.00     0.00   0.00  -0.00     0.00   0.01  -0.00
 110   1    -0.00   0.00   0.00     0.00   0.00   0.00     0.00   0.01   0.01
 111   1    -0.00  -0.00   0.00    -0.00  -0.00   0.00    -0.00  -0.00   0.01
 112   1    -0.00  -0.01   0.00    -0.00  -0.00   0.00    -0.00  -0.01   0.00
 113   1     0.00  -0.00   0.00     0.00  -0.00   0.00     0.00  -0.00   0.00
 114   1    -0.00  -0.00   0.00    -0.00  -0.00   0.00    -0.00  -0.00   0.00
 115   1     0.00   0.00  -0.01    -0.00  -0.00   0.00     0.01   0.01  -0.02
                    337                    338                    339
                        a                      a                      a 
 Frequencies --  3104.8937              3111.4790              3112.8806
 Red. masses --     1.8767                 1.8190                 1.8188
 Frc consts  --     0.0000                 0.0000                 0.0000
 IR Inten    --    17.9698                59.1475                 8.6117
 Raman Activ --     0.0000                 0.0000                 0.0000
 Depolar     --     0.0000                 0.0000                 0.0000
 Atom AN      X      Y      Z        X      Y      Z        X      Y      Z
   1   8     0.00   0.00  -0.00    -0.00  -0.00   0.00    -0.00  -0.00   0.00
   2  15    -0.00  -0.00   0.00     0.00   0.00  -0.00     0.00   0.00  -0.00
   3   6     0.00   0.00  -0.00    -0.00  -0.00   0.00    -0.00  -0.00   0.00
   4   6     0.00  -0.00   0.00    -0.00   0.00  -0.00    -0.00   0.00  -0.00
   5   6    -0.00  -0.00  -0.00     0.00  -0.00   0.00     0.00  -0.00   0.00
   6   6    -0.00   0.00   0.00     0.00  -0.00  -0.00     0.00  -0.00  -0.00
   7   6    -0.00   0.00  -0.00     0.00   0.00  -0.00     0.00   0.00  -0.00
   8   6     0.00   0.00  -0.00    -0.00   0.00  -0.00    -0.00   0.00  -0.00
   9   6     0.00  -0.00  -0.00    -0.00  -0.00   0.00    -0.00  -0.00   0.00
  10   6    -0.00  -0.01  -0.00    -0.00  -0.00  -0.00     0.00   0.00   0.00
  11   6    -0.00   0.00  -0.00    -0.00   0.00  -0.00    -0.00   0.00  -0.00
  12   6    -0.00   0.00  -0.00    -0.00   0.00  -0.00    -0.00   0.00  -0.00
  13   6     0.00   0.00   0.00     0.00   0.00   0.00     0.00   0.00   0.00
  14   6     0.00  -0.00   0.00     0.00  -0.00   0.00     0.00  -0.00   0.00
  15   6    -0.00  -0.00  -0.00     0.00  -0.00   0.00    -0.00   0.00  -0.00
  16   6    -0.00  -0.00  -0.00     0.00   0.00   0.00     0.00   0.00   0.00
  17   6    -0.00   0.00  -0.00     0.00  -0.00   0.00     0.00  -0.00   0.00
  18   6     0.00   0.00  -0.00    -0.00  -0.00   0.00    -0.00  -0.00   0.00
  19   6    -0.00  -0.00   0.00    -0.00  -0.00  -0.00    -0.00  -0.00  -0.00
  20   6     0.00   0.00   0.00     0.00   0.00  -0.00     0.00  -0.00   0.00
  21   8     0.00   0.00   0.00     0.00  -0.00  -0.00    -0.00  -0.00  -0.00
  22   6    -0.01  -0.00  -0.00     0.00   0.00   0.00     0.00   0.00  -0.00
  23   6    -0.09  -0.07   0.23     0.00   0.00  -0.00     0.00   0.00  -0.00
  24   6     0.07   0.02   0.09    -0.00  -0.00  -0.00    -0.00  -0.00  -0.00
  25   6     0.00   0.00  -0.00    -0.00  -0.00   0.00    -0.00  -0.00   0.00
  26   6    -0.00  -0.00   0.00     0.00   0.00   0.00     0.00   0.00  -0.00
  27   6     0.00  -0.00   0.00     0.00   0.00  -0.00     0.00  -0.00   0.00
  28   6     0.00   0.00  -0.00     0.00   0.00  -0.00    -0.00  -0.00   0.00
  29   6     0.00   0.00  -0.00     0.00  -0.00   0.00    -0.00   0.00   0.00
  30   6    -0.00  -0.00  -0.00     0.00   0.00   0.00    -0.00  -0.00  -0.00
  31   6    -0.00   0.00   0.00    -0.00  -0.00  -0.00     0.00   0.00   0.00
  32   6     0.00   0.00   0.00     0.00   0.01   0.00    -0.00  -0.03  -0.01
  33   6     0.00   0.00   0.00     0.03   0.01   0.02    -0.12  -0.04  -0.07
  34   6     0.00  -0.00   0.00     0.00   0.00   0.00    -0.00   0.00  -0.00
  35   6     0.00  -0.00   0.00     0.01   0.00   0.00     0.00  -0.01  -0.00
  36   6     0.00   0.00   0.00     0.20   0.08   0.06     0.05   0.02   0.02
  37   6     0.00   0.00   0.00     0.01   0.05   0.01     0.00   0.01   0.00
  38   6    -0.00   0.00   0.00    -0.00  -0.00  -0.00    -0.00   0.00   0.00
  39   7    -0.00   0.00  -0.00     0.00  -0.00   0.00     0.00  -0.00  -0.00
  40   6    -0.00   0.00   0.00     0.00  -0.00  -0.00     0.00  -0.00   0.00
  41   6    -0.00   0.00  -0.00     0.00  -0.00   0.00     0.00  -0.00   0.00
  42   6    -0.00  -0.00  -0.01     0.00   0.00   0.00     0.00   0.00   0.00
  43   6     0.00  -0.00  -0.00    -0.00   0.00   0.00    -0.00   0.00   0.00
  44   6     0.00  -0.00   0.00    -0.00   0.00  -0.00    -0.00   0.00  -0.00
  45   6     0.00   0.00   0.00    -0.00  -0.00  -0.00    -0.00  -0.00  -0.00
  46   6    -0.00  -0.00  -0.00    -0.00   0.00   0.00     0.00   0.00   0.00
  47   6     0.00  -0.00  -0.00    -0.00   0.00   0.00    -0.00   0.00   0.00
  48   6     0.00  -0.00   0.00    -0.00   0.00  -0.00    -0.00   0.00  -0.00
  49   6     0.00   0.00   0.01    -0.00  -0.00  -0.00    -0.00  -0.00  -0.00
  50   6    -0.00   0.00   0.00    -0.00   0.00   0.00     0.00  -0.00  -0.00
  51   6    -0.00   0.00  -0.00     0.00  -0.00  -0.00     0.00  -0.00  -0.00
  52   6    -0.00  -0.00  -0.00     0.01   0.01   0.00    -0.04  -0.02  -0.01
  53   6    -0.00  -0.00  -0.00     0.01   0.05   0.01    -0.03  -0.21  -0.05
  54   6     0.00   0.00   0.00     0.01   0.11   0.06     0.00   0.03   0.02
  55   6    -0.00  -0.00  -0.00     0.02   0.01   0.01     0.00   0.00   0.00
  56   6    -0.00   0.00  -0.00    -0.00   0.00  -0.00    -0.00  -0.00   0.00
  57   6     0.00   0.00   0.00     0.00   0.00   0.00     0.00   0.00  -0.00
  58   6     0.00  -0.00  -0.00    -0.00   0.00   0.00    -0.00   0.00   0.00
  59   6     0.00   0.00  -0.00    -0.00  -0.00   0.00    -0.00  -0.00   0.00
  60   6     0.00   0.00   0.00    -0.00  -0.00  -0.00    -0.00  -0.00  -0.00
  61   6     0.00   0.00   0.00    -0.00  -0.00  -0.00    -0.00  -0.00  -0.00
  62   6     0.00  -0.00  -0.00    -0.00  -0.00   0.00     0.00  -0.00   0.00
  63   6     0.00   0.00  -0.00    -0.00  -0.00   0.00    -0.00  -0.00   0.00
  64   6     0.00   0.00   0.00    -0.00  -0.00  -0.00    -0.00  -0.00  -0.00
  65   6    -0.00  -0.00   0.00     0.00   0.00  -0.00     0.00   0.00  -0.00
  66   6    -0.00  -0.00   0.00     0.00   0.00  -0.00     0.00   0.00  -0.00
  67   6    -0.00  -0.00  -0.00    -0.00   0.00  -0.00    -0.00  -0.00  -0.00
  68   6     0.00  -0.00   0.00    -0.00   0.00  -0.00    -0.00   0.00  -0.00
  69   6    -0.00  -0.01   0.01     0.00   0.00  -0.00     0.00   0.00  -0.00
  70   6     0.00   0.00  -0.01    -0.00  -0.00   0.00    -0.00  -0.00   0.00
  71   6     0.00   0.00  -0.00    -0.00   0.00   0.00     0.00   0.00   0.00
  72   1    -0.00   0.00  -0.00    -0.00  -0.00   0.00     0.00  -0.00   0.00
  73   1     0.00   0.00  -0.00    -0.00   0.00  -0.00    -0.00   0.00  -0.00
  74   1     0.00  -0.00  -0.00    -0.00   0.00   0.00    -0.00   0.00   0.00
  75   1    -0.00  -0.00   0.00    -0.00  -0.00   0.00    -0.00  -0.00   0.00
  76   1     0.00  -0.00   0.00    -0.00  -0.00   0.00     0.00  -0.00   0.00
  77   1     0.02   0.02   0.01     0.00   0.00   0.00    -0.00  -0.00  -0.00
  78   1     0.00  -0.00   0.00     0.00  -0.00   0.00     0.00  -0.00   0.00
  79   1     0.00  -0.00   0.00     0.00  -0.00   0.00     0.00  -0.00   0.00
  80   1    -0.00  -0.00  -0.00    -0.00  -0.00  -0.00    -0.00  -0.00  -0.00
  81   1    -0.00   0.00  -0.00    -0.00   0.00  -0.00    -0.00   0.00  -0.00
  82   1     0.00   0.00   0.00    -0.00  -0.00  -0.00    -0.00  -0.00  -0.00
  83   1     0.00  -0.00   0.01    -0.00   0.00  -0.00    -0.00   0.00  -0.01
  84   1    -0.00  -0.00   0.00     0.00   0.00  -0.00     0.00   0.00  -0.00
  85   1     0.30   0.24  -0.79    -0.00  -0.00   0.01    -0.00  -0.00   0.01
  86   1    -0.21  -0.07  -0.31     0.00   0.00   0.00     0.00   0.00   0.01
  87   1    -0.00   0.00  -0.00     0.00  -0.00   0.00    -0.00   0.00  -0.00
  88   1    -0.00  -0.00   0.00    -0.00  -0.00   0.00     0.00   0.00  -0.00
  89   1    -0.00  -0.00  -0.00    -0.00  -0.02  -0.01     0.01   0.07   0.04
  90   1     0.00  -0.00  -0.00    -0.12  -0.04  -0.07     0.42   0.14   0.24
  91   1    -0.01  -0.00  -0.00    -0.71  -0.28  -0.21    -0.19  -0.07  -0.06
  92   1    -0.00  -0.00  -0.00    -0.02  -0.15  -0.04    -0.00  -0.03  -0.01
  93   1     0.01  -0.01   0.01    -0.01   0.01  -0.01    -0.01   0.00  -0.00
  94   1     0.01   0.00   0.02    -0.01  -0.00  -0.01    -0.00  -0.00  -0.01
  95   1    -0.01   0.01   0.01     0.00  -0.00  -0.00     0.00  -0.01  -0.01
  96   1    -0.01   0.01  -0.00     0.00  -0.00   0.00     0.01  -0.00   0.00
  97   1    -0.01   0.01   0.00     0.00  -0.00  -0.00     0.01  -0.01  -0.00
  98   1    -0.01   0.00  -0.01     0.00  -0.00   0.00     0.01  -0.00   0.01
  99   1    -0.00  -0.01  -0.02     0.00   0.00   0.00     0.00   0.01   0.02
 100   1     0.01  -0.01  -0.01     0.00  -0.00  -0.00    -0.01   0.01   0.00
 101   1     0.00   0.00   0.00    -0.04  -0.01  -0.01     0.13   0.05   0.04
 102   1     0.00   0.01   0.00    -0.02  -0.18  -0.04     0.10   0.73   0.18
 103   1    -0.00  -0.00  -0.00    -0.03  -0.40  -0.22    -0.01  -0.10  -0.05
 104   1     0.00   0.00   0.00    -0.06  -0.02  -0.03    -0.01  -0.00  -0.01
 105   1    -0.00  -0.00  -0.00    -0.00  -0.01  -0.00    -0.00  -0.00   0.00
 106   1    -0.00   0.00   0.00     0.00  -0.00  -0.01     0.00  -0.00  -0.00
 107   1    -0.00  -0.00   0.00     0.00   0.00  -0.00     0.00   0.00  -0.00
 108   1    -0.00  -0.00  -0.00     0.00   0.00   0.00     0.00   0.00   0.00
 109   1    -0.00  -0.00   0.00     0.00   0.00  -0.00     0.00   0.00  -0.00
 110   1    -0.00  -0.00  -0.00     0.00   0.00   0.00     0.00   0.00   0.00
 111   1     0.00   0.00  -0.01    -0.00  -0.00   0.00    -0.00  -0.00   0.01
 112   1     0.00   0.00  -0.00    -0.00  -0.00   0.00    -0.00  -0.00   0.00
 113   1    -0.01   0.00  -0.01     0.00  -0.00   0.00     0.00  -0.00   0.00
 114   1     0.00   0.02  -0.02    -0.00  -0.00   0.00    -0.00  -0.00   0.00
 115   1    -0.01  -0.01   0.02     0.00   0.00  -0.00     0.00   0.00  -0.00
