$hessian                                                                        
        0.3854386625  -0.1307324640  -0.2306880474  -0.1542130278   0.0871568133
        0.0714498878   0.0107233345   0.0446696649  -0.0394337371  -0.0318469354
        0.0092462274   0.0244088773   0.0084818811  -0.0539200644   0.0251384402
       -0.1666366334   0.0183594727   0.1248098957   0.0096529978   0.0057680491
       -0.0063598705  -0.0033106261   0.0001151806   0.0036021152   0.0002683883
        0.0027095999  -0.0025941956   0.0016369225  -0.0024324387  -0.0002841858
       -0.0014478446  -0.0001633701   0.0014357951   0.0028679296  -0.0028969906
       -0.0012360614  -0.0020158116   0.0027219387   0.0002560344   0.0002229686
       -0.0006086298  -0.0000255356  -0.0000766096  -0.0000415046  -0.0001168385
        0.0000531582   0.0001023292  -0.0000168873   0.0000008800   0.0000930866
        0.0000263130   0.0000662370  -0.0002251354  -0.0000905136   0.0000945502
       -0.0000365610  -0.0000469548  -0.0000445105  -0.0000111121   0.0000056035
        0.0000040219   0.0000550603   0.0000103541   0.0000096186  -0.0000773692
       -0.0000123824   0.0000493010   0.0001270344   0.0000397248  -0.0000737865
       -0.0000944718  -0.0000350927   0.0000722076   0.0000256535   0.0000259788
       -0.0000139811  -0.0000069167  -0.0000101055   0.0000135719   0.0000049278
        0.0000073148   0.0000055495  -0.0000053407   0.0000030194   0.0000016420
        0.0000111203  -0.0000008107   0.0000059441  -0.0000247086   0.0000020310
       -0.0000184047   0.0000287682  -0.0000115426   0.0000372668  -0.0000192919
        0.0000208031   0.0000093194  -0.0000105721   0.0000002077   0.0001245268
        0.0000348921   0.0000070785   0.0000477880   0.0000115668   0.0000373550
       -0.0000214383   0.0000258897   0.0000048234  -0.0000767484   0.0000215424
       -0.0000136864  -0.0003045879   0.0001888481   0.0000954094  -0.0385145166
        0.0052296680   0.0033484971  -0.0129777240   0.0130689326   0.0071721997
        0.0049854955   0.0015045897   0.0027411813  -0.0131103358  -0.0001275311
        0.0161700166   0.0000862684   0.0001177408   0.0000392938  -0.0000331862
        0.0000034130   0.0000098434   0.0000403766  -0.0000105117   0.0000273007
        0.0000075028  -0.0000553081   0.0001094241   0.0000261144   0.0000766763
       -0.0000518967   0.0000110988   0.0000179994   0.0000381245   0.0000037444
       -0.0000011399  -0.0000034008  -0.0000102657   0.0000031580   0.0000011383
        0.0000029301  -0.0000006368   0.0000016752  -0.0000057349   0.0000012799
       -0.0000041138  -0.0000059776  -0.0000036156  -0.0000038960   0.0000003127
       -0.0000044116   0.0000010179  -0.0000074001  -0.0000016430  -0.0000022685
        0.0000177483   0.0000095660   0.0000084356  -0.0003973358  -0.0001128931
       -0.0000360566  -0.0000255954   0.0000321680  -0.0000415616   0.0001187580
        0.0000817747   0.0000644315
       -0.1307324640   0.5804886945  -0.1372866784   0.1343841054  -0.2034543946
       -0.0607629239   0.0106480635  -0.0549712404   0.0224838031   0.0134730243
       -0.0023044067  -0.0180597715  -0.0202823207   0.0063420652   0.0198307501
       -0.0284308592  -0.0895751587   0.0605933089   0.0004069743  -0.0040017336
        0.0061283520   0.0010363913  -0.0001491409  -0.0009692407  -0.0004391688
       -0.0007316395   0.0006111621  -0.0003136591   0.0007989739  -0.0001271359
        0.0001523846  -0.0004421155  -0.0002538877  -0.0002773936   0.0002213814
        0.0002134280  -0.0004798032  -0.0029960067   0.0021159323  -0.0001519878
        0.0002434402  -0.0000979062   0.0000733929   0.0001066860   0.0000052329
        0.0000670533  -0.0001129494   0.0000368046  -0.0000303684   0.0000039269
       -0.0000208825  -0.0000418487   0.0000607682   0.0000682432  -0.0001187009
        0.0000113313   0.0000365076   0.0000815750   0.0000140857  -0.0000132609
       -0.0000396624  -0.0000334194   0.0000089692   0.0000060633   0.0000907721
        0.0000081706  -0.0000681947  -0.0002394406  -0.0000682904   0.0000010236
        0.0002146799  -0.0000095902  -0.0000546117   0.0000182355  -0.0000073551
        0.0000226916  -0.0000130748   0.0000171295  -0.0000222859  -0.0000093807
       -0.0000122736  -0.0000126531   0.0000192480  -0.0000079259   0.0000200834
        0.0000073825   0.0000118107  -0.0000032176  -0.0000030708  -0.0000013013
        0.0000309055   0.0000178187   0.0000144005  -0.0000439940  -0.0000309647
       -0.0000253049  -0.0000755863   0.0000913477  -0.0000234599   0.0001042701
       -0.0001205438   0.0001125151  -0.0001219838  -0.0000710783  -0.0000770059
        0.0001039929  -0.0001119355   0.0000315276   0.0000859718   0.0000197176
        0.0000271016   0.0001533673  -0.0000903299   0.0000978148   0.0052258550
       -0.2304018313   0.1165683042  -0.0008348044   0.0022235359   0.0007242299
        0.0021172617  -0.0026762186   0.0045328224   0.0142925683   0.0014963500
       -0.0166306675  -0.0000258628  -0.0000007785   0.0001738744  -0.0000179214
       -0.0000090572  -0.0000187958   0.0000300894   0.0000292603   0.0000204263
       -0.0000234669   0.0000440395   0.0000086634   0.0000151638  -0.0000026483
        0.0000490876   0.0000040241  -0.0000253192  -0.0000329816  -0.0000053167
        0.0000102743   0.0000073433   0.0000084446   0.0000022064   0.0000006308
       -0.0000041093   0.0000076111  -0.0000034794  -0.0000022315   0.0000001288
       -0.0000001952  -0.0000023046   0.0000029801  -0.0000025700   0.0000009812
       -0.0000002880  -0.0000006738  -0.0000257734  -0.0000067163  -0.0000164696
       -0.0000239405  -0.0000003336  -0.0000199435   0.0003035152   0.0003122772
        0.0000076968  -0.0000227473  -0.0001186801   0.0000360905  -0.0001199947
       -0.0001953236  -0.0000321627
       -0.2306880474  -0.1372866784   0.4603388290   0.0406485629  -0.0050771439
       -0.0936430822  -0.0175932230  -0.0168453023   0.0326627457   0.0212853074
       -0.0122595203  -0.0228077131   0.0047369398   0.0576338024  -0.0393410997
        0.1548442437   0.0075921617  -0.2227803306  -0.0038870115   0.0002153908
        0.0105332628   0.0032220183   0.0000152539  -0.0033750808  -0.0006500474
       -0.0029857665   0.0020599955  -0.0016632461   0.0023312674   0.0004372745
        0.0010777332   0.0002179241  -0.0019064773  -0.0028356134   0.0031828658
        0.0013016884   0.0023590251  -0.0013810131  -0.0015515610  -0.0002903164
        0.0003210313  -0.0000850981   0.0000366483   0.0000142070   0.0001100446
       -0.0000330886  -0.0000963751   0.0000394611  -0.0000229246  -0.0001241645
       -0.0000398773  -0.0000571609   0.0002261583   0.0000889180  -0.0000835658
        0.0000438724   0.0000451396   0.0000428372  -0.0000044287  -0.0000063119
       -0.0000226397  -0.0000521396  -0.0000092102  -0.0000125605   0.0000808762
        0.0000132442  -0.0000603421  -0.0001420526  -0.0000415825   0.0000707542
        0.0001245624   0.0000430358  -0.0000816457  -0.0000241653  -0.0000297309
        0.0000171362   0.0000052690   0.0000111281  -0.0000146613  -0.0000102316
       -0.0000067380  -0.0000001423   0.0000104696  -0.0000002633   0.0000025402
       -0.0000093200   0.0000017896  -0.0000049989   0.0000362917  -0.0000023790
        0.0000288980  -0.0000166569   0.0000161152  -0.0000044548   0.0000292129
       -0.0000016107  -0.0000010603  -0.0000462786   0.0000010095  -0.0000622931
       -0.0000479436   0.0000063719  -0.0000485564  -0.0000539780  -0.0000261163
        0.0000012352  -0.0000128490  -0.0000224539   0.0000707188  -0.0000123597
        0.0000100914   0.0002793336  -0.0001536392  -0.0000228324   0.0032098018
        0.1164981401  -0.1088385586   0.0167061407  -0.0165166862  -0.0082021227
        0.0028075388   0.0050137420   0.0020697440   0.0063669400  -0.0004117118
       -0.0069616381   0.0001311896  -0.0000268219   0.0000291765  -0.0000039334
       -0.0000281854  -0.0000422246   0.0000254951   0.0000430852   0.0000375367
        0.0000752283   0.0000663233  -0.0000905515  -0.0000309059  -0.0000795108
        0.0000275590  -0.0000165290  -0.0000089065  -0.0000339178  -0.0000000215
        0.0000003810   0.0000015649   0.0000076252  -0.0000055714  -0.0000025443
       -0.0000024574   0.0000030763  -0.0000022021   0.0000037970   0.0000017417
        0.0000024759   0.0000031562   0.0000027759   0.0000032109   0.0000020431
        0.0000059017  -0.0000001672   0.0000065582   0.0000063595   0.0000037594
        0.0000266640   0.0000457050   0.0000057126   0.0001131421  -0.0000397214
        0.0000152267   0.0000257619   0.0000472123   0.0000164381  -0.0000635662
       -0.0000559380  -0.0000590741
       -0.1542130278   0.1343841054   0.0406485629   0.3813255140  -0.1348826140
       -0.2309524306  -0.0677305701  -0.0000167897   0.0301888592   0.0138603581
       -0.0210081861  -0.0040131035  -0.0069871143   0.0205840515  -0.0105363667
       -0.0346036084  -0.0019748955   0.0422323007  -0.0029813643  -0.0018805560
        0.0041772374   0.0015044968   0.0000240438  -0.0018100661  -0.0001052260
       -0.0016115554   0.0011604161  -0.0010769108   0.0013174946   0.0002274504
        0.0005499688   0.0001527313  -0.0009400065  -0.0018729085   0.0013277202
        0.0021250455   0.0016198355  -0.0004023003   0.0046220892  -0.0001895226
        0.0006608332   0.0004482355  -0.0000393845  -0.0001847464   0.0000715205
       -0.0001758295   0.0001448145  -0.0000841265   0.0001783633   0.0000556855
        0.0000334551   0.0000397410  -0.0001298142  -0.0000745817  -0.0000349946
       -0.0000577113  -0.0000266518   0.0000481532   0.0000079602  -0.0000130792
       -0.0000419491  -0.0000163316   0.0000232983  -0.0000078477   0.0000446643
        0.0000060828  -0.0000119734  -0.0001415435  -0.0000513200  -0.0000023057
        0.0001528491   0.0000177493  -0.0000208904   0.0000054102  -0.0000066550
        0.0000117088  -0.0000108629   0.0000127036  -0.0000142952  -0.0000050479
       -0.0000065944  -0.0000104844   0.0000084361  -0.0000050522   0.0000175983
        0.0000028478   0.0000130427  -0.0000101869  -0.0000012396  -0.0000042333
        0.0000267949   0.0000363741   0.0000099814  -0.0000135228  -0.0000277114
       -0.0000053025   0.0000079960   0.0000227777   0.0000257845  -0.0004783669
       -0.0000561779  -0.0000568335  -0.0000466998  -0.0000669438   0.0000270957
        0.0000765472  -0.0000911725   0.0000000867   0.0000467617   0.0000566760
        0.0000215968  -0.0000566154   0.0000348013  -0.0002839727  -0.0010760569
        0.0019464995   0.0000531996  -0.1281360364  -0.0170897858   0.1253677301
       -0.0016649656   0.0171584234  -0.0085002683   0.0018119326   0.0014390285
        0.0062038356   0.0001041087  -0.0000522486  -0.0000699345   0.0000300276
        0.0000072808  -0.0000039015   0.0000100991   0.0000067855   0.0000193853
        0.0000079771   0.0000826733  -0.0000706496   0.0000356989   0.0000304949
        0.0000247812   0.0000153330   0.0000042456   0.0000091127  -0.0000092458
        0.0000048479  -0.0000002668  -0.0000030980   0.0000099125  -0.0000006018
        0.0000004142   0.0000031923  -0.0000028396  -0.0000013183  -0.0000016986
       -0.0000001507   0.0000006706   0.0000019568  -0.0000020111   0.0000000766
        0.0000007316  -0.0000028601  -0.0000063045  -0.0000053491  -0.0000096301
        0.0000140411  -0.0000056007  -0.0000144181   0.0001448221  -0.0000888946
       -0.0002080719   0.0001334347   0.0000410165   0.0000225694   0.0000001509
        0.0000484113  -0.0000372278
        0.0871568133  -0.2034543946  -0.0050771439  -0.1348826140   0.5742111403
       -0.1300518923   0.0447829497  -0.2718908911   0.0905001646  -0.0529366486
       -0.0001919113   0.0614780195   0.0135513546  -0.0484895421   0.0111370587
        0.0339952707   0.0327234557  -0.0590396936   0.0047994633   0.0018075604
       -0.0061743407  -0.0027196656  -0.0003217896   0.0030522599   0.0005816089
        0.0027407953  -0.0023632984   0.0018605961  -0.0026903940  -0.0005292293
       -0.0016410877   0.0000036559   0.0020608885   0.0016414948  -0.0018689033
       -0.0002343967   0.0003640753   0.0071749839  -0.0019767806   0.0005270037
       -0.0005965375   0.0002643688  -0.0002087472  -0.0001845337  -0.0000600993
       -0.0000507323   0.0003888002  -0.0000541722   0.0000347495   0.0000778328
        0.0000258273   0.0000502232  -0.0001461802  -0.0001078574   0.0001416782
       -0.0000750399  -0.0000722216  -0.0000866182  -0.0000372507   0.0000213834
        0.0000174556   0.0001206881  -0.0000029104   0.0000084049  -0.0001730360
       -0.0000188387   0.0000872715   0.0002359122   0.0000677227  -0.0001760598
       -0.0001904597  -0.0000582958   0.0001617163   0.0000717964   0.0000535522
       -0.0000325913   0.0000032985  -0.0000203113   0.0000171662   0.0000111233
        0.0000091943   0.0000114955  -0.0000050146   0.0000049641  -0.0000046644
        0.0000372400  -0.0000010167   0.0000203065  -0.0000615159   0.0000098636
       -0.0000313111   0.0000023468  -0.0000165727   0.0000027047  -0.0000048011
        0.0000047470  -0.0000413739   0.0000826420  -0.0000373608  -0.0001154807
        0.0000673210  -0.0000272927  -0.0000046094  -0.0000247887   0.0000849612
        0.0000007793   0.0000409131   0.0000024190  -0.0001673033   0.0000415990
       -0.0000449269  -0.0002564058   0.0003888375  -0.0000470573   0.0166928912
       -0.0222440113  -0.0052144857  -0.0179156316  -0.0474411014   0.0292656461
        0.0032288302  -0.0221733668   0.0100861121   0.0013125984   0.0022164991
        0.0027092249  -0.0000676482   0.0000341004   0.0000628622  -0.0000020685
        0.0000367925   0.0000317669  -0.0000235482  -0.0000125902   0.0000016539
       -0.0000303350  -0.0001270498   0.0001342589   0.0000296561   0.0000494396
       -0.0000815964  -0.0000153258   0.0000375562   0.0000756900   0.0000224766
        0.0000009684  -0.0000038919  -0.0000226102  -0.0000031889   0.0000008535
        0.0000041174  -0.0000036886   0.0000013427  -0.0000094605   0.0000106800
       -0.0000074515  -0.0000195216  -0.0000039437  -0.0000056969  -0.0000046846
       -0.0000151958  -0.0000005321  -0.0000346520  -0.0000292823  -0.0000062958
        0.0000051668  -0.0000626218   0.0000070487   0.0001251490   0.0001702896
        0.0000166505   0.0000639514  -0.0001469179  -0.0000907451   0.0002019808
       -0.0001183254   0.0002558998
        0.0714498878  -0.0607629239  -0.0936430822  -0.2309524306  -0.1300518923
        0.4709788151   0.0018661003   0.1443757629  -0.1359280012   0.0162310423
        0.0243606365  -0.0349342680  -0.0063977764   0.0035357183  -0.0002061922
        0.0194693083  -0.0179588116  -0.0099800382   0.0001519263   0.0009105078
       -0.0009706160  -0.0001191706   0.0000477405  -0.0000253972  -0.0001792748
        0.0000902437   0.0001765738  -0.0001697901   0.0001742859  -0.0000131674
        0.0004059273  -0.0002685944  -0.0004129436   0.0015950821   0.0004235545
       -0.0013172152   0.0047861070  -0.0021662223   0.0007668589  -0.0003897841
        0.0008594476   0.0005340155   0.0000762982  -0.0001355370   0.0000658050
       -0.0002042063   0.0000412439   0.0000105044   0.0001515984   0.0000312173
       -0.0000302308  -0.0000390467  -0.0000358005  -0.0000819191  -0.0002243217
        0.0000415732   0.0000309313   0.0001468471   0.0000049986  -0.0000202395
       -0.0000805872  -0.0000913276  -0.0000020254  -0.0000222806   0.0001871112
        0.0000190743  -0.0001292495  -0.0004008947  -0.0000711086   0.0000700440
        0.0003638354  -0.0000082658  -0.0001435832   0.0000050574  -0.0000208048
        0.0000409280  -0.0000291588   0.0000205013  -0.0000200255  -0.0000242784
       -0.0000118937  -0.0000037117   0.0000352039  -0.0000052245   0.0000243607
       -0.0000048011   0.0000019610  -0.0000187396   0.0000347524  -0.0000155757
        0.0000553713   0.0000370241   0.0000247794  -0.0000484792  -0.0000547105
       -0.0000076955  -0.0000682891   0.0000963945  -0.0000692642   0.0003170907
       -0.0001535382  -0.0001809567  -0.0001145003  -0.0001036535  -0.0001778379
        0.0000946422  -0.0001234063   0.0000744990   0.0001597979   0.0000006626
        0.0000282543   0.0002815725   0.0000922218  -0.0001503865  -0.0090636478
        0.0116733167   0.0032648575   0.1250302263   0.0292636677  -0.2019910724
        0.0001124343  -0.0066487865   0.0040827030   0.0064342630   0.0022389624
       -0.0003389716  -0.0000809983   0.0000386465   0.0000359035   0.0000120150
       -0.0000114413   0.0000333849   0.0000287375   0.0000048894  -0.0000156390
        0.0000318667  -0.0000033336   0.0000037921  -0.0000359697  -0.0000442224
       -0.0000025490   0.0000011642  -0.0000193521   0.0000085643  -0.0000114249
        0.0000143233   0.0000074128   0.0000211018  -0.0000035104  -0.0000019156
       -0.0000064061   0.0000130853  -0.0000022501  -0.0000024229  -0.0000006668
        0.0000001308   0.0000010210   0.0000000612   0.0000009972   0.0000050026
        0.0000067418   0.0000047566  -0.0000299869   0.0000090449  -0.0000070283
       -0.0000128227   0.0000246213   0.0000148595  -0.0002291162   0.0000585663
        0.0004605040  -0.0000913995  -0.0000188707   0.0000626650  -0.0001623224
        0.0000206142  -0.0000693285
        0.0107233345   0.0106480635  -0.0175932230  -0.0677305701   0.0447829497
        0.0018661003   0.3836757837  -0.1572588170  -0.2315487479  -0.1573821120
       -0.0128667698   0.1426256215  -0.0266759742   0.0242416397   0.0154802436
       -0.0062462013  -0.0111312441   0.0113176288  -0.0009804351   0.0032720119
        0.0043514949   0.0001687437   0.0001673157   0.0002067658  -0.0006239574
       -0.0004960729   0.0005484932  -0.0003933471   0.0005626361  -0.0000106364
        0.0008533320   0.0002518844   0.0000557291   0.0016343431   0.0008848713
        0.0001302490  -0.0022665734  -0.0107494995   0.0074858629  -0.0004223481
        0.0003472522  -0.0006447291   0.0002393486   0.0001718110  -0.0002479715
       -0.0000060473  -0.0000887475   0.0002364874  -0.0000072583   0.0001080474
       -0.0000769800   0.0000489489  -0.0000032295  -0.0001243850  -0.0002525133
        0.0001032840   0.0000395615   0.0001673314  -0.0000270872  -0.0000531967
       -0.0001001318  -0.0001068352   0.0000091516  -0.0000199589   0.0002131277
        0.0000006415  -0.0001536170  -0.0004345529  -0.0001577958   0.0000637666
        0.0004236704   0.0000499651  -0.0001547748   0.0000064060  -0.0000412297
        0.0000450638  -0.0000134112   0.0000294751  -0.0000384943  -0.0000271698
       -0.0000192532  -0.0000006511   0.0000396597  -0.0000028891   0.0000347381
        0.0000164538   0.0000150452  -0.0000199075   0.0000239589  -0.0000105028
        0.0000680975   0.0000339025   0.0000301820  -0.0000094521  -0.0000081729
        0.0000008484  -0.0000300783   0.0001086697  -0.0000103662   0.0000780909
       -0.0001063653   0.0001118238  -0.0001354058  -0.0000259868  -0.0000434660
        0.0001568206  -0.0002633538   0.0000211799   0.0001898661  -0.0000460937
        0.0001476556  -0.0003682466   0.0005369034  -0.0001702128   0.0011450724
        0.0045464160   0.0034302480  -0.0003994052  -0.0151668615   0.0102064516
       -0.1346254490   0.1177817154   0.0531632402   0.0001397351  -0.0004953619
       -0.0001398438   0.0001173508  -0.0000966462  -0.0000195707  -0.0000156379
       -0.0000424625  -0.0000440552  -0.0001054845  -0.0000283204  -0.0000898098
        0.0000127416   0.0001309701  -0.0000990269   0.0000218817  -0.0000293281
        0.0000114581   0.0000016135   0.0000089802   0.0000011693  -0.0000041494
        0.0000243156   0.0000015967   0.0000141156  -0.0000066618  -0.0000024832
       -0.0000073482   0.0000107405  -0.0000084700   0.0000000747   0.0000046223
       -0.0000000883  -0.0000034284   0.0000058068  -0.0000003098   0.0000051587
        0.0000062116  -0.0000003848  -0.0000264170   0.0000015232  -0.0000120534
        0.0000020539   0.0000271938  -0.0000080955  -0.0002148873  -0.0000432496
       -0.0000520181  -0.0001806881  -0.0001375803  -0.0000878709  -0.0000064566
        0.0002068666  -0.0002547049
        0.0446696649  -0.0549712404  -0.0168453023  -0.0000167897  -0.2718908911
        0.1443757629  -0.1572588170   0.5920069182  -0.1126200544   0.0214332436
       -0.0780481692  -0.0043244908   0.0012626045   0.0279935713  -0.0184115216
       -0.0154671148  -0.0166519915   0.0265840163   0.0032932141  -0.0021715464
        0.0008905749   0.0016058045   0.0007328941  -0.0019096465  -0.0002810752
       -0.0013788925   0.0008863295  -0.0011474263   0.0011068568   0.0006265412
        0.0002576983   0.0005955500  -0.0002417270   0.0003055082  -0.0040054492
        0.0031521707  -0.0179511290  -0.0094637096   0.0255731749  -0.0016181734
        0.0017424892   0.0005941018   0.0000806645   0.0001942553   0.0001186157
        0.0002228612  -0.0001778789  -0.0000476144  -0.0001438318  -0.0002581493
       -0.0000113163  -0.0000886133   0.0004933470   0.0002474727  -0.0001970099
       -0.0001264592   0.0001021714   0.0001100381  -0.0000118067   0.0000139407
       -0.0000750566  -0.0000696647  -0.0000296138   0.0000076468   0.0001402176
        0.0000527485   0.0000584034  -0.0002218047   0.0000287156   0.0000371140
        0.0001996597  -0.0000239852  -0.0000333726  -0.0000052298   0.0000084991
        0.0000110402  -0.0000140729   0.0000033431  -0.0000105029  -0.0000112092
       -0.0000056427  -0.0000076700   0.0000091633  -0.0000046481   0.0000153747
       -0.0000044353   0.0000019570  -0.0000398096  -0.0000146959  -0.0000174778
       -0.0000348215   0.0000078436  -0.0000146851  -0.0000072207  -0.0000046980
       -0.0000005182   0.0000655097  -0.0000402005   0.0000331867  -0.0001172188
       -0.0000571227  -0.0000979485   0.0001169066   0.0003256016  -0.0000040434
        0.0000603032  -0.0002907222   0.0000431095   0.0000373673   0.0001355430
       -0.0001866330   0.0001082099  -0.0013600261   0.0004538007   0.0044186401
       -0.0019665462   0.0000230764  -0.0005825966  -0.0053141707   0.0047755999
        0.1176335446  -0.1770796186  -0.0544150016  -0.0006646386   0.0000325417
        0.0003206231  -0.0000230843   0.0000711753  -0.0000088385   0.0000224691
        0.0000235126  -0.0000885913  -0.0001294391   0.0000305716   0.0000288642
        0.0000384458   0.0001477506  -0.0001112169   0.0001025919   0.0000814237
        0.0000731778   0.0000215808   0.0000064365  -0.0000643969  -0.0000241688
        0.0000231382   0.0000134899  -0.0000001363   0.0000137018   0.0000006864
       -0.0000022606   0.0000043304   0.0000005011  -0.0000025398  -0.0000039595
       -0.0000004092   0.0000017328  -0.0000006768  -0.0000007952   0.0000004934
        0.0000041727   0.0000008517   0.0000108848   0.0000025877   0.0000037995
       -0.0000202182  -0.0000476390  -0.0000064444  -0.0007005593  -0.0001552683
       -0.0001231891   0.0003284608  -0.0000918892   0.0001971067   0.0003072733
       -0.0002154192   0.0003877426
       -0.0394337371   0.0224838031   0.0326627457   0.0301888592   0.0905001646
       -0.1359280012  -0.2315487479  -0.1126200544   0.4562473702   0.1233180048
        0.0367705802  -0.2130266446   0.0293367365  -0.0453186174  -0.0063202264
        0.0140378253   0.0221364960  -0.0324094752   0.0048053836   0.0008859809
       -0.0007731624  -0.0009201279  -0.0003715675   0.0015980208   0.0003979810
        0.0013659910  -0.0017029395   0.0012534890  -0.0016243486  -0.0005417124
       -0.0001297046   0.0000562922   0.0015983063   0.0007918910   0.0024026087
       -0.0002439408   0.0108140650   0.0160044668  -0.0245944461   0.0005716280
       -0.0013127387  -0.0003701701  -0.0001816946  -0.0004299219   0.0001819291
        0.0001693287   0.0002755094  -0.0001680599  -0.0002696283  -0.0001213700
        0.0001686762   0.0002269559   0.0001425270  -0.0001214513   0.0003157701
       -0.0001596339  -0.0001026682  -0.0001601749  -0.0000301042   0.0000181089
        0.0000382176   0.0001696106   0.0000394249   0.0000147640  -0.0002504707
       -0.0000254594   0.0001929814   0.0004185865   0.0001054659  -0.0002070351
       -0.0003105316  -0.0000923456   0.0002215538   0.0000599812   0.0000716653
       -0.0000511300  -0.0000035104  -0.0000274748   0.0000292638   0.0000179301
        0.0000158911   0.0000008415  -0.0000222178   0.0000013401  -0.0000086104
        0.0000298740  -0.0000003390   0.0000047230  -0.0000943541   0.0000045876
       -0.0000858662   0.0000245959  -0.0000456527  -0.0000010276  -0.0000252537
       -0.0000090702  -0.0000534999  -0.0000090598  -0.0000344260  -0.0001334922
        0.0000296943  -0.0000336363   0.0000708452   0.0002291755   0.0000789178
       -0.0000607833  -0.0000153526  -0.0000028430  -0.0001958628   0.0000724126
       -0.0000647687  -0.0005818260  -0.0003173762  -0.0004148723   0.0035506413
       -0.0001600521   0.0025232608   0.0010390854   0.0215813136  -0.0149741655
        0.0524695973  -0.0538666288  -0.0628922994   0.0001234030   0.0005054154
       -0.0001310685  -0.0000492422   0.0000953317   0.0000872418  -0.0000676865
        0.0000003320   0.0000473009  -0.0000599126  -0.0001263912  -0.0001179193
       -0.0000034010  -0.0002385115   0.0002221217   0.0000406369   0.0000956008
       -0.0001046397   0.0000274535   0.0000666875   0.0000649432   0.0000046715
        0.0000000198  -0.0000092330  -0.0000293942   0.0000165405   0.0000096471
        0.0000098802  -0.0000058862   0.0000065018  -0.0000138874   0.0000033256
       -0.0000077377  -0.0000163391  -0.0000071601  -0.0000090501  -0.0000083631
       -0.0000181253  -0.0000010245  -0.0000193570  -0.0000296542  -0.0000073285
       -0.0000078123  -0.0000726591   0.0000040630   0.0002452683   0.0001209675
        0.0000409194   0.0001478817  -0.0000846435  -0.0000256917  -0.0001612836
        0.0010843803  -0.0004645059
       -0.0318469354   0.0134730243   0.0212853074   0.0138603581  -0.0529366486
        0.0162310423  -0.1573821120   0.0214332436   0.1233180048   0.4286733766
       -0.1042202174  -0.2799580770  -0.1513927510   0.0770862148   0.0535916073
        0.0098686611   0.0344343488  -0.0344984024  -0.0263691134   0.0053519843
        0.0301787535   0.0023844639  -0.0015876965   0.0015469425  -0.0004795510
       -0.0013711766   0.0014996078  -0.0006212338   0.0007566015   0.0011973144
       -0.0019422511   0.0026859978   0.0027754901  -0.0132464183  -0.0132010438
        0.0238332795  -0.0675888792   0.0030820782   0.0280260765   0.0035474055
        0.0060791807  -0.0123114853  -0.0008782143   0.0021605614  -0.0001101585
        0.0004424217   0.0002723626   0.0008479855  -0.0002480895   0.0003104059
       -0.0000120977  -0.0000009386  -0.0005282719   0.0011223548   0.0005119282
        0.0000265361  -0.0000846834  -0.0002509497  -0.0000011966   0.0000318380
        0.0001683193   0.0001871172   0.0000181423   0.0000644040  -0.0003657687
       -0.0000636350   0.0001001141   0.0006761155   0.0001705520  -0.0001311979
       -0.0005826395  -0.0000758871   0.0002165828   0.0000129271   0.0000560398
       -0.0000564276   0.0000136348  -0.0000385313   0.0000536683   0.0000328400
        0.0000283290   0.0000137453  -0.0000474603   0.0000105721  -0.0000299365
        0.0000036517  -0.0000130322   0.0000473774  -0.0000451260   0.0000234275
       -0.0000764509  -0.0000203973  -0.0000369661   0.0000593809   0.0000019928
        0.0000214432   0.0000145630  -0.0000590381   0.0000032385  -0.0000588089
        0.0001334175  -0.0000835792   0.0000788376  -0.0000679393  -0.0000136304
       -0.0002117030   0.0003327428  -0.0000442182  -0.0001898339  -0.0001393825
       -0.0000360749  -0.0012245961   0.0020439275   0.0006925321  -0.0002098250
        0.0003093820   0.0004079063   0.0045896759   0.0023181044   0.0024191342
       -0.0134732609   0.0005468283   0.0156348191   0.0044616344   0.0017279575
        0.0032442793  -0.0000671457   0.0000369970  -0.0000184937  -0.0002933930
       -0.0002685126  -0.0000018490  -0.0003613455   0.0000342279  -0.0000043132
        0.0000570262   0.0000426545  -0.0000223483  -0.0002056694  -0.0001739841
       -0.0000796734  -0.0000441885  -0.0000452201  -0.0002928364   0.0000367317
       -0.0000329642  -0.0000125537  -0.0000189015  -0.0000058779   0.0000030789
        0.0000093088  -0.0000112040   0.0000087365  -0.0000039323  -0.0000005208
       -0.0000024469  -0.0000029927  -0.0000085011  -0.0000033100  -0.0000035393
       -0.0000128960   0.0000009912   0.0000148075  -0.0000020806   0.0000040852
        0.0000188507  -0.0000022392   0.0000152669   0.0000931386  -0.0002179776
        0.0000776111  -0.0000817793   0.0001549187   0.0000490551  -0.0003944168
        0.0001940042  -0.0005565613
        0.0092462274  -0.0023044067  -0.0122595203  -0.0210081861  -0.0001919113
        0.0243606365  -0.0128667698  -0.0780481692   0.0367705802  -0.1042202174
        0.5130954753  -0.1235462970   0.1053826909  -0.1733017900  -0.0432176924
        0.0112117001  -0.0444602133   0.0145041402   0.0185901719   0.0076282688
       -0.0230875134  -0.0054605135  -0.0002831034   0.0081643122   0.0013714710
        0.0038813092  -0.0036950295   0.0010973179  -0.0032685857   0.0010121279
        0.0019637013   0.0000667573  -0.0003988902  -0.0155902515  -0.0010277006
        0.0208320361  -0.0123056155  -0.1832845019   0.0988724877   0.0051024324
       -0.0343150354   0.0105689253   0.0020151672   0.0005429072   0.0003984532
        0.0005864482  -0.0015667632  -0.0007451190  -0.0011358825   0.0002957548
        0.0001812080  -0.0001518639  -0.0002424784  -0.0002693754   0.0013431717
        0.0000731912  -0.0003634760  -0.0009016374  -0.0000121937   0.0001125138
        0.0004675976   0.0006213588   0.0000901762   0.0001072518  -0.0011801032
       -0.0002181228   0.0005568506   0.0022685115   0.0004156197  -0.0004414065