59
 energy: -96.049809705040 gnorm: 0.000033610950 xtb: 6.7.1 (edcfbbe)
C           -7.70289324646024       -1.00292073331935       -1.94419150129857
C           -6.56614349107684       -1.56817410732096       -2.51712670562695
C           -5.31252002519843       -1.38799902116622       -1.96371897306870
C           -5.21992926730918       -0.62976221630380       -0.80603265806024
C           -6.36365586934271       -0.03067032196071       -0.23236593406113
C           -7.61267608685152       -0.22582635145893       -0.80675885498030
C           -5.90853697734940        0.71539349804058        0.90800508944762
C           -6.55809368951338        1.48273500406347        1.86562202059190
C           -5.80864813522818        2.05756222461014        2.87256371383066
C           -4.43187045671199        1.86011615255358        2.94138787213344
C           -3.76342852068495        1.10052858567199        1.99974741997750
C           -4.50731078700830        0.54365327273621        0.96989196832468
N           -4.10213525744948       -0.27184976514878       -0.07259634298682
C           -2.79188275453609       -0.67226563875595       -0.33399694749323
C           -2.48140158109975       -2.01300122023188       -0.57788593160097
N           -1.25622907985850       -2.43508304751892       -0.82160222932010
C           -0.27092118238909       -1.55985189983843       -0.82777569500394
C           -0.45553626124760       -0.19347369649454       -0.59451312480918
C            0.69371869602165        0.71328732147582       -0.61730823001770
C            0.59437560621591        2.08250213768239       -0.87047370585227
N            1.64885744379651        2.87743962455119       -0.76704030929911
C            2.81689236273912        2.33753266579201       -0.49122418832745
C            2.95854932596298        0.94407167956174       -0.36407618740461
N            4.17714607045489        0.33442132560427       -0.15314964235542
C            5.41757798457298        0.77588026488053       -0.60116598686492
C            5.73874582351159        1.79411145342201       -1.48625055293891
C            7.07366638800246        1.99505623147594       -1.78994559059247
C            8.07329427614316        1.19784490270010       -1.24206241841328
C            7.75728518761969        0.15278737271680       -0.39620671663263
C            6.42418037523309       -0.06771476937299       -0.08126013017439
C            5.75914531780747       -1.07468814938951        0.70126436759594
C            6.22037549064929       -2.15244446110161        1.44439778912545
C            5.29746896859730       -2.95178567542105        2.08981937302820
C            3.93508539072850       -2.68102579616681        2.00312156746217
C            3.45428073019875       -1.61184751672217        1.26893472884176
C            4.37629879990393       -0.81207370784353        0.61373786688535
N            1.88571382906736        0.16317833829558       -0.39156574125688
C           -1.75026145219867        0.25156908379878       -0.34680221630808
H           -8.66480327122012       -1.16998987307627       -2.40525975173013
H           -6.66499403496539       -2.15813692152788       -3.41615329310499
H           -4.43687555580579       -1.81677358466726       -2.42717617166543
H           -8.49066131179560        0.22674745369421       -0.37144835538055
H           -7.62797411262947        1.61899488147332        1.82218619542914
H           -6.29344486355918        2.66019818831407        3.62590800018348
H           -3.87320143625735        2.30652630589281        3.75062696921957
H           -2.69900757412679        0.93741297877407        2.07933370861249
H           -3.25139211191692       -2.77222561281443       -0.55454368159796
H            0.71766743162175       -1.94707528914868       -1.02798475599943
H           -0.33363975838343        2.56095655986228       -1.14608998664235
H            3.63851397094961        3.01975209913433       -0.33329841730732
H            4.98082385974135        2.40304992146884       -1.95361374479628
H            7.34222975141732        2.78571985105660       -2.47449083993215
H            9.10417415470638        1.38970853188190       -1.49888772410818
H            8.52602844873892       -0.48902693702247        0.00617518165094
H            7.27815150707355       -2.35598517289588        1.51345774785573
H            5.63347716868835       -3.79812559089396        2.67014862310495
H            3.23461814288290       -3.32156850016362        2.51791327851936
H            2.39761071320433       -1.41225690820291        1.20109125404649
H           -1.95588206407235        1.29488357475267       -0.15928849886296
