 Entering Gaussian System
 *********************************************
 Gaussian 98:
 frequency output generated by the xtb code
 *********************************************
                         Standard orientation:
 --------------------------------------------------------------------
  Center     Atomic     Atomic              Coordinates (Angstroms)
  Number     Number      Type              X           Y           Z
 --------------------------------------------------------------------
    1          6             0        2.490972   -2.090917   -2.116737
    2          6             0        1.789258   -1.393330   -1.148226
    3          6             0        0.635062   -1.922093   -0.598779
    4          6             0        0.156104   -3.156965   -1.032267
    5          6             0       -1.052610   -3.786211   -0.519372
    6          7             0       -1.144196   -5.085252   -0.369540
    7          6             0       -2.396268   -5.326041    0.100351
    8          6             0       -2.960207   -6.579183    0.469873
    9          6             0       -2.216347   -7.762030    0.395211
   10          6             0       -2.764576   -8.953506    0.800839
   11          6             0       -4.067380   -8.973607    1.295763
   12          6             0       -4.811143   -7.818330    1.364795
   13          6             0       -4.291702   -6.583679    0.944980
   14          6             0       -5.067773   -5.355175    0.951480
   15          6             0       -6.427212   -5.350770    1.295780
   16          6             0       -7.191655   -4.209409    1.238399
   17          6             0       -6.625672   -3.014162    0.806382
   18          6             0       -5.294395   -2.971889    0.473445
   19          6             0       -4.486448   -4.115619    0.562550
   20          6             0       -3.103949   -4.131968    0.220480
   21          7             0       -2.220985   -3.141549   -0.163083
   22          6             0       -2.412032   -1.749291   -0.114769
   23          6             0       -2.184410   -0.968893   -1.245674
   24          6             0       -2.324389    0.401745   -1.175079
   25          6             0       -2.722752    1.010668    0.013929
   26          7             0       -2.823494    2.413585    0.060320
   27          6             0       -1.728193    3.261262   -0.205990
   28          6             0       -0.371887    2.919485   -0.090582
   29          6             0        0.120047    1.790347    0.621871
   30          6             0        1.454188    1.556286    0.742547
   31          6             0        2.428698    2.371117    0.101734
   32          6             0        3.820384    2.052403    0.143950
   33          6             0        4.371373    1.219986    1.151053
   34          6             0        5.703450    0.912742    1.186023
   35          6             0        6.577845    1.385109    0.191539
   36          7             0        7.925837    1.053520    0.212439
   37          6             0        8.606630    0.815443   -0.985711
   38          6             0        7.964753    0.162347   -2.040536
   39          6             0        8.639773   -0.075801   -3.221342
   40          6             0        9.957927    0.328248   -3.370037
   41          6             0       10.599124    0.977024   -2.325533
   42          6             0        9.933141    1.223288   -1.140968
   43          6             0        8.600585    0.945005    1.432568
   44          6             0        8.308855    1.825632    2.476874
   45          6             0        8.973847    1.715928    3.682130
   46          6             0        9.936546    0.734850    3.865663
   47          6             0       10.230705   -0.140496    2.831057
   48          6             0        9.570195   -0.042039    1.622180
   49          6             0        6.049959    2.201288   -0.824725
   50          6             0        4.724226    2.537149   -0.835328
   51          6             0        1.932662    3.514813   -0.586957
   52          6             0        0.605335    3.796348   -0.649365
   53          7             0       -2.146175    4.502674   -0.496910
   54          6             0       -3.474754    4.488704   -0.393569
   55          6             0       -4.368228    5.585367   -0.575893
   56          6             0       -3.883264    6.861887   -0.872900
   57          6             0       -4.750637    7.916376   -1.043638
   58          6             0       -6.118705    7.697648   -0.914388
   59          6             0       -6.607928    6.442635   -0.621973
   60          6             0       -5.755614    5.342371   -0.445191
   61          6             0       -6.240580    4.006075   -0.148413
   62          6             0       -7.607372    3.729081   -0.043811
   63          6             0       -8.084263    2.466148    0.230313
   64          6             0       -7.192608    1.408201    0.406145
   65          6             0       -5.844700    1.630848    0.312354
   66          6             0       -5.329110    2.916355    0.041850
   67          6             0       -3.952704    3.194822   -0.064705
   68          6             0       -2.963933    0.226238    1.143683
   69          6             0       -2.795983   -1.141608    1.081764
   70          6             0        0.883247   -3.863785   -1.993255
   71          6             0        2.040197   -3.334830   -2.529988
   72          1             0        3.388710   -1.667574   -2.542101
   73          1             0        2.140223   -0.428070   -0.817334
   74          1             0        0.118536   -1.374785    0.174992
   75          1             0       -1.206266   -7.700024    0.019642
   76          1             0       -2.192333   -9.867978    0.746131
   77          1             0       -4.499200   -9.906839    1.627789
   78          1             0       -5.812904   -7.881865    1.759078
   79          1             0       -6.904638   -6.267482    1.601520
   80          1             0       -8.236528   -4.245593    1.509765
   81          1             0       -7.232434   -2.125026    0.724209
   82          1             0       -4.868234   -2.049311    0.112969
   83          1             0       -1.894035   -1.440561   -2.171972
   84          1             0       -2.134639    1.013539   -2.044389
   85          1             0       -0.575376    1.132106    1.117999
   86          1             0        1.773253    0.696462    1.312112
   87          1             0        3.734161    0.836498    1.932176
   88          1             0        6.091685    0.280083    1.971060
   89          1             0        6.943466   -0.166569   -1.916922
   90          1             0        8.136676   -0.588398   -4.027795
   91          1             0       10.482579    0.138003   -4.293932
   92          1             0       11.623619    1.299715   -2.437178
   93          1             0       10.428674    1.740740   -0.332884
   94          1             0        7.569584    2.598883    2.327935
   95          1             0        8.745021    2.405784    4.480950
   96          1             0       10.454508    0.653281    4.809118
   97          1             0       10.974385   -0.911161    2.969923
   98          1             0        9.788852   -0.733595    0.821929
   99          1             0        6.710571    2.580141   -1.591137
  100          1             0        4.354277    3.163043   -1.632047
  101          1             0        2.632858    4.207016   -1.029390
  102          1             0        0.246390    4.686623   -1.142326
  103          1             0       -2.814753    6.987560   -0.959938
  104          1             0       -4.376585    8.902965   -1.273523
  105          1             0       -6.808048    8.519741   -1.043713
  106          1             0       -7.675787    6.324603   -0.530000
  107          1             0       -8.325920    4.521019   -0.180981
  108          1             0       -9.147845    2.294895    0.305026
  109          1             0       -7.565809    0.417192    0.616913
  110          1             0       -5.159886    0.809068    0.441284
  111          1             0       -3.258095    0.698451    2.069831
  112          1             0       -2.961258   -1.750298    1.958615
  113          1             0        0.516896   -4.829346   -2.306836
  114          1             0        2.588562   -3.891331   -3.275813
 --------------------------------------------------------------------
     1 basis functions        1 primitive gaussians
     1 alpha electrons        1 beta electrons
 
 Harmonic frequencies (cm**-1), IR intensities (km*mol⁻¹),
 Raman scattering activities (A**4/amu), Raman depolarization ratios,
 reduced masses (AMU), force constants (mDyne/A) and normal coordinates:
                      1                      2                      3
                        a                      a                      a 
 Frequencies --     4.5008                 8.9334                10.4754
 Red. masses --    11.0979                11.0269                11.0782
 Frc consts  --     0.0000                 0.0000                 0.0000
 IR Inten    --     4.7539                 1.3245                 2.9320
 Raman Activ --     0.0000                 0.0000                 0.0000
 Depolar     --     0.0000                 0.0000                 0.0000
 Atom AN      X      Y      Z        X      Y      Z        X      Y      Z
   1   6    -0.11   0.18  -0.17    -0.09  -0.06  -0.11    -0.09  -0.02  -0.12
   2   6    -0.06   0.11  -0.08    -0.06  -0.06  -0.09    -0.06  -0.04  -0.08
   3   6    -0.02   0.07  -0.04    -0.05  -0.05  -0.06    -0.04  -0.05  -0.06
   4   6    -0.03   0.09  -0.09    -0.07  -0.04  -0.06    -0.07  -0.03  -0.09
   5   6     0.00   0.05  -0.06    -0.06  -0.03  -0.03    -0.06  -0.03  -0.06
   6   7     0.04   0.05  -0.08    -0.07  -0.04  -0.02    -0.07  -0.04  -0.08
   7   6     0.06   0.02  -0.03    -0.05  -0.02   0.01    -0.05  -0.03  -0.05
   8   6     0.09   0.01  -0.02    -0.05  -0.02   0.03    -0.05  -0.03  -0.05
   9   6     0.11   0.02  -0.07    -0.06  -0.03   0.01    -0.06  -0.03  -0.08
  10   6     0.15   0.01  -0.07    -0.05  -0.02   0.03    -0.06  -0.04  -0.08
  11   6     0.17  -0.03  -0.02    -0.04  -0.01   0.07    -0.05  -0.03  -0.05
  12   6     0.15  -0.04   0.03    -0.03  -0.01   0.09    -0.04  -0.03  -0.02
  13   6     0.11  -0.02   0.04    -0.03  -0.01   0.08    -0.04  -0.03  -0.01
  14   6     0.09  -0.04   0.09    -0.02  -0.01   0.11    -0.03  -0.02   0.03
  15   6     0.11  -0.06   0.17    -0.01   0.01   0.17    -0.02  -0.01   0.07
  16   6     0.09  -0.07   0.23     0.00   0.01   0.20    -0.01  -0.00   0.11
  17   6     0.05  -0.06   0.21    -0.01   0.00   0.17    -0.02  -0.01   0.10
  18   6     0.03  -0.03   0.14    -0.03  -0.01   0.10    -0.03  -0.01   0.05
  19   6     0.05  -0.02   0.08    -0.03  -0.01   0.08    -0.03  -0.02   0.02
  20   6     0.04   0.01   0.02    -0.04  -0.02   0.03    -0.04  -0.03  -0.02
  21   7     0.01   0.03  -0.01    -0.05  -0.03  -0.00    -0.05  -0.03  -0.03
  22   6    -0.01   0.03   0.00    -0.04  -0.03  -0.01    -0.03  -0.03  -0.03
  23   6    -0.03   0.03   0.00    -0.05  -0.04  -0.03    -0.04  -0.03  -0.03
  24   6    -0.03   0.03   0.01    -0.03  -0.04  -0.04    -0.02  -0.03  -0.03
  25   6    -0.01   0.02   0.01    -0.01  -0.02  -0.04     0.00  -0.02  -0.02
  26   7    -0.01   0.03   0.02     0.01  -0.02  -0.05     0.02  -0.02  -0.02
  27   6    -0.01   0.03   0.04     0.02  -0.02  -0.04     0.02  -0.03  -0.04
  28   6    -0.01   0.02   0.05     0.02  -0.03  -0.04     0.02  -0.04  -0.06
  29   6    -0.02   0.02   0.05     0.01  -0.05  -0.07     0.02  -0.04  -0.06
  30   6    -0.02   0.02   0.06     0.01  -0.05  -0.07     0.02  -0.04  -0.06
  31   6    -0.01   0.01   0.06     0.02  -0.03  -0.04     0.02  -0.04  -0.06
  32   6    -0.02  -0.00   0.06     0.02  -0.02  -0.03     0.02  -0.02  -0.05
  33   6    -0.02  -0.01   0.06     0.01  -0.07  -0.06     0.02   0.03  -0.00
  34   6    -0.03  -0.02   0.05     0.01  -0.05  -0.05     0.03   0.06   0.02
  35   6    -0.03  -0.04   0.04     0.03   0.02  -0.01     0.03   0.02   0.01
  36   7    -0.03  -0.07   0.03     0.04   0.05   0.01     0.04   0.05   0.04
  37   6    -0.05  -0.08   0.02     0.07   0.13   0.01     0.04  -0.02   0.05
  38   6    -0.07  -0.07   0.04     0.12   0.17  -0.04     0.05  -0.09   0.09
  39   6    -0.09  -0.09   0.03     0.16   0.26  -0.03     0.06  -0.16   0.11
  40   6    -0.08  -0.12   0.01     0.15   0.30   0.02     0.06  -0.16   0.09
  41   6    -0.06  -0.13   0.00     0.11   0.26   0.08     0.05  -0.09   0.05
  42   6    -0.04  -0.11   0.01     0.07   0.18   0.07     0.04  -0.02   0.03
  43   6    -0.02  -0.06   0.02     0.00  -0.02   0.02     0.03   0.14   0.04
  44   6     0.00  -0.05   0.02    -0.04  -0.09   0.07     0.01   0.20  -0.02
  45   6     0.01  -0.06   0.02    -0.07  -0.15   0.08     0.01   0.30  -0.01
  46   6    -0.00  -0.07   0.01    -0.06  -0.14   0.05     0.02   0.33   0.06
  47   6    -0.02  -0.08   0.02    -0.01  -0.07  -0.00     0.04   0.26   0.13
  48   6    -0.03  -0.08   0.02     0.02  -0.01  -0.01     0.05   0.17   0.12
  49   6    -0.02  -0.03   0.04     0.04   0.06   0.02     0.02  -0.04  -0.04
  50   6    -0.02  -0.01   0.05     0.03   0.04   0.01     0.02  -0.06  -0.06
  51   6    -0.01   0.02   0.06     0.02  -0.01  -0.01     0.02  -0.05  -0.08
  52   6    -0.00   0.02   0.06     0.02  -0.02  -0.01     0.02  -0.05  -0.08
  53   7    -0.00   0.03   0.03     0.03  -0.02  -0.02     0.03  -0.03  -0.03
  54   6    -0.01   0.02  -0.00     0.03  -0.01  -0.02     0.03  -0.01  -0.00
  55   6    -0.01   0.02  -0.03     0.03   0.00   0.00     0.04  -0.00   0.03
  56   6    -0.00   0.02  -0.02     0.05   0.01   0.03     0.04  -0.01   0.03
  57   6    -0.00   0.01  -0.05     0.05   0.02   0.06     0.05   0.01   0.07
  58   6    -0.01   0.01  -0.10     0.05   0.03   0.05     0.05   0.02   0.11
  59   6    -0.01   0.01  -0.10     0.04   0.02   0.03     0.05   0.03   0.11
  60   6    -0.01   0.01  -0.07     0.03   0.01  -0.00     0.04   0.01   0.07
  61   6    -0.01   0.01  -0.08     0.02   0.01  -0.03     0.03   0.01   0.06
  62   6    -0.01   0.01  -0.11     0.02   0.01  -0.05     0.03   0.03   0.08
  63   6    -0.01   0.00  -0.12     0.01   0.01  -0.09     0.02   0.03   0.07
  64   6    -0.01   0.01  -0.09     0.00  -0.00  -0.11     0.01   0.02   0.04
  65   6    -0.01   0.02  -0.05     0.00  -0.01  -0.09     0.01   0.00   0.02
  66   6    -0.01   0.02  -0.05     0.01  -0.00  -0.05     0.02   0.00   0.03
  67   6    -0.01   0.02  -0.01     0.02  -0.01  -0.04     0.02  -0.01   0.01
  68   6     0.00   0.02   0.01    -0.00  -0.01  -0.03     0.01  -0.02  -0.02
  69   6     0.01   0.02   0.01    -0.02  -0.01  -0.02    -0.01  -0.02  -0.02
  70   6    -0.08   0.16  -0.18    -0.10  -0.04  -0.08    -0.10  -0.01  -0.13
  71   6    -0.12   0.21  -0.22    -0.11  -0.05  -0.11    -0.12   0.00  -0.15
  72   1    -0.04   0.06  -0.06    -0.03  -0.02  -0.04    -0.03  -0.00  -0.04
  73   1    -0.01   0.03  -0.01    -0.01  -0.02  -0.03    -0.01  -0.02  -0.02
  74   1     0.01   0.00   0.01    -0.01  -0.01  -0.01    -0.00  -0.02  -0.01
  75   1     0.03   0.01  -0.03    -0.02  -0.01  -0.01    -0.02  -0.01  -0.03
  76   1     0.05   0.00  -0.03    -0.02  -0.01   0.00    -0.02  -0.01  -0.03
  77   1     0.06  -0.01  -0.01    -0.01  -0.00   0.02    -0.01  -0.01  -0.01
  78   1     0.05  -0.02   0.02    -0.00  -0.00   0.04    -0.01  -0.01   0.00
  79   1     0.04  -0.02   0.05     0.00   0.00   0.06    -0.00  -0.00   0.02
  80   1     0.03  -0.03   0.08     0.00   0.01   0.07    -0.00   0.00   0.04
  81   1     0.01  -0.02   0.08    -0.00   0.00   0.06    -0.00   0.00   0.04
  82   1    -0.00  -0.01   0.04    -0.01  -0.00   0.02    -0.01  -0.00   0.01
  83   1    -0.01   0.01  -0.00    -0.02  -0.02  -0.01    -0.02  -0.01  -0.01
  84   1    -0.01   0.01   0.00    -0.01  -0.01  -0.01    -0.01  -0.01  -0.01
  85   1    -0.01   0.01   0.01     0.00  -0.02  -0.03     0.01  -0.01  -0.02
  86   1    -0.01   0.00   0.02     0.00  -0.02  -0.03     0.01  -0.01  -0.02
  87   1    -0.01   0.00   0.02    -0.00  -0.03  -0.03     0.01   0.02   0.00
  88   1    -0.01  -0.01   0.01     0.00  -0.02  -0.02     0.01   0.03   0.02
  89   1    -0.02  -0.02   0.01     0.04   0.04  -0.03     0.02  -0.03   0.03
  90   1    -0.03  -0.03   0.01     0.06   0.08  -0.02     0.02  -0.06   0.04
  91   1    -0.03  -0.04   0.00     0.05   0.11   0.01     0.02  -0.06   0.03
  92   1    -0.02  -0.04  -0.00     0.03   0.09   0.04     0.01  -0.03   0.01
  93   1    -0.01  -0.03  -0.00     0.01   0.04   0.03     0.01   0.01   0.00
  94   1     0.00  -0.01   0.01    -0.02  -0.03   0.03    -0.00   0.05  -0.02
  95   1     0.01  -0.01   0.00    -0.03  -0.06   0.03    -0.00   0.10  -0.02
  96   1     0.00  -0.02   0.00    -0.02  -0.06   0.02     0.01   0.12   0.02
  97   1    -0.01  -0.03   0.00    -0.00  -0.02  -0.01     0.02   0.08   0.05
  98   1    -0.01  -0.02   0.01     0.02   0.01  -0.01     0.02   0.03   0.05
  99   1    -0.01  -0.01   0.01     0.01   0.03   0.02     0.01  -0.02  -0.02
 100   1    -0.00  -0.00   0.02     0.01   0.02   0.01     0.00  -0.03  -0.03
 101   1    -0.00   0.00   0.02     0.00   0.00   0.00     0.00  -0.02  -0.03
 102   1     0.00   0.01   0.02     0.01  -0.00   0.00     0.00  -0.02  -0.03
 103   1    -0.00   0.01   0.00     0.01  -0.00   0.01     0.01  -0.01  -0.00
 104   1    -0.00   0.00  -0.01     0.02   0.01   0.02     0.02   0.00   0.02
 105   1    -0.00   0.00  -0.04     0.02   0.01   0.02     0.02   0.01   0.04
 106   1    -0.00   0.00  -0.04     0.01   0.01   0.01     0.01   0.01   0.04
 107   1    -0.00   0.00  -0.04     0.01   0.01  -0.01     0.01   0.01   0.03
 108   1    -0.00  -0.00  -0.04     0.00   0.00  -0.03     0.01   0.01   0.03
 109   1    -0.00   0.00  -0.03    -0.00  -0.00  -0.04     0.00   0.00   0.01
 110   1    -0.00   0.01  -0.01    -0.00  -0.00  -0.03     0.00  -0.00  -0.00
 111   1     0.00   0.01   0.01     0.00   0.00  -0.01     0.01  -0.01  -0.00
 112   1     0.01   0.01   0.00    -0.00   0.00  -0.00    -0.00  -0.01  -0.01
 113   1    -0.03   0.05  -0.06    -0.03  -0.01  -0.02    -0.04   0.00  -0.04
 114   1    -0.05   0.08  -0.08    -0.04  -0.01  -0.04    -0.04   0.01  -0.05
                      4                      5                      6
                        a                      a                      a 
 Frequencies --    12.1463                16.4849                20.8801
 Red. masses --    11.1198                10.9392                10.9599
 Frc consts  --     0.0000                 0.0000                 0.0000
 IR Inten    --     1.0557                 0.1306                 0.6516
 Raman Activ --     0.0000                 0.0000                 0.0000
 Depolar     --     0.0000                 0.0000                 0.0000
 Atom AN      X      Y      Z        X      Y      Z        X      Y      Z
   1   6    -0.04   0.01   0.05     0.04  -0.06   0.10    -0.13   0.05  -0.15
   2   6    -0.03  -0.02   0.09     0.03  -0.05   0.08    -0.08   0.01  -0.08
   3   6    -0.03  -0.03   0.07     0.01  -0.04   0.06    -0.04  -0.02  -0.04
   4   6    -0.04  -0.02   0.03     0.01  -0.03   0.06    -0.06  -0.01  -0.07
   5   6    -0.05  -0.02   0.02    -0.01  -0.02   0.03    -0.04  -0.02  -0.03
   6   7    -0.07  -0.03  -0.03    -0.02  -0.02   0.03    -0.02  -0.02   0.02
   7   6    -0.07  -0.02  -0.03    -0.03  -0.01   0.02    -0.02  -0.02   0.02
   8   6    -0.09  -0.02  -0.08    -0.04  -0.01   0.00    -0.00  -0.00   0.09
   9   6    -0.12  -0.04  -0.15    -0.05  -0.02  -0.02     0.02   0.01   0.19
  10   6    -0.14  -0.04  -0.20    -0.06  -0.02  -0.04     0.04   0.03   0.27
  11   6    -0.14  -0.04  -0.20    -0.06  -0.02  -0.05     0.04   0.04   0.26
  12   6    -0.11  -0.03  -0.14    -0.05  -0.01  -0.03     0.01   0.02   0.15
  13   6    -0.09  -0.02  -0.07    -0.04  -0.01  -0.00    -0.01   0.00   0.06
  14   6    -0.06  -0.00  -0.01    -0.02   0.00   0.02    -0.04  -0.02  -0.05
  15   6    -0.06   0.01   0.02    -0.02   0.01   0.05    -0.07  -0.03  -0.15
  16   6    -0.03   0.03   0.08    -0.01   0.02   0.08    -0.09  -0.05  -0.25
  17   6    -0.01   0.04   0.12    -0.00   0.02   0.07    -0.08  -0.05  -0.25
  18   6    -0.02   0.02   0.10    -0.01   0.01   0.05    -0.06  -0.04  -0.16
  19   6    -0.04   0.00   0.04    -0.02   0.00   0.03    -0.05  -0.02  -0.08
  20   6    -0.05  -0.01   0.02    -0.02  -0.01   0.02    -0.03  -0.02  -0.03
  21   7    -0.03  -0.01   0.05    -0.01  -0.01   0.03    -0.05  -0.02  -0.06
  22   6    -0.01  -0.01   0.07     0.00  -0.01   0.01    -0.04  -0.02  -0.04
  23   6    -0.03  -0.01   0.07     0.04  -0.02   0.01    -0.01  -0.00  -0.02
  24   6    -0.01  -0.00   0.08     0.04  -0.02  -0.01     0.00  -0.00   0.01
  25   6     0.03  -0.01   0.10     0.01  -0.01  -0.03    -0.00  -0.02   0.01
  26   7     0.03  -0.01   0.11     0.01  -0.01  -0.05     0.01  -0.02   0.04
  27   6     0.03  -0.01   0.09     0.01   0.01   0.03     0.02  -0.03   0.07
  28   6     0.03  -0.00   0.10     0.01   0.01   0.04     0.02  -0.03   0.08
  29   6     0.04   0.00   0.10     0.01  -0.00   0.01     0.02  -0.05   0.05
  30   6     0.04   0.01   0.09     0.01   0.01   0.03     0.02  -0.05   0.05
  31   6     0.03   0.01   0.09     0.01   0.04   0.06     0.02  -0.02   0.09
  32   6     0.03   0.02   0.07     0.01   0.04   0.05     0.02  -0.01   0.08
  33   6     0.05   0.01   0.05     0.02   0.04   0.04     0.03  -0.02   0.07
  34   6     0.06   0.02   0.03     0.02   0.04   0.03     0.04  -0.01   0.05
  35   6     0.04   0.03   0.02     0.01   0.03   0.01     0.03   0.01   0.05
  36   7     0.04   0.04  -0.01     0.01   0.02  -0.01     0.03   0.02   0.02
  37   6     0.02   0.05  -0.02    -0.03  -0.00  -0.03    -0.00   0.03   0.00
  38   6     0.00   0.05  -0.01    -0.07  -0.01  -0.00    -0.03   0.01   0.02
  39   6    -0.02   0.07  -0.03    -0.11  -0.03  -0.02    -0.06   0.03  -0.00
  40   6    -0.03   0.08  -0.05    -0.11  -0.06  -0.06    -0.08   0.05  -0.05
  41   6    -0.01   0.08  -0.06    -0.07  -0.05  -0.09    -0.05   0.06  -0.07
  42   6     0.01   0.07  -0.05    -0.03  -0.03  -0.07    -0.02   0.05  -0.04
  43   6     0.07   0.04  -0.02     0.04   0.04  -0.03     0.06   0.03   0.00
  44   6     0.08   0.03  -0.01     0.06   0.05  -0.03     0.07   0.01   0.02
  45   6     0.11   0.03  -0.03     0.09   0.07  -0.05     0.11   0.03  -0.00
  46   6     0.12   0.05  -0.05     0.10   0.07  -0.06     0.14   0.06  -0.04
  47   6     0.11   0.05  -0.06     0.08   0.06  -0.05     0.14   0.07  -0.05
  48   6     0.08   0.05  -0.05     0.04   0.04  -0.04     0.10   0.05  -0.03
  49   6     0.02   0.03   0.03     0.00   0.04   0.02     0.01   0.02   0.07
  50   6     0.02   0.03   0.05     0.00   0.05   0.04     0.01   0.01   0.08
  51   6     0.02   0.01   0.09     0.01   0.05   0.09     0.02  -0.00   0.13
  52   6     0.02   0.01   0.10     0.01   0.04   0.08     0.02  -0.01   0.12
  53   7     0.03  -0.02   0.05     0.01   0.02   0.08     0.04  -0.02   0.09
  54   6     0.02  -0.03   0.01     0.01   0.01   0.03     0.03  -0.01   0.05
  55   6     0.02  -0.04  -0.07     0.01   0.02   0.08     0.04  -0.01   0.03
  56   6     0.02  -0.05  -0.12     0.01   0.04   0.19     0.06  -0.01   0.04
  57   6     0.01  -0.08  -0.23     0.01   0.05   0.25     0.07  -0.01   0.00
  58   6     0.01  -0.09  -0.30     0.01   0.04   0.20     0.06  -0.01  -0.06
  59   6     0.01  -0.08  -0.25     0.01   0.01   0.08     0.05  -0.00  -0.07
  60   6     0.02  -0.05  -0.13     0.01   0.00   0.02     0.04  -0.00  -0.02
  61   6     0.02  -0.04  -0.06     0.00  -0.03  -0.11     0.02   0.00  -0.03
  62   6     0.02  -0.04  -0.07     0.00  -0.05  -0.23     0.02   0.01  -0.05
  63   6     0.02  -0.03   0.00    -0.00  -0.08  -0.36     0.01   0.02  -0.04
  64   6     0.03  -0.01   0.10    -0.00  -0.08  -0.38    -0.00   0.01  -0.02
  65   6     0.03  -0.01   0.11     0.00  -0.06  -0.27    -0.00   0.00  -0.00
  66   6     0.03  -0.02   0.03     0.00  -0.03  -0.14     0.01  -0.00  -0.00
  67   6     0.03  -0.02   0.05     0.01  -0.01  -0.05     0.02  -0.01   0.03
  68   6     0.05  -0.01   0.10    -0.02   0.01  -0.03    -0.03  -0.04  -0.01
  69   6     0.03  -0.01   0.09    -0.02   0.01  -0.01    -0.05  -0.04  -0.03
  70   6    -0.06   0.01   0.00     0.02  -0.04   0.07    -0.11   0.04  -0.14
  71   6    -0.06   0.02   0.01     0.04  -0.06   0.10    -0.15   0.07  -0.18
  72   1    -0.01   0.00   0.02     0.02  -0.02   0.03    -0.05   0.02  -0.05
  73   1    -0.00  -0.01   0.03     0.01  -0.02   0.02    -0.02  -0.00  -0.02
  74   1    -0.01  -0.02   0.03    -0.00  -0.01   0.01    -0.00  -0.02   0.00
  75   1    -0.03  -0.01  -0.04    -0.01  -0.01  -0.01     0.01  -0.00   0.06
  76   1    -0.05  -0.02  -0.07    -0.02  -0.01  -0.02     0.02   0.01   0.10
  77   1    -0.05  -0.01  -0.07    -0.02  -0.01  -0.02     0.02   0.02   0.10
  78   1    -0.03  -0.01  -0.04    -0.02  -0.00  -0.01     0.00   0.01   0.04
  79   1    -0.02   0.00  -0.00    -0.01   0.00   0.01    -0.02  -0.01  -0.04
  80   1    -0.01   0.01   0.03    -0.00   0.01   0.03    -0.03  -0.02  -0.10
  81   1     0.00   0.02   0.05     0.00   0.01   0.03    -0.03  -0.02  -0.10
  82   1    -0.00   0.01   0.04    -0.00   0.00   0.01    -0.01  -0.01  -0.05
  83   1    -0.02  -0.00   0.02     0.02  -0.01   0.01    -0.00   0.00  -0.01
  84   1    -0.01  -0.00   0.02     0.02  -0.01  -0.00     0.01   0.00   0.01
  85   1     0.01  -0.00   0.03     0.00  -0.01  -0.00     0.00  -0.02   0.00
  86   1     0.01   0.00   0.03     0.00   0.00   0.00     0.01  -0.02   0.01
  87   1     0.02   0.00   0.02     0.01   0.01   0.01     0.01  -0.01   0.02
  88   1     0.02   0.01   0.01     0.01   0.01   0.01     0.02  -0.00   0.01
  89   1     0.00   0.01   0.00    -0.02   0.00   0.01    -0.01  -0.00   0.02
  90   1    -0.01   0.02  -0.01    -0.04  -0.01   0.00    -0.02   0.01   0.00
  91   1    -0.01   0.03  -0.02    -0.04  -0.02  -0.02    -0.03   0.02  -0.02
  92   1    -0.00   0.03  -0.02    -0.02  -0.02  -0.04    -0.02   0.02  -0.03
  93   1     0.01   0.02  -0.02     0.00  -0.01  -0.03     0.00   0.02  -0.02
  94   1     0.02   0.01   0.00     0.02   0.01  -0.01     0.01  -0.00   0.01
  95   1     0.03   0.01  -0.01     0.03   0.02  -0.02     0.03   0.00   0.00
  96   1     0.04   0.01  -0.02     0.04   0.03  -0.02     0.05   0.02  -0.02
  97   1     0.04   0.02  -0.02     0.02   0.02  -0.02     0.05   0.03  -0.02
  98   1     0.02   0.02  -0.02     0.01   0.01  -0.01     0.03   0.02  -0.01
  99   1     0.00   0.01   0.01    -0.00   0.01   0.01     0.00   0.01   0.02
 100   1     0.00   0.01   0.02    -0.00   0.01   0.01    -0.00   0.00   0.03
 101   1     0.01   0.01   0.03     0.00   0.02   0.03     0.01   0.01   0.05
 102   1     0.00   0.00   0.03     0.00   0.02   0.03     0.01   0.00   0.04
 103   1     0.01  -0.01  -0.02     0.00   0.02   0.07     0.02  -0.00   0.02
 104   1     0.00  -0.02  -0.08     0.00   0.02   0.10     0.02  -0.00   0.00
 105   1     0.00  -0.03  -0.11     0.00   0.01   0.07     0.02  -0.00  -0.03
 106   1     0.00  -0.03  -0.09     0.00   0.00   0.02     0.01   0.00  -0.03
 107   1     0.01  -0.02  -0.04     0.00  -0.01  -0.06     0.01   0.01  -0.02
 108   1     0.01  -0.01  -0.00    -0.00  -0.03  -0.13     0.00   0.01  -0.02
 109   1     0.01   0.00   0.05    -0.00  -0.03  -0.14    -0.00   0.01  -0.00
 110   1     0.01   0.00   0.05     0.00  -0.02  -0.08    -0.00  -0.00   0.01
 111   1     0.02  -0.00   0.03    -0.02   0.01  -0.01    -0.01  -0.02   0.00
 112   1     0.01  -0.01   0.02    -0.01   0.01  -0.00    -0.02  -0.02  -0.01
 113   1    -0.02   0.01  -0.01     0.00  -0.01   0.02    -0.04   0.01  -0.05
 114   1    -0.02   0.01  -0.00     0.01  -0.02   0.03    -0.05   0.03  -0.07
                      7                      8                      9
                        a                      a                      a 
 Frequencies --    25.4391                28.7621                31.6437
 Red. masses --    11.0472                11.1844                10.8677
 Frc consts  --     0.0000                 0.0000                 0.0000
 IR Inten    --     9.2791                 0.4818                 0.6399
 Raman Activ --     0.0000                 0.0000                 0.0000
 Depolar     --     0.0000                 0.0000                 0.0000
 Atom AN      X      Y      Z        X      Y      Z        X      Y      Z
   1   6     0.02   0.04   0.10     0.02  -0.01  -0.08     0.16  -0.19  -0.02
   2   6    -0.02   0.06   0.05     0.05  -0.02  -0.05     0.08  -0.08  -0.16
   3   6    -0.02   0.07   0.04     0.05  -0.02  -0.04     0.03  -0.01  -0.20
   4   6     0.00   0.05   0.07     0.03  -0.00  -0.06     0.05  -0.05  -0.11
   5   6     0.00   0.04   0.05     0.03   0.01  -0.04     0.02  -0.01  -0.13
   6   7     0.03   0.04   0.05     0.00   0.01  -0.05     0.01  -0.01  -0.12
   7   6     0.02   0.01   0.03     0.00   0.04  -0.03     0.01   0.01  -0.09
   8   6     0.05  -0.01  -0.01    -0.02   0.06   0.00     0.01   0.02  -0.04
   9   6     0.08   0.01  -0.01    -0.05   0.04   0.02    -0.01   0.01  -0.06
  10   6     0.10  -0.01  -0.05    -0.07   0.06   0.06    -0.01   0.03  -0.01
  11   6     0.09  -0.05  -0.08    -0.06   0.10   0.08     0.02   0.06   0.06
  12   6     0.06  -0.07  -0.07    -0.03   0.12   0.07     0.04   0.07   0.08
  13   6     0.04  -0.05  -0.03    -0.01   0.10   0.02     0.04   0.05   0.03
  14   6     0.01  -0.07  -0.03     0.01   0.11   0.01     0.05   0.07   0.05
  15   6     0.01  -0.11  -0.05     0.01   0.14   0.01     0.08   0.10   0.16
  16   6    -0.02  -0.12  -0.04     0.03   0.16  -0.01     0.09   0.11   0.17
  17   6    -0.04  -0.10   0.00     0.05   0.13  -0.05     0.07   0.08   0.05
  18   6    -0.03  -0.06   0.03     0.05   0.10  -0.05     0.05   0.05  -0.05
  19   6    -0.01  -0.05   0.01     0.03   0.09  -0.02     0.04   0.04  -0.04
  20   6    -0.00  -0.01   0.03     0.03   0.05  -0.03     0.03   0.02  -0.10
  21   7    -0.02   0.02   0.05     0.05   0.04  -0.04     0.03   0.00  -0.13
  22   6    -0.04   0.01   0.05     0.06   0.03   0.00     0.02   0.00  -0.10
  23   6    -0.04   0.02   0.05     0.06   0.06   0.02    -0.02   0.03  -0.09
  24   6    -0.04   0.02   0.06     0.04   0.06   0.06    -0.05   0.02  -0.06
  25   6    -0.06   0.01   0.05     0.04   0.02   0.08    -0.05  -0.01  -0.04
  26   7    -0.05   0.01   0.06     0.01   0.02   0.13    -0.04  -0.01   0.01
  27   6    -0.02  -0.01   0.07    -0.00   0.04   0.15    -0.03  -0.02   0.04
  28   6    -0.03  -0.05   0.07     0.00   0.04   0.12    -0.03  -0.04   0.04
  29   6    -0.05  -0.04   0.09    -0.00   0.02   0.10    -0.05  -0.08  -0.01
  30   6    -0.05  -0.08   0.06    -0.00  -0.02   0.04    -0.05  -0.09  -0.01
  31   6    -0.04  -0.13   0.01    -0.01  -0.05  -0.00    -0.04  -0.06   0.05
  32   6    -0.05  -0.17  -0.04    -0.01  -0.08  -0.05    -0.04  -0.06   0.05
  33   6    -0.03  -0.16  -0.04    -0.01  -0.10  -0.07    -0.04  -0.08   0.04
  34   6    -0.02  -0.14  -0.06    -0.01  -0.10  -0.09    -0.04  -0.07   0.05
  35   6    -0.04  -0.13  -0.07    -0.01  -0.09  -0.09    -0.04  -0.03   0.07
  36   7    -0.02  -0.07  -0.05    -0.01  -0.05  -0.06    -0.03  -0.02   0.06
  37   6     0.02  -0.01  -0.04     0.05  -0.04  -0.03    -0.06  -0.00   0.03
  38   6     0.09  -0.07  -0.04     0.10  -0.04  -0.06    -0.08  -0.04   0.07
  39   6     0.13  -0.02  -0.03     0.16  -0.04  -0.03    -0.13  -0.02   0.04
  40   6     0.10   0.10  -0.01     0.16  -0.03   0.03    -0.16   0.05  -0.03
  41   6     0.02   0.16  -0.01     0.11  -0.02   0.06    -0.14   0.08  -0.06
  42   6    -0.02   0.10  -0.02     0.05  -0.02   0.03    -0.09   0.06  -0.03
  43   6    -0.03   0.00  -0.04    -0.04  -0.00  -0.03    -0.00   0.00   0.04
  44   6    -0.09  -0.00  -0.06    -0.09   0.02  -0.07    -0.04  -0.04   0.06
  45   6    -0.09   0.07  -0.05    -0.13   0.07  -0.04    -0.00  -0.01   0.04
  46   6    -0.02   0.14  -0.03    -0.13   0.08   0.02     0.08   0.06   0.00
  47   6     0.05   0.14  -0.02    -0.08   0.05   0.06     0.11   0.10  -0.02
  48   6     0.04   0.08  -0.02    -0.04   0.01   0.03     0.07   0.07  -0.00
  49   6    -0.07  -0.17  -0.09    -0.03  -0.10  -0.09    -0.03  -0.01   0.08
  50   6    -0.07  -0.19  -0.07    -0.03  -0.10  -0.07    -0.04  -0.02   0.08
  51   6    -0.02  -0.13  -0.00    -0.00  -0.02   0.04    -0.02  -0.03   0.10
  52   6    -0.02  -0.09   0.03     0.00   0.02   0.10    -0.02  -0.02   0.09
  53   7     0.02  -0.01   0.07    -0.02   0.04   0.17    -0.01  -0.01   0.06
  54   6     0.02   0.03   0.04    -0.03   0.00   0.12    -0.01   0.00   0.03
  55   6     0.05   0.05   0.02    -0.05  -0.02   0.08     0.00   0.01   0.01
  56   6     0.09   0.04   0.04    -0.08  -0.00   0.12     0.02   0.00   0.00
  57   6     0.12   0.06   0.01    -0.11  -0.04   0.05     0.04   0.01  -0.04
  58   6     0.11   0.09  -0.04    -0.11  -0.09  -0.06     0.03   0.02  -0.09
  59   6     0.07   0.11  -0.05    -0.09  -0.11  -0.09     0.01   0.03  -0.08
  60   6     0.04   0.09  -0.03    -0.05  -0.08  -0.02    -0.00   0.03  -0.02
  61   6    -0.00   0.10  -0.04    -0.03  -0.09  -0.04    -0.02   0.04   0.01
  62   6    -0.01   0.13  -0.09    -0.02  -0.14  -0.12    -0.02   0.06   0.04
  63   6    -0.05   0.14  -0.11     0.01  -0.15  -0.13    -0.03   0.07   0.07
  64   6    -0.08   0.12  -0.07     0.04  -0.12  -0.05    -0.05   0.06   0.06
  65   6    -0.07   0.09  -0.02     0.03  -0.07   0.02    -0.05   0.04   0.04
  66   6    -0.03   0.08  -0.01     0.00  -0.06   0.03    -0.03   0.03   0.01
  67   6    -0.02   0.04   0.03    -0.00  -0.01   0.09    -0.03   0.01   0.01
  68   6    -0.08   0.01   0.04     0.06  -0.01   0.06    -0.01  -0.04  -0.05
  69   6    -0.07   0.01   0.04     0.07  -0.00   0.02     0.02  -0.03  -0.08
  70   6     0.03   0.03   0.11    -0.00   0.01  -0.09     0.13  -0.16   0.02
  71   6     0.04   0.02   0.12    -0.01   0.01  -0.10     0.18  -0.23   0.07
  72   1     0.01   0.01   0.03     0.00  -0.00  -0.03     0.06  -0.07   0.00
  73   1    -0.01   0.02   0.01     0.02  -0.01  -0.01     0.02  -0.01  -0.06
  74   1    -0.01   0.03   0.00     0.02  -0.01  -0.01    -0.01   0.02  -0.08
  75   1     0.02   0.01   0.00    -0.02   0.00  -0.00    -0.01  -0.00  -0.03
  76   1     0.04   0.00  -0.02    -0.03   0.01   0.02    -0.01   0.00  -0.01
  77   1     0.03  -0.02  -0.03    -0.02   0.03   0.03     0.01   0.02   0.03
  78   1     0.02  -0.03  -0.03    -0.01   0.04   0.03     0.02   0.03   0.04
  79   1     0.01  -0.04  -0.02    -0.00   0.05   0.01     0.03   0.04   0.07
  80   1    -0.01  -0.04  -0.02     0.01   0.05  -0.00     0.03   0.04   0.08
  81   1    -0.02  -0.03   0.01     0.02   0.04  -0.02     0.02   0.02   0.01
  82   1    -0.01  -0.01   0.02     0.02   0.02  -0.02     0.01   0.01  -0.04
  83   1    -0.01   0.01   0.02     0.02   0.03   0.00    -0.01   0.02  -0.03
  84   1    -0.01   0.01   0.02     0.01   0.03   0.02    -0.02   0.01  -0.01
  85   1    -0.02  -0.00   0.04     0.00   0.01   0.04    -0.02  -0.03  -0.01
  86   1    -0.02  -0.02   0.03    -0.00  -0.01   0.00    -0.02  -0.04  -0.02
  87   1    -0.00  -0.05  -0.01     0.00  -0.03  -0.02    -0.01  -0.03   0.00
  88   1    -0.00  -0.04  -0.02     0.00  -0.03  -0.03    -0.01  -0.02   0.01
  89   1     0.03  -0.05  -0.02     0.03  -0.01  -0.03    -0.02  -0.03   0.03
  90   1     0.05  -0.02  -0.01     0.06  -0.01  -0.01    -0.04  -0.01   0.02
  91   1     0.04   0.04  -0.00     0.06  -0.01   0.02    -0.06   0.02  -0.02
  92   1    -0.00   0.07   0.00     0.03  -0.00   0.03    -0.05   0.04  -0.03
  93   1    -0.02   0.04  -0.00     0.00  -0.01   0.01    -0.02   0.02  -0.02
  94   1    -0.04  -0.02  -0.02    -0.03   0.00  -0.03    -0.03  -0.02   0.03
  95   1    -0.04   0.02  -0.02    -0.05   0.03  -0.02    -0.01  -0.01   0.02
  96   1    -0.01   0.06  -0.01    -0.05   0.03   0.01     0.03   0.02  -0.00
  97   1     0.03   0.06  -0.00    -0.02   0.02   0.03     0.05   0.04  -0.02
  98   1     0.03   0.02  -0.00    -0.00  -0.00   0.02     0.03   0.03  -0.01
  99   1    -0.03  -0.05  -0.03    -0.01  -0.03  -0.03    -0.01   0.00   0.03
 100   1    -0.03  -0.06  -0.02    -0.01  -0.03  -0.02    -0.01  -0.00   0.03
 101   1    -0.00  -0.05  -0.01     0.00  -0.01   0.00    -0.00  -0.00   0.04
 102   1    -0.00  -0.03   0.01     0.00   0.01   0.04    -0.00   0.00   0.04
 103   1     0.03   0.00   0.02    -0.02   0.01   0.06     0.01  -0.00   0.01
 104   1     0.04   0.02   0.01    -0.04  -0.01   0.02     0.01   0.00  -0.01
 105   1     0.04   0.03  -0.02    -0.04  -0.04  -0.03     0.01   0.00  -0.04
 106   1     0.02   0.04  -0.03    -0.03  -0.05  -0.05     0.00   0.01  -0.03
 107   1     0.00   0.04  -0.03    -0.01  -0.05  -0.05    -0.00   0.02   0.01
 108   1    -0.02   0.05  -0.04     0.00  -0.06  -0.06    -0.01   0.03   0.03
 109   1    -0.03   0.04  -0.02     0.02  -0.04  -0.02    -0.02   0.02   0.03
 110   1    -0.03   0.02   0.00     0.02  -0.01   0.02    -0.02   0.01   0.01
 111   1    -0.03   0.00   0.01     0.02  -0.01   0.02    -0.00  -0.02  -0.01
 112   1    -0.02   0.00   0.01     0.02  -0.01   0.00     0.02  -0.02  -0.03
 113   1     0.01   0.00   0.04    -0.01   0.01  -0.03     0.04  -0.05   0.03
 114   1     0.02   0.00   0.05    -0.01   0.01  -0.04     0.07  -0.09   0.05
                     10                     11                     12
                        a                      a                      a 
 Frequencies --    38.4865                45.4653                48.3366
 Red. masses --    10.3920                10.4061                10.7237
 Frc consts  --     0.0000                 0.0000                 0.0000
 IR Inten    --     0.1446                10.7846                11.7671
 Raman Activ --     0.0000                 0.0000                 0.0000
 Depolar     --     0.0000                 0.0000                 0.0000
 Atom AN      X      Y      Z        X      Y      Z        X      Y      Z
   1   6    -0.02   0.11   0.04    -0.10  -0.00  -0.23    -0.03  -0.03  -0.13
   2   6     0.04   0.01   0.16    -0.12   0.12  -0.34     0.11  -0.09   0.01
   3   6     0.06  -0.04   0.15    -0.06   0.13  -0.19     0.15  -0.10   0.10
   4   6     0.02   0.02   0.02     0.00   0.02   0.04     0.08  -0.06   0.05
   5   6     0.03  -0.00   0.01     0.03   0.04   0.12     0.10  -0.05   0.11
   6   7     0.01  -0.00   0.00     0.05   0.04   0.16     0.08  -0.05   0.12
   7   6     0.01   0.01  -0.00     0.04   0.03   0.13     0.07  -0.02   0.10
   8   6    -0.02   0.02  -0.00     0.03   0.02   0.07     0.02  -0.02   0.05
   9   6    -0.04   0.01  -0.01     0.04   0.03   0.08    -0.01  -0.03   0.04
  10   6    -0.06   0.02  -0.01     0.00   0.01  -0.02    -0.06  -0.04  -0.05
  11   6    -0.06   0.04  -0.00    -0.04  -0.02  -0.14    -0.09  -0.02  -0.11
  12   6    -0.03   0.05   0.01    -0.05  -0.02  -0.15    -0.06  -0.00  -0.09
  13   6    -0.01   0.04   0.01    -0.01  -0.00  -0.04     0.00   0.00  -0.01
  14   6     0.00   0.06   0.01    -0.01   0.00  -0.04     0.03   0.02   0.00
  15   6     0.01   0.08   0.02    -0.03  -0.01  -0.13     0.02   0.04  -0.05
  16   6     0.02   0.09   0.01    -0.02  -0.01  -0.11     0.04   0.06  -0.07
  17   6     0.04   0.08  -0.01     0.01   0.02   0.01     0.08   0.05  -0.04
  18   6     0.04   0.05  -0.02     0.03   0.03   0.09     0.10   0.03   0.02
  19   6     0.02   0.04  -0.00     0.02   0.02   0.06     0.07   0.01   0.05
  20   6     0.02   0.02   0.00     0.03   0.03   0.10     0.09  -0.01   0.10
  21   7     0.04   0.01   0.02     0.03   0.03   0.11     0.12  -0.02   0.12
  22   6     0.06   0.01   0.00    -0.00   0.03   0.08     0.12  -0.02   0.08
  23   6     0.11   0.00   0.01    -0.14  -0.01   0.03     0.17  -0.04   0.08
  24   6     0.10   0.00  -0.01    -0.14  -0.00   0.01     0.12  -0.04   0.04
  25   6     0.04   0.01  -0.04     0.00   0.02   0.04     0.01  -0.02  -0.00
  26   7     0.01   0.00  -0.06     0.02   0.03   0.03    -0.01  -0.03  -0.05
  27   6    -0.01   0.01  -0.09     0.01   0.03   0.00    -0.00  -0.03  -0.02
  28   6    -0.01   0.01  -0.07     0.01   0.02  -0.04    -0.00  -0.03   0.00
  29   6    -0.03   0.06   0.03     0.02  -0.01  -0.08    -0.01  -0.05  -0.02
  30   6    -0.04   0.04   0.05     0.02  -0.03  -0.10    -0.01  -0.05  -0.02
  31   6    -0.02  -0.04  -0.02     0.02  -0.01  -0.08    -0.01  -0.02   0.02
  32   6    -0.03  -0.07  -0.00     0.02  -0.00  -0.05    -0.01  -0.03   0.01
  33   6    -0.04  -0.02   0.04    -0.01  -0.02  -0.05    -0.03  -0.13  -0.06
  34   6    -0.04  -0.04   0.07    -0.01  -0.02  -0.01    -0.03  -0.12  -0.07
  35   6    -0.03  -0.09   0.05     0.02   0.01   0.03    -0.02  -0.02  -0.01
  36   7    -0.03  -0.08   0.07     0.02   0.01   0.05    -0.01  -0.01  -0.02
  37   6    -0.03  -0.03   0.04     0.00  -0.01   0.03    -0.04  -0.01  -0.03
  38   6     0.03  -0.18   0.11    -0.00  -0.09   0.09    -0.11   0.08  -0.04
  39   6     0.02  -0.12   0.09    -0.03  -0.10   0.07    -0.17   0.11  -0.08
  40   6    -0.06   0.10   0.01    -0.06  -0.04   0.01    -0.15   0.04  -0.10
  41   6    -0.12   0.25  -0.05    -0.06   0.04  -0.04    -0.08  -0.06  -0.09
  42   6    -0.11   0.19  -0.03    -0.03   0.05  -0.03    -0.02  -0.08  -0.05
  43   6     0.01  -0.05   0.04     0.02  -0.00   0.04    -0.04   0.03   0.00
  44   6    -0.04  -0.14   0.09    -0.05  -0.09   0.09    -0.15   0.00  -0.01
  45   6     0.03  -0.12   0.06    -0.05  -0.10   0.09    -0.23   0.02   0.04
  46   6     0.15  -0.02  -0.03     0.03  -0.03   0.04    -0.19   0.07   0.09
  47   6     0.20   0.07  -0.09     0.11   0.06  -0.02    -0.07   0.10   0.09
  48   6     0.14   0.05  -0.05     0.11   0.07  -0.01    -0.00   0.08   0.05
  49   6    -0.02  -0.15  -0.00     0.05   0.03   0.03    -0.00   0.08   0.06
  50   6    -0.02  -0.14  -0.03     0.05   0.03  -0.01    -0.00   0.07   0.07
  51   6     0.01  -0.08  -0.11     0.02   0.00  -0.06    -0.00   0.01   0.07
  52   6     0.01  -0.05  -0.13     0.02   0.01  -0.04    -0.00   0.00   0.06
  53   7    -0.02  -0.00  -0.13     0.00   0.03   0.01     0.02  -0.03  -0.02
  54   6    -0.02  -0.01  -0.09     0.00   0.02   0.01     0.02  -0.01  -0.03
  55   6    -0.04  -0.02  -0.05    -0.02   0.00   0.01     0.03   0.00  -0.02
  56   6    -0.06  -0.02  -0.07    -0.04   0.02   0.04     0.06  -0.01  -0.04
  57   6    -0.08  -0.02   0.00    -0.06   0.00   0.04     0.08   0.01  -0.03
  58   6    -0.07  -0.02   0.11    -0.05  -0.02   0.02     0.07   0.04  -0.00
  59   6    -0.05  -0.02   0.12    -0.03  -0.04  -0.00     0.05   0.05   0.02
  60   6    -0.03  -0.03   0.03    -0.01  -0.02  -0.01     0.03   0.03   0.00
  61   6    -0.01  -0.04   0.02     0.00  -0.03  -0.03     0.01   0.04   0.01
  62   6    -0.01  -0.05   0.05     0.00  -0.07  -0.08     0.01   0.07   0.06
  63   6     0.01  -0.06   0.03     0.03  -0.07  -0.07    -0.01   0.08   0.05
  64   6     0.03  -0.06  -0.02     0.05  -0.04  -0.00    -0.03   0.05  -0.01
  65   6     0.02  -0.04  -0.04     0.04  -0.01   0.04    -0.02   0.02  -0.05
  66   6     0.00  -0.03  -0.02     0.02  -0.01   0.01    -0.00   0.02  -0.03
  67   6    -0.00  -0.01  -0.05     0.01   0.02   0.02     0.00  -0.01  -0.04
  68   6     0.00   0.02  -0.04     0.12   0.05   0.08    -0.03  -0.00  -0.00
  69   6     0.01   0.02  -0.02     0.12   0.05   0.10     0.03   0.00   0.04
  70   6    -0.03   0.12  -0.09     0.03  -0.10   0.14    -0.06   0.00  -0.09
  71   6    -0.05   0.17  -0.09    -0.02  -0.12   0.01    -0.11   0.02  -0.19
  72   1    -0.01   0.04   0.01    -0.04  -0.00  -0.10    -0.02  -0.00  -0.06
  73   1     0.02  -0.01   0.07    -0.05   0.06  -0.15     0.05  -0.04   0.02
  74   1     0.03  -0.04   0.07    -0.02   0.07  -0.08     0.07  -0.04   0.05
  75   1    -0.01  -0.00  -0.00     0.02   0.01   0.05     0.00  -0.01   0.02
  76   1    -0.02   0.00  -0.01     0.00   0.00  -0.00    -0.03  -0.02  -0.02
  77   1    -0.02   0.01  -0.00    -0.02  -0.01  -0.07    -0.04  -0.01  -0.05
  78   1    -0.01   0.02   0.00    -0.02  -0.01  -0.07    -0.02   0.00  -0.04
  79   1    -0.00   0.03   0.01    -0.02  -0.01  -0.06    -0.00   0.01  -0.02
  80   1     0.01   0.03   0.01    -0.01  -0.01  -0.05     0.01   0.02  -0.03
  81   1     0.01   0.02  -0.01     0.01   0.01   0.01     0.03   0.02  -0.02
  82   1     0.01   0.01  -0.01     0.02   0.02   0.05     0.04   0.01   0.01
  83   1     0.04  -0.00   0.01    -0.07  -0.01   0.00     0.07  -0.01   0.03
  84   1     0.04  -0.00  -0.00    -0.07  -0.01  -0.01     0.05  -0.02   0.01
  85   1    -0.01   0.04   0.03     0.01  -0.00  -0.02    -0.00  -0.02  -0.01
  86   1    -0.02   0.03   0.04     0.00  -0.02  -0.04    -0.01  -0.02  -0.01
  87   1    -0.01   0.01   0.02    -0.01  -0.01  -0.02    -0.01  -0.06  -0.03
  88   1    -0.01  -0.00   0.03    -0.01  -0.01  -0.00    -0.01  -0.06  -0.04
  89   1     0.03  -0.10   0.05     0.00  -0.04   0.04    -0.04   0.04  -0.01
  90   1     0.02  -0.07   0.04    -0.01  -0.05   0.03    -0.07   0.05  -0.03
  91   1    -0.02   0.04  -0.00    -0.02  -0.02  -0.00    -0.06   0.02  -0.04
  92   1    -0.05   0.12  -0.03    -0.02   0.03  -0.03    -0.02  -0.03  -0.03
  93   1    -0.05   0.09  -0.02    -0.01   0.03  -0.02     0.01  -0.04  -0.01
  94   1    -0.04  -0.06   0.05    -0.03  -0.04   0.04    -0.05  -0.01  -0.01
  95   1    -0.01  -0.05   0.03    -0.03  -0.05   0.04    -0.09   0.00   0.01
  96   1     0.06   0.00  -0.02     0.01  -0.01   0.01    -0.07   0.02   0.04
  97   1     0.09   0.04  -0.05     0.05   0.03  -0.02    -0.01   0.04   0.04
  98   1     0.05   0.03  -0.03     0.05   0.04  -0.01     0.02   0.03   0.02
  99   1    -0.01  -0.06  -0.01     0.02   0.01   0.02     0.00   0.04   0.03
 100   1    -0.00  -0.06  -0.02     0.02   0.01  -0.00     0.00   0.04   0.04
 101   1     0.01  -0.04  -0.05     0.00   0.00  -0.02     0.00   0.01   0.04
 102   1     0.01  -0.02  -0.06     0.01   0.01  -0.01    -0.00   0.01   0.03
 103   1    -0.02  -0.00  -0.04    -0.01   0.01   0.02     0.02  -0.01  -0.02
 104   1    -0.03  -0.00  -0.00    -0.02   0.00   0.02     0.03  -0.00  -0.01
 105   1    -0.02  -0.00   0.05    -0.02  -0.01   0.01     0.03   0.01   0.00
 106   1    -0.01  -0.01   0.06    -0.01  -0.02  -0.00     0.02   0.02   0.01
 107   1    -0.01  -0.02   0.02    -0.00  -0.03  -0.04     0.01   0.03   0.03
 108   1     0.00  -0.02   0.01     0.01  -0.03  -0.03    -0.00   0.03   0.03
 109   1     0.01  -0.02  -0.01     0.02  -0.01   0.00    -0.01   0.01  -0.01
 110   1     0.01  -0.01  -0.02     0.02   0.00   0.03    -0.01   0.00  -0.03
 111   1    -0.01   0.01  -0.02     0.06   0.02   0.03    -0.03   0.00  -0.01
 112   1    -0.01   0.01  -0.00     0.06   0.02   0.04    -0.00   0.01   0.01
 113   1    -0.02   0.05  -0.05     0.02  -0.05   0.09    -0.03   0.01  -0.04
 114   1    -0.03   0.07  -0.05    -0.00  -0.06   0.03    -0.06   0.02  -0.09
                     13                     14                     15
                        a                      a                      a 
 Frequencies --    52.7432                55.8630                60.3716
 Red. masses --    10.6633                10.5960                10.5150
 Frc consts  --     0.0000                 0.0000                 0.0000
 IR Inten    --     1.9547                 2.9319                 4.5934
 Raman Activ --     0.0000                 0.0000                 0.0000
 Depolar     --     0.0000                 0.0000                 0.0000
 Atom AN      X      Y      Z        X      Y      Z        X      Y      Z
   1   6    -0.00   0.07   0.16     0.08  -0.14   0.07    -0.02   0.17   0.09
   2   6    -0.07   0.07   0.11     0.13  -0.15   0.12    -0.09   0.13   0.07
   3   6    -0.10   0.05   0.04     0.07  -0.09   0.06    -0.08   0.05   0.03
   4   6    -0.06   0.05   0.01    -0.02  -0.02  -0.04     0.01   0.03   0.00
   5   6    -0.08   0.03  -0.05    -0.04   0.00  -0.05     0.01  -0.02  -0.05
   6   7    -0.06   0.03  -0.06    -0.05  -0.00  -0.09    -0.00  -0.02  -0.08
   7   6    -0.06   0.01  -0.06    -0.03  -0.00  -0.06    -0.01  -0.02  -0.08
   8   6    -0.02   0.00  -0.03    -0.00  -0.01  -0.04    -0.02  -0.01  -0.05
   9   6     0.01   0.02  -0.01     0.01  -0.00  -0.06    -0.04  -0.02  -0.04
  10   6     0.05   0.02   0.04     0.05  -0.00  -0.00    -0.04   0.00   0.03
  11   6     0.06  -0.00   0.06     0.08  -0.01   0.06    -0.02   0.04   0.10
  12   6     0.03  -0.02   0.04     0.06  -0.02   0.07     0.00   0.05   0.08
  13   6    -0.01  -0.02  -0.00     0.01  -0.02   0.01    -0.00   0.03   0.00
  14   6    -0.04  -0.04  -0.01    -0.00  -0.04  -0.00     0.01   0.03  -0.01
  15   6    -0.03  -0.06   0.02    -0.01  -0.07  -0.03     0.01   0.06   0.02
  16   6    -0.05  -0.07   0.04    -0.03  -0.08  -0.03     0.03   0.07   0.01
  17   6    -0.07  -0.06   0.05    -0.04  -0.06   0.00     0.04   0.05  -0.03
  18   6    -0.08  -0.04   0.01    -0.04  -0.03   0.02     0.03   0.03  -0.05
  19   6    -0.07  -0.03  -0.02    -0.02  -0.02   0.01     0.01   0.02  -0.04
  20   6    -0.07  -0.00  -0.06    -0.02  -0.00  -0.00     0.01  -0.01  -0.06
  21   7    -0.10   0.01  -0.07    -0.02   0.01   0.00     0.01  -0.02  -0.05
  22   6    -0.08   0.01  -0.07    -0.00   0.01   0.03     0.00  -0.02  -0.01
  23   6    -0.08  -0.00  -0.08     0.07   0.03   0.07    -0.11  -0.01  -0.02
  24   6    -0.01   0.01  -0.08     0.08   0.03   0.08    -0.12  -0.01   0.02
  25   6     0.06   0.03  -0.07     0.01   0.02   0.07    -0.01  -0.04   0.07
  26   7     0.08   0.03  -0.07     0.00   0.02   0.09     0.01  -0.04   0.11
  27   6     0.06   0.06  -0.03     0.00   0.02   0.06     0.01  -0.08  -0.01
  28   6     0.06   0.08   0.01     0.00   0.01  -0.01     0.01  -0.10  -0.05
  29   6     0.04   0.06  -0.01     0.03   0.01  -0.03     0.02  -0.03   0.05
  30   6     0.03   0.04   0.01     0.04   0.02  -0.08     0.02  -0.01   0.04
  31   6     0.06   0.05   0.05     0.01   0.04  -0.11     0.01  -0.07  -0.07
  32   6     0.05  -0.01   0.02     0.02   0.07  -0.10     0.01  -0.04  -0.04
  33   6     0.01  -0.17  -0.09     0.02   0.10  -0.07     0.02  -0.02  -0.02
  34   6     0.01  -0.20  -0.12     0.02   0.13  -0.04     0.03   0.01   0.00
  35   6     0.03  -0.07  -0.04     0.03   0.14  -0.03     0.03   0.03   0.02
  36   7     0.05  -0.06  -0.03     0.04   0.17  -0.01     0.04   0.03   0.02
  37   6     0.03  -0.05  -0.03     0.01   0.07  -0.01    -0.01   0.01   0.00
  38   6    -0.01  -0.02  -0.03     0.01  -0.09   0.10    -0.09   0.10  -0.00
  39   6    -0.04  -0.01  -0.05    -0.01  -0.22   0.11    -0.17   0.13  -0.05
  40   6    -0.04  -0.03  -0.07    -0.04  -0.16   0.02    -0.16   0.07  -0.10
  41   6     0.00  -0.06  -0.08    -0.04   0.02  -0.09    -0.06  -0.04  -0.09
  42   6     0.03  -0.07  -0.06    -0.02   0.13  -0.10     0.01  -0.07  -0.04
  43   6     0.01  -0.01  -0.01     0.01   0.08  -0.00     0.02   0.03   0.03
  44   6    -0.18  -0.09   0.01    -0.10  -0.06   0.09    -0.02   0.02   0.02
  45   6    -0.25  -0.05   0.05    -0.19  -0.19   0.13    -0.08   0.00   0.06
  46   6    -0.11   0.08   0.07    -0.14  -0.16   0.07    -0.11  -0.01   0.09
  47   6     0.08   0.17   0.05    -0.01   0.01  -0.04    -0.06   0.00   0.09
  48   6     0.14   0.12   0.01     0.06   0.12  -0.07     0.00   0.02   0.06
  49   6     0.06   0.05   0.05     0.04   0.10  -0.06     0.04   0.04   0.02
  50   6     0.07   0.08   0.08     0.03   0.08  -0.09     0.03  -0.01  -0.01
  51   6     0.08   0.10   0.11    -0.02   0.02  -0.11    -0.01  -0.16  -0.19
  52   6     0.08   0.11   0.09    -0.02   0.01  -0.06    -0.01  -0.17  -0.19
  53   7     0.04   0.06  -0.01     0.00   0.02   0.09     0.03  -0.09  -0.08
  54   6     0.03   0.02  -0.03     0.01   0.02   0.10     0.03  -0.06  -0.03
  55   6     0.00  -0.00  -0.02     0.01   0.03   0.07     0.05  -0.05  -0.03
  56   6    -0.04   0.01  -0.04     0.03   0.03   0.11     0.07  -0.05   0.00
  57   6    -0.07  -0.01  -0.03     0.04   0.02   0.03     0.09  -0.02   0.07
  58   6    -0.06  -0.05   0.00     0.03   0.01  -0.09     0.09   0.01   0.12
  59   6    -0.02  -0.06   0.02     0.01   0.01  -0.11     0.07   0.01   0.07
  60   6     0.01  -0.03   0.02     0.01   0.02  -0.02     0.04  -0.02  -0.02
  61   6     0.04  -0.04   0.03     0.00   0.02  -0.02     0.02  -0.03  -0.06
  62   6     0.05  -0.06   0.11    -0.00   0.02  -0.08     0.01  -0.04  -0.23
  63   6     0.09  -0.07   0.11    -0.01   0.03  -0.07     0.00  -0.03  -0.18
  64   6     0.11  -0.07   0.01    -0.02   0.04   0.02    -0.00   0.01   0.07
  65   6     0.10  -0.05  -0.06    -0.01   0.04   0.08     0.01   0.02   0.19
  66   6     0.07  -0.03  -0.04    -0.00   0.03   0.06     0.01  -0.01   0.08
  67   6     0.06   0.01  -0.06     0.00   0.02   0.09     0.02  -0.03   0.07
  68   6     0.05   0.04  -0.06    -0.05  -0.01   0.04     0.10  -0.06   0.08
  69   6    -0.02   0.03  -0.06    -0.05  -0.01   0.03     0.10  -0.05   0.04
  70   6     0.01   0.06   0.06    -0.07  -0.00  -0.09     0.09   0.07   0.03
  71   6     0.04   0.06   0.14    -0.03  -0.06  -0.04     0.08   0.15   0.07
  72   1     0.01   0.02   0.06     0.04  -0.05   0.04    -0.01   0.07   0.04
  73   1    -0.03   0.02   0.04     0.06  -0.06   0.06    -0.05   0.04   0.02
  74   1    -0.04   0.01   0.00     0.03  -0.03   0.03    -0.04   0.00   0.01
  75   1     0.00   0.01  -0.01    -0.00   0.00  -0.03    -0.02  -0.01  -0.02
  76   1     0.02   0.01   0.02     0.02   0.00  -0.00    -0.02  -0.00   0.01
  77   1     0.03  -0.00   0.03     0.03  -0.00   0.03    -0.00   0.02   0.05
  78   1     0.01  -0.01   0.02     0.02  -0.01   0.04     0.01   0.02   0.04
  79   1    -0.00  -0.02   0.01     0.00  -0.02  -0.02     0.00   0.02   0.01
  80   1    -0.01  -0.03   0.02    -0.01  -0.03  -0.02     0.01   0.03   0.01
  81   1    -0.03  -0.02   0.02    -0.02  -0.02   0.00     0.01   0.02  -0.01
  82   1    -0.03  -0.01   0.00    -0.01  -0.01   0.01     0.01   0.00  -0.02
  83   1    -0.04  -0.01  -0.03     0.04   0.02   0.02    -0.05   0.00  -0.01
  84   1    -0.00  -0.00  -0.03     0.04   0.01   0.03    -0.06   0.00   0.01
  85   1     0.01   0.01  -0.01     0.02   0.00  -0.00     0.01   0.01   0.04
  86   1     0.00   0.01   0.00     0.02   0.01  -0.03     0.01   0.01   0.04
  87   1     0.00  -0.08  -0.05     0.00   0.03  -0.02     0.01  -0.01  -0.01
  88   1    -0.00  -0.09  -0.06     0.00   0.04  -0.01     0.01   0.00   0.00
  89   1    -0.00   0.00  -0.00     0.01  -0.04   0.05    -0.03   0.04   0.01
  90   1    -0.02   0.01  -0.01    -0.00  -0.10   0.06    -0.07   0.06  -0.02
  91   1    -0.02  -0.01  -0.03    -0.02  -0.08   0.01    -0.06   0.03  -0.04
  92   1     0.00  -0.02  -0.03    -0.02   0.02  -0.05    -0.01  -0.03  -0.03
  93   1     0.02  -0.02  -0.02    -0.01   0.07  -0.05     0.03  -0.04  -0.01
  94   1    -0.08  -0.05   0.00    -0.04  -0.02   0.04    -0.00   0.01  -0.00
  95   1    -0.12  -0.04   0.02    -0.08  -0.09   0.06    -0.03  -0.00   0.02
  96   1    -0.05   0.03   0.03    -0.06  -0.08   0.03    -0.05  -0.01   0.03
  97   1     0.05   0.08   0.02     0.01   0.01  -0.03    -0.02  -0.00   0.03
  98   1     0.08   0.05   0.00     0.05   0.07  -0.04     0.01   0.01   0.02
  99   1     0.02   0.04   0.03     0.01   0.03  -0.02     0.01   0.02   0.01
 100   1     0.03   0.06   0.04     0.01   0.01  -0.03     0.01  -0.00  -0.01
 101   1     0.03   0.03   0.05    -0.01   0.00  -0.04    -0.01  -0.06  -0.08
 102   1     0.03   0.04   0.04    -0.01   0.00  -0.02    -0.01  -0.07  -0.08
 103   1    -0.01   0.01  -0.02     0.01   0.01   0.05     0.02  -0.02  -0.01
 104   1    -0.03  -0.00  -0.01     0.01   0.01   0.02     0.03  -0.01   0.03
 105   1    -0.02  -0.02   0.00     0.01  -0.00  -0.05     0.03   0.01   0.06
 106   1    -0.01  -0.02   0.01     0.00  -0.00  -0.06     0.02   0.01   0.04
 107   1     0.01  -0.02   0.05     0.00   0.00  -0.04     0.01  -0.02  -0.12
 108   1     0.03  -0.03   0.05    -0.00   0.01  -0.04    -0.00  -0.01  -0.09
 109   1     0.04  -0.02  -0.00    -0.01   0.01   0.01    -0.00   0.01   0.05
 110   1     0.03  -0.01  -0.04    -0.01   0.01   0.04     0.00   0.01   0.10
 111   1     0.03   0.02  -0.02    -0.02  -0.01   0.01     0.05  -0.02   0.03
 112   1    -0.01   0.01  -0.02    -0.03  -0.01   0.00     0.05  -0.02   0.01
 113   1     0.01   0.02   0.01    -0.04   0.01  -0.05     0.04   0.02   0.00
 114   1     0.03   0.02   0.05    -0.02  -0.01  -0.02     0.04   0.05   0.03
                     16                     17                     18
                        a                      a                      a 
 Frequencies --    64.9714                69.6630                70.4584
 Red. masses --    10.7126                10.4114                10.3962
 Frc consts  --     0.0000                 0.0000                 0.0000
 IR Inten    --     3.2069                 0.0650                 1.8735
 Raman Activ --     0.0000                 0.0000                 0.0000
 Depolar     --     0.0000                 0.0000                 0.0000
 Atom AN      X      Y      Z        X      Y      Z        X      Y      Z
   1   6     0.10  -0.24   0.01    -0.00  -0.05  -0.05     0.03  -0.04  -0.01
   2   6     0.16  -0.18   0.01    -0.03  -0.01  -0.09     0.04  -0.03  -0.02
   3   6     0.08  -0.06  -0.04    -0.03  -0.00  -0.08     0.02  -0.01  -0.03
   4   6    -0.05   0.00  -0.07    -0.01  -0.02  -0.04     0.01  -0.00  -0.03
   5   6    -0.06   0.06  -0.05    -0.01  -0.02  -0.03     0.00   0.00  -0.03
   6   7    -0.08   0.05  -0.12    -0.02  -0.02  -0.05    -0.01   0.00  -0.07
   7   6    -0.04   0.04  -0.05    -0.01  -0.01  -0.03    -0.00   0.00  -0.04
   8   6    -0.00   0.03  -0.05    -0.01  -0.01  -0.02    -0.00   0.00  -0.04
   9   6     0.04   0.05  -0.06    -0.01  -0.01  -0.01    -0.02  -0.00  -0.06
  10   6     0.10   0.05  -0.00     0.00  -0.01   0.02    -0.00   0.01  -0.02
  11   6     0.12   0.02   0.06     0.01  -0.00   0.05     0.02   0.02   0.05
  12   6     0.08  -0.01   0.05     0.01  -0.00   0.03     0.03   0.03   0.06
  13   6     0.01  -0.01  -0.02    -0.01  -0.01  -0.01     0.01   0.02   0.00
  14   6    -0.02  -0.03  -0.03    -0.01  -0.01  -0.02     0.01   0.01  -0.00
  15   6    -0.05  -0.10  -0.15    -0.02  -0.02  -0.06     0.00   0.01  -0.05
  16   6    -0.07  -0.11  -0.11    -0.01  -0.02  -0.03     0.00   0.01  -0.05
  17   6    -0.06  -0.05   0.07     0.00  -0.00   0.03     0.02   0.02  -0.01
  18   6    -0.04   0.00   0.15     0.01   0.00   0.05     0.02   0.02   0.02
  19   6    -0.03   0.01   0.07     0.00  -0.01   0.01     0.02   0.02   0.01
  20   6    -0.03   0.04   0.05    -0.00  -0.01  -0.00     0.02   0.01   0.01
  21   7    -0.04   0.06   0.05    -0.00  -0.01  -0.00     0.02   0.01   0.03
  22   6    -0.01   0.06   0.07     0.01  -0.01   0.01     0.02   0.01   0.06
  23   6     0.01   0.06   0.07    -0.04  -0.01   0.00    -0.03   0.02   0.06
  24   6     0.03   0.06   0.07    -0.02  -0.01   0.01    -0.06   0.01   0.07
  25   6     0.04   0.07   0.07     0.04  -0.00   0.03    -0.05  -0.01   0.08
  26   7     0.04   0.08   0.05     0.05  -0.00   0.03    -0.06  -0.00   0.09
  27   6     0.02   0.07  -0.02     0.05  -0.00   0.01    -0.04  -0.03  -0.00
  28   6     0.02   0.06  -0.04     0.04   0.04   0.08    -0.05  -0.01   0.05
  29   6    -0.00   0.06  -0.02     0.03   0.04   0.09    -0.03  -0.01   0.05
  30   6    -0.01   0.02  -0.04     0.03   0.06   0.12    -0.03  -0.00   0.05
  31   6     0.01  -0.02  -0.06     0.02   0.08   0.13    -0.03   0.02   0.08
  32   6     0.00  -0.04  -0.03     0.02   0.05   0.09    -0.02   0.02   0.05
  33   6    -0.03  -0.04  -0.00     0.04   0.14   0.13    -0.01  -0.08  -0.04
  34   6    -0.04  -0.06   0.03     0.04   0.10   0.07    -0.00  -0.07  -0.07
  35   6    -0.01  -0.09   0.05    -0.02  -0.01  -0.03    -0.01   0.04  -0.02
  36   7    -0.02  -0.15   0.06    -0.02   0.00  -0.05     0.01   0.08  -0.04
  37   6    -0.03  -0.08   0.05    -0.02  -0.01  -0.05     0.02   0.06  -0.02
  38   6    -0.06   0.05  -0.01     0.03  -0.16   0.02     0.04   0.07  -0.04
  39   6    -0.10   0.19  -0.06     0.02  -0.13   0.01     0.11  -0.06   0.03
  40   6    -0.10   0.18  -0.05    -0.05   0.08  -0.07     0.16  -0.19   0.10
  41   6    -0.05   0.02   0.02    -0.10   0.21  -0.13     0.12  -0.15   0.10
  42   6    -0.01  -0.11   0.07    -0.08   0.16  -0.11     0.05  -0.02   0.03
  43   6    -0.01  -0.08   0.05    -0.04   0.03  -0.04     0.01   0.02  -0.04
  44   6     0.03   0.00  -0.00    -0.02   0.09  -0.08    -0.04  -0.07   0.03
  45   6     0.09   0.10  -0.02    -0.12   0.05  -0.03    -0.01  -0.09   0.00
  46   6     0.09   0.11   0.01    -0.25  -0.06   0.07     0.09  -0.01  -0.08
  47   6     0.03   0.02   0.08    -0.23  -0.09   0.09     0.13   0.07  -0.14
  48   6    -0.02  -0.08   0.10    -0.12  -0.04   0.04     0.09   0.08  -0.11
  49   6     0.03  -0.07   0.04    -0.06  -0.12  -0.10    -0.02   0.12   0.05
  50   6     0.04  -0.05   0.00    -0.05  -0.08  -0.04    -0.02   0.10   0.09
  51   6     0.03  -0.03  -0.10     0.04   0.10   0.16    -0.04   0.04   0.12
  52   6     0.03   0.00  -0.10     0.04   0.08   0.14    -0.04   0.02   0.10
  53   7     0.00   0.06  -0.07     0.04  -0.02  -0.08    -0.05  -0.06  -0.15
  54   6     0.00   0.04  -0.03     0.04  -0.02  -0.09    -0.04  -0.04  -0.13
  55   6    -0.02   0.03  -0.04     0.04  -0.03  -0.10    -0.03  -0.04  -0.16
  56   6    -0.06   0.03  -0.06     0.04  -0.05  -0.19    -0.03  -0.07  -0.30
  57   6    -0.08   0.02  -0.03     0.04  -0.03  -0.10    -0.01  -0.03  -0.15
  58   6    -0.07   0.01   0.05     0.06   0.02   0.12     0.01   0.06   0.20
  59   6    -0.04  -0.00   0.07     0.06   0.03   0.17     0.00   0.08   0.28
  60   6    -0.02   0.01   0.00     0.05  -0.00   0.03    -0.02   0.02   0.03
  61   6     0.01  -0.01  -0.01     0.05  -0.00   0.01    -0.04   0.02   0.00
  62   6     0.01  -0.05  -0.08     0.05  -0.01  -0.01    -0.05   0.02  -0.11
  63   6     0.04  -0.06  -0.08     0.05  -0.02  -0.03    -0.06   0.02  -0.13
  64   6     0.06  -0.02   0.01     0.06  -0.02  -0.03    -0.07   0.03  -0.02
  65   6     0.06   0.02   0.07     0.06  -0.01  -0.02    -0.07   0.03   0.06
  66   6     0.03   0.02   0.04     0.05  -0.01  -0.01    -0.05   0.01   0.03
  67   6     0.02   0.05   0.04     0.05  -0.01  -0.03    -0.05  -0.01   0.01
  68   6     0.04   0.07   0.07     0.09  -0.00   0.04    -0.01  -0.02   0.08
  69   6     0.01   0.07   0.07     0.07  -0.00   0.03     0.02  -0.01   0.07
  70   6    -0.11  -0.05  -0.09     0.01  -0.06   0.01    -0.00  -0.01  -0.03
  71   6    -0.04  -0.17  -0.05     0.02  -0.07   0.00     0.01  -0.03  -0.02
  72   1     0.05  -0.10   0.02    -0.00  -0.02  -0.02     0.01  -0.02  -0.00
  73   1     0.08  -0.07   0.01    -0.01   0.00  -0.04     0.02  -0.01  -0.00
  74   1     0.03  -0.00  -0.01    -0.01   0.01  -0.03     0.01  -0.00  -0.01
  75   1     0.01   0.02  -0.03    -0.00  -0.00  -0.01    -0.01  -0.00  -0.03
  76   1     0.04   0.02   0.00     0.00  -0.00   0.01    -0.00   0.00  -0.01
  77   1     0.05   0.00   0.04     0.01   0.00   0.02     0.01   0.01   0.03
  78   1     0.03  -0.01   0.03     0.00   0.00   0.01     0.01   0.01   0.03
  79   1    -0.01  -0.04  -0.08    -0.01  -0.01  -0.03    -0.00   0.00  -0.02
  80   1    -0.03  -0.05  -0.06    -0.01  -0.01  -0.02    -0.00   0.00  -0.03
  81   1    -0.02  -0.02   0.04     0.00   0.00   0.02     0.01   0.01  -0.00
  82   1    -0.01   0.01   0.08     0.01   0.00   0.03     0.01   0.01   0.01
  83   1     0.00   0.02   0.02    -0.02  -0.00  -0.00    -0.01   0.01   0.01
  84   1     0.01   0.02   0.02    -0.01  -0.00  -0.00    -0.03   0.01   0.02
  85   1    -0.00   0.03   0.00     0.01   0.01   0.02    -0.01  -0.01   0.01
  86   1    -0.01   0.01  -0.01     0.01   0.01   0.03    -0.01  -0.00   0.01
  87   1    -0.02  -0.00  -0.00     0.02   0.07   0.06    -0.00  -0.05  -0.02
  88   1    -0.02  -0.02   0.01     0.02   0.05   0.03     0.00  -0.04  -0.04
  89   1    -0.02   0.02  -0.01     0.02  -0.09   0.02     0.00   0.04  -0.03
  90   1    -0.04   0.09  -0.03     0.02  -0.07   0.02     0.04  -0.02   0.01
  91   1    -0.04   0.09  -0.03    -0.02   0.03  -0.03     0.06  -0.09   0.05
  92   1    -0.01   0.00   0.01    -0.04   0.10  -0.05     0.04  -0.07   0.04
  93   1     0.01  -0.06   0.03    -0.04   0.07  -0.04     0.01  -0.00   0.01
  94   1     0.01  -0.00  -0.01     0.02   0.05  -0.04    -0.03  -0.03   0.03
  95   1     0.04   0.05  -0.02    -0.03   0.02  -0.02    -0.01  -0.05   0.01
  96   1     0.04   0.05  -0.00    -0.10  -0.03   0.03     0.04  -0.00  -0.03
  97   1     0.01   0.01   0.03    -0.09  -0.05   0.05     0.06   0.04  -0.06
  98   1    -0.02  -0.04   0.04    -0.03  -0.02   0.02     0.03   0.04  -0.04
  99   1     0.02  -0.02   0.02    -0.03  -0.07  -0.05    -0.01   0.05   0.02
 100   1     0.02  -0.01  -0.00    -0.03  -0.05  -0.02    -0.01   0.05   0.04
 101   1     0.01  -0.02  -0.04     0.01   0.03   0.06    -0.01   0.02   0.05
 102   1     0.02  -0.00  -0.04     0.01   0.03   0.05    -0.01   0.01   0.03
 103   1    -0.02   0.01  -0.03     0.01  -0.02  -0.09    -0.01  -0.04  -0.14
 104   1    -0.03   0.01  -0.01     0.01  -0.01  -0.05    -0.00  -0.02  -0.07
 105   1    -0.02   0.00   0.03     0.02   0.01   0.07     0.01   0.03   0.12
 106   1    -0.01  -0.00   0.04     0.02   0.02   0.10     0.01   0.04   0.16
 107   1    -0.00  -0.02  -0.05     0.01  -0.00  -0.01    -0.01   0.00  -0.06
 108   1     0.01  -0.03  -0.04     0.02  -0.01  -0.02    -0.02   0.00  -0.07
 109   1     0.02  -0.01   0.01     0.02  -0.01  -0.01    -0.02   0.01  -0.00
 110   1     0.02   0.01   0.04     0.02  -0.00  -0.01    -0.02   0.01   0.03
 111   1     0.01   0.02   0.02     0.04   0.00   0.01    -0.00  -0.01   0.03
 112   1     0.00   0.02   0.02     0.03  -0.00   0.01     0.02  -0.01   0.02
 113   1    -0.06   0.00  -0.03     0.01  -0.02   0.01    -0.00  -0.00  -0.01
 114   1    -0.03  -0.06  -0.02     0.01  -0.03   0.01     0.00  -0.01  -0.01
                     19                     20                     21
                        a                      a                      a 
 Frequencies --    77.8786                80.8398                86.2452
 Red. masses --    10.3854                10.1877                10.2161
 Frc consts  --     0.0000                 0.0000                 0.0000
 IR Inten    --     0.1720                15.7309                 3.0064
 Raman Activ --     0.0000                 0.0000                 0.0000
 Depolar     --     0.0000                 0.0000                 0.0000
 Atom AN      X      Y      Z        X      Y      Z        X      Y      Z
   1   6    -0.02   0.01  -0.05     0.03   0.05   0.06    -0.07   0.07  -0.07
   2   6    -0.04   0.06  -0.10    -0.00   0.01   0.07    -0.09   0.09  -0.10
   3   6    -0.03   0.07  -0.06    -0.01  -0.02   0.03    -0.03   0.04  -0.02
   4   6    -0.01   0.04   0.01     0.01  -0.01  -0.02     0.02  -0.01   0.06
   5   6    -0.01   0.04   0.01     0.02  -0.03  -0.05     0.02  -0.02   0.05
   6   7    -0.01   0.05   0.01    -0.04  -0.04  -0.17    -0.02  -0.03  -0.06
   7   6    -0.01   0.04  -0.01    -0.02  -0.03  -0.11    -0.01  -0.03  -0.04
   8   6    -0.00   0.03  -0.01    -0.03  -0.02  -0.10    -0.04  -0.04  -0.09
   9   6     0.00   0.04  -0.03    -0.04  -0.03  -0.07    -0.15  -0.09  -0.36
  10   6     0.01   0.03  -0.04    -0.02   0.00   0.07    -0.14  -0.08  -0.29
  11   6     0.02   0.02  -0.02     0.02   0.05   0.18     0.02   0.01   0.12
  12   6     0.01   0.02   0.00     0.02   0.05   0.11     0.11   0.05   0.34
  13   6     0.00   0.02   0.01    -0.01   0.01  -0.05     0.05   0.01   0.16
  14   6    -0.01   0.02   0.01    -0.01   0.01  -0.08     0.05   0.01   0.14
  15   6     0.01   0.02   0.06    -0.06  -0.02  -0.27     0.03  -0.01   0.06
  16   6    -0.01   0.00   0.04    -0.01   0.02  -0.16    -0.02  -0.05  -0.14
  17   6    -0.04  -0.01  -0.04     0.09   0.09   0.17    -0.03  -0.07  -0.23
  18   6    -0.05  -0.00  -0.08     0.11   0.09   0.26     0.00  -0.04  -0.10
  19   6    -0.03   0.01  -0.03     0.05   0.03   0.09     0.03  -0.01   0.07
  20   6    -0.03   0.03  -0.02     0.04  -0.00   0.04     0.03  -0.02   0.08
  21   7    -0.03   0.04  -0.02     0.07  -0.01   0.09     0.05  -0.01   0.15
  22   6    -0.03   0.03   0.02     0.07  -0.01   0.07     0.03  -0.01   0.12
  23   6     0.08   0.06   0.06    -0.14  -0.07  -0.01     0.07  -0.04   0.11
  24   6     0.11   0.06   0.10    -0.19  -0.07  -0.06     0.07  -0.04   0.06
  25   6     0.01   0.02   0.09    -0.04  -0.03  -0.03     0.01  -0.00   0.03
  26   7     0.01   0.02   0.12    -0.04  -0.03  -0.07     0.01   0.00  -0.03
  27   6     0.01   0.01   0.11    -0.02  -0.03   0.02     0.00   0.01  -0.03
  28   6     0.01  -0.03   0.06    -0.03  -0.05   0.00     0.01   0.02  -0.04
  29   6     0.01  -0.01   0.09    -0.02  -0.05  -0.00     0.02   0.01  -0.07
  30   6     0.01  -0.05   0.02    -0.02  -0.04   0.00     0.02   0.03  -0.06
  31   6     0.01  -0.11  -0.07    -0.02  -0.05  -0.01     0.01   0.07  -0.02
  32   6     0.01  -0.08  -0.07    -0.02  -0.03  -0.01     0.01   0.06  -0.00
  33   6     0.03  -0.03  -0.03    -0.01  -0.03  -0.01    -0.02   0.04  -0.00
  34   6     0.05   0.04   0.01    -0.00   0.01  -0.00    -0.03  -0.01  -0.01
  35   6     0.05   0.06   0.02    -0.01   0.03   0.00    -0.01  -0.04  -0.01
  36   7     0.07   0.09   0.02    -0.00   0.05   0.00    -0.03  -0.09   0.01
  37   6     0.03   0.04   0.01    -0.01   0.03   0.00    -0.01  -0.05   0.01
  38   6    -0.03   0.08   0.03    -0.01   0.02   0.01     0.01  -0.05  -0.01
  39   6    -0.09   0.06   0.00     0.00  -0.01   0.02     0.02  -0.00  -0.01
  40   6    -0.07  -0.00  -0.04     0.01  -0.04   0.03     0.01   0.04  -0.00
  41   6    -0.01  -0.05  -0.05     0.01  -0.02   0.02    -0.01   0.03   0.02
  42   6     0.05  -0.02  -0.03    -0.00   0.02   0.00    -0.02  -0.02   0.02
  43   6     0.05   0.05   0.02    -0.00   0.03  -0.00    -0.02  -0.05   0.01
  44   6     0.06   0.04   0.04     0.02   0.02   0.01    -0.03  -0.03  -0.01
  45   6     0.02  -0.02   0.05     0.03  -0.00   0.00    -0.01   0.01  -0.02
  46   6    -0.02  -0.06   0.05     0.01  -0.02  -0.01     0.02   0.05  -0.01
  47   6    -0.02  -0.04   0.04    -0.01  -0.02  -0.02     0.02   0.02   0.01
  48   6     0.02   0.02   0.02    -0.02   0.01  -0.02    -0.00  -0.03   0.02
  49   6     0.03   0.01  -0.01    -0.02   0.02   0.00     0.02  -0.01   0.00
  50   6     0.01  -0.07  -0.06    -0.03  -0.01  -0.00     0.03   0.05   0.01
  51   6    -0.00  -0.15  -0.13    -0.03  -0.05  -0.02     0.01   0.08   0.00
  52   6     0.00  -0.10  -0.07    -0.03  -0.05  -0.01     0.00   0.05  -0.00
  53   7     0.01   0.01   0.11    -0.00  -0.00   0.09    -0.00   0.01  -0.01
  54   6     0.01   0.01   0.09    -0.01   0.00   0.04     0.00   0.01   0.00
  55   6    -0.00  -0.01   0.03     0.00   0.01   0.05     0.00   0.01   0.01
  56   6    -0.02  -0.05  -0.19     0.01   0.01   0.06     0.01   0.02   0.05
  57   6    -0.03  -0.08  -0.28     0.02   0.00  -0.01     0.01   0.01   0.03
  58   6    -0.02  -0.04  -0.08     0.01  -0.00  -0.10     0.00   0.00  -0.03
  59   6     0.00  -0.00   0.13     0.00   0.01  -0.08     0.00  -0.00  -0.05
  60   6     0.01   0.01   0.15    -0.00   0.02   0.02     0.00   0.00  -0.01
  61   6     0.01   0.01   0.17    -0.01   0.03   0.04     0.00   0.00  -0.01
  62   6     0.01   0.01   0.22    -0.01   0.06   0.21     0.00   0.01   0.01
  63   6     0.01  -0.03  -0.01    -0.01   0.04   0.12     0.00   0.01   0.02
  64   6     0.00  -0.09  -0.31    -0.03  -0.02  -0.16     0.00   0.01  -0.01
  65   6     0.00  -0.07  -0.27    -0.03  -0.04  -0.24    -0.00   0.00  -0.03
  66   6     0.01  -0.02   0.01    -0.03  -0.01  -0.10     0.00   0.00  -0.02
  67   6     0.01   0.01   0.09    -0.03  -0.01  -0.06     0.01   0.00  -0.01
  68   6    -0.11  -0.01   0.04     0.15   0.02   0.05    -0.05   0.02   0.03
  69   6    -0.13  -0.01   0.00     0.22   0.03   0.10    -0.04   0.02   0.08
  70   6     0.02  -0.01   0.06     0.04   0.03  -0.04     0.06  -0.04   0.11
  71   6     0.01  -0.03   0.04     0.04   0.07   0.00     0.01   0.00   0.05
  72   1    -0.01   0.00  -0.02     0.01   0.02   0.03    -0.04   0.03  -0.04
  73   1    -0.02   0.03  -0.04    -0.01   0.00   0.03    -0.04   0.04  -0.05
  74   1    -0.01   0.03  -0.03    -0.01  -0.02   0.01    -0.01   0.02  -0.01
  75   1    -0.00   0.01  -0.01    -0.02  -0.02  -0.04    -0.07  -0.04  -0.18
  76   1     0.00   0.01  -0.02    -0.01  -0.00   0.03    -0.07  -0.03  -0.15
  77   1     0.01   0.00  -0.01     0.02   0.02   0.09     0.02   0.01   0.07
  78   1     0.01   0.00   0.00     0.02   0.03   0.06     0.06   0.04   0.19
  79   1     0.01   0.01   0.04    -0.04  -0.02  -0.15     0.01  -0.00   0.03
  80   1     0.00   0.00   0.02    -0.02  -0.00  -0.09    -0.01  -0.02  -0.07
  81   1    -0.02  -0.01  -0.02     0.04   0.04   0.09    -0.02  -0.03  -0.12
  82   1    -0.02  -0.00  -0.04     0.05   0.04   0.13    -0.00  -0.02  -0.05
  83   1     0.04   0.03   0.02    -0.08  -0.03  -0.01     0.03  -0.02   0.04
  84   1     0.06   0.03   0.04    -0.10  -0.03  -0.03     0.03  -0.02   0.01
  85   1     0.00   0.01   0.05    -0.01  -0.01   0.00     0.01  -0.00  -0.03
  86   1     0.00  -0.01   0.01    -0.01  -0.01   0.00     0.01   0.00  -0.02
  87   1     0.01  -0.01  -0.01    -0.00  -0.01  -0.00    -0.01   0.02  -0.00
  88   1     0.02   0.02   0.01     0.00   0.00  -0.00    -0.01  -0.01  -0.00
  89   1    -0.01   0.03   0.02    -0.00   0.01   0.00     0.00  -0.02  -0.01
  90   1    -0.04   0.03   0.00     0.00  -0.01   0.01     0.01   0.00  -0.01
  91   1    -0.03  -0.01  -0.02     0.00  -0.02   0.01     0.00   0.03  -0.00
  92   1     0.00  -0.03  -0.02     0.00  -0.01   0.00    -0.01   0.02   0.01
  93   1     0.03  -0.02  -0.01    -0.00   0.01  -0.00    -0.01  -0.01   0.01
  94   1     0.02   0.02   0.01     0.01   0.01   0.01    -0.01  -0.02  -0.01
  95   1     0.01  -0.01   0.02     0.01  -0.00   0.00    -0.00   0.01  -0.01
  96   1    -0.02  -0.03   0.02     0.00  -0.01  -0.01     0.01   0.03  -0.00
  97   1    -0.01  -0.02   0.01    -0.01  -0.01  -0.01     0.01   0.01   0.01
  98   1     0.01   0.01   0.00    -0.01   0.00  -0.01     0.00  -0.01   0.01
  99   1     0.01   0.01  -0.00    -0.01   0.01   0.00     0.01  -0.01   0.00
 100   1     0.00  -0.03  -0.03    -0.01  -0.01  -0.00     0.02   0.02   0.00
 101   1    -0.00  -0.06  -0.07    -0.01  -0.02  -0.01     0.00   0.03   0.01
 102   1     0.00  -0.04  -0.03    -0.01  -0.01  -0.00    -0.00   0.02   0.00
 103   1    -0.01  -0.02  -0.09     0.01   0.00   0.03     0.00   0.01   0.02
 104   1    -0.01  -0.03  -0.14     0.01   0.00  -0.00     0.00   0.01   0.02
 105   1    -0.01  -0.01  -0.03     0.00  -0.00  -0.05     0.00  -0.00  -0.02
 106   1     0.00   0.01   0.08    -0.00  -0.00  -0.05    -0.00  -0.00  -0.03
 107   1     0.00   0.02   0.12    -0.00   0.03   0.12     0.00   0.00   0.01
 108   1     0.00  -0.01   0.01    -0.00   0.02   0.07     0.00   0.01   0.01
 109   1     0.00  -0.04  -0.16    -0.01  -0.01  -0.08     0.00   0.00  -0.00
 110   1     0.00  -0.03  -0.14    -0.01  -0.02  -0.12    -0.00  -0.00  -0.01
 111   1    -0.06  -0.01   0.01     0.07   0.02   0.02    -0.03   0.01   0.00
 112   1    -0.06  -0.01  -0.01     0.11   0.02   0.04    -0.03   0.01   0.03
 113   1     0.01  -0.01   0.04     0.02   0.01  -0.02     0.03  -0.02   0.05
 114   1     0.01  -0.02   0.02     0.02   0.03  -0.00     0.01  -0.01   0.02
                     22                     23                     24
                        a                      a                      a 
 Frequencies --    95.6451                97.3066               103.5012
 Red. masses --    10.9597                10.0264                10.1667
 Frc consts  --     0.0000                 0.0000                 0.0000
 IR Inten    --     0.7580                 7.4798                13.5757
 Raman Activ --     0.0000                 0.0000                 0.0000
 Depolar     --     0.0000                 0.0000                 0.0000
 Atom AN      X      Y      Z        X      Y      Z        X      Y      Z
   1   6    -0.01   0.06   0.02    -0.03  -0.03  -0.09     0.09  -0.12   0.10
   2   6    -0.03   0.02   0.03    -0.04  -0.00  -0.12     0.12  -0.12   0.12
   3   6    -0.02  -0.03   0.02    -0.02  -0.01  -0.09     0.04  -0.04   0.03
   4   6     0.02  -0.03  -0.00     0.00  -0.04  -0.02    -0.04   0.02  -0.06
   5   6     0.02  -0.05  -0.02    -0.00  -0.03  -0.02    -0.02   0.02  -0.01
   6   7     0.01  -0.05  -0.02    -0.02  -0.03  -0.03     0.04   0.04   0.10
   7   6     0.00  -0.04  -0.04    -0.01  -0.02  -0.02     0.06   0.02   0.14
   8   6    -0.01  -0.04  -0.02    -0.01  -0.02  -0.01     0.06   0.02   0.13
   9   6     0.01  -0.03   0.09    -0.01  -0.02   0.01     0.02   0.00   0.01
  10   6     0.01  -0.02   0.13    -0.00  -0.01   0.04    -0.04  -0.03  -0.15
  11   6    -0.03  -0.01   0.03    -0.01  -0.01   0.03    -0.03  -0.03  -0.14
  12   6    -0.05  -0.02  -0.07    -0.01  -0.01  -0.01     0.02  -0.01   0.02
  13   6    -0.02  -0.03  -0.07    -0.02  -0.02  -0.02     0.06   0.02   0.14
  14   6    -0.01  -0.02  -0.07    -0.01  -0.02  -0.03     0.05   0.02   0.14
  15   6     0.00   0.01  -0.02    -0.02  -0.02  -0.04     0.06   0.03   0.16
  16   6     0.04   0.04   0.06    -0.01  -0.01   0.01     0.01  -0.01  -0.07
  17   6     0.05   0.03   0.06     0.01   0.00   0.06    -0.03  -0.06  -0.27
  18   6     0.03  -0.00  -0.01     0.01  -0.00   0.05    -0.01  -0.04  -0.17
  19   6     0.01  -0.02  -0.06    -0.00  -0.01   0.00     0.02  -0.00   0.04
  20   6     0.00  -0.04  -0.06    -0.00  -0.01  -0.01     0.03   0.01   0.07
  21   7     0.01  -0.05  -0.05     0.01  -0.02  -0.01    -0.03   0.01  -0.02
  22   6     0.01  -0.04  -0.01     0.03  -0.01  -0.01    -0.06   0.01  -0.03
  23   6    -0.01  -0.00   0.01     0.09  -0.00   0.01    -0.32  -0.02  -0.09
  24   6    -0.02  -0.01   0.05     0.11  -0.00   0.01    -0.33  -0.01  -0.09
  25   6    -0.02  -0.03   0.07     0.04  -0.00  -0.01    -0.05   0.00  -0.01
  26   7    -0.01  -0.03   0.10     0.01  -0.00  -0.02    -0.01   0.01   0.02
  27   6    -0.01  -0.03   0.04    -0.00   0.01  -0.00     0.00   0.01   0.04
  28   6     0.00   0.00  -0.05     0.00   0.03   0.05     0.00  -0.00   0.02
  29   6     0.06  -0.02  -0.13     0.00   0.15   0.22     0.01   0.00   0.02
  30   6     0.07   0.08  -0.13     0.01   0.17   0.24     0.01   0.02   0.03
  31   6     0.03   0.18  -0.07    -0.01   0.07   0.09     0.00   0.02   0.01
  32   6     0.03   0.22  -0.02    -0.01   0.06   0.08     0.00   0.03   0.02
  33   6    -0.04   0.21   0.01     0.04   0.22   0.18     0.02   0.10   0.07
  34   6    -0.08   0.05   0.00     0.02   0.17   0.12     0.01   0.08   0.05
  35   6    -0.04  -0.08  -0.02    -0.02  -0.01  -0.01     0.00  -0.01  -0.00
  36   7    -0.09  -0.24   0.01    -0.02  -0.02  -0.02    -0.00  -0.02  -0.01
  37   6    -0.04  -0.15   0.01    -0.01  -0.01  -0.02     0.00  -0.02  -0.00
  38   6     0.02  -0.12  -0.04    -0.04   0.14  -0.10    -0.00   0.02  -0.03
  39   6     0.05   0.01  -0.04    -0.02   0.16  -0.09    -0.00   0.05  -0.03
  40   6     0.03   0.10   0.00     0.04  -0.01  -0.01     0.01   0.01  -0.01
  41   6    -0.02   0.06   0.06     0.07  -0.16   0.07     0.02  -0.04   0.01
  42   6    -0.06  -0.07   0.07     0.04  -0.14   0.05     0.01  -0.05   0.01
  43   6    -0.08  -0.15   0.01    -0.02  -0.01  -0.02     0.00  -0.01  -0.01
  44   6    -0.13  -0.13  -0.02    -0.15  -0.12   0.04    -0.04  -0.04   0.01
  45   6    -0.07   0.00  -0.04    -0.17  -0.13   0.05    -0.05  -0.04   0.02
[...]
 104   1     0.01   0.02  -0.00     0.00   0.01  -0.00     0.01   0.02  -0.00
 105   1    -0.01   0.01  -0.00    -0.00   0.00  -0.00    -0.01   0.01  -0.00
 106   1    -0.02  -0.00   0.00    -0.01  -0.00   0.00     0.00   0.00  -0.00
 107   1     0.02  -0.02   0.00     0.01  -0.01   0.00     0.03  -0.03   0.01
 108   1     0.01   0.00  -0.00     0.00   0.00  -0.00     0.01   0.00  -0.00
 109   1     0.00   0.00  -0.00     0.00   0.00  -0.00     0.00   0.00  -0.00
 110   1    -0.00   0.00  -0.00     0.01  -0.01   0.00    -0.01   0.01  -0.00
 111   1    -0.01   0.01   0.03     0.02  -0.04  -0.07    -0.01   0.02   0.04
 112   1    -0.01  -0.02   0.03     0.02   0.06  -0.09    -0.01  -0.02   0.03
 113   1     0.04   0.10   0.03    -0.04  -0.12  -0.04    -0.01  -0.02  -0.01
 114   1    -0.02   0.02   0.03     0.03  -0.03  -0.04     0.01  -0.01  -0.01
                    331                    332                    333
                        a                      a                      a 
 Frequencies --  3105.8736              3106.5615              3108.5591
 Red. masses --     1.8899                 1.8401                 1.8215
 Frc consts  --     0.0000                 0.0000                 0.0000
 IR Inten    --    47.0334                81.4725               514.7145
 Raman Activ --     0.0000                 0.0000                 0.0000
 Depolar     --     0.0000                 0.0000                 0.0000
 Atom AN      X      Y      Z        X      Y      Z        X      Y      Z
   1   6    -0.07  -0.03   0.03    -0.01  -0.01   0.01    -0.00  -0.00   0.00
   2   6    -0.08  -0.21  -0.07    -0.01  -0.04  -0.01    -0.00  -0.00  -0.00
   3   6     0.05  -0.05  -0.08     0.01  -0.01  -0.01     0.00  -0.00  -0.00
   4   6     0.00   0.00  -0.00     0.00   0.00  -0.00     0.00   0.00  -0.00
   5   6     0.00  -0.00  -0.00     0.00   0.00  -0.00    -0.00  -0.00   0.00
   6   7    -0.00  -0.00   0.00    -0.00  -0.00   0.00     0.00   0.00   0.00
   7   6    -0.00   0.00   0.00     0.00  -0.00  -0.00    -0.00   0.00   0.00
   8   6    -0.00   0.00  -0.00     0.00   0.00   0.00    -0.00  -0.00   0.00
   9   6    -0.00  -0.00   0.00    -0.00  -0.00   0.00    -0.00  -0.00   0.00
  10   6    -0.00   0.00   0.00    -0.00   0.00   0.00    -0.00   0.00   0.00
  11   6     0.00   0.00  -0.00    -0.00  -0.00   0.00     0.00   0.00  -0.00
  12   6    -0.00  -0.00   0.00    -0.00  -0.00   0.00     0.00   0.00  -0.00
  13   6    -0.00   0.00   0.00    -0.00   0.00   0.00     0.00  -0.00  -0.00
  14   6    -0.00  -0.00   0.00     0.00  -0.00   0.00     0.00   0.00  -0.00
  15   6    -0.00  -0.00   0.00    -0.00  -0.01   0.00     0.00   0.00  -0.00
  16   6    -0.00  -0.00   0.00    -0.00   0.00   0.00     0.00   0.00  -0.00
  17   6    -0.00   0.00  -0.00     0.00  -0.00   0.00     0.00  -0.00   0.00
  18   6     0.00   0.00  -0.00    -0.00  -0.01   0.00    -0.00  -0.00   0.00
  19   6     0.00   0.00  -0.00    -0.00  -0.00   0.00    -0.00  -0.00   0.00
  20   6    -0.00  -0.00   0.00    -0.00   0.00   0.00     0.00  -0.00  -0.00
  21   7    -0.00  -0.00   0.00    -0.00   0.00   0.00     0.00  -0.00  -0.00
  22   6     0.00   0.00   0.00    -0.00   0.00   0.00     0.00   0.00   0.00
  23   6    -0.00   0.01   0.01    -0.00   0.01   0.01     0.00  -0.00  -0.00
  24   6    -0.00  -0.00   0.01    -0.00  -0.01   0.01     0.00   0.00  -0.00
  25   6    -0.00  -0.00  -0.00     0.00  -0.00   0.00    -0.00  -0.00  -0.00
  26   7    -0.00   0.00  -0.00    -0.00  -0.00   0.00    -0.00   0.00   0.00
  27   6     0.00  -0.00   0.00     0.00   0.00  -0.00     0.00   0.00   0.00
  28   6    -0.00   0.00  -0.00     0.01   0.00  -0.00    -0.00   0.00   0.00
  29   6    -0.02  -0.02   0.02     0.16   0.15  -0.11    -0.02  -0.02   0.01
  30   6     0.01  -0.02   0.01    -0.02   0.07  -0.04     0.00  -0.01   0.01
  31   6     0.00  -0.00   0.00    -0.00  -0.00   0.00     0.00   0.00  -0.00
  32   6    -0.00  -0.00   0.00     0.00  -0.00  -0.00    -0.00   0.00   0.00
  33   6    -0.01  -0.01   0.02     0.03   0.02  -0.03    -0.01  -0.00   0.01
  34   6     0.00  -0.00   0.00    -0.00   0.01  -0.01     0.00  -0.00   0.00
  35   6     0.00   0.00  -0.00    -0.00   0.00   0.00     0.00  -0.00  -0.00
  36   7    -0.00  -0.00   0.00     0.00  -0.00  -0.00    -0.00   0.00   0.00
  37   6     0.00  -0.00  -0.00     0.00   0.00  -0.00    -0.00   0.00   0.00
  38   6     0.00   0.00  -0.00     0.00   0.00  -0.00    -0.00  -0.00   0.00
  39   6     0.00   0.00   0.00     0.00   0.00   0.00    -0.00  -0.00  -0.00
  40   6    -0.00   0.00   0.00    -0.00   0.00   0.00     0.00  -0.00  -0.00
  41   6    -0.00  -0.00   0.00    -0.00  -0.00   0.00     0.00   0.00  -0.00
  42   6     0.00   0.00   0.00    -0.00  -0.00  -0.00     0.00   0.00   0.00
  43   6    -0.00   0.00  -0.00     0.00  -0.00   0.00    -0.00   0.00  -0.00
  44   6    -0.00   0.00  -0.00     0.00  -0.00   0.00    -0.00   0.00  -0.00
  45   6    -0.00   0.00   0.00     0.00  -0.00  -0.00    -0.00   0.00   0.00
  46   6     0.00  -0.00   0.00    -0.00   0.00  -0.00     0.00  -0.00   0.00
  47   6     0.00  -0.00  -0.00    -0.00   0.00  -0.00     0.00  -0.00   0.00
  48   6     0.00  -0.00  -0.00    -0.00   0.00   0.00     0.00  -0.00  -0.00
  49   6     0.00   0.00  -0.00    -0.01  -0.00   0.01     0.00   0.00  -0.00
  50   6    -0.00   0.01  -0.01     0.01  -0.02   0.02    -0.00   0.01  -0.01
  51   6     0.00   0.00  -0.00    -0.02  -0.01   0.01     0.00   0.00  -0.00
  52   6    -0.00   0.00  -0.00     0.01  -0.03   0.02    -0.00   0.01  -0.00
  53   7    -0.00   0.00  -0.00    -0.00   0.00  -0.00    -0.00   0.00   0.00
  54   6     0.00   0.00  -0.00     0.00  -0.00   0.00     0.00  -0.00   0.00
  55   6     0.00  -0.00   0.00    -0.00   0.00  -0.00     0.00   0.00  -0.00
  56   6     0.00   0.00  -0.00    -0.01  -0.00   0.00     0.01   0.00  -0.00
  57   6     0.00   0.00  -0.00    -0.00  -0.00   0.00     0.01   0.01  -0.00
  58   6     0.00  -0.00   0.00    -0.00   0.00  -0.00    -0.02   0.02  -0.00
  59   6     0.00   0.00  -0.00    -0.02  -0.00   0.00    -0.14  -0.01   0.01
  60   6     0.00   0.00  -0.00    -0.00  -0.00   0.00    -0.00  -0.00   0.00
  61   6    -0.00  -0.00   0.00     0.00   0.00  -0.00     0.00   0.01  -0.00
  62   6     0.00  -0.01   0.00    -0.02   0.02  -0.00    -0.15   0.16  -0.03
  63   6     0.00   0.00  -0.00    -0.01  -0.00   0.00    -0.06  -0.01   0.00
  64   6     0.00   0.00  -0.00    -0.00  -0.00   0.00    -0.00  -0.02   0.00
  65   6     0.00  -0.00   0.00     0.00  -0.00   0.00    -0.01   0.01  -0.00
  66   6     0.00   0.00  -0.00     0.00  -0.00   0.00     0.00  -0.00   0.00
  67   6    -0.00  -0.00   0.00     0.00   0.00  -0.00     0.00   0.00  -0.00
  68   6     0.00  -0.00  -0.00    -0.00   0.01   0.01    -0.00  -0.00  -0.00
  69   6     0.00  -0.00  -0.00    -0.00  -0.01   0.01     0.00   0.00  -0.00
  70   6     0.01   0.04   0.01     0.00   0.00   0.00     0.00   0.00   0.00
  71   6    -0.02   0.02   0.03    -0.00   0.00   0.00     0.00  -0.00  -0.00
  72   1     0.22   0.10  -0.10     0.04   0.02  -0.02     0.00   0.00  -0.00
  73   1     0.26   0.72   0.25     0.05   0.13   0.04     0.00   0.00   0.00
  74   1    -0.17   0.18   0.25    -0.03   0.03   0.04    -0.00   0.00   0.00
  75   1     0.01   0.00  -0.00     0.00   0.00  -0.00     0.00  -0.00  -0.00
  76   1     0.00  -0.00  -0.00     0.00  -0.00  -0.00     0.00  -0.00  -0.00
  77   1    -0.00  -0.00   0.00     0.00   0.00  -0.00    -0.00  -0.00   0.00
  78   1     0.00   0.00  -0.00     0.01   0.00  -0.00    -0.01  -0.00   0.00
  79   1     0.00   0.01  -0.00     0.01   0.02  -0.01    -0.01  -0.01   0.00
  80   1     0.00   0.00  -0.00     0.00   0.00  -0.00    -0.00  -0.00   0.00
  81   1     0.00  -0.00   0.00    -0.00   0.01  -0.00    -0.00   0.00  -0.00
  82   1    -0.00  -0.01   0.00     0.01   0.03  -0.01     0.00   0.00  -0.00
  83   1     0.01  -0.02  -0.04     0.01  -0.02  -0.04    -0.00   0.00   0.01
  84   1     0.00   0.01  -0.02     0.01   0.03  -0.04    -0.00  -0.00   0.01
  85   1     0.08   0.08  -0.06    -0.56  -0.52   0.39     0.07   0.07  -0.05
  86   1    -0.03   0.07  -0.05     0.08  -0.21   0.14    -0.01   0.03  -0.02
  87   1     0.05   0.03  -0.06    -0.10  -0.06   0.12     0.02   0.01  -0.03
  88   1    -0.00   0.01  -0.01     0.02  -0.03   0.03    -0.00   0.01  -0.01
  89   1    -0.01  -0.00   0.00    -0.01  -0.00   0.00     0.00   0.00  -0.00
  90   1    -0.00  -0.00  -0.00    -0.01  -0.01  -0.01     0.00   0.00   0.00
  91   1     0.00  -0.00  -0.00     0.01  -0.00  -0.01    -0.00   0.00   0.01
  92   1     0.00   0.00  -0.00     0.01   0.00  -0.00    -0.01  -0.00   0.00
  93   1    -0.00  -0.00  -0.00     0.01   0.01   0.01    -0.00  -0.00  -0.00
  94   1     0.00  -0.00   0.00    -0.01   0.01  -0.00     0.00  -0.00   0.00
  95   1     0.00  -0.00  -0.00    -0.00   0.01   0.01     0.00  -0.00  -0.00
  96   1    -0.00   0.00  -0.00     0.01  -0.00   0.02    -0.00   0.00  -0.01
  97   1    -0.00   0.00   0.00     0.01  -0.01   0.00    -0.00   0.00  -0.00
  98   1    -0.00   0.00   0.00     0.00  -0.01  -0.01    -0.00   0.00   0.00
  99   1    -0.01  -0.00   0.01     0.02   0.01  -0.03    -0.01  -0.00   0.01
 100   1     0.01  -0.02   0.03    -0.04   0.06  -0.07     0.01  -0.02   0.02
 101   1    -0.01  -0.01   0.01     0.05   0.05  -0.03    -0.02  -0.01   0.01
 102   1     0.00  -0.01   0.01    -0.04   0.11  -0.06     0.01  -0.03   0.02
 103   1    -0.01  -0.00   0.00     0.02   0.00  -0.00    -0.05  -0.01   0.00
 104   1    -0.00  -0.00   0.00     0.00   0.01  -0.00    -0.02  -0.05   0.01
 105   1    -0.00   0.00  -0.00     0.00  -0.00   0.00     0.06  -0.07   0.01
 106   1    -0.01  -0.00   0.00     0.06   0.01  -0.01     0.49   0.06  -0.04
 107   1    -0.02   0.02  -0.00     0.08  -0.09   0.02     0.51  -0.58   0.10
 108   1    -0.00  -0.00   0.00     0.02   0.00  -0.00     0.18   0.03  -0.01
 109   1    -0.00  -0.00   0.00     0.00   0.01  -0.00     0.02   0.06  -0.01
 110   1    -0.00   0.00  -0.00    -0.00   0.00   0.00     0.03  -0.04   0.01
 111   1    -0.00   0.00   0.00     0.02  -0.02  -0.05    -0.00   0.00   0.00
 112   1    -0.00   0.00  -0.00     0.00   0.02  -0.03    -0.00  -0.00   0.00
 113   1    -0.05  -0.13  -0.04    -0.01  -0.01  -0.00    -0.00  -0.00  -0.00
 114   1     0.06  -0.07  -0.09     0.01  -0.01  -0.01    -0.00   0.00   0.00
                    334                    335                    336
                        a                      a                      a 
 Frequencies --  3109.3897              3111.9734              3123.8145
 Red. masses --     1.8191                 1.8461                 1.8234
 Frc consts  --     0.0000                 0.0000                 0.0000
 IR Inten    --   182.2064               154.1627                36.3780
 Raman Activ --     0.0000                 0.0000                 0.0000
 Depolar     --     0.0000                 0.0000                 0.0000
 Atom AN      X      Y      Z        X      Y      Z        X      Y      Z
   1   6    -0.00  -0.00   0.00    -0.00  -0.00   0.00     0.00   0.00  -0.00
   2   6    -0.00  -0.00  -0.00    -0.00  -0.00  -0.00     0.00   0.00  -0.00
   3   6     0.00  -0.00  -0.00     0.00  -0.00  -0.00     0.00  -0.00  -0.00
   4   6     0.00   0.00  -0.00     0.00   0.00  -0.00     0.00   0.00  -0.00
   5   6    -0.00  -0.00  -0.00    -0.00  -0.00   0.00     0.00  -0.00  -0.00
   6   7     0.00   0.00  -0.00     0.00   0.00  -0.00     0.00   0.00   0.00
   7   6    -0.00   0.00   0.00    -0.00  -0.00   0.00    -0.00   0.00  -0.00
   8   6    -0.00   0.00   0.00    -0.00   0.00   0.00    -0.00   0.00   0.00
   9   6    -0.01  -0.00   0.00    -0.01  -0.00   0.00     0.00  -0.00  -0.00
  10   6    -0.01   0.01   0.00    -0.01   0.01   0.00     0.00  -0.00  -0.00
  11   6     0.01   0.02  -0.01     0.01   0.01  -0.00    -0.00  -0.00   0.00
  12   6     0.10   0.01  -0.04     0.04   0.00  -0.02    -0.00  -0.00   0.00
  13   6     0.00  -0.00  -0.00     0.00  -0.00  -0.00     0.00   0.00  -0.00
  14   6    -0.00   0.01  -0.00     0.00   0.00  -0.00    -0.00  -0.00   0.00
  15   6     0.09   0.18  -0.06     0.04   0.08  -0.03    -0.00  -0.00   0.00
  16   6     0.04   0.00  -0.01     0.04   0.00  -0.01    -0.00  -0.00   0.00
  17   6    -0.01   0.01   0.00     0.04  -0.06   0.01     0.00  -0.00   0.00
  18   6     0.05   0.10  -0.04    -0.10  -0.20   0.08     0.00   0.00  -0.00
  19   6     0.00  -0.00  -0.00    -0.01  -0.00   0.00     0.00   0.00  -0.00
  20   6    -0.00   0.00  -0.00    -0.00  -0.00   0.00    -0.00  -0.00   0.00
  21   7    -0.00   0.00   0.00     0.00   0.00  -0.00    -0.00   0.00   0.00
  22   6     0.00  -0.00  -0.00    -0.00   0.00   0.00     0.00  -0.00  -0.00
  23   6     0.00  -0.00  -0.00    -0.00   0.00   0.00     0.00  -0.00  -0.00
  24   6    -0.00   0.00   0.00    -0.00  -0.00   0.00     0.00   0.00  -0.00
  25   6     0.00   0.00  -0.00     0.00  -0.00   0.00     0.00   0.00  -0.00
  26   7    -0.00  -0.00   0.00    -0.00   0.00   0.00    -0.00   0.00  -0.00
  27   6     0.00  -0.00  -0.00     0.00  -0.00   0.00    -0.00   0.00  -0.00
  28   6     0.00   0.00  -0.00    -0.00   0.00  -0.00    -0.00   0.00  -0.00
  29   6     0.01   0.01  -0.00    -0.00  -0.00   0.00     0.00   0.00  -0.00
  30   6    -0.00   0.00  -0.00     0.00  -0.00   0.00     0.00  -0.00   0.00
  31   6    -0.00  -0.00   0.00     0.00  -0.00  -0.00     0.00  -0.00   0.00
  32   6     0.00   0.00  -0.00    -0.00   0.00  -0.00    -0.00   0.00  -0.00
  33   6     0.00   0.00  -0.00     0.00  -0.00   0.00    -0.00  -0.00   0.00
  34   6    -0.00   0.00  -0.00    -0.00   0.00  -0.00     0.00  -0.00   0.00
  35   6    -0.00  -0.00   0.00    -0.00   0.00  -0.00     0.00  -0.00   0.00
  36   7     0.00  -0.00  -0.00     0.00  -0.00   0.00    -0.00   0.00   0.00
  37   6    -0.00   0.00   0.00     0.00  -0.00  -0.00    -0.00   0.00   0.00
  38   6     0.00   0.00  -0.00    -0.00  -0.00   0.00    -0.00  -0.00  -0.00
  39   6     0.00   0.00   0.00     0.00   0.00   0.00    -0.00  -0.00  -0.00
  40   6    -0.00   0.00   0.00     0.00  -0.00  -0.00     0.00  -0.00  -0.00
  41   6    -0.00  -0.00   0.00     0.00   0.00  -0.00     0.00   0.00  -0.00
  42   6    -0.00  -0.00  -0.00     0.00   0.00   0.00     0.00   0.00   0.00
  43   6    -0.00   0.00  -0.00     0.00   0.00   0.00    -0.00  -0.00  -0.00
  44   6     0.00  -0.00   0.00    -0.00   0.00  -0.00    -0.00   0.00  -0.00
  45   6     0.00  -0.00  -0.00     0.00  -0.00  -0.00    -0.00   0.00   0.00
  46   6    -0.00   0.00  -0.00     0.00  -0.00   0.00     0.00  -0.00   0.00
  47   6    -0.00   0.00  -0.00    -0.00   0.00   0.00     0.00  -0.00   0.00
  48   6    -0.00   0.00   0.00    -0.00  -0.00  -0.00     0.00  -0.00  -0.00
  49   6    -0.00  -0.00   0.00    -0.00   0.00   0.00     0.00   0.00  -0.00
  50   6     0.00  -0.00   0.00    -0.00   0.00  -0.00    -0.00   0.00  -0.00
  51   6    -0.00  -0.00   0.00    -0.00  -0.00   0.00     0.00   0.00  -0.00
  52   6     0.00  -0.00   0.00     0.00  -0.00   0.00    -0.00   0.00  -0.00
  53   7    -0.00   0.00  -0.00    -0.00   0.00  -0.00     0.00  -0.00   0.00
  54   6     0.00  -0.00   0.00     0.00   0.00  -0.00    -0.00  -0.00   0.00
  55   6    -0.00   0.00  -0.00     0.00   0.00  -0.00     0.00   0.00  -0.00
  56   6    -0.00  -0.00   0.00    -0.00  -0.00   0.00     0.00   0.00  -0.00
  57   6    -0.00  -0.00   0.00    -0.00  -0.00   0.00     0.00   0.00  -0.00
  58   6     0.00  -0.00   0.00     0.00  -0.00   0.00    -0.00   0.00  -0.00
  59   6     0.00   0.00  -0.00     0.00   0.00  -0.00    -0.00  -0.00   0.00
  60   6     0.00  -0.00   0.00     0.00   0.00  -0.00     0.00  -0.00   0.00
  61   6    -0.00   0.00   0.00    -0.00  -0.00   0.00    -0.00   0.00  -0.00
  62   6     0.00  -0.00   0.00     0.00  -0.00   0.00    -0.01   0.01  -0.00
  63   6     0.00   0.00  -0.00     0.00   0.00  -0.00    -0.01   0.00   0.00
  64   6     0.00   0.00  -0.00    -0.00  -0.00   0.00    -0.02  -0.04   0.01
  65   6     0.00  -0.00   0.00     0.00  -0.00   0.00     0.17  -0.20   0.03
  66   6     0.00  -0.00  -0.00     0.00   0.00  -0.00     0.01  -0.00  -0.00
  67   6    -0.00   0.00  -0.00     0.00  -0.00   0.00     0.00  -0.00   0.00
  68   6    -0.00   0.00   0.00     0.00  -0.00  -0.01     0.00  -0.00  -0.00
  69   6    -0.00  -0.00   0.01     0.00   0.01  -0.01     0.00   0.00  -0.00
  70   6    -0.00  -0.00  -0.00     0.00   0.00   0.00    -0.00  -0.00  -0.00
  71   6    -0.00   0.00   0.00    -0.00   0.00   0.00     0.00  -0.00  -0.00
  72   1     0.00   0.00  -0.00     0.00   0.00  -0.00    -0.00  -0.00   0.00
  73   1     0.00   0.01   0.00     0.00   0.01   0.00    -0.00  -0.00  -0.00
  74   1    -0.00   0.00   0.01    -0.00   0.00   0.00    -0.00   0.00   0.00
  75   1     0.03   0.00  -0.01     0.03   0.00  -0.01    -0.00  -0.00   0.00
  76   1     0.02  -0.03  -0.00     0.02  -0.02  -0.00    -0.00   0.00   0.00
  77   1    -0.03  -0.06   0.02    -0.02  -0.03   0.01    -0.00   0.00   0.00
  78   1    -0.36  -0.02   0.14    -0.16  -0.01   0.06     0.00   0.00  -0.00
  79   1    -0.33  -0.65   0.22    -0.15  -0.30   0.10     0.00   0.00  -0.00
  80   1    -0.13  -0.01   0.03    -0.13  -0.01   0.03     0.00   0.00  -0.00
  81   1     0.01  -0.02   0.00    -0.12   0.18  -0.02    -0.00   0.00  -0.00
  82   1    -0.17  -0.35   0.13     0.34   0.72  -0.28    -0.00  -0.00   0.00
  83   1    -0.00   0.00   0.00     0.00  -0.01  -0.01    -0.00   0.00   0.01
  84   1     0.00   0.00  -0.00     0.00   0.00  -0.01    -0.00  -0.01   0.01
  85   1    -0.02  -0.02   0.02     0.01   0.01  -0.01    -0.00  -0.00   0.00
  86   1     0.00  -0.01   0.01    -0.00   0.00  -0.00    -0.00   0.00  -0.00
  87   1    -0.00  -0.00   0.01     0.00   0.00  -0.00     0.00   0.00  -0.00
  88   1     0.00  -0.00   0.00     0.00  -0.00   0.00    -0.00   0.00  -0.00
  89   1    -0.00  -0.00   0.00     0.00   0.00  -0.00     0.00   0.00  -0.00
  90   1    -0.00  -0.00  -0.00    -0.00  -0.00  -0.00     0.00   0.00   0.00
  91   1     0.00  -0.00  -0.00    -0.00   0.00   0.00    -0.00   0.00   0.00
  92   1     0.00   0.00  -0.00    -0.00  -0.00   0.00    -0.00  -0.00   0.00
  93   1     0.00   0.00   0.00    -0.00  -0.00  -0.00    -0.00  -0.00  -0.00
  94   1    -0.00   0.00  -0.00     0.00  -0.00   0.00     0.00  -0.00   0.00
  95   1    -0.00   0.00   0.00    -0.00   0.00   0.00     0.00  -0.00  -0.00
  96   1     0.00  -0.00   0.00    -0.00   0.00  -0.00    -0.00   0.00  -0.00
  97   1     0.00  -0.00   0.00     0.00  -0.00   0.00    -0.00   0.00  -0.00
  98   1     0.00  -0.00  -0.00    -0.00   0.00   0.00    -0.00   0.00   0.00
  99   1     0.00   0.00  -0.00     0.00  -0.00  -0.00    -0.00  -0.00   0.00
 100   1    -0.00   0.00  -0.00     0.00  -0.00   0.00     0.00  -0.00   0.00
 101   1     0.00   0.00  -0.00     0.00   0.00  -0.00    -0.00  -0.00   0.00
 102   1    -0.00   0.00  -0.00    -0.00   0.00  -0.00     0.00  -0.01   0.00
 103   1     0.00   0.00  -0.00     0.00   0.00  -0.00    -0.00  -0.00   0.00
 104   1     0.00   0.00  -0.00     0.00   0.00  -0.00    -0.00  -0.00   0.00
 105   1    -0.00   0.00  -0.00    -0.00   0.00  -0.00     0.00  -0.00   0.00
 106   1    -0.00  -0.00   0.00    -0.01  -0.00   0.00     0.01   0.00  -0.00
 107   1    -0.00   0.00  -0.00    -0.01   0.01  -0.00     0.02  -0.02   0.00
 108   1    -0.00  -0.00   0.00    -0.00  -0.00   0.00     0.04   0.01  -0.00
 109   1    -0.00  -0.00   0.00     0.00   0.00  -0.00     0.05   0.12  -0.03
 110   1    -0.00   0.00   0.00    -0.00   0.00  -0.00    -0.61   0.72  -0.11
 111   1     0.00  -0.00  -0.01    -0.01   0.01   0.02    -0.00   0.01   0.02
 112   1     0.00   0.01  -0.02    -0.01  -0.02   0.04    -0.00  -0.00   0.01
 113   1     0.00   0.00   0.00    -0.00  -0.01  -0.00     0.00   0.00   0.00
 114   1     0.00  -0.00  -0.00     0.00  -0.00  -0.00    -0.00   0.00   0.00
