$hessian                                                                        
        0.5261786044   0.0112394131   0.0035522011  -0.0671327674   0.0201969558
        0.0024085080  -0.0130265395   0.0279668305   0.0008763493   0.0007449705
        0.0000435164   0.0000482950   0.0026934107  -0.0177967707   0.0000490839
       -0.0010212943  -0.0007621827   0.0002410696   0.0003630870   0.0003099341
        0.0001199859   0.0005691528   0.0001222879   0.0000013559  -0.0004795200
        0.0002915411   0.0010629564  -0.0014312953  -0.0010340428   0.0000628988
       -0.0000925756   0.0001718554  -0.0000138019  -0.0000883922  -0.0000166377
       -0.0000004693  -0.0000002883   0.0000062471  -0.0000237306  -0.0000179432
        0.0000077360  -0.0000067174   0.0000175305  -0.0000025464   0.0000038315
        0.0000076662  -0.0000093730   0.0000159494   0.0000079072  -0.0000142387
        0.0000106403  -0.0000047067  -0.0000022610   0.0000176548   0.0000183329
       -0.0000000581  -0.0000213663  -0.0001478118  -0.0000759723  -0.0001016404
       -0.0003902470  -0.0003620645   0.0003123542   0.0003759495  -0.0000034775
       -0.0000067494  -0.0000818486  -0.0000421432   0.0000257962   0.0000293284
        0.0000210666   0.0000169491   0.0001051844   0.0000096097  -0.0000001975
       -0.0001286173   0.0000065078  -0.0000023446   0.0000332303   0.0000421645
        0.0000263012  -0.0000024276  -0.0000090417  -0.0000151433   0.0000032663
        0.0000041948   0.0000061482  -0.0000035583   0.0000067988   0.0000073622
        0.0000049965   0.0000014970   0.0000050357  -0.0000028937   0.0000015615
       -0.0000007718  -0.0000037197  -0.0000023585  -0.0000004999  -0.0000003017
       -0.0000025127  -0.0000013093   0.0000006463  -0.0000085227  -0.0000078734
       -0.0000159937   0.0000115375   0.0000119340  -0.0000151522  -0.0000093068
       -0.0000125837   0.0000015831   0.0000101933   0.0000070557  -0.0000031757
       -0.0000064244  -0.0000069510   0.0000051519  -0.0000050695  -0.0000011932
       -0.0000023828   0.0000000969   0.0000018568  -0.0000023376   0.0000010338
       -0.0000010996   0.0000000212   0.0000011555   0.0000028497   0.0000034138
       -0.0000019073  -0.0000074405   0.0000012926   0.0000142405   0.0000116832
        0.0000268751  -0.0000482378  -0.0000192441  -0.0000490265  -0.0000077928
       -0.0000023028  -0.0000189332  -0.0000269182  -0.0000315752   0.0000697001
       -0.0000176029   0.0000558680  -0.0000113467   0.0000016045  -0.0000111623
       -0.0000504027   0.0000062826   0.0000038187  -0.0000064037  -0.0000066053
        0.0000076218  -0.0000010719  -0.0000041038   0.0000024109   0.0000084640
        0.0000053221  -0.0000070716   0.0000072133   0.0000108583  -0.0000019413
       -0.0001065157  -0.0000058795   0.0000049565   0.0000511024   0.0000056306
       -0.0000063169  -0.0000071821   0.0000241605   0.0000196394  -0.0000265793
        0.0000125418   0.0000143929  -0.0000532186  -0.0000482832   0.0000113651
        0.0001503546   0.0001210306  -0.0000676277  -0.0000196910  -0.0000069690
       -0.0001082543  -0.0000552280  -0.0000771397  -0.0000336529   0.0000490450
        0.0000906317  -0.0000096505  -0.2452339953   0.0483513704  -0.0747091614
       -0.0450038366  -0.0027876969  -0.0107748266  -0.1523082214  -0.0886950062
        0.0786972010  -0.0056808621   0.0026903820  -0.0016440083   0.0006019504
        0.0005198035   0.0006957089   0.0005890653   0.0013865238  -0.0001054448
        0.0000274717   0.0004468974   0.0000526120   0.0003795345  -0.0000299466
       -0.0002774141   0.0003771134  -0.0007749117  -0.0003389771  -0.0006507623
       -0.0011570077  -0.0001034226  -0.0000135508   0.0000212830  -0.0000118756
       -0.0000421346  -0.0002009469  -0.0001221038   0.0000066502   0.0000060794
        0.0000049810  -0.0000028125   0.0000062333  -0.0000021278   0.0000097287
       -0.0000067738   0.0000087055  -0.0000014213   0.0000005017  -0.0000081010
       -0.0000051431   0.0000036605  -0.0000026090  -0.0000106355   0.0000017921
        0.0000008996   0.0000162544  -0.0000096501   0.0000063908  -0.0000033269
        0.0000002033  -0.0000069042   0.0000156948  -0.0000030880   0.0000121759
       -0.0000109542  -0.0000005960  -0.0000006665  -0.0000027457  -0.0000046393
        0.0000094878  -0.0000120294  -0.0000175971   0.0000096600   0.0000022609
        0.0000090490   0.0000074831  -0.0000076432  -0.0000023272  -0.0000011653
       -0.0000000972   0.0000016174   0.0000031185   0.0000008032  -0.0000026102
       -0.0000017820  -0.0000026275  -0.0000024620  -0.0000012757   0.0000003901
        0.0000009701   0.0000008919   0.0000008171   0.0000013914  -0.0000011204
        0.0000007194  -0.0000002475   0.0000009856  -0.0000000385   0.0000015670
        0.0000005633  -0.0000018888  -0.0000007561  -0.0000024300   0.0000002188
        0.0000008088   0.0000009536   0.0000012711   0.0000009469  -0.0000008511
       -0.0000030693  -0.0000015400  -0.0000013908  -0.0000016421  -0.0000002464
        0.0000016330  -0.0000017659  -0.0000012432  -0.0000006200  -0.0000000656
       -0.0000014036   0.0000004745  -0.0000017206   0.0000023438   0.0000014231
       -0.0000004151  -0.0000005083  -0.0000014324  -0.0000000901  -0.0000010576
       -0.0000009790   0.0000008339   0.0000007805  -0.0000007496  -0.0000020639
        0.0000009472   0.0000026326   0.0000008787   0.0000007651  -0.0000005794
        0.0000000896  -0.0000008811  -0.0000007866  -0.0000027999   0.0000013921
        0.0000018296   0.0000011645   0.0000002749   0.0000020893  -0.0000023418
       -0.0000034460  -0.0000018034   0.0000126001  -0.0000067106   0.0000055627
       -0.0000003594   0.0000147445  -0.0000055253   0.0000014655   0.0000003078
       -0.0000013255   0.0000029308   0.0000004862  -0.0000015415   0.0000063438
        0.0000013044  -0.0000049021  -0.0000024901   0.0000007000   0.0000032006
       -0.0000166598  -0.0000001933   0.0000097060  -0.0000044853   0.0000106758
        0.0000109514  -0.0000450798  -0.0001211950  -0.0000021816  -0.0000025667
       -0.0000007095   0.0000932664
        0.0112394131   0.4437718786  -0.0128740422   0.0261112244  -0.1717154587
       -0.0181246254   0.0082053681  -0.0131883517   0.0000855271   0.0028071282
       -0.0133098889  -0.0075064242  -0.0049140644  -0.0258215972   0.0047026772
        0.0009808464  -0.0005137268  -0.0001873848   0.0001211374   0.0002697658
        0.0004795598   0.0002827079   0.0000780125   0.0000987503  -0.0005857028
        0.0000952826   0.0013170575  -0.0012761973  -0.0004184519  -0.0011715886
       -0.0001185005   0.0001718338  -0.0000036016   0.0000439124  -0.0000510169
        0.0000631612   0.0000230847   0.0000169859  -0.0000325398  -0.0000108940
        0.0000075145  -0.0000116677   0.0000024849   0.0000057190  -0.0000042074
       -0.0000018118   0.0000102060  -0.0000017729  -0.0000014786  -0.0000020225
       -0.0000077094  -0.0000077733   0.0000057326   0.0000023717  -0.0000094486
       -0.0000419714   0.0000308149  -0.0000280802  -0.0000946547   0.0000058788
       -0.0000279939  -0.0001692209   0.0000540437  -0.0000106032  -0.0000154518
       -0.0000101702  -0.0000249157  -0.0000086157  -0.0000056553  -0.0000029231
        0.0000030390  -0.0000041636  -0.0000544787  -0.0000094249   0.0000049881
        0.0000509364   0.0000091581  -0.0000014209  -0.0000071346  -0.0000080844
        0.0000006027   0.0000052920   0.0000036136   0.0000025668  -0.0000032761
       -0.0000002871  -0.0000042338  -0.0000002523  -0.0000025356  -0.0000041600
       -0.0000000939   0.0000001537  -0.0000001602   0.0000017083   0.0000012638
       -0.0000008216   0.0000015142   0.0000002943  -0.0000003651   0.0000016264
       -0.0000000285  -0.0000002818   0.0000015279   0.0000041354   0.0000018919
        0.0000030531  -0.0000040745  -0.0000055485   0.0000012580   0.0000049010
        0.0000062127   0.0000019391  -0.0000044240  -0.0000039595  -0.0000007227
        0.0000022381   0.0000022833  -0.0000008998  -0.0000009236   0.0000007580
       -0.0000001678  -0.0000000646   0.0000005189   0.0000003274  -0.0000004046
       -0.0000002016   0.0000010275  -0.0000001018   0.0000000718  -0.0000029907
        0.0000014235   0.0000013654  -0.0000019966  -0.0000036630  -0.0000066411
       -0.0000010262   0.0000044922  -0.0000045626  -0.0000279720   0.0000274683
       -0.0000007999   0.0000313689  -0.0000044996   0.0000113382   0.0000028613
        0.0000079940  -0.0000051162   0.0000007438  -0.0000071951   0.0000049028
       -0.0000111799   0.0000041585   0.0000074926   0.0000003992   0.0000010087
        0.0000018931  -0.0000066815   0.0000052576   0.0000015174  -0.0000023405
        0.0000013761   0.0000009372   0.0000019543   0.0000035622  -0.0000021631
       -0.0000044196  -0.0000644896  -0.0000337769   0.0000201075   0.0000572924
        0.0000237612   0.0000061850   0.0000105961   0.0000102401  -0.0000180695
       -0.0000223500  -0.0000002311   0.0000503857   0.0000610471  -0.0000019627
       -0.0002951549   0.0000094817   0.0000663826   0.0000300905  -0.0001000405
       -0.0000602089   0.0000000221   0.0000511874   0.0000202868  -0.0000068219
       -0.0000125468   0.0000038486   0.0480013197  -0.0535957431   0.0180386582
       -0.0026492800  -0.0528070031  -0.0485005869  -0.0880060599  -0.1133432865
        0.0638294989   0.0017147207  -0.0003267656   0.0005846657  -0.0008463693
        0.0003891070  -0.0003087314  -0.0011179284   0.0006406918  -0.0002262848
       -0.0001214383   0.0006477123   0.0008613115   0.0000348942  -0.0003824861
       -0.0019682570   0.0001387753   0.0004979108   0.0009581112   0.0000700317
       -0.0005586252   0.0000363244   0.0000303142  -0.0000240653  -0.0000222478
       -0.0000532304  -0.0002129596  -0.0002099158  -0.0000209794  -0.0000052373
        0.0000016735   0.0000037127   0.0000041808  -0.0000007746   0.0000024019
        0.0000002090  -0.0000008522   0.0000023213  -0.0000013186  -0.0000011292
        0.0000040002   0.0000073485   0.0000010747  -0.0000036659  -0.0000017830
        0.0000000608  -0.0000001584  -0.0000002640  -0.0000000316   0.0000028191
       -0.0000020496  -0.0000009740   0.0000005196   0.0000019819   0.0000003976
       -0.0000011522  -0.0000045797  -0.0000006530  -0.0000056090   0.0000076771
        0.0000050255   0.0000017189  -0.0000104295   0.0000024090   0.0000080765
        0.0000150745   0.0000001946   0.0000008502   0.0000018247  -0.0000016440
        0.0000046052   0.0000000632  -0.0000012957   0.0000005498   0.0000009179
       -0.0000005317   0.0000012283   0.0000014866  -0.0000004888   0.0000025125
        0.0000006913  -0.0000012008   0.0000004817   0.0000001871  -0.0000009421
        0.0000020512   0.0000010979  -0.0000009708  -0.0000000543   0.0000005585
       -0.0000008728   0.0000011270   0.0000013747   0.0000005188  -0.0000001828
        0.0000002588  -0.0000005023   0.0000001998   0.0000001095  -0.0000002986
        0.0000011917   0.0000009422   0.0000002603  -0.0000012210  -0.0000005685
       -0.0000009261  -0.0000009639   0.0000007181   0.0000011731   0.0000013303
       -0.0000001349   0.0000013590   0.0000005214  -0.0000009584   0.0000000931
       -0.0000011522  -0.0000001447  -0.0000000174   0.0000016247  -0.0000007807
        0.0000003999   0.0000007167   0.0000000939  -0.0000004278   0.0000008498
       -0.0000012774  -0.0000003952   0.0000009204  -0.0000002397  -0.0000000801
       -0.0000001932  -0.0000005668   0.0000006219   0.0000008887  -0.0000013619
       -0.0000000927  -0.0000010339   0.0000009359   0.0000021267   0.0000057451
       -0.0000003237   0.0000015892   0.0000062875  -0.0000087440  -0.0000036129
       -0.0000045595   0.0000049695  -0.0000012345   0.0000014592   0.0000000189
       -0.0000003523   0.0000022867   0.0000018369  -0.0000014781   0.0000014108
       -0.0000008219  -0.0000000838   0.0000088804   0.0000088358  -0.0000051178
        0.0000273689  -0.0000003842  -0.0000123231  -0.0000040537   0.0000185270
        0.0000109504   0.0001369518  -0.0000931896   0.0000201080   0.0000460499
        0.0000162436  -0.0000148124
        0.0035522011  -0.0128740422   0.5208125884   0.0025220311  -0.0134199208
       -0.0622044809  -0.0035502934   0.0084505629   0.0009388636   0.0053570905
       -0.0287564147  -0.0102530157  -0.0001345505   0.0143465266   0.0005059796
       -0.0001128045   0.0008302382   0.0001177863  -0.0000549017  -0.0002729168
       -0.0002222828  -0.0003560885  -0.0001610591   0.0000652247   0.0003053154
       -0.0002320224  -0.0008978506   0.0013350642   0.0006912830  -0.0004453822
        0.0000907546  -0.0000739018  -0.0000237650   0.0000289050   0.0000093708
       -0.0000256837   0.0000078504   0.0000019515   0.0000100602   0.0000131477
       -0.0000000709   0.0000103341  -0.0000085601   0.0000000049  -0.0000017071
       -0.0000034032   0.0000023576  -0.0000109793  -0.0000061221   0.0000084742
       -0.0000104855   0.0000108713  -0.0000041747  -0.0000077534  -0.0000205798
        0.0000038242   0.0000037747   0.0001062807   0.0000657240   0.0000666854
        0.0001956035   0.0002292374  -0.0001793825  -0.0001894370   0.0000116597
        0.0000019596   0.0000369990   0.0000165593  -0.0000119146  -0.0000066562
       -0.0000121577  -0.0000111268  -0.0000449220  -0.0000054887  -0.0000007179
        0.0000681186  -0.0000023670  -0.0000016965  -0.0000219874  -0.0000261842
       -0.0000162050   0.0000018567   0.0000042386   0.0000042996  -0.0000088301
       -0.0000006976  -0.0000036162   0.0000031268  -0.0000035975  -0.0000036738
       -0.0000010262  -0.0000004351   0.0000009792   0.0000008100   0.0000007497
        0.0000010911   0.0000006076  -0.0000000655   0.0000003281   0.0000010583
       -0.0000001920   0.0000009374   0.0000018297   0.0000027421   0.0000012130
        0.0000056702  -0.0000057888  -0.0000066543   0.0000074087   0.0000053995
        0.0000060568   0.0000002850  -0.0000018457  -0.0000012175   0.0000018157
        0.0000031560   0.0000028760  -0.0000007427   0.0000006003   0.0000011369
        0.0000018842  -0.0000003066   0.0000000520   0.0000022644  -0.0000003486
       -0.0000003388   0.0000002700  -0.0000005343  -0.0000004364  -0.0000065740
        0.0000039739   0.0000043760   0.0000046557  -0.0000033991  -0.0000030194
       -0.0000238078   0.0000288817   0.0000174020   0.0000147795   0.0000026670
        0.0000157294  -0.0000003138   0.0000074476  -0.0000030614  -0.0000341144
       -0.0000118515  -0.0000072866   0.0000047184  -0.0000081633   0.0000010663
       -0.0000134936   0.0000032158  -0.0000052781   0.0000011283   0.0000005874
       -0.0000040978  -0.0000011533  -0.0000022599   0.0000013266   0.0000006839
        0.0000015023  -0.0000020727  -0.0000052202  -0.0000008388  -0.0000003300
        0.0000508427   0.0000207144   0.0000305968  -0.0000434711  -0.0000430854
        0.0000110622  -0.0000162675  -0.0000003938  -0.0000013929   0.0000115547
       -0.0000005868  -0.0000044714  -0.0000160133   0.0000161468   0.0000122524
       -0.0000725211   0.0000469312  -0.0000469704  -0.0001069361   0.0001125298
        0.0000156033  -0.0000003516   0.0000012597  -0.0000360290  -0.0000070628
       -0.0000242162   0.0000171181  -0.0751834311   0.0183138417  -0.0720135137
       -0.0108021939  -0.0489062103  -0.2709013964   0.0786525542   0.0644424451
       -0.1018588528  -0.0020465906   0.0008958450  -0.0002170331  -0.0004259738
        0.0009148393   0.0005090744   0.0003763470  -0.0001945483   0.0001300225
       -0.0002120459  -0.0008307257   0.0007991111   0.0001542117  -0.0029642766
       -0.0059351814   0.0005347276  -0.0005574321   0.0009719824  -0.0001856478
       -0.0000144304   0.0000697995  -0.0000132914  -0.0000026286   0.0000049270
       -0.0000767905   0.0001671026   0.0002597632  -0.0000131179  -0.0000020194
        0.0000152048  -0.0000003614  -0.0000060058   0.0000005693  -0.0000061266
        0.0000054706  -0.0000057897   0.0000040343  -0.0000006825   0.0000004951
        0.0000002698  -0.0000072192  -0.0000028894   0.0000046963  -0.0000044950
        0.0000057836  -0.0000069980   0.0000061613  -0.0000026875   0.0000064642
        0.0000009928  -0.0000045300  -0.0000058169  -0.0000002279  -0.0000052040
       -0.0000032341   0.0000016271   0.0000131788   0.0000029493   0.0000072935
       -0.0000049692   0.0000077477   0.0000135329  -0.0000021907  -0.0000021099
       -0.0000039198  -0.0000005579   0.0000047957   0.0000032684   0.0000020010
        0.0000017992  -0.0000017226  -0.0000010930   0.0000017392   0.0000004894
        0.0000007801   0.0000008116   0.0000008487   0.0000007337   0.0000002899
       -0.0000011723  -0.0000008068  -0.0000004496  -0.0000005404   0.0000001503
        0.0000004214  -0.0000007214  -0.0000014033  -0.0000003359   0.0000008011
       -0.0000008400   0.0000009555   0.0000004904   0.0000013779  -0.0000008179
        0.0000005910  -0.0000005146  -0.0000007481  -0.0000004795  -0.0000000537
        0.0000005880   0.0000004055   0.0000007769   0.0000011887   0.0000006215
        0.0000007859   0.0000013280  -0.0000007042  -0.0000000865  -0.0000009327
        0.0000009924   0.0000007510   0.0000016866  -0.0000014562  -0.0000006802
       -0.0000006348   0.0000010092  -0.0000013026  -0.0000011685   0.0000005680
        0.0000005739  -0.0000000308   0.0000002398   0.0000005273   0.0000017202
       -0.0000006395  -0.0000014267  -0.0000004752   0.0000000106   0.0000005320
       -0.0000008133   0.0000007314  -0.0000006556   0.0000014429  -0.0000008382
       -0.0000006958   0.0000007449  -0.0000022234  -0.0000027384  -0.0000015226
        0.0000011969  -0.0000002344  -0.0000011458   0.0000016605   0.0000053843
        0.0000006054   0.0000028679  -0.0000008223   0.0000032329  -0.0000010729
        0.0000000660   0.0000029829  -0.0000009382   0.0000005956   0.0000025723
        0.0000005514   0.0000005240  -0.0000026370  -0.0000098909   0.0000029632
       -0.0000030429  -0.0000029126   0.0000051534   0.0000039563  -0.0000265339
       -0.0000057472   0.0002708199  -0.0001863657  -0.0000991153   0.0000715233
       -0.0000346534   0.0000450410
       -0.0671327674   0.0261112244   0.0025220311   0.4959177274   0.0017788074
        0.0020522114  -0.1691992970   0.0189639870  -0.0355544026  -0.0629385010
       -0.0014037812  -0.0077691238  -0.1192443917  -0.0446233909   0.0399671698
       -0.0272006838  -0.0141833250   0.0122071029  -0.0038059725   0.0006126739
       -0.0024760253  -0.0009136578  -0.0003597312   0.0001919053   0.0006339268
        0.0009001474  -0.0022369898   0.0051797664  -0.0012671439   0.0021206788
        0.0002098513   0.0000465808  -0.0001573061   0.0002053423   0.0000123502
        0.0000122966   0.0000647661   0.0000284907  -0.0000200595   0.0000279818
        0.0000003692  -0.0000018491  -0.0000321157   0.0000069323  -0.0000123112
       -0.0000155679   0.0000312758  -0.0000366230  -0.0000147721   0.0000286664
       -0.0000386813  -0.0000439214   0.0000250098  -0.0000484486  -0.0000290857
       -0.0000768408   0.0000973758   0.0001842870   0.0001905867  -0.0000079593
        0.0004861865   0.0005113303  -0.0004177422  -0.0004779847   0.0000107317
        0.0000078946   0.0000439791   0.0000352979  -0.0000353758  -0.0000002787
       -0.0000364352  -0.0000367360  -0.0001923961  -0.0000057838   0.0000055911
        0.0002589533   0.0000011488  -0.0000095199  -0.0000630175  -0.0000753511
       -0.0000384264   0.0000146362   0.0000181909   0.0000203721  -0.0000187658
       -0.0000047968  -0.0000176051   0.0000059247  -0.0000129347  -0.0000160715
       -0.0000050034  -0.0000015415  -0.0000005509   0.0000057850   0.0000007266
        0.0000013873   0.0000058180   0.0000021516  -0.0000002281   0.0000039711
        0.0000019942   0.0000024178   0.0000079522   0.0000165051   0.0000105386
        0.0000204571  -0.0000242385  -0.0000289138   0.0000236477   0.0000230848
        0.0000285202   0.0000042625  -0.0000135666  -0.0000104922   0.0000077240
        0.0000128136   0.0000131260  -0.0000044462  -0.0000009290   0.0000010301
        0.0000049779   0.0000007723  -0.0000006233   0.0000052442  -0.0000029410
       -0.0000010436   0.0000042023  -0.0000026936  -0.0000014633  -0.0000218710
        0.0000081557   0.0000097812   0.0000034765  -0.0000187533  -0.0000225036
       -0.0000566170   0.0000811764   0.0000334238   0.0000105720   0.0000458294
        0.0000176269   0.0000726638   0.0000100409   0.0000388202  -0.0000751916
       -0.0000093485  -0.0000513287   0.0000131643  -0.0000135609   0.0000192283
       -0.0000016133   0.0000034445   0.0000078122   0.0000062299   0.0000090100
       -0.0000100727  -0.0000039803   0.0000082630  -0.0000023313  -0.0000107658
       -0.0000016803   0.0000051611  -0.0000051556  -0.0000079004  -0.0000025065
        0.0000267071   0.0000072736  -0.0000222819  -0.0000244545  -0.0000680814
       -0.0000197294   0.0000006094  -0.0000013857  -0.0000076352   0.0000118972
        0.0000099978  -0.0000038557  -0.0000043088   0.0000118828   0.0000068262
        0.0000209320  -0.0000165155  -0.0000188573   0.0000254892   0.0000934509
        0.0000272501   0.0001202339   0.0000776773   0.0000192597  -0.0000168770
       -0.0001100631   0.0000288356  -0.0087518562   0.0267791701   0.0025164512
        0.0001296885  -0.0006826682   0.0000514779   0.0022097684  -0.0194973000
       -0.0017226464  -0.0096153441   0.0053241631  -0.0024656951  -0.0047333609
        0.0001333233  -0.0047829326  -0.0250335294   0.0004878077  -0.0039616305
       -0.0012779670   0.0033372782   0.0210871076  -0.0000629252   0.0018593364
        0.0049591100  -0.0038842550  -0.0052390448  -0.0265069970   0.0005596689
       -0.0002357942   0.0007217295  -0.0009916821  -0.0005807673   0.0004958355
       -0.0006089971   0.0008906674  -0.0006658411  -0.0000746976  -0.0000100907
       -0.0000030171   0.0000118936  -0.0000069616   0.0000017940  -0.0000161764
        0.0000165246  -0.0000229786   0.0000105925  -0.0000010654   0.0000084926
        0.0000136998  -0.0000009069  -0.0000002008   0.0000076594  -0.0000103693
        0.0000135589  -0.0000258035   0.0000211051  -0.0000148604   0.0000129474
        0.0000013706   0.0000041595  -0.0000245342   0.0000074811  -0.0000265406
        0.0000086290  -0.0000112480   0.0000121791   0.0000000068   0.0000182182
       -0.0000067872   0.0000268684   0.0000207559  -0.0000151585   0.0000005971
        0.0000112187  -0.0000088368   0.0000165441   0.0000093193  -0.0000013439
        0.0000066586  -0.0000011957  -0.0000032381  -0.0000010342   0.0000039187
        0.0000028718   0.0000067418   0.0000067209   0.0000026953   0.0000038699
       -0.0000007306  -0.0000024269   0.0000003772  -0.0000001524  -0.0000022283
        0.0000032662   0.0000008847  -0.0000034899  -0.0000008602   0.0000004744
       -0.0000024588   0.0000061190   0.0000037133   0.0000061045  -0.0000010085
       -0.0000000521  -0.0000018188  -0.0000002418  -0.0000007634  -0.0000008089
        0.0000071837   0.0000039333   0.0000039975   0.0000030380  -0.0000022885
       -0.0000031127   0.0000028732   0.0000012395   0.0000035799   0.0000031765
        0.0000029140   0.0000018359   0.0000059500  -0.0000069761  -0.0000030520
       -0.0000014437   0.0000018248  -0.0000004693   0.0000038959   0.0000008867
        0.0000018591   0.0000008961   0.0000008936   0.0000001263   0.0000064922
       -0.0000040229  -0.0000056387   0.0000007024  -0.0000000369   0.0000010694
       -0.0000008698   0.0000012300   0.0000004553   0.0000068266  -0.0000049232
       -0.0000031475  -0.0000012533  -0.0000013414  -0.0000012693   0.0000094531
        0.0000026975   0.0000017964   0.0000044131   0.0000048217  -0.0000050007
       -0.0000035151  -0.0000015614   0.0000033294   0.0000048421  -0.0000045778
        0.0000020067   0.0000076111  -0.0000004666  -0.0000027180   0.0000002907
        0.0000017916   0.0000030651   0.0000146129  -0.0000056069  -0.0000089196
        0.0000087069  -0.0000116593  -0.0000097393   0.0000003554  -0.0000231110
       -0.0000114890   0.0000295005   0.0000517114  -0.0000029635  -0.0001309468
       -0.0000570513   0.0000327665
        0.0201969558  -0.1717154587  -0.0134199208   0.0017788074   0.4605575422
       -0.0035184634   0.0204711106  -0.0671772040   0.0075586727  -0.0001716740
       -0.0662539510  -0.0292295472  -0.0416195568  -0.0921245916   0.0351347326
       -0.0055993822  -0.0000712197  -0.0022924159   0.0011285564   0.0037402549
        0.0017803876  -0.0000592414  -0.0003737814   0.0007948230   0.0009418382
        0.0026138380   0.0054295215  -0.0105140659  -0.0116742351   0.0126778212
       -0.0005802337   0.0001613448   0.0003313554   0.0000385489  -0.0000996371
        0.0000605225   0.0000858318   0.0000312282  -0.0000706782  -0.0000176740
        0.0000265739   0.0000068329  -0.0000045144   0.0000089009  -0.0000092702
       -0.0000066523   0.0000037160  -0.0000002061  -0.0000070802  -0.0000024101
       -0.0000076640  -0.0000696472   0.0000557785  -0.0000405730  -0.0000393257
       -0.0001229488   0.0000731550  -0.0000250847  -0.0002575799  -0.0001299510
        0.0005088360  -0.0004468112  -0.0005005717  -0.0003638723  -0.0000337545
       -0.0001058899   0.0000318390   0.0000536563  -0.0000306290  -0.0000548654
       -0.0000022871  -0.0000097461  -0.0000834316  -0.0000391137   0.0000010573
        0.0001158582  -0.0000129802  -0.0000223220   0.0000001014  -0.0000167195
        0.0000075836   0.0000009269   0.0000133516   0.0000107401  -0.0000076655
       -0.0000010197  -0.0000075169   0.0000061675  -0.0000052285  -0.0000068783
       -0.0000001824   0.0000013898   0.0000001192   0.0000013231   0.0000004401
       -0.0000003109   0.0000011392   0.0000016296  -0.0000010701   0.0000031461
        0.0000007863  -0.0000002184   0.0000095682   0.0000101121   0.0000076243
       -0.0000008935  -0.0000068122  -0.0000115972   0.0000168010   0.0000078720
        0.0000107642   0.0000023281  -0.0000063976  -0.0000040221   0.0000003510
        0.0000038528   0.0000026361   0.0000009720   0.0000047931  -0.0000009345
        0.0000048758  -0.0000009509  -0.0000002539   0.0000045562  -0.0000008976
        0.0000001922   0.0000017840  -0.0000008949  -0.0000013488  -0.0000018896
       -0.0000005850   0.0000055914   0.0000043864  -0.0000117392  -0.0000083217
       -0.0000208522   0.0000334970   0.0000045312   0.0000603957   0.0000192799
        0.0000305119   0.0000099917   0.0000081751   0.0000212895  -0.0000871279
       -0.0000115151  -0.0000432427   0.0000079490  -0.0000158236   0.0000136837
        0.0000267458  -0.0000013748  -0.0000153028   0.0000025002   0.0000016927
       -0.0000084194  -0.0000016513  -0.0000008669   0.0000003739   0.0000013961
       -0.0000042177   0.0000010762  -0.0000033647  -0.0000012510  -0.0000066345
        0.0001397841   0.0000803030   0.0000400932  -0.0000313343  -0.0000263200
       -0.0000051790  -0.0000236485   0.0000271677  -0.0000048344  -0.0000110688
       -0.0000178505  -0.0000031667   0.0000012865  -0.0000234998  -0.0000179483
        0.0000506688  -0.0000072792  -0.0000036537   0.0000365955  -0.0000578471
        0.0000187840   0.0000127230   0.0000694772  -0.0000174610  -0.0000779824
       -0.0000520072   0.0000455873   0.0051094461  -0.0091828537   0.0001010545
        0.0014933167  -0.0105210732  -0.0050500426   0.0005704977  -0.0228615953
        0.0000510136   0.0278651564  -0.0083478402   0.0083724773  -0.0059264405
        0.0007152088  -0.0023092061  -0.0161401139   0.0016873513  -0.0041264117
       -0.0005735725   0.0027641403   0.0142966292  -0.0000094915  -0.0101084600
       -0.0289829719   0.0002696967   0.0009608575   0.0057380519   0.0009149992
       -0.0013687052  -0.0007995551   0.0003479184   0.0002309563   0.0000372962
       -0.0001511735  -0.0008939891  -0.0018297399  -0.0000212868  -0.0000027111
        0.0000176615   0.0000052855   0.0000011757  -0.0000000577   0.0000019974
        0.0000053682  -0.0000064901   0.0000115133  -0.0000010223  -0.0000092760
        0.0000046684   0.0000001733   0.0000024498   0.0000069765   0.0000029553
        0.0000031425  -0.0000039658   0.0000056450  -0.0000077249   0.0000119608
       -0.0000072091  -0.0000151736  -0.0000020962   0.0000027965  -0.0000050453
       -0.0000034372  -0.0000023753   0.0000066609  -0.0000042507   0.0000173669
        0.0000062444   0.0000177699  -0.0000303551  -0.0000102478   0.0000068825
       -0.0000009475  -0.0000005368   0.0000080369  -0.0000015457   0.0000027085
        0.0000087429  -0.0000008818  -0.0000017096   0.0000001850  -0.0000019652
       -0.0000037448   0.0000020138   0.0000016642  -0.0000001561   0.0000050010
        0.0000001940  -0.0000013854   0.0000012677   0.0000009678  -0.0000015222
        0.0000044751   0.0000008459  -0.0000016669   0.0000005625  -0.0000012379
       -0.0000002439   0.0000019248   0.0000016642   0.0000006475   0.0000014077
       -0.0000016869  -0.0000003304   0.0000014536   0.0000007090  -0.0000010651
        0.0000022877   0.0000014419   0.0000005472   0.0000009275  -0.0000003845
       -0.0000018490  -0.0000015713   0.0000015521   0.0000004147   0.0000002111
        0.0000006837  -0.0000023348   0.0000029566  -0.0000018729  -0.0000009528
        0.0000021845   0.0000008115   0.0000020627   0.0000023319   0.0000008616
       -0.0000012769   0.0000013505  -0.0000014924   0.0000003753   0.0000036658
       -0.0000005574  -0.0000023678   0.0000005429  -0.0000023381   0.0000001455
        0.0000013408   0.0000009928   0.0000012984   0.0000038559  -0.0000012641
       -0.0000015787  -0.0000001608   0.0000002035  -0.0000033077   0.0000034308
        0.0000033414  -0.0000020625  -0.0000039920   0.0000082264   0.0000059252
        0.0000009609  -0.0000054727   0.0000060498  -0.0000009356   0.0000038398
        0.0000015692  -0.0000024919   0.0000019556   0.0000020357  -0.0000011954