      -----------------------------------------------------------      
     |                   =====================                   |     
     |                           x T B                           |     
     |                   =====================                   |     
     |                         S. Grimme                         |     
     |          Mulliken Center for Theoretical Chemistry        |     
     |                    University of Bonn                     |     
      -----------------------------------------------------------      

   * xtb version 6.7.1 (edcfbbe) compiled by 'albert@albert-system' on 2024-07-22

   xtb is free software: you can redistribute it and/or modify it under
   the terms of the GNU Lesser General Public License as published by
   the Free Software Foundation, either version 3 of the License, or
   (at your option) any later version.
   
   xtb is distributed in the hope that it will be useful,
   but WITHOUT ANY WARRANTY; without even the implied warranty of
   MERCHANTABILITY or FITNESS FOR A PARTICULAR PURPOSE.  See the
   GNU Lesser General Public License for more details.
   
   Cite this work as:
   * C. Bannwarth, E. Caldeweyher, S. Ehlert, A. Hansen, P. Pracht,
     J. Seibert, S. Spicher, S. Grimme, WIREs Comput. Mol. Sci., 2020, 11,
     e01493. DOI: 10.1002/wcms.1493
   
   for GFN2-xTB:
   * C. Bannwarth, S. Ehlert and S. Grimme., J. Chem. Theory Comput., 2019,
     15, 1652-1671. DOI: 10.1021/acs.jctc.8b01176
   for GFN1-xTB:
   * S. Grimme, C. Bannwarth, P. Shushkov, J. Chem. Theory Comput., 2017,
     13, 1989-2009. DOI: 10.1021/acs.jctc.7b00118
   for GFN0-xTB:
   * P. Pracht, E. Caldeweyher, S. Ehlert, S. Grimme, ChemRxiv, 2019, preprint.
     DOI: 10.26434/chemrxiv.8326202.v1
   for GFN-FF:
   * S. Spicher and S. Grimme, Angew. Chem. Int. Ed., 2020, 59, 15665-15673.
     DOI: 10.1002/anie.202004239
   
   for ALPB and GBSA implicit solvation:
   * S. Ehlert, M. Stahn, S. Spicher, S. Grimme, J. Chem. Theory Comput.,
     2021, 17, 4250-4261. DOI: 10.1021/acs.jctc.1c00471
   
   for ddCOSMO and CPCM-X implicit solvation:
   * M. Stahn, S. Ehlert, S. Grimme, J. Phys. Chem. A,
     2023, XX, XXXX-XXXX. DOI: 10.1021/acs.jpca.3c04382
   
   for DFT-D4:
   * E. Caldeweyher, C. Bannwarth and S. Grimme, J. Chem. Phys., 2017,
     147, 034112. DOI: 10.1063/1.4993215
   * E. Caldeweyher, S. Ehlert, A. Hansen, H. Neugebauer, S. Spicher,
     C. Bannwarth and S. Grimme, J. Chem. Phys., 2019, 150, 154122.
     DOI: 10.1063/1.5090222
   * E. Caldeweyher, J.-M. Mewes, S. Ehlert and S. Grimme, Phys. Chem. Chem. Phys.
     2020, 22, 8499-8512. DOI: 10.1039/D0CP00502A
   
   for sTDA-xTB:
   * S. Grimme and C. Bannwarth, J. Chem. Phys., 2016, 145, 054103.
     DOI: 10.1063/1.4959605
   
   in the mass-spec context:
   * V. Asgeirsson, C. Bauer and S. Grimme, Chem. Sci., 2017, 8, 4879.
     DOI: 10.1039/c7sc00601b
   * J. Koopman and S. Grimme, ACS Omega 2019, 4, 12, 15120-15133.
     DOI: 10.1021/acsomega.9b02011
   
   for metadynamics refer to:
   * S. Grimme, J. Chem. Theory Comput., 2019, 155, 2847-2862
     DOI: 10.1021/acs.jctc.9b00143
   
   for SPH calculations refer to:
   * S. Spicher and S. Grimme, J. Chem. Theory Comput., 2021, 17, 1701-1714
     DOI: 10.1021/acs.jctc.0c01306
   
   for ONIOM refer to:
   * C. Plett, A. Katbashev, S. Ehlert, S. Grimme, M. Bursch,
     Phys. Chem. Chem. Phys., 2023, 25, 17860-17868. DOI: 10.1039/D3CP02178E
   
   for DIPRO refer to:
   * J. Kohn, N. Gildemeister, S. Grimme, D. Fazzi, A. Hansen,
     J. Chem. Phys., 2023, just accepted.
   
   for PTB refer to:
   * S. Grimme, M. Mueller, A. Hansen, J. Chem. Phys., 2023, 158, 124111.
     DOI: 10.1063/5.0137838
   
   with help from (in alphabetical order)
   P. Atkinson, C. Bannwarth, F. Bohle, G. Brandenburg, E. Caldeweyher
   M. Checinski, S. Dohm, S. Ehlert, S. Ehrlich, I. Gerasimov, C. Hölzer
   A. Katbashev, J. Kohn, J. Koopman, C. Lavigne, S. Lehtola, F. März, M. Müller,
   F. Musil, H. Neugebauer, J. Pisarek, C. Plett, P. Pracht, F. Pultar,
   J. Seibert, P. Shushkov, S. Spicher, M. Stahn, M. Steiner, T. Strunk,
   J. Stückrath, T. Rose, and J. Unsleber
   
 * started run on 2025/08/26 at 12:06:22.731     
   ID    Z sym.   atoms
    1    6 C      1-20, 22-44, 46-59
    2    7 N      21, 45
    3    1 H      60-107

           -------------------------------------------------
          |                Calculation Setup                |
           -------------------------------------------------

          program call               : xtb data2507/toluene/SAF-CzB/SAF-CzB_toluene_S0_crest.xyz --gfn 2 --gbsa toluene --ohess vtight --parallel 40 --molden --ceasefiles --namespace data2507/toluene/SAF-CzB/SAF-CzB_toluene_S0_finalOpt
          calculation namespace      : data2507/toluene/SAF-CzB/SAF-CzB_toluene_S0_finalOpt
          coordinate file            : data2507/toluene/SAF-CzB/SAF-CzB_toluene_S0_crest.xyz
          omp threads                :                    40


           -------------------------------------------------
          |                 G F N 2 - x T B                 |
           -------------------------------------------------

        Reference                      10.1021/acs.jctc.8b01176
      * Hamiltonian:
        H0-scaling (s, p, d)           1.850000    2.230000    2.230000
        zeta-weighting                 0.500000
      * Dispersion:
        s8                             2.700000
        a1                             0.520000
        a2                             5.000000
        s9                             5.000000
      * Repulsion:
        kExp                           1.500000    1.000000
        rExp                           1.000000
      * Coulomb:
        alpha                          2.000000
        third order                    shell-resolved
        anisotropic                    true
        a3                             3.000000
        a5                             4.000000
        cn-shift                       1.200000
        cn-exp                         4.000000
        max-rad                        5.000000

      * Solvation model:               GBSA
        Solvent                        toluene
        Parameter file                 internal GFN2-xTB/GBSA
        Dielectric constant                7.0000E+00
        Reference state                gsolv [1 M gas/solution]
        Free energy shift                  4.5239E-03 Eh       2.8388E+00 kcal/mol
        Temperature                        2.9815E+02 K
        Density                            8.6700E-01 kg/L
        Solvent mass                       9.2140E+01 g/mol
        Interaction kernel             Still
        Born radius scaling (c1)           1.5686E+00
        Born radii integrator          GBOBC
        Born offset                        0.0000E+00 a0       0.0000E+00 AA
        H-bond correction              false
        Ion screening                  false
        Surface tension                    1.0000E-05 Eh       1.5569E+01 dyn/cm
        Grid points                               230 per atom

          ...................................................
          :                      SETUP                      :
          :.................................................:
          :  # basis functions                 284          :
          :  # atomic orbitals                 284          :
          :  # shells                          166          :
          :  # electrons                       286          :
          :  max. iterations                   250          :
          :  Hamiltonian                  GFN2-xTB          :
          :  restarted?                      false          :
          :  GBSA solvation                   true          :
          :  PC potential                    false          :
          :  electronic temp.          300.0000000     K    :
          :  accuracy                    1.0000000          :
          :  -> integral cutoff          0.2500000E+02      :
          :  -> integral neglect         0.1000000E-07      :
          :  -> SCF convergence          0.1000000E-05 Eh   :
          :  -> wf. convergence          0.1000000E-03 e    :
          :  Broyden damping             0.4000000          :
          :  net charge                          0          :
          :  unpaired electrons                  0          :
          ...................................................

 iter      E             dE          RMSdq      gap      omega  full diag
   1   -155.2539644 -0.155254E+03  0.392E+00    2.17       0.0  T
   2   -155.3541919 -0.100227E+00  0.236E+00    2.33       1.0  T
   3   -155.3005209  0.536710E-01  0.991E-01    2.42       1.0  T
   4   -155.3690387 -0.685178E-01  0.273E-01    2.34       1.0  T
   5   -155.3755675 -0.652879E-02  0.998E-02    2.38       1.0  T
   6   -155.3762917 -0.724229E-03  0.403E-02    2.36       1.0  T
   7   -155.3763879 -0.961373E-04  0.171E-02    2.37       1.0  T
   8   -155.3763936 -0.573840E-05  0.682E-03    2.37       1.4  T
   9   -155.3763953 -0.168121E-05  0.176E-03    2.37       5.5  T
  10   -155.3763955 -0.169812E-06  0.680E-04    2.37      14.2  T
  11   -155.3763955 -0.174121E-07  0.382E-04    2.37      25.3  T

   *** convergence criteria satisfied after 11 iterations ***

         #    Occupation            Energy/Eh            Energy/eV
      -------------------------------------------------------------
         1        2.0000           -0.6706570             -18.2495
       ...           ...                  ...                  ...
       137        2.0000           -0.3940176             -10.7218
       138        2.0000           -0.3937464             -10.7144
       139        2.0000           -0.3925827             -10.6827
       140        2.0000           -0.3755406             -10.2190
       141        2.0000           -0.3703960             -10.0790
       142        2.0000           -0.3531329              -9.6092
       143        2.0000           -0.3479776              -9.4690 (HOMO)
       144                         -0.2609861              -7.1018 (LUMO)
       145                         -0.2385895              -6.4924
       146                         -0.2354426              -6.4067
       147                         -0.2337907              -6.3618
       148                         -0.2306828              -6.2772
       ...                                ...                  ...
       284                          0.7462017              20.3052
      -------------------------------------------------------------
                  HL-Gap            0.0869915 Eh            2.3672 eV
             Fermi-level           -0.3044818 Eh           -8.2854 eV

 SCC (total)                   0 d,  0 h,  0 min,  0.168 sec
 SCC setup                      ...        0 min,  0.003 sec (  1.537%)
 Dispersion                     ...        0 min,  0.005 sec (  3.260%)
 classical contributions        ...        0 min,  0.000 sec (  0.078%)
 integral evaluation            ...        0 min,  0.011 sec (  6.533%)
 iterations                     ...        0 min,  0.133 sec ( 79.010%)
 molecular gradient             ...        0 min,  0.015 sec (  8.929%)
 printout                       ...        0 min,  0.001 sec (  0.601%)

         :::::::::::::::::::::::::::::::::::::::::::::::::::::
         ::                     SUMMARY                     ::
         :::::::::::::::::::::::::::::::::::::::::::::::::::::
         :: total energy            -152.553771038502 Eh    ::
         :: total w/o Gsasa/hb      -152.497325488097 Eh    ::
         :: gradient norm              0.003459561895 Eh/a0 ::
         :: HOMO-LUMO gap              2.367159760796 eV    ::
         ::.................................................::
         :: SCC energy              -155.374502913133 Eh    ::
         :: -> isotropic ES            0.015825996818 Eh    ::
         :: -> anisotropic ES          0.022780815907 Eh    ::
         :: -> anisotropic XC          0.085125706861 Eh    ::
         :: -> dispersion             -0.152150372625 Eh    ::
         :: -> Gsolv                  -0.057480139625 Eh    ::
         ::    -> Gelec               -0.001034589220 Eh    ::
         ::    -> Gsasa               -0.060969430277 Eh    ::
         ::    -> Ghb                  0.000000000000 Eh    ::
         ::    -> Gshift               0.004523879872 Eh    ::
         :: repulsion energy           2.820731874631 Eh    ::
         :: add. restraining           0.000000000000 Eh    ::
         :: total charge               0.000000000000 e     ::
         :::::::::::::::::::::::::::::::::::::::::::::::::::::

      ----------------------------------------------------------- 
     |                   =====================                   |
     |                        A N C O P T                        |
     |                   =====================                   |
     |               Approximate Normal Coordinate               |
     |                Rational Function Optimizer                |
      ----------------------------------------------------------- 

Optimization log is written to '/dev/null'
      ----------------------------------------------------------- 
     |                   =====================                   |
     |                        A N C O P T                        |
     |                   =====================                   |
     |               Approximate Normal Coordinate               |
     |                Rational Function Optimizer                |
      ----------------------------------------------------------- 

          ...................................................
          :                      SETUP                      :
          :.................................................:
          :   optimization level         verytight          :
          :   max. optcycles                  2140          :
          :   ANC micro-cycles                  20          :
          :   degrees of freedom               315          :
          :.................................................:
          :   RF solver                   davidson          :
          :   write xtbopt.log                true          :
          :   linear?                        false          :
          :   energy convergence         0.1000000E-06 Eh   :
          :   grad. convergence          0.2000000E-03 Eh/α :
          :   maxmium RF displ.          1.0000000          :
          :   Hlow (freq-cutoff)         0.1000000E-01      :
          :   Hmax (freq-cutoff)         5.0000000          :
          :   S6 in model hess.         20.0000000          :
          ...................................................

generating ANC from exact Hessian ...
Using Lindh-Hessian (1995)
 Shifting diagonal of input Hessian by   9.978045450925756E-003
 Lowest  eigenvalues of input Hessian
    0.000000    0.000000    0.000000    0.000000    0.000000    0.000000
    0.010000    0.010017    0.010069    0.010217    0.010281    0.010373
    0.010393    0.010664    0.010779    0.010930    0.011012    0.011169
 Highest eigenvalues
    2.113908    2.143600    2.156938    2.161437    2.201288    2.233898
 

........................................................................
.............................. CYCLE    1 ..............................
........................................................................

 iter      E             dE          RMSdq      gap      omega  full diag
   1   -155.3763955 -0.155376E+03  0.155E-04    2.37       0.0  T
   2   -155.3763955 -0.626954E-09  0.107E-04    2.37      90.6  T
   3   -155.3763955 -0.437410E-09  0.734E-05    2.37     131.7  T
     SCC iter.                  ...        0 min,  0.039 sec
     gradient                   ...        0 min,  0.015 sec
 * total energy  :  -152.5537710 Eh     change       -0.2673232E-08 Eh
   gradient norm :     0.0034594 Eh/α   predicted     0.0000000E+00 (-100.00%)
   displ. norm   :     0.0501619 α      lambda       -0.6499262E-04
   maximum displ.:     0.0205096 α      in ANC's #5, #27, #18, ...

........................................................................
.............................. CYCLE    2 ..............................
........................................................................

 iter      E             dE          RMSdq      gap      omega  full diag
   1   -155.3718912 -0.155372E+03  0.998E-03    2.37       0.0  T
   2   -155.3718918 -0.569464E-06  0.612E-03    2.37       1.6  T
   3   -155.3718911  0.671571E-06  0.300E-03    2.37       3.2  T
   4   -155.3718920 -0.886595E-06  0.608E-04    2.37      15.9  T
   5   -155.3718920 -0.403677E-07  0.179E-04    2.37      54.0  T
     SCC iter.                  ...        0 min,  0.059 sec
     gradient                   ...        0 min,  0.015 sec
 * total energy  :  -152.5538205 Eh     change       -0.4949172E-04 Eh
   gradient norm :     0.0016344 Eh/α   predicted    -0.3269016E-04 ( -33.95%)
   displ. norm   :     0.1446137 α      lambda       -0.5987802E-04
   maximum displ.:     0.0715361 α      in ANC's #5, #18, #27, ...

........................................................................
.............................. CYCLE    3 ..............................
........................................................................

 iter      E             dE          RMSdq      gap      omega  full diag
   1   -155.3651350 -0.155365E+03  0.245E-02    2.37       0.0  T
   2   -155.3651373 -0.225418E-05  0.147E-02    2.37       1.0  T
   3   -155.3651337  0.360813E-05  0.634E-03    2.37       1.5  T
   4   -155.3651380 -0.433311E-05  0.121E-03    2.37       8.0  T
   5   -155.3651382 -0.169852E-06  0.343E-04    2.37      28.2  T
   6   -155.3651382 -0.102465E-07  0.149E-04    2.37      64.8  T
     SCC iter.                  ...        0 min,  0.069 sec
     gradient                   ...        0 min,  0.014 sec
 * total energy  :  -152.5538621 Eh     change       -0.4161422E-04 Eh
   gradient norm :     0.0020963 Eh/α   predicted    -0.3021787E-04 ( -27.39%)
   displ. norm   :     0.0361578 α      lambda       -0.1724674E-04
   maximum displ.:     0.0239822 α      in ANC's #5, #18, #3, ...

........................................................................
.............................. CYCLE    4 ..............................
........................................................................

 iter      E             dE          RMSdq      gap      omega  full diag
   1   -155.3663465 -0.155366E+03  0.611E-03    2.37       0.0  T
   2   -155.3663465 -0.420063E-07  0.362E-03    2.37       2.7  T
   3   -155.3663464  0.154522E-06  0.114E-03    2.37       8.4  T
   4   -155.3663465 -0.176723E-06  0.128E-04    2.37      75.3  T
   5   -155.3663465 -0.131445E-08  0.613E-05    2.37     157.7  T
     SCC iter.                  ...        0 min,  0.068 sec
     gradient                   ...        0 min,  0.017 sec
 * total energy  :  -152.5538778 Eh     change       -0.1563041E-04 Eh
   gradient norm :     0.0015598 Eh/α   predicted    -0.8634902E-05 ( -44.76%)
   displ. norm   :     0.1828820 α      lambda       -0.4713118E-04
   maximum displ.:     0.1159655 α      in ANC's #5, #18, #3, ...

........................................................................
.............................. CYCLE    5 ..............................
........................................................................

 iter      E             dE          RMSdq      gap      omega  full diag
   1   -155.3710529 -0.155371E+03  0.313E-02    2.37       0.0  T
   2   -155.3710539 -0.943707E-06  0.185E-02    2.37       1.0  T
   3   -155.3710505  0.340553E-05  0.531E-03    2.37       1.8  T
   4   -155.3710543 -0.386569E-05  0.640E-04    2.37      15.1  T
   5   -155.3710544 -0.365574E-07  0.293E-04    2.37      33.0  T
   6   -155.3710544 -0.402869E-08  0.164E-04    2.37      58.8  T
     SCC iter.                  ...        0 min,  0.081 sec
     gradient                   ...        0 min,  0.016 sec
 * total energy  :  -152.5539205 Eh     change       -0.4267694E-04 Eh
   gradient norm :     0.0013581 Eh/α   predicted    -0.2391954E-04 ( -43.95%)
   displ. norm   :     0.1222132 α      lambda       -0.1741832E-04
   maximum displ.:     0.0814954 α      in ANC's #5, #18, #3, ...

........................................................................
.............................. CYCLE    6 ..............................
........................................................................

 iter      E             dE          RMSdq      gap      omega  full diag
   1   -155.3707213 -0.155371E+03  0.196E-02    2.37       0.0  T
   2   -155.3707215 -0.114721E-06  0.115E-02    2.37       1.0  T
   3   -155.3707213  0.200443E-06  0.153E-03    2.37       6.3  T
   4   -155.3707215 -0.244126E-06  0.224E-04    2.37      43.2  T
   5   -155.3707215 -0.146790E-08  0.125E-04    2.37      77.6  T
     SCC iter.                  ...        0 min,  0.065 sec
     gradient                   ...        0 min,  0.017 sec
 * total energy  :  -152.5539437 Eh     change       -0.2328480E-04 Eh
   gradient norm :     0.0013767 Eh/α   predicted    -0.8768705E-05 ( -62.34%)
   displ. norm   :     0.1512173 α      lambda       -0.2552202E-04
   maximum displ.:     0.1016534 α      in ANC's #5, #3, #18, ...

........................................................................
.............................. CYCLE    7 ..............................
........................................................................

 iter      E             dE          RMSdq      gap      omega  full diag
   1   -155.3693110 -0.155369E+03  0.234E-02    2.37       0.0  T
   2   -155.3693112 -0.191444E-06  0.137E-02    2.37       1.0  T
   3   -155.3693107  0.536985E-06  0.217E-03    2.37       4.5  T
   4   -155.3693113 -0.622614E-06  0.319E-04    2.37      30.3  T
   5   -155.3693113 -0.619875E-08  0.177E-04    2.37      54.6  T
     SCC iter.                  ...        0 min,  0.065 sec
     gradient                   ...        0 min,  0.017 sec
 * total energy  :  -152.5539759 Eh     change       -0.3216386E-04 Eh
   gradient norm :     0.0006841 Eh/α   predicted    -0.1289138E-04 ( -59.92%)
   displ. norm   :     0.1795113 α      lambda       -0.2468106E-04
   maximum displ.:     0.1217050 α      in ANC's #5, #3, #2, ...

........................................................................
.............................. CYCLE    8 ..............................
........................................................................

 iter      E             dE          RMSdq      gap      omega  full diag
   1   -155.3684520 -0.155368E+03  0.261E-02    2.37       0.0  T
   2   -155.3684522 -0.182684E-06  0.153E-02    2.37       1.0  T
   3   -155.3684518  0.407598E-06  0.194E-03    2.37       5.0  T
   4   -155.3684523 -0.487777E-06  0.315E-04    2.37      30.7  T
   5   -155.3684523 -0.446272E-08  0.179E-04    2.37      54.1  T
     SCC iter.                  ...        0 min,  0.064 sec
     gradient                   ...        0 min,  0.017 sec
 * total energy  :  -152.5540075 Eh     change       -0.3157709E-04 Eh
   gradient norm :     0.0006567 Eh/α   predicted    -0.1251771E-04 ( -60.36%)
   displ. norm   :     0.1918042 α      lambda       -0.2414117E-04
   maximum displ.:     0.1291537 α      in ANC's #5, #3, #2, ...

........................................................................
.............................. CYCLE    9 ..............................
........................................................................

 iter      E             dE          RMSdq      gap      omega  full diag
   1   -155.3683006 -0.155368E+03  0.265E-02    2.37       0.0  T
   2   -155.3683007 -0.120054E-06  0.155E-02    2.37       1.0  T
   3   -155.3683006  0.160858E-06  0.131E-03    2.37       7.4  T
   4   -155.3683008 -0.216666E-06  0.268E-04    2.37      36.0  T
   5   -155.3683008 -0.144939E-08  0.154E-04    2.37      62.7  T
     SCC iter.                  ...        0 min,  0.070 sec
     gradient                   ...        0 min,  0.017 sec
 * total energy  :  -152.5540400 Eh     change       -0.3247353E-04 Eh
   gradient norm :     0.0009569 Eh/α   predicted    -0.1226966E-04 ( -62.22%)
   displ. norm   :     0.2332867 α      lambda       -0.3030331E-04
   maximum displ.:     0.1548519 α      in ANC's #5, #3, #2, ...

........................................................................
.............................. CYCLE   10 ..............................
........................................................................

 iter      E             dE          RMSdq      gap      omega  full diag
   1   -155.3684929 -0.155368E+03  0.306E-02    2.37       0.0  T
   2   -155.3684931 -0.122036E-06  0.179E-02    2.37       1.0  T
   3   -155.3684930  0.841064E-07  0.110E-03    2.37       8.8  T
   4   -155.3684931 -0.145029E-06  0.281E-04    2.37      34.4  T
   5   -155.3684931 -0.488853E-09  0.149E-04    2.37      64.8  T
     SCC iter.                  ...        0 min,  0.064 sec
     gradient                   ...        0 min,  0.017 sec
 * total energy  :  -152.5540810 Eh     change       -0.4101495E-04 Eh
   gradient norm :     0.0011184 Eh/α   predicted    -0.1552063E-04 ( -62.16%)
   displ. norm   :     0.3048459 α      lambda       -0.3926784E-04
   maximum displ.:     0.2011849 α      in ANC's #5, #3, #2, ...

........................................................................
.............................. CYCLE   11 ..............................
........................................................................

 iter      E             dE          RMSdq      gap      omega  full diag
   1   -155.3688882 -0.155369E+03  0.369E-02    2.37       0.0  T
   2   -155.3688884 -0.170230E-06  0.216E-02    2.37       1.0  T
   3   -155.3688883  0.771621E-07  0.124E-03    2.37       7.8  T
   4   -155.3688885 -0.162702E-06  0.331E-04    2.37      29.2  T
   5   -155.3688885 -0.140659E-09  0.164E-04    2.37      59.0  T
     SCC iter.                  ...        0 min,  0.064 sec
     gradient                   ...        0 min,  0.017 sec
 * total energy  :  -152.5541329 Eh     change       -0.5194025E-04 Eh
   gradient norm :     0.0010401 Eh/α   predicted    -0.2044823E-04 ( -60.63%)
   displ. norm   :     0.3711676 α      lambda       -0.4478053E-04
   maximum displ.:     0.2451866 α      in ANC's #5, #3, #2, ...

........................................................................
.............................. CYCLE   12 ..............................
........................................................................

 iter      E             dE          RMSdq      gap      omega  full diag
   1   -155.3692682 -0.155369E+03  0.401E-02    2.37       0.0  T
   2   -155.3692684 -0.226971E-06  0.235E-02    2.37       1.0  T
   3   -155.3692683  0.123528E-06  0.155E-03    2.37       6.2  T
   4   -155.3692685 -0.232723E-06  0.381E-04    2.37      25.4  T
   5   -155.3692685 -0.561585E-09  0.204E-04    2.37      47.4  T
     SCC iter.                  ...        0 min,  0.065 sec
     gradient                   ...        0 min,  0.017 sec
 * total energy  :  -152.5541905 Eh     change       -0.5763725E-04 Eh
   gradient norm :     0.0008045 Eh/α   predicted    -0.2376334E-04 ( -58.77%)
   displ. norm   :     0.3804190 α      lambda       -0.4109493E-04
   maximum displ.:     0.2517704 α      in ANC's #5, #3, #2, ...

........................................................................
.............................. CYCLE   13 ..............................
........................................................................

 iter      E             dE          RMSdq      gap      omega  full diag
   1   -155.3695819 -0.155370E+03  0.359E-02    2.36       0.0  T
   2   -155.3695822 -0.244036E-06  0.210E-02    2.36       1.0  T
   3   -155.3695820  0.219605E-06  0.185E-03    2.36       5.2  T
   4   -155.3695823 -0.323948E-06  0.372E-04    2.36      26.0  T
   5   -155.3695823 -0.198031E-08  0.211E-04    2.36      45.9  T
     SCC iter.                  ...        0 min,  0.064 sec
     gradient                   ...        0 min,  0.017 sec
 * total energy  :  -152.5542428 Eh     change       -0.5221315E-04 Eh
   gradient norm :     0.0006122 Eh/α   predicted    -0.2187077E-04 ( -58.11%)
   displ. norm   :     0.3903621 α      lambda       -0.3770498E-04
   maximum displ.:     0.2580661 α      in ANC's #5, #3, #2, ...

........................................................................
.............................. CYCLE   14 ..............................
........................................................................

 iter      E             dE          RMSdq      gap      omega  full diag
   1   -155.3696140 -0.155370E+03  0.324E-02    2.36       0.0  T
   2   -155.3696143 -0.257474E-06  0.190E-02    2.36       1.0  T
   3   -155.3696139  0.308238E-06  0.208E-03    2.36       4.7  T
   4   -155.3696144 -0.411684E-06  0.373E-04    2.36      25.9  T
   5   -155.3696144 -0.303524E-08  0.209E-04    2.36      46.3  T
     SCC iter.                  ...        0 min,  0.064 sec
     gradient                   ...        0 min,  0.017 sec
 * total energy  :  -152.5542929 Eh     change       -0.5011179E-04 Eh
   gradient norm :     0.0006536 Eh/α   predicted    -0.2013339E-04 ( -59.82%)
   displ. norm   :     0.4629587 α      lambda       -0.4274525E-04
   maximum displ.:     0.3053675 α      in ANC's #5, #3, #2, ...

........................................................................
.............................. CYCLE   15 ..............................
........................................................................

 iter      E             dE          RMSdq      gap      omega  full diag
   1   -155.3693149 -0.155369E+03  0.340E-02    2.36       0.0  T
   2   -155.3693152 -0.308826E-06  0.200E-02    2.36       1.0  T
   3   -155.3693148  0.387213E-06  0.232E-03    2.36       4.2  T
   4   -155.3693153 -0.511850E-06  0.411E-04    2.36      23.5  T
   5   -155.3693154 -0.373731E-08  0.231E-04    2.36      41.9  T
     SCC iter.                  ...        0 min,  0.065 sec
     gradient                   ...        0 min,  0.017 sec
 * total energy  :  -152.5543499 Eh     change       -0.5707615E-04 Eh
   gradient norm :     0.0008024 Eh/α   predicted    -0.2341190E-04 ( -58.98%)
   displ. norm   :     0.5145915 α      lambda       -0.4511652E-04
   maximum displ.:     0.3388451 α      in ANC's #5, #3, #2, ...

........................................................................
.............................. CYCLE   16 ..............................
........................................................................

 iter      E             dE          RMSdq      gap      omega  full diag
   1   -155.3688528 -0.155369E+03  0.332E-02    2.36       0.0  T
   2   -155.3688530 -0.288510E-06  0.195E-02    2.36       1.0  T
   3   -155.3688527  0.304511E-06  0.213E-03    2.36       4.5  T
   4   -155.3688532 -0.425992E-06  0.424E-04    2.36      22.8  T
   5   -155.3688532 -0.282998E-08  0.243E-04    2.36      39.8  T
     SCC iter.                  ...        0 min,  0.064 sec
     gradient                   ...        0 min,  0.017 sec
 * total energy  :  -152.5544065 Eh     change       -0.5652330E-04 Eh
   gradient norm :     0.0009231 Eh/α   predicted    -0.2521481E-04 ( -55.39%)
   displ. norm   :     0.4826256 α      lambda       -0.3808209E-04
   maximum displ.:     0.3167457 α      in ANC's #5, #3, #2, ...

........................................................................
.............................. CYCLE   17 ..............................
........................................................................

 iter      E             dE          RMSdq      gap      omega  full diag
   1   -155.3685240 -0.155369E+03  0.275E-02    2.36       0.0  T
   2   -155.3685242 -0.199621E-06  0.161E-02    2.36       1.0  T
   3   -155.3685240  0.203603E-06  0.170E-03    2.36       5.7  T
   4   -155.3685243 -0.296425E-06  0.380E-04    2.36      25.5  T
   5   -155.3685243 -0.161418E-08  0.216E-04    2.36      44.7  T
     SCC iter.                  ...        0 min,  0.064 sec
     gradient                   ...        0 min,  0.017 sec
 * total energy  :  -152.5544510 Eh     change       -0.4453013E-04 Eh
   gradient norm :     0.0009323 Eh/α   predicted    -0.2101678E-04 ( -52.80%)
   displ. norm   :     0.4238453 α      lambda       -0.2974979E-04
   maximum displ.:     0.2756966 α      in ANC's #5, #3, #2, ...

........................................................................
.............................. CYCLE   18 ..............................
........................................................................

 iter      E             dE          RMSdq      gap      omega  full diag
   1   -155.3684777 -0.155368E+03  0.228E-02    2.36       0.0  T
   2   -155.3684779 -0.162266E-06  0.133E-02    2.36       1.0  T
   3   -155.3684777  0.172010E-06  0.148E-03    2.36       6.5  T
   4   -155.3684779 -0.249678E-06  0.366E-04    2.36      26.4  T
   5   -155.3684779 -0.135810E-08  0.200E-04    2.36      48.3  T
     SCC iter.                  ...        0 min,  0.064 sec
     gradient                   ...        0 min,  0.016 sec
 * total energy  :  -152.5544880 Eh     change       -0.3697291E-04 Eh
   gradient norm :     0.0008758 Eh/α   predicted    -0.1606332E-04 ( -56.55%)
   displ. norm   :     0.5943605 α      lambda       -0.3724136E-04
   maximum displ.:     0.3828420 α      in ANC's #5, #3, #2, ...

........................................................................
.............................. CYCLE   19 ..............................
........................................................................

 iter      E             dE          RMSdq      gap      omega  full diag
   1   -155.3679808 -0.155368E+03  0.325E-02    2.36       0.0  T
   2   -155.3679812 -0.350624E-06  0.190E-02    2.36       1.0  T
   3   -155.3679808  0.348656E-06  0.212E-03    2.36       4.6  T
   4   -155.3679814 -0.517574E-06  0.544E-04    2.36      17.8  T
   5   -155.3679814 -0.145189E-08  0.279E-04    2.36      34.7  T
     SCC iter.                  ...        0 min,  0.065 sec
     gradient                   ...        0 min,  0.018 sec
 * total energy  :  -152.5545302 Eh     change       -0.4227372E-04 Eh
   gradient norm :     0.0010712 Eh/α   predicted    -0.2154764E-04 ( -49.03%)
   displ. norm   :     0.5136523 α      lambda       -0.2692695E-04
   maximum displ.:     0.3260106 α      in ANC's #5, #3, #2, ...

........................................................................
.............................. CYCLE   20 ..............................
........................................................................

 iter      E             dE          RMSdq      gap      omega  full diag
   1   -155.3681110 -0.155368E+03  0.294E-02    2.36       0.0  T
   2   -155.3681114 -0.339660E-06  0.172E-02    2.36       1.0  T
   3   -155.3681110  0.391895E-06  0.219E-03    2.36       4.4  T
   4   -155.3681115 -0.546238E-06  0.517E-04    2.36      18.7  T
   5   -155.3681115 -0.233160E-08  0.271E-04    2.36      35.7  T
     SCC iter.                  ...        0 min,  0.064 sec
     gradient                   ...        0 min,  0.017 sec
 * total energy  :  -152.5545546 Eh     change       -0.2437630E-04 Eh
   gradient norm :     0.0008872 Eh/α   predicted    -0.1504267E-04 ( -38.29%)
   displ. norm   :     0.1509799 α      lambda       -0.8579133E-05
   maximum displ.:     0.0884510 α      in ANC's #5, #3, #2, ...
 * RMSD in coord.:     0.5307409 α      energy gain  -0.7835851E-03 Eh

generating ANC from exact Hessian ...
Using Lindh-Hessian (1995)
 Shifting diagonal of input Hessian by   9.972299554595578E-003
 Lowest  eigenvalues of input Hessian
    0.000000    0.000000    0.000000    0.000000    0.000000    0.000000
    0.010000    0.010010    0.010053    0.010192    0.010225    0.010365
    0.010386    0.010642    0.010782    0.010914    0.010996    0.011152
 Highest eigenvalues
    2.109808    2.140246    2.155601    2.158420    2.194059    2.225067
 

........................................................................
.............................. CYCLE   21 ..............................
........................................................................

 iter      E             dE          RMSdq      gap      omega  full diag
   1   -155.3692819 -0.155369E+03  0.120E-02    2.36       0.0  T
   2   -155.3692819 -0.678576E-07  0.705E-03    2.36       1.4  T
   3   -155.3692818  0.996117E-07  0.108E-03    2.36       8.9  T
   4   -155.3692820 -0.128145E-06  0.213E-04    2.36      45.4  T
   5   -155.3692820 -0.607400E-09  0.117E-04    2.36      82.5  T
     SCC iter.                  ...        0 min,  0.065 sec
     gradient                   ...        0 min,  0.017 sec
 * total energy  :  -152.5545629 Eh     change       -0.8307584E-05 Eh
   gradient norm :     0.0006375 Eh/α   predicted     0.0000000E+00 (-100.00%)
   displ. norm   :     0.0221551 α      lambda       -0.4782920E-06
   maximum displ.:     0.0091440 α      in ANC's #22, #11, #8, ...

........................................................................
.............................. CYCLE   22 ..............................
........................................................................

 iter      E             dE          RMSdq      gap      omega  full diag
   1   -155.3692511 -0.155369E+03  0.445E-03    2.36       0.0  T
   2   -155.3692512 -0.102372E-07  0.263E-03    2.36       3.7  T
   3   -155.3692511  0.271723E-07  0.498E-04    2.36      19.4  T
   4   -155.3692512 -0.314302E-07  0.779E-05    2.36     124.1  T
     SCC iter.                  ...        0 min,  0.052 sec
     gradient                   ...        0 min,  0.017 sec
 * total energy  :  -152.5545672 Eh     change       -0.4250864E-05 Eh
   gradient norm :     0.0002853 Eh/α   predicted    -0.1870091E-05 ( -56.01%)
   displ. norm   :     0.0659320 α      lambda       -0.6764376E-05
   maximum displ.:     0.0266833 α      in ANC's #22, #11, #8, ...

........................................................................
.............................. CYCLE   23 ..............................
........................................................................

 iter      E             dE          RMSdq      gap      omega  full diag
   1   -155.3692277 -0.155369E+03  0.114E-02    2.36       0.0  T
   2   -155.3692278 -0.335578E-07  0.667E-03    2.36       1.4  T
   3   -155.3692277  0.678118E-07  0.839E-04    2.36      11.5  T
   4   -155.3692278 -0.834174E-07  0.134E-04    2.36      72.0  T
     SCC iter.                  ...        0 min,  0.052 sec
     gradient                   ...        0 min,  0.017 sec
 * total energy  :  -152.5545746 Eh     change       -0.7369947E-05 Eh
   gradient norm :     0.0007898 Eh/α   predicted    -0.3391410E-05 ( -53.98%)
   displ. norm   :     0.0849153 α      lambda       -0.5904687E-05
   maximum displ.:     0.0311764 α      in ANC's #8, #22, #11, ...

........................................................................
.............................. CYCLE   24 ..............................
........................................................................

 iter      E             dE          RMSdq      gap      omega  full diag
   1   -155.3690450 -0.155369E+03  0.141E-02    2.37       0.0  T
   2   -155.3690450 -0.415000E-07  0.830E-03    2.37       1.2  T
   3   -155.3690450  0.456018E-07  0.753E-04    2.37      12.8  T
   4   -155.3690450 -0.634728E-07  0.132E-04    2.37      73.0  T
     SCC iter.                  ...        0 min,  0.051 sec
     gradient                   ...        0 min,  0.017 sec
 * total energy  :  -152.5545807 Eh     change       -0.6098164E-05 Eh
   gradient norm :     0.0006678 Eh/α   predicted    -0.2973571E-05 ( -51.24%)
   displ. norm   :     0.0681364 α      lambda       -0.3505058E-05
   maximum displ.:     0.0264732 α      in ANC's #5, #8, #14, ...

........................................................................
.............................. CYCLE   25 ..............................
........................................................................

 iter      E             dE          RMSdq      gap      omega  full diag
   1   -155.3690741 -0.155369E+03  0.108E-02    2.37       0.0  T
   2   -155.3690742 -0.244869E-07  0.633E-03    2.37       1.5  T
   3   -155.3690741  0.390085E-07  0.632E-04    2.37      15.3  T
   4   -155.3690742 -0.506884E-07  0.113E-04    2.37      85.4  T
     SCC iter.                  ...        0 min,  0.052 sec
     gradient                   ...        0 min,  0.017 sec
 * total energy  :  -152.5545844 Eh     change       -0.3768823E-05 Eh
   gradient norm :     0.0003422 Eh/α   predicted    -0.1756840E-05 ( -53.38%)
   displ. norm   :     0.0630105 α      lambda       -0.2956096E-05
   maximum displ.:     0.0275307 α      in ANC's #5, #14, #8, ...

........................................................................
.............................. CYCLE   26 ..............................
........................................................................

 iter      E             dE          RMSdq      gap      omega  full diag
   1   -155.3692475 -0.155369E+03  0.945E-03    2.37       0.0  T
   2   -155.3692476 -0.201651E-07  0.556E-03    2.37       1.7  T
   3   -155.3692475  0.319493E-07  0.566E-04    2.37      17.1  T
   4   -155.3692476 -0.412176E-07  0.107E-04    2.37      90.7  T
     SCC iter.                  ...        0 min,  0.051 sec
     gradient                   ...        0 min,  0.017 sec
 * total energy  :  -152.5545878 Eh     change       -0.3361543E-05 Eh
   gradient norm :     0.0002666 Eh/α   predicted    -0.1481149E-05 ( -55.94%)
   displ. norm   :     0.0709426 α      lambda       -0.3161444E-05
   maximum displ.:     0.0330845 α      in ANC's #5, #14, #1, ...

........................................................................
.............................. CYCLE   27 ..............................
........................................................................

 iter      E             dE          RMSdq      gap      omega  full diag
   1   -155.3695022 -0.155370E+03  0.106E-02    2.37       0.0  T
   2   -155.3695023 -0.243603E-07  0.621E-03    2.37       1.6  T
   3   -155.3695022  0.226924E-07  0.549E-04    2.37      17.6  T
   4   -155.3695023 -0.333264E-07  0.116E-04    2.37      83.0  T
     SCC iter.                  ...        0 min,  0.051 sec
     gradient                   ...        0 min,  0.017 sec
 * total energy  :  -152.5545914 Eh     change       -0.3635537E-05 Eh
   gradient norm :     0.0004594 Eh/α   predicted    -0.1586370E-05 ( -56.36%)
   displ. norm   :     0.0814342 α      lambda       -0.3259677E-05
   maximum displ.:     0.0393123 α      in ANC's #5, #1, #14, ...

........................................................................
.............................. CYCLE   28 ..............................
........................................................................

 iter      E             dE          RMSdq      gap      omega  full diag
   1   -155.3697232 -0.155370E+03  0.123E-02    2.37       0.0  T
   2   -155.3697233 -0.297508E-07  0.723E-03    2.37       1.3  T
   3   -155.3697232  0.242841E-07  0.579E-04    2.37      16.7  T
   4   -155.3697233 -0.374964E-07  0.127E-04    2.37      75.9  T
     SCC iter.                  ...        0 min,  0.051 sec
     gradient                   ...        0 min,  0.017 sec
 * total energy  :  -152.5545951 Eh     change       -0.3726620E-05 Eh
   gradient norm :     0.0004855 Eh/α   predicted    -0.1637807E-05 ( -56.05%)
   displ. norm   :     0.0862906 α      lambda       -0.3096121E-05
   maximum displ.:     0.0427095 α      in ANC's #5, #1, #14, ...

........................................................................
.............................. CYCLE   29 ..............................
........................................................................

 iter      E             dE          RMSdq      gap      omega  full diag
   1   -155.3698051 -0.155370E+03  0.130E-02    2.37       0.0  T
   2   -155.3698051 -0.294392E-07  0.761E-03    2.37       1.3  T
   3   -155.3698051  0.287292E-07  0.596E-04    2.37      16.2  T
   4   -155.3698051 -0.432153E-07  0.132E-04    2.37      73.0  T
     SCC iter.                  ...        0 min,  0.051 sec
     gradient                   ...        0 min,  0.016 sec
 * total energy  :  -152.5545987 Eh     change       -0.3540197E-05 Eh
   gradient norm :     0.0003367 Eh/α   predicted    -0.1554241E-05 ( -56.10%)
   displ. norm   :     0.0848124 α      lambda       -0.2775805E-05
   maximum displ.:     0.0432312 α      in ANC's #5, #1, #14, ...

........................................................................
.............................. CYCLE   30 ..............................
........................................................................

 iter      E             dE          RMSdq      gap      omega  full diag
   1   -155.3697371 -0.155370E+03  0.123E-02    2.37       0.0  T
   2   -155.3697371 -0.247793E-07  0.722E-03    2.37       1.3  T
   3   -155.3697371  0.272732E-07  0.555E-04    2.37      17.4  T
   4   -155.3697371 -0.399642E-07  0.123E-04    2.37      78.7  T
     SCC iter.                  ...        0 min,  0.052 sec
     gradient                   ...        0 min,  0.018 sec
 * total energy  :  -152.5546018 Eh     change       -0.3150343E-05 Eh
   gradient norm :     0.0002074 Eh/α   predicted    -0.1394038E-05 ( -55.75%)
   displ. norm   :     0.0732044 α      lambda       -0.2130493E-05
   maximum displ.:     0.0385666 α      in ANC's #5, #1, #14, ...

........................................................................
.............................. CYCLE   31 ..............................
........................................................................

 iter      E             dE          RMSdq      gap      omega  full diag
   1   -155.3695754 -0.155370E+03  0.990E-03    2.37       0.0  T
   2   -155.3695755 -0.178162E-07  0.582E-03    2.37       1.7  T
   3   -155.3695754  0.173579E-07  0.446E-04    2.37      21.7  T
   4   -155.3695755 -0.256104E-07  0.104E-04    2.37      93.1  T
     SCC iter.                  ...        0 min,  0.053 sec
     gradient                   ...        0 min,  0.017 sec
 * total energy  :  -152.5546043 Eh     change       -0.2471748E-05 Eh
   gradient norm :     0.0002383 Eh/α   predicted    -0.1071235E-05 ( -56.66%)
   displ. norm   :     0.0615242 α      lambda       -0.1779580E-05
   maximum displ.:     0.0330538 α      in ANC's #5, #1, #4, ...

........................................................................
.............................. CYCLE   32 ..............................
........................................................................

 iter      E             dE          RMSdq      gap      omega  full diag
   1   -155.3694405 -0.155369E+03  0.762E-03    2.37       0.0  T
   2   -155.3694405 -0.120321E-07  0.448E-03    2.37       2.2  T
   3   -155.3694405  0.128542E-07  0.368E-04    2.37      26.3  T
   4   -155.3694405 -0.178967E-07  0.838E-05    2.37     115.4  T
     SCC iter.                  ...        0 min,  0.052 sec
     gradient                   ...        0 min,  0.017 sec
 * total energy  :  -152.5546065 Eh     change       -0.2162766E-05 Eh
   gradient norm :     0.0002670 Eh/α   predicted    -0.8941294E-06 ( -58.66%)
   displ. norm   :     0.0725579 α      lambda       -0.2145867E-05
   maximum displ.:     0.0398411 α      in ANC's #1, #5, #3, ...

........................................................................
.............................. CYCLE   33 ..............................
........................................................................

 iter      E             dE          RMSdq      gap      omega  full diag
   1   -155.3693009 -0.155369E+03  0.847E-03    2.37       0.0  T
   2   -155.3693009 -0.145922E-07  0.498E-03    2.37       1.9  T
   3   -155.3693009  0.168531E-07  0.427E-04    2.37      22.6  T
   4   -155.3693009 -0.232301E-07  0.898E-05    2.37     107.7  T
     SCC iter.                  ...        0 min,  0.053 sec
     gradient                   ...        0 min,  0.017 sec
 * total energy  :  -152.5546091 Eh     change       -0.2638192E-05 Eh
   gradient norm :     0.0002521 Eh/α   predicted    -0.1079146E-05 ( -59.10%)
   displ. norm   :     0.0894297 α      lambda       -0.2474905E-05
   maximum displ.:     0.0498924 α      in ANC's #1, #5, #3, ...

........................................................................
.............................. CYCLE   34 ..............................
........................................................................

 iter      E             dE          RMSdq      gap      omega  full diag
   1   -155.3692608 -0.155369E+03  0.103E-02    2.37       0.0  T
   2   -155.3692608 -0.195591E-07  0.605E-03    2.37       1.6  T
   3   -155.3692608  0.192150E-07  0.491E-04    2.37      19.7  T
   4   -155.3692608 -0.281193E-07  0.102E-04    2.37      95.2  T
     SCC iter.                  ...        0 min,  0.052 sec
     gradient                   ...        0 min,  0.017 sec
 * total energy  :  -152.5546120 Eh     change       -0.2924233E-05 Eh
   gradient norm :     0.0002090 Eh/α   predicted    -0.1242704E-05 ( -57.50%)
   displ. norm   :     0.0871850 α      lambda       -0.2090047E-05
   maximum displ.:     0.0499346 α      in ANC's #1, #5, #3, ...

........................................................................
.............................. CYCLE   35 ..............................
........................................................................

 iter      E             dE          RMSdq      gap      omega  full diag
   1   -155.3693385 -0.155369E+03  0.997E-03    2.37       0.0  T
   2   -155.3693385 -0.173273E-07  0.586E-03    2.37       1.6  T
   3   -155.3693385  0.129556E-07  0.453E-04    2.37      21.3  T
   4   -155.3693386 -0.208079E-07  0.946E-05    2.37     102.2  T
     SCC iter.                  ...        0 min,  0.052 sec
     gradient                   ...        0 min,  0.016 sec
 * total energy  :  -152.5546144 Eh     change       -0.2384159E-05 Eh
   gradient norm :     0.0001636 Eh/α   predicted    -0.1052289E-05 ( -55.86%)
   displ. norm   :     0.0662276 α      lambda       -0.1371573E-05
   maximum displ.:     0.0395176 α      in ANC's #1, #5, #3, ...

........................................................................
.............................. CYCLE   36 ..............................
........................................................................

 iter      E             dE          RMSdq      gap      omega  full diag
   1   -155.3695063 -0.155370E+03  0.740E-03    2.37       0.0  T
   2   -155.3695063 -0.103503E-07  0.434E-03    2.37       2.2  T
   3   -155.3695063  0.640352E-08  0.336E-04    2.37      28.7  T
   4   -155.3695063 -0.106806E-07  0.740E-05    2.37     130.7  T
     SCC iter.                  ...        0 min,  0.052 sec
     gradient                   ...        0 min,  0.017 sec
 * total energy  :  -152.5546160 Eh     change       -0.1594411E-05 Eh
   gradient norm :     0.0001477 Eh/α   predicted    -0.6893022E-06 ( -56.77%)
   displ. norm   :     0.0480389 α      lambda       -0.1015759E-05
   maximum displ.:     0.0299789 α      in ANC's #1, #5, #3, ...

........................................................................
.............................. CYCLE   37 ..............................
........................................................................

 iter      E             dE          RMSdq      gap      omega  full diag
   1   -155.3696368 -0.155370E+03  0.512E-03    2.37       0.0  T
   2   -155.3696368 -0.580235E-08  0.301E-03    2.37       3.2  T
   3   -155.3696368  0.569480E-08  0.272E-04    2.37      35.5  T
   4   -155.3696368 -0.803593E-08  0.578E-05    2.37     167.3  T
     SCC iter.                  ...        0 min,  0.052 sec
     gradient                   ...        0 min,  0.017 sec
 * total energy  :  -152.5546173 Eh     change       -0.1243795E-05 Eh
   gradient norm :     0.0001350 Eh/α   predicted    -0.5099178E-06 ( -59.00%)
   displ. norm   :     0.0480925 α      lambda       -0.1020352E-05
   maximum displ.:     0.0305666 α      in ANC's #1, #5, #3, ...

........................................................................
.............................. CYCLE   38 ..............................
........................................................................

 iter      E             dE          RMSdq      gap      omega  full diag
   1   -155.3696927 -0.155370E+03  0.480E-03    2.37       0.0  T
   2   -155.3696927 -0.465113E-08  0.282E-03    2.37       3.4  T
   3   -155.3696927  0.624115E-08  0.260E-04    2.37      37.2  T
   4   -155.3696927 -0.844980E-08  0.556E-05    2.37     174.0  T
     SCC iter.                  ...        0 min,  0.053 sec
     gradient                   ...        0 min,  0.017 sec
 * total energy  :  -152.5546186 Eh     change       -0.1309051E-05 Eh
   gradient norm :     0.0001364 Eh/α   predicted    -0.5145127E-06 ( -60.70%)
   displ. norm   :     0.0523535 α      lambda       -0.1098627E-05
   maximum displ.:     0.0336518 α      in ANC's #1, #5, #2, ...

........................................................................
.............................. CYCLE   39 ..............................
........................................................................

 iter      E             dE          RMSdq      gap      omega  full diag
   1   -155.3696899 -0.155370E+03  0.489E-03    2.37       0.0  T
   2   -155.3696899 -0.422867E-08  0.287E-03    2.37       3.4  T
   3   -155.3696899  0.859828E-08  0.286E-04    2.37      33.7  T
   4   -155.3696899 -0.111277E-07  0.572E-05    2.37     168.9  T
     SCC iter.                  ...        0 min,  0.052 sec
     gradient                   ...        0 min,  0.017 sec
 * total energy  :  -152.5546200 Eh     change       -0.1408179E-05 Eh
   gradient norm :     0.0001359 Eh/α   predicted    -0.5527599E-06 ( -60.75%)
   displ. norm   :     0.0557713 α      lambda       -0.1135961E-05
   maximum displ.:     0.0361939 α      in ANC's #1, #5, #2, ...

........................................................................
.............................. CYCLE   40 ..............................
........................................................................

 iter      E             dE          RMSdq      gap      omega  full diag
   1   -155.3695958 -0.155370E+03  0.499E-03    2.37       0.0  T
   2   -155.3695958 -0.481594E-08  0.293E-03    2.37       3.3  T
   3   -155.3695958  0.108490E-07  0.319E-04    2.37      30.3  T
   4   -155.3695958 -0.137653E-07  0.634E-05    2.37     152.5  T
     SCC iter.                  ...        0 min,  0.052 sec
     gradient                   ...        0 min,  0.016 sec
 * total energy  :  -152.5546214 Eh     change       -0.1462618E-05 Eh
   gradient norm :     0.0001288 Eh/α   predicted    -0.5712384E-06 ( -60.94%)
   displ. norm   :     0.0587065 α      lambda       -0.1135383E-05
   maximum displ.:     0.0385150 α      in ANC's #1, #5, #2, ...

........................................................................
.............................. CYCLE   41 ..............................
........................................................................

 iter      E             dE          RMSdq      gap      omega  full diag
   1   -155.3694949 -0.155369E+03  0.520E-03    2.37       0.0  T
   2   -155.3694949 -0.598178E-08  0.305E-03    2.37       3.2  T
   3   -155.3694949  0.126849E-07  0.346E-04    2.37      27.9  T
   4   -155.3694949 -0.158743E-07  0.689E-05    2.37     140.4  T
     SCC iter.                  ...        0 min,  0.052 sec
     gradient                   ...        0 min,  0.016 sec
 * total energy  :  -152.5546229 Eh     change       -0.1440647E-05 Eh
   gradient norm :     0.0001211 Eh/α   predicted    -0.5706254E-06 ( -60.39%)
   displ. norm   :     0.0543118 α      lambda       -0.9729107E-06
   maximum displ.:     0.0361797 α      in ANC's #1, #5, #2, ...

........................................................................
.............................. CYCLE   42 ..............................
........................................................................

 iter      E             dE          RMSdq      gap      omega  full diag
   1   -155.3694090 -0.155369E+03  0.484E-03    2.37       0.0  T
   2   -155.3694090 -0.534845E-08  0.284E-03    2.37       3.4  T
   3   -155.3694090  0.103351E-07  0.319E-04    2.37      30.3  T
   4   -155.3694090 -0.130304E-07  0.642E-05    2.37     150.6  T
     SCC iter.                  ...        0 min,  0.052 sec
     gradient                   ...        0 min,  0.017 sec
 * total energy  :  -152.5546241 Eh     change       -0.1239232E-05 Eh
   gradient norm :     0.0001184 Eh/α   predicted    -0.4887757E-06 ( -60.56%)
   displ. norm   :     0.0442888 α      lambda       -0.7828720E-06
   maximum displ.:     0.0296889 α      in ANC's #1, #5, #2, ...
 * RMSD in coord.:     0.1148835 α      energy gain  -0.6948866E-04 Eh

generating ANC from exact Hessian ...
Using Lindh-Hessian (1995)
 Shifting diagonal of input Hessian by   9.972243443782600E-003
 Lowest  eigenvalues of input Hessian
    0.000000    0.000000    0.000000    0.000000    0.000000    0.000000
    0.010000    0.010011    0.010052    0.010193    0.010225    0.010365
    0.010385    0.010642    0.010781    0.010913    0.010998    0.011150
 Highest eigenvalues
    2.109927    2.139481    2.156190    2.158486    2.194612    2.225807
 

........................................................................
.............................. CYCLE   43 ..............................
........................................................................

 iter      E             dE          RMSdq      gap      omega  full diag
   1   -155.3693908 -0.155369E+03  0.402E-03    2.37       0.0  T
   2   -155.3693908 -0.339324E-08  0.236E-03    2.37       4.1  T
   3   -155.3693908  0.554223E-08  0.241E-04    2.37      40.2  T
   4   -155.3693908 -0.715443E-08  0.485E-05    2.37     199.3  T
     SCC iter.                  ...        0 min,  0.053 sec
     gradient                   ...        0 min,  0.017 sec
 * total energy  :  -152.5546251 Eh     change       -0.1008431E-05 Eh
   gradient norm :     0.0001064 Eh/α   predicted     0.0000000E+00 (-100.00%)
   displ. norm   :     0.0068529 α      lambda       -0.1583497E-07
   maximum displ.:     0.0041603 α      in ANC's #1, #4, #11, ...

........................................................................
.............................. CYCLE   44 ..............................
........................................................................

 iter      E             dE          RMSdq      gap      omega  full diag
   1   -155.3694331 -0.155369E+03  0.758E-04    2.37       0.0  T
   2   -155.3694331 -0.364935E-09  0.447E-04    2.37      21.6  T
   3   -155.3694331  0.389434E-09  0.715E-05    2.37     135.1  T
     SCC iter.                  ...        0 min,  0.040 sec
     gradient                   ...        0 min,  0.017 sec
 * total energy  :  -152.5546255 Eh     change       -0.3689049E-06 Eh
   gradient norm :     0.0000714 Eh/α   predicted    -0.1358640E-06 ( -63.17%)
   displ. norm   :     0.0297076 α      lambda       -0.9847414E-06
   maximum displ.:     0.0164905 α      in ANC's #1, #4, #11, ...

........................................................................
.............................. CYCLE   45 ..............................
........................................................................

 iter      E             dE          RMSdq      gap      omega  full diag
   1   -155.3696097 -0.155370E+03  0.325E-03    2.37       0.0  T
   2   -155.3696097 -0.496254E-08  0.191E-03    2.37       5.1  T
   3   -155.3696097  0.731058E-08  0.275E-04    2.37      35.2  T
   4   -155.3696097 -0.911982E-08  0.645E-05    2.37     149.8  T
     SCC iter.                  ...        0 min,  0.052 sec
     gradient                   ...        0 min,  0.017 sec
 * total energy  :  -152.5546266 Eh     change       -0.1065123E-05 Eh
   gradient norm :     0.0001312 Eh/α   predicted    -0.4928102E-06 ( -53.73%)
   displ. norm   :     0.0305566 α      lambda       -0.6347045E-06
   maximum displ.:     0.0178794 α      in ANC's #1, #4, #11, ...

........................................................................
.............................. CYCLE   46 ..............................
........................................................................

 iter      E             dE          RMSdq      gap      omega  full diag
   1   -155.3696866 -0.155370E+03  0.331E-03    2.37       0.0  T
   2   -155.3696866 -0.285218E-08  0.195E-03    2.37       5.0  T
   3   -155.3696866  0.650962E-08  0.242E-04    2.37      40.0  T
   4   -155.3696866 -0.807762E-08  0.516E-05    2.37     187.4  T
     SCC iter.                  ...        0 min,  0.053 sec
     gradient                   ...        0 min,  0.016 sec
 * total energy  :  -152.5546273 Eh     change       -0.7537426E-06 Eh
   gradient norm :     0.0001667 Eh/α   predicted    -0.3189246E-06 ( -57.69%)
   displ. norm   :     0.0330567 α      lambda       -0.6551817E-06
   maximum displ.:     0.0194807 α      in ANC's #1, #4, #2, ...

........................................................................
.............................. CYCLE   47 ..............................
........................................................................

 iter      E             dE          RMSdq      gap      omega  full diag
   1   -155.3696922 -0.155370E+03  0.366E-03    2.37       0.0  T
   2   -155.3696922 -0.288770E-08  0.215E-03    2.37       4.5  T
   3   -155.3696922  0.573300E-08  0.230E-04    2.37      42.0  T
   4   -155.3696922 -0.731723E-08  0.489E-05    2.37     197.8  T
     SCC iter.                  ...        0 min,  0.053 sec
     gradient                   ...        0 min,  0.017 sec
 * total energy  :  -152.5546282 Eh     change       -0.8736704E-06 Eh
   gradient norm :     0.0001562 Eh/α   predicted    -0.3289953E-06 ( -62.34%)
   displ. norm   :     0.0498916 α      lambda       -0.1079260E-05
   maximum displ.:     0.0293910 α      in ANC's #1, #4, #2, ...

........................................................................
.............................. CYCLE   48 ..............................
........................................................................

 iter      E             dE          RMSdq      gap      omega  full diag
   1   -155.3696069 -0.155370E+03  0.569E-03    2.37       0.0  T
   2   -155.3696069 -0.690542E-08  0.334E-03    2.37       2.9  T
   3   -155.3696068  0.111020E-07  0.330E-04    2.37      29.3  T
   4   -155.3696069 -0.145100E-07  0.679E-05    2.37     142.4  T
     SCC iter.                  ...        0 min,  0.052 sec
     gradient                   ...        0 min,  0.017 sec
 * total energy  :  -152.5546296 Eh     change       -0.1411578E-05 Eh
   gradient norm :     0.0001022 Eh/α   predicted    -0.5440931E-06 ( -61.45%)
   displ. norm   :     0.0714570 α      lambda       -0.1411258E-05
   maximum displ.:     0.0425447 α      in ANC's #1, #4, #2, ...

........................................................................
.............................. CYCLE   49 ..............................
........................................................................

 iter      E             dE          RMSdq      gap      omega  full diag
   1   -155.3694731 -0.155369E+03  0.816E-03    2.37       0.0  T
   2   -155.3694731 -0.129460E-07  0.479E-03    2.37       2.0  T
   3   -155.3694731  0.163454E-07  0.422E-04    2.37      22.9  T
   4   -155.3694731 -0.227385E-07  0.926E-05    2.37     104.4  T
     SCC iter.                  ...        0 min,  0.052 sec
     gradient                   ...        0 min,  0.016 sec
 * total energy  :  -152.5546313 Eh     change       -0.1746788E-05 Eh
   gradient norm :     0.0001074 Eh/α   predicted    -0.7090753E-06 ( -59.41%)
   displ. norm   :     0.0695661 α      lambda       -0.1188318E-05
   maximum displ.:     0.0418744 α      in ANC's #1, #4, #2, ...

........................................................................
.............................. CYCLE   50 ..............................
........................................................................

 iter      E             dE          RMSdq      gap      omega  full diag
   1   -155.3693791 -0.155369E+03  0.791E-03    2.37       0.0  T
   2   -155.3693791 -0.107835E-07  0.464E-03    2.37       2.1  T
   3   -155.3693791  0.123367E-07  0.378E-04    2.37      25.6  T
   4   -155.3693791 -0.179549E-07  0.860E-05    2.37     112.4  T
     SCC iter.                  ...        0 min,  0.052 sec
     gradient                   ...        0 min,  0.016 sec
 * total energy  :  -152.5546328 Eh     change       -0.1432011E-05 Eh
   gradient norm :     0.0001483 Eh/α   predicted    -0.5965924E-06 ( -58.34%)
   displ. norm   :     0.0543560 α      lambda       -0.9805186E-06
   maximum displ.:     0.0330615 α      in ANC's #1, #4, #2, ...

........................................................................
.............................. CYCLE   51 ..............................
........................................................................

 iter      E             dE          RMSdq      gap      omega  full diag
   1   -155.3693784 -0.155369E+03  0.616E-03    2.37       0.0  T
   2   -155.3693784 -0.618419E-08  0.362E-03    2.37       2.7  T
   3   -155.3693784  0.514692E-08  0.271E-04    2.37      35.7  T
   4   -155.3693784 -0.839611E-08  0.680E-05    2.37     142.1  T
     SCC iter.                  ...        0 min,  0.053 sec
     gradient                   ...        0 min,  0.016 sec
 * total energy  :  -152.5546341 Eh     change       -0.1331618E-05 Eh
   gradient norm :     0.0001500 Eh/α   predicted    -0.4955184E-06 ( -62.79%)
   displ. norm   :     0.0770285 α      lambda       -0.1614819E-05
   maximum displ.:     0.0469807 α      in ANC's #1, #4, #2, ...

........................................................................
.............................. CYCLE   52 ..............................
........................................................................

 iter      E             dE          RMSdq      gap      omega  full diag
   1   -155.3694269 -0.155369E+03  0.879E-03    2.37       0.0  T
   2   -155.3694269 -0.138409E-07  0.516E-03    2.37       1.9  T
   3   -155.3694269  0.124363E-07  0.415E-04    2.37      23.3  T
   4   -155.3694269 -0.190836E-07  0.955E-05    2.37     101.2  T
     SCC iter.                  ...        0 min,  0.052 sec
     gradient                   ...        0 min,  0.017 sec
 * total energy  :  -152.5546362 Eh     change       -0.2060569E-05 Eh
   gradient norm :     0.0001176 Eh/α   predicted    -0.8152637E-06 ( -60.44%)
   displ. norm   :     0.0915467 α      lambda       -0.1649282E-05
   maximum displ.:     0.0562321 α      in ANC's #1, #4, #2, ...

........................................................................
.............................. CYCLE   53 ..............................
........................................................................

 iter      E             dE          RMSdq      gap      omega  full diag
   1   -155.3694982 -0.155369E+03  0.103E-02    2.37       0.0  T
   2   -155.3694982 -0.213383E-07  0.604E-03    2.37       1.6  T
   3   -155.3694982  0.219198E-07  0.536E-04    2.37      18.0  T
   4   -155.3694982 -0.317185E-07  0.118E-04    2.37      82.1  T
     SCC iter.                  ...        0 min,  0.053 sec
     gradient                   ...        0 min,  0.016 sec
 * total energy  :  -152.5546381 Eh     change       -0.1938103E-05 Eh
   gradient norm :     0.0000909 Eh/α   predicted    -0.8305231E-06 ( -57.15%)
   displ. norm   :     0.0677202 α      lambda       -0.9296780E-06
   maximum displ.:     0.0422374 α      in ANC's #1, #4, #2, ...

........................................................................
.............................. CYCLE   54 ..............................
........................................................................

 iter      E             dE          RMSdq      gap      omega  full diag
   1   -155.3696034 -0.155370E+03  0.731E-03    2.37       0.0  T
   2   -155.3696034 -0.110449E-07  0.430E-03    2.37       2.3  T
   3   -155.3696034  0.125659E-07  0.395E-04    2.37      24.5  T
   4   -155.3696034 -0.175470E-07  0.838E-05    2.37     115.3  T
     SCC iter.                  ...        0 min,  0.052 sec
     gradient                   ...        0 min,  0.016 sec
 * total energy  :  -152.5546392 Eh     change       -0.1130479E-05 Eh
   gradient norm :     0.0000917 Eh/α   predicted    -0.4682621E-06 ( -58.58%)
   displ. norm   :     0.0515184 α      lambda       -0.7193073E-06
   maximum displ.:     0.0324728 α      in ANC's #1, #4, #2, ...

........................................................................
.............................. CYCLE   55 ..............................
........................................................................

 iter      E             dE          RMSdq      gap      omega  full diag
   1   -155.3696567 -0.155370E+03  0.514E-03    2.37       0.0  T
   2   -155.3696568 -0.534220E-08  0.302E-03    2.37       3.2  T
   3   -155.3696567  0.492855E-08  0.259E-04    2.37      37.3  T
   4   -155.3696568 -0.736236E-08  0.606E-05    2.37     159.4  T
     SCC iter.                  ...        0 min,  0.052 sec
     gradient                   ...        0 min,  0.016 sec
 * total energy  :  -152.5546402 Eh     change       -0.9576542E-06 Eh
   gradient norm :     0.0000945 Eh/α   predicted    -0.3637238E-06 ( -62.02%)
   displ. norm   :     0.0603312 α      lambda       -0.9827103E-06
   maximum displ.:     0.0380807 α      in ANC's #1, #4, #2, ...

........................................................................
.............................. CYCLE   56 ..............................
........................................................................

 iter      E             dE          RMSdq      gap      omega  full diag
   1   -155.3697075 -0.155370E+03  0.545E-03    2.37       0.0  T
   2   -155.3697075 -0.576952E-08  0.320E-03    2.37       3.0  T
   3   -155.3697075  0.329521E-08  0.238E-04    2.37      40.6  T
   4   -155.3697075 -0.591231E-08  0.629E-05    2.37     153.6  T
     SCC iter.                  ...        0 min,  0.051 sec
     gradient                   ...        0 min,  0.016 sec
 * total energy  :  -152.5546415 Eh     change       -0.1319400E-05 Eh
   gradient norm :     0.0000989 Eh/α   predicted    -0.4960567E-06 ( -62.40%)
   displ. norm   :     0.0790545 α      lambda       -0.1299073E-05
   maximum displ.:     0.0495683 α      in ANC's #1, #4, #3, ...

........................................................................
.............................. CYCLE   57 ..............................
........................................................................

 iter      E             dE          RMSdq      gap      omega  full diag
   1   -155.3696805 -0.155370E+03  0.651E-03    2.37       0.0  T
   2   -155.3696805 -0.805630E-08  0.382E-03    2.37       2.5  T
   3   -155.3696805  0.238757E-08  0.250E-04    2.37      38.7  T
   4   -155.3696805 -0.619741E-08  0.764E-05    2.37     126.5  T
     SCC iter.                  ...        0 min,  0.052 sec
     gradient                   ...        0 min,  0.016 sec
 * total energy  :  -152.5546432 Eh     change       -0.1661526E-05 Eh
   gradient norm :     0.0000973 Eh/α   predicted    -0.6553622E-06 ( -60.56%)
   displ. norm   :     0.0846513 α      lambda       -0.1203876E-05
   maximum displ.:     0.0531298 α      in ANC's #1, #4, #3, ...

........................................................................
.............................. CYCLE   58 ..............................
........................................................................

 iter      E             dE          RMSdq      gap      omega  full diag
   1   -155.3696351 -0.155370E+03  0.632E-03    2.37       0.0  T
   2   -155.3696351 -0.830906E-08  0.371E-03    2.37       2.6  T
   3   -155.3696351  0.366822E-08  0.270E-04    2.37      35.7  T
   4   -155.3696351 -0.760730E-08  0.800E-05    2.37     120.8  T
     SCC iter.                  ...        0 min,  0.051 sec
     gradient                   ...        0 min,  0.017 sec
 * total energy  :  -152.5546447 Eh     change       -0.1492830E-05 Eh
   gradient norm :     0.0000927 Eh/α   predicted    -0.6066940E-06 ( -59.36%)
   displ. norm   :     0.0704665 α      lambda       -0.9168905E-06
   maximum displ.:     0.0443200 α      in ANC's #1, #4, #3, ...

........................................................................
.............................. CYCLE   59 ..............................
........................................................................

 iter      E             dE          RMSdq      gap      omega  full diag
   1   -155.3695704 -0.155370E+03  0.458E-03    2.37       0.0  T
   2   -155.3695704 -0.527345E-08  0.269E-03    2.37       3.6  T
   3   -155.3695704  0.630013E-08  0.272E-04    2.37      35.5  T
   4   -155.3695704 -0.889744E-08  0.663E-05    2.37     145.8  T
     SCC iter.                  ...        0 min,  0.053 sec
     gradient                   ...        0 min,  0.016 sec
 * total energy  :  -152.5546458 Eh     change       -0.1176387E-05 Eh
   gradient norm :     0.0000923 Eh/α   predicted    -0.4615190E-06 ( -60.77%)
   displ. norm   :     0.0726581 α      lambda       -0.1006881E-05
   maximum displ.:     0.0459071 α      in ANC's #1, #4, #3, ...

........................................................................
.............................. CYCLE   60 ..............................
........................................................................

 iter      E             dE          RMSdq      gap      omega  full diag
   1   -155.3695075 -0.155370E+03  0.398E-03    2.37       0.0  T
   2   -155.3695075 -0.495797E-08  0.234E-03    2.37       4.1  T
   3   -155.3695075  0.716943E-08  0.281E-04    2.37      34.4  T
   4   -155.3695075 -0.955103E-08  0.642E-05    2.37     150.6  T
     SCC iter.                  ...        0 min,  0.051 sec
     gradient                   ...        0 min,  0.016 sec
 * total energy  :  -152.5546472 Eh     change       -0.1361773E-05 Eh
   gradient norm :     0.0000913 Eh/α   predicted    -0.5063013E-06 ( -62.82%)
   displ. norm   :     0.0897686 α      lambda       -0.1353832E-05
   maximum displ.:     0.0566068 α      in ANC's #1, #4, #3, ...

........................................................................
.............................. CYCLE   61 ..............................
........................................................................

 iter      E             dE          RMSdq      gap      omega  full diag
   1   -155.3694284 -0.155369E+03  0.430E-03    2.37       0.0  T
   2   -155.3694284 -0.649271E-08  0.253E-03    2.37       3.8  T
   3   -155.3694284  0.102428E-07  0.333E-04    2.37      29.0  T
   4   -155.3694284 -0.134343E-07  0.744E-05    2.37     129.9  T
     SCC iter.                  ...        0 min,  0.054 sec
     gradient                   ...        0 min,  0.016 sec
 * total energy  :  -152.5546490 Eh     change       -0.1820272E-05 Eh
   gradient norm :     0.0000966 Eh/α   predicted    -0.6813895E-06 ( -62.57%)
   displ. norm   :     0.1256389 α      lambda       -0.1870940E-05
   maximum displ.:     0.0791735 α      in ANC's #1, #4, #3, ...

........................................................................
.............................. CYCLE   62 ..............................
........................................................................

 iter      E             dE          RMSdq      gap      omega  full diag
   1   -155.3693366 -0.155369E+03  0.579E-03    2.37       0.0  T
   2   -155.3693366 -0.107291E-07  0.340E-03    2.37       2.8  T
   3   -155.3693365  0.166075E-07  0.428E-04    2.37      22.6  T
   4   -155.3693366 -0.222102E-07  0.984E-05    2.37      98.2  T
     SCC iter.                  ...        0 min,  0.052 sec
     gradient                   ...        0 min,  0.016 sec
 * total energy  :  -152.5546515 Eh     change       -0.2449046E-05 Eh
   gradient norm :     0.0001106 Eh/α   predicted    -0.9448265E-06 ( -61.42%)
   displ. norm   :     0.1662681 α      lambda       -0.2271836E-05
   maximum displ.:     0.1047892 α      in ANC's #1, #4, #3, ...

........................................................................
.............................. CYCLE   63 ..............................
........................................................................

 iter      E             dE          RMSdq      gap      omega  full diag
   1   -155.3692601 -0.155369E+03  0.789E-03    2.37       0.0  T
   2   -155.3692602 -0.164626E-07  0.463E-03    2.37       2.1  T
   3   -155.3692601  0.205897E-07  0.498E-04    2.37      19.4  T
   4   -155.3692602 -0.295907E-07  0.128E-04    2.37      75.8  T
     SCC iter.                  ...        0 min,  0.054 sec
     gradient                   ...        0 min,  0.016 sec
 * total energy  :  -152.5546545 Eh     change       -0.2981968E-05 Eh
   gradient norm :     0.0001331 Eh/α   predicted    -0.1153852E-05 ( -61.31%)
   displ. norm   :     0.2104914 α      lambda       -0.2700351E-05
   maximum displ.:     0.1327447 α      in ANC's #1, #4, #3, ...

........................................................................
.............................. CYCLE   64 ..............................
........................................................................

 iter      E             dE          RMSdq      gap      omega  full diag
   1   -155.3691787 -0.155369E+03  0.106E-02    2.37       0.0  T
   2   -155.3691788 -0.255172E-07  0.622E-03    2.37       1.6  T
   3   -155.3691787  0.263064E-07  0.590E-04    2.37      16.4  T
   4   -155.3691788 -0.405628E-07  0.160E-04    2.37      60.4  T
     SCC iter.                  ...        0 min,  0.053 sec
     gradient                   ...        0 min,  0.016 sec
 * total energy  :  -152.5546581 Eh     change       -0.3630233E-05 Eh
   gradient norm :     0.0001613 Eh/α   predicted    -0.1381677E-05 ( -61.94%)
   displ. norm   :     0.3088403 α      lambda       -0.3989978E-05
   maximum displ.:     0.1948550 α      in ANC's #1, #4, #3, ...

........................................................................
.............................. CYCLE   65 ..............................
........................................................................

 iter      E             dE          RMSdq      gap      omega  full diag
   1   -155.3690418 -0.155369E+03  0.167E-02    2.37       0.0  T
   2   -155.3690419 -0.565250E-07  0.976E-03    2.37       1.0  T
   3   -155.3690419  0.426627E-07  0.814E-04    2.37      11.9  T
[...]
eigval :     1151.63  1171.64  1174.96  1180.06  1180.12  1182.68
eigval :     1183.44  1185.16  1188.59  1191.82  1208.79  1211.85
eigval :     1225.37  1225.46  1227.54  1228.78  1229.41  1230.06
eigval :     1236.82  1239.28  1243.42  1256.95  1258.81  1266.65
eigval :     1267.54  1270.71  1273.38  1277.90  1283.61  1297.06
eigval :     1306.74  1308.31  1309.31  1313.60  1314.87  1324.95
eigval :     1325.56  1332.49  1333.86  1345.61  1357.67  1362.87
eigval :     1377.79  1398.91  1400.51  1402.03  1403.12  1404.60
eigval :     1413.23  1420.19  1425.26  1427.41  1430.38  1434.86
eigval :     1437.82  1437.97  1441.52  1451.38  1468.90  1470.60
eigval :     1474.49  1481.04  1483.99  1488.55  1489.60  1492.08
eigval :     1492.68  1492.76  1499.02  1499.45  1500.65  1501.80
eigval :     1502.97  1511.38  1511.53  1517.64  1518.56  1556.60
eigval :     1569.24  1571.11  1575.37  1580.55  1581.93  1583.93
eigval :     1586.89  1589.67  1592.01  1592.44  1599.92  1602.20
eigval :     1603.19  1606.58  1616.30  3017.50  3017.56  3018.44
eigval :     3018.50  3021.99  3022.08  3023.52  3023.80  3025.73
eigval :     3025.89  3029.53  3029.79  3034.46  3034.59  3043.09
eigval :     3043.18  3046.35  3046.43  3068.47  3071.46  3072.25
eigval :     3073.48  3073.80  3074.23  3074.48  3075.54  3076.95
eigval :     3077.07  3077.28  3077.79  3079.18  3079.43  3082.85
eigval :     3084.84  3085.35  3087.23  3088.06  3088.38  3088.48
eigval :     3088.84  3089.31  3090.37  3092.01  3096.44  3097.44
eigval :     3101.22  3112.67  3115.48
 reduced masses (amu)
   1: 11.42   2: 11.00   3: 11.26   4: 11.20   5: 10.94   6: 11.18   7: 10.72   8: 10.76
   9: 10.74  10: 10.78  11: 10.51  12:  8.98  13:  8.63  14: 10.43  15: 10.63  16: 10.41
  17: 10.62  18: 10.48  19: 10.22  20: 10.21  21: 10.64  22: 10.74  23: 10.43  24:  9.88
  25: 10.25  26: 10.00  27: 10.63  28: 10.31  29: 10.42  30: 10.18  31:  4.51  32: 10.58
  33:  3.62  34:  9.35  35:  9.86  36:  9.86  37:  6.79  38:  4.55  39:  6.84  40:  5.28
  41:  7.00  42: 10.31  43: 10.22  44: 10.14  45:  9.75  46: 10.29  47: 10.38  48:  9.72
  49: 10.20  50:  9.96  51:  1.91  52:  2.19  53:  9.43  54:  8.89  55:  9.55  56:  8.73
  57:  9.44  58: 10.87  59:  9.17  60: 10.35  61:  9.16  62: 11.01  63:  9.28  64:  9.86
  65: 10.32  66: 10.51  67:  9.32  68:  9.75  69: 10.21  70: 10.02  71:  9.04  72:  9.32
  73: 10.79  74:  9.54  75:  9.94  76:  9.67  77: 10.97  78: 10.64  79: 10.95  80: 10.39
  81: 10.67  82: 10.17  83: 10.06  84:  9.60  85: 10.10  86: 10.75  87: 10.33  88: 10.38
  89: 10.50  90: 11.20  91: 11.35  92: 11.28  93: 11.19  94: 11.16  95: 10.99  96: 11.14
  97: 11.26  98: 10.91  99: 10.63 100: 10.77 101: 10.03 102: 11.36 103: 11.48 104: 11.48
 105: 11.16 106: 10.65 107: 11.53 108: 11.24 109: 10.95 110: 11.08 111: 11.21 112: 11.05
 113:  5.15 114:  4.61 115:  3.49 116:  4.17 117: 10.24 118:  4.83 119:  4.52 120:  4.54
 121: 10.13 122:  5.08 123:  3.39 124:  3.33 125:  3.51 126:  8.17 127:  4.32 128:  3.37
 129:  3.33 130:  3.47 131:  3.39 132:  9.45 133:  6.11 134:  5.03 135:  5.79 136: 10.66
 137:  3.43 138:  4.36 139:  4.14 140:  6.60 141:  4.71 142: 10.79 143:  3.26 144:  4.66
 145:  6.68 146:  5.41 147:  3.28 148:  7.74 149:  4.20 150:  3.08 151:  4.51 152: 11.07
 153: 11.04 154:  5.28 155:  5.40 156:  4.20 157:  4.46 158:  4.09 159:  3.61 160: 10.83
 161: 11.14 162:  9.15 163:  5.60 164:  4.16 165:  4.02 166:  4.32 167:  6.88 168:  6.05
 169:  6.65 170:  6.51 171:  9.51 172:  6.54 173:  6.14 174:  3.93 175:  7.32 176:  7.01
 177:  6.27 178:  3.13 179:  6.47 180:  6.44 181:  5.71 182:  5.19 183:  4.06 184:  2.82
 185:  1.57 186:  2.30 187:  1.37 188:  2.05 189:  2.33 190:  4.21 191:  7.17 192:  4.22
 193:  9.15 194:  9.15 195:  4.97 196:  8.81 197:  6.21 198:  8.35 199:  5.36 200:  7.43
 201:  8.46 202:  5.33 203:  4.20 204:  4.07 205:  4.96 206:  5.39 207:  4.07 208:  6.44
 209:  7.40 210:  9.45 211: 10.58 212: 11.66 213: 10.38 214: 11.54 215: 10.44 216: 11.80
 217: 11.93 218: 10.23 219: 11.58 220: 11.55 221: 11.05 222: 10.37 223: 10.94 224:  4.82
 225:  4.68 226:  3.19 227:  6.38 228:  4.82 229:  9.72 230: 10.37 231:  2.96 232:  2.97
 233:  8.94 234:  9.23 235:  9.65 236:  9.61 237: 10.23 238: 10.14 239:  9.20 240: 10.25
 241:  9.95 242:  9.93 243: 10.73 244:  1.68 245:  1.62 246:  1.60 247:  2.34 248:  9.22
 249:  2.50 250:  2.03 251:  9.65 252:  1.79 253:  1.77 254:  1.58 255:  1.58 256:  1.64
 257:  1.77 258: 11.62 259: 11.64 260: 11.58 261: 11.69 262: 11.62 263: 11.52 264: 11.68
 265: 11.48 266: 11.55 267: 11.55 268: 11.50 269: 11.60 270: 11.61 271: 11.72 272: 11.69
 273: 11.70 274:  1.93 275:  1.93 276:  1.94 277:  1.94 278:  1.80 279:  1.80 280:  1.93
 281:  1.93 282:  1.65 283:  1.65 284:  1.86 285:  1.85 286:  1.28 287:  1.29 288:  1.50
 289:  1.51 290:  1.52 291:  1.51 292:  1.75 293:  1.80 294:  1.79 295:  1.76 296:  1.75
 297:  1.78 298:  1.78 299:  1.78 300:  1.81 301:  1.81 302:  1.76 303:  1.78 304:  1.83
 305:  1.81 306:  1.85 307:  1.85 308:  1.84 309:  1.87 310:  1.87 311:  1.90 312:  1.88
 313:  1.87 314:  1.86 315:  1.88 316:  1.88 317:  1.89 318:  1.92 319:  1.86 320:  1.82
 321:  1.82
 IR intensities (km·mol⁻¹)
   1:  0.00   2:  0.01   3:  0.01   4:  0.01   5:  0.01   6:  0.00   7:  0.08   8:  0.04
   9:  0.01  10:  0.02  11:  0.08  12:  0.02  13:  0.02  14:  0.11  15:  0.03  16:  0.27
  17:  0.09  18:  0.10  19:  0.06  20:  0.75  21:  0.05  22:  0.10  23:  0.15  24:  2.73
  25:  0.03  26:  0.11  27:  0.59  28:  0.02  29:  0.05  30:  0.04  31:  0.36  32:  0.71
  33:  0.21  34:  0.50  35:  0.04  36:  0.07  37:  0.59  38:  0.36  39:  0.53  40:  0.06
  41:  0.07  42:  0.07  43:  0.38  44:  0.65  45:  1.62  46:  0.50  47:  0.74  48:  0.03
  49:  0.04  50:  0.16  51:  0.01  52:  0.04  53:  0.12  54:  0.41  55:  0.32  56:  2.10
  57:  0.07  58:  1.19  59:  0.73  60:  0.51  61:  2.51  62:  2.88  63:  3.53  64:  0.77
  65:  0.97  66:  0.92  67:  5.94  68:  0.41  69:  2.99  70:  0.11  71:  0.04  72:  0.02
  73:  0.61  74:  2.35  75:  0.17  76:  3.44  77:  2.91  78:  1.81  79:  0.89  80:  1.77
  81:  2.10  82:  2.29  83:  1.11  84:  0.42  85:  0.76  86:  0.62  87:  6.50  88:  1.03
  89:  0.26  90:  1.86  91:  1.30  92:  2.92  93:  0.42  94:  4.16  95:  1.11  96:  1.25
  97:  8.27  98:  9.82  99:  0.09 100:  2.22 101:  6.67 102:  2.49 103:  4.12 104:  3.89
 105:  3.14 106:  0.01 107:  2.21 108:  6.30 109:  4.76 110:  0.27 111:  1.15 112:  1.25
 113: 16.16 114: 34.38 115:  2.29 116: 16.84 117:  2.19 118: 40.30 119:  7.29 120:  6.73
 121:  0.11 122:  3.55 123:  0.14 124:  3.34 125:  0.52 126: 12.37 127:  4.01 128:  1.07
 129:  0.97 130:  0.01 131:  0.40 132:  9.99 133:  0.67 134:  0.34 135:  0.29 136:  0.18
 137:  0.18 138:  1.04 139:  1.75 140:  0.58 141:  0.81 142:  0.39 143:  0.42 144:  0.23
 145:  0.16 146:  0.98 147:  0.22 148: 21.74 149:  0.14 150:  0.11 151:  0.15 152:  6.49
 153:  0.75 154:  1.06 155:  1.22 156:  1.32 157:  1.74 158:  1.55 159:  0.83 160:  4.23
 161:  1.78 162:  2.30 163:  2.48 164:  0.48 165:  0.01 166:  0.84 167: 21.70 168:  1.40
 169:  0.53 170:  1.09 171:  1.28 172:  0.75 173:  0.24 174:  1.54 175: 21.18 176: 13.29
 177: 61.35 178:  2.17 179:  6.27 180:  4.39 181:  1.78 182:  2.66 183:  4.70 184:  1.84
 185:  0.44 186:  2.28 187:  1.19 188:  0.40 189: 19.32 190: 12.75 191:  7.15 192:  4.17
 193:  3.79 194: 31.25 195:  3.60 196:  3.25 197:  0.40 198:  7.93 199: 15.24 200: 24.24
 201: 12.40 202: 33.13 203:  9.78 204:  1.03 205:  3.97 206:  2.79 207:  2.23 208:  1.70
 209:  0.88 210:  2.23 211: 40.86 212:  6.64 213:212.25 214:  1.05 215:167.56 216:  1.97
 217: 13.60 218:471.41 219:105.20 220: 79.27 221:  1.46 222: 24.17 223:331.58 224:  4.29
 225:  0.97 226:  2.65 227:  2.53 228:  4.43 229:  0.76 230: 16.26 231:  1.99 232:  1.95
 233: 16.65 234: 15.07 235:110.61 236: 95.89 237:414.44 238: 88.99 239: 20.88 240:123.22
 241:434.84 242:126.26 243:  0.99 244:  0.38 245:  0.08 246:  0.16 247: 11.46 248: 99.65
 249: 13.60 250: 13.57 251:265.41 252:  0.60 253:  0.38 254:  0.15 255:  2.62 256:  4.36
 257:  4.05 258:  1.66 259:  1.36 260:  7.26 261:  1.34 262: 53.02 263:  2.18 264: 13.12
 265:140.63 266: 51.55 267: 11.97 268: 79.68 269: 50.89 270: 14.92 271: 24.14 272:  9.40
 273: 32.14 274: 13.82 275:  0.70 276: 14.53 277: 11.08 278:  6.09 279:  6.69 280:215.53
 281:106.28 282: 48.87 283: 85.79 284:156.03 285: 60.99 286: 16.36 287:148.11 288: 13.14
 289:  9.27 290: 64.90 291: 61.09 292:  7.18 293: 53.67 294: 14.29 295:  9.88 296:  1.78
 297:  5.51 298: 75.82 299: 15.85 300: 71.51 301: 37.41 302: 44.62 303:  1.01 304: 48.42
 305: 69.12 306:152.90 307: 35.62 308: 71.83 309:164.85 310:126.50 311:103.52 312: 55.75
 313:221.21 314:111.96 315:174.59 316: 19.75 317: 71.06 318: 63.18 319: 68.81 320:  2.41
 321: 86.17
 Raman intensities (Ä⁴*amu⁻¹)
   1:  0.00   2:  0.00   3:  0.00   4:  0.00   5:  0.00   6:  0.00   7:  0.00   8:  0.00
   9:  0.00  10:  0.00  11:  0.00  12:  0.00  13:  0.00  14:  0.00  15:  0.00  16:  0.00
  17:  0.00  18:  0.00  19:  0.00  20:  0.00  21:  0.00  22:  0.00  23:  0.00  24:  0.00
  25:  0.00  26:  0.00  27:  0.00  28:  0.00  29:  0.00  30:  0.00  31:  0.00  32:  0.00
  33:  0.00  34:  0.00  35:  0.00  36:  0.00  37:  0.00  38:  0.00  39:  0.00  40:  0.00
  41:  0.00  42:  0.00  43:  0.00  44:  0.00  45:  0.00  46:  0.00  47:  0.00  48:  0.00
  49:  0.00  50:  0.00  51:  0.00  52:  0.00  53:  0.00  54:  0.00  55:  0.00  56:  0.00
  57:  0.00  58:  0.00  59:  0.00  60:  0.00  61:  0.00  62:  0.00  63:  0.00  64:  0.00
  65:  0.00  66:  0.00  67:  0.00  68:  0.00  69:  0.00  70:  0.00  71:  0.00  72:  0.00
  73:  0.00  74:  0.00  75:  0.00  76:  0.00  77:  0.00  78:  0.00  79:  0.00  80:  0.00
  81:  0.00  82:  0.00  83:  0.00  84:  0.00  85:  0.00  86:  0.00  87:  0.00  88:  0.00
  89:  0.00  90:  0.00  91:  0.00  92:  0.00  93:  0.00  94:  0.00  95:  0.00  96:  0.00
  97:  0.00  98:  0.00  99:  0.00 100:  0.00 101:  0.00 102:  0.00 103:  0.00 104:  0.00
 105:  0.00 106:  0.00 107:  0.00 108:  0.00 109:  0.00 110:  0.00 111:  0.00 112:  0.00
 113:  0.00 114:  0.00 115:  0.00 116:  0.00 117:  0.00 118:  0.00 119:  0.00 120:  0.00
 121:  0.00 122:  0.00 123:  0.00 124:  0.00 125:  0.00 126:  0.00 127:  0.00 128:  0.00
 129:  0.00 130:  0.00 131:  0.00 132:  0.00 133:  0.00 134:  0.00 135:  0.00 136:  0.00
 137:  0.00 138:  0.00 139:  0.00 140:  0.00 141:  0.00 142:  0.00 143:  0.00 144:  0.00
 145:  0.00 146:  0.00 147:  0.00 148:  0.00 149:  0.00 150:  0.00 151:  0.00 152:  0.00
 153:  0.00 154:  0.00 155:  0.00 156:  0.00 157:  0.00 158:  0.00 159:  0.00 160:  0.00
 161:  0.00 162:  0.00 163:  0.00 164:  0.00 165:  0.00 166:  0.00 167:  0.00 168:  0.00
 169:  0.00 170:  0.00 171:  0.00 172:  0.00 173:  0.00 174:  0.00 175:  0.00 176:  0.00
 177:  0.00 178:  0.00 179:  0.00 180:  0.00 181:  0.00 182:  0.00 183:  0.00 184:  0.00
 185:  0.00 186:  0.00 187:  0.00 188:  0.00 189:  0.00 190:  0.00 191:  0.00 192:  0.00
 193:  0.00 194:  0.00 195:  0.00 196:  0.00 197:  0.00 198:  0.00 199:  0.00 200:  0.00
 201:  0.00 202:  0.00 203:  0.00 204:  0.00 205:  0.00 206:  0.00 207:  0.00 208:  0.00
 209:  0.00 210:  0.00 211:  0.00 212:  0.00 213:  0.00 214:  0.00 215:  0.00 216:  0.00
 217:  0.00 218:  0.00 219:  0.00 220:  0.00 221:  0.00 222:  0.00 223:  0.00 224:  0.00
 225:  0.00 226:  0.00 227:  0.00 228:  0.00 229:  0.00 230:  0.00 231:  0.00 232:  0.00
 233:  0.00 234:  0.00 235:  0.00 236:  0.00 237:  0.00 238:  0.00 239:  0.00 240:  0.00
 241:  0.00 242:  0.00 243:  0.00 244:  0.00 245:  0.00 246:  0.00 247:  0.00 248:  0.00
 249:  0.00 250:  0.00 251:  0.00 252:  0.00 253:  0.00 254:  0.00 255:  0.00 256:  0.00
 257:  0.00 258:  0.00 259:  0.00 260:  0.00 261:  0.00 262:  0.00 263:  0.00 264:  0.00
 265:  0.00 266:  0.00 267:  0.00 268:  0.00 269:  0.00 270:  0.00 271:  0.00 272:  0.00
 273:  0.00 274:  0.00 275:  0.00 276:  0.00 277:  0.00 278:  0.00 279:  0.00 280:  0.00
 281:  0.00 282:  0.00 283:  0.00 284:  0.00 285:  0.00 286:  0.00 287:  0.00 288:  0.00
 289:  0.00 290:  0.00 291:  0.00 292:  0.00 293:  0.00 294:  0.00 295:  0.00 296:  0.00
 297:  0.00 298:  0.00 299:  0.00 300:  0.00 301:  0.00 302:  0.00 303:  0.00 304:  0.00
 305:  0.00 306:  0.00 307:  0.00 308:  0.00 309:  0.00 310:  0.00 311:  0.00 312:  0.00
 313:  0.00 314:  0.00 315:  0.00 316:  0.00 317:  0.00 318:  0.00 319:  0.00 320:  0.00
 321:  0.00
 output can be read by thermo (or use thermo option).
 writing <g98.out> molden fake output.
 recommended (thermochemical) frequency scaling factor: 1.0
           -------------------------------------------------
          |             Thermodynamic Functions             |
           -------------------------------------------------

Refinement of some symmetry elements was terminated before convergence was reached.
Some symmetry elements may remain unidentified.
Molecule has no symmetry elements
It seems to be the C1 point group
c1  symmetry found (for desy threshold:  0.10E+00) used in thermo

          ...................................................
          :                      SETUP                      :
          :.................................................:
          :  # frequencies                         315      :
          :  # imaginary freq.                       0      :
          :  linear?                             false      :
          :  only rotor calc.                    false      :
          :  symmetry                               c1      :
          :  rotational number                       1      :
          :  scaling factor                  1.0000000      :
          :  rotor cutoff                   50.0000000 cm⁻¹ :
          :  imag. cutoff                  -20.0000000 cm⁻¹ :
          :.................................................:

    mode    ω/cm⁻¹     T·S(HO)/kcal·mol⁻¹    T·S(FR)/kcal·mol⁻¹   T·S(vib)
   ------------------------------------------------------------------------
       1      6.30    -2.66200 (  0.03%)    -1.67007 ( 99.97%)    -1.67032
       2      7.36    -2.57036 (  0.05%)    -1.62425 ( 99.95%)    -1.62469
       3     12.36    -2.26304 (  0.37%)    -1.47057 ( 99.63%)    -1.47352
       4     15.75    -2.11925 (  0.98%)    -1.39866 ( 99.02%)    -1.40569
       5     24.53    -1.85718 (  5.47%)    -1.26753 ( 94.53%)    -1.29980
       6     26.02    -1.82219 (  6.84%)    -1.25001 ( 93.16%)    -1.28912
       7     31.89    -1.70187 ( 14.20%)    -1.18975 ( 85.80%)    -1.26248
       8     34.79    -1.65042 ( 18.99%)    -1.16397 ( 81.01%)    -1.25636
       9     40.23    -1.56455 ( 29.54%)    -1.12092 ( 70.46%)    -1.25197
      10     47.92    -1.46137 ( 45.76%)    -1.06914 ( 54.24%)    -1.24862
      11     52.39    -1.40877 ( 54.66%)    -1.04271 ( 45.34%)    -1.24279
      12     53.71    -1.39415 ( 57.10%)    -1.03536 ( 42.90%)    -1.24024
      13     56.83    -1.36085 ( 62.53%)    -1.01861 ( 37.47%)    -1.23262
      14     68.88    -1.24781 ( 78.27%)    -0.96166 ( 21.73%)    -1.18562
      15     71.38    -1.22689 ( 80.59%)    -0.95110 ( 19.41%)    -1.17337
      16     76.58    -1.18563 ( 84.62%)    -0.93025 ( 15.38%)    -1.14636
      17     79.87    -1.16100 ( 86.69%)    -0.91779 ( 13.31%)    -1.12862
      18     93.68    -1.06789 ( 92.49%)    -0.87055 (  7.51%)    -1.05308
      19     99.57    -1.03239 ( 94.02%)    -0.85248 (  5.98%)    -1.02164
      20    115.70    -0.94542 ( 96.63%)    -0.80801 (  3.37%)    -0.94079
      21    118.14    -0.93339 ( 96.89%)    -0.80183 (  3.11%)    -0.92930
      22    122.48    -0.91260 ( 97.30%)    -0.79114 (  2.70%)    -0.90931
      23    141.02    -0.83184 ( 98.44%)    -0.74938 (  1.56%)    -0.83056
      24    151.84    -0.78979 ( 98.84%)    -0.72747 (  1.16%)    -0.78907
      25    159.93    -0.76045 ( 99.05%)    -0.71210 (  0.95%)    -0.75999
      26    173.08    -0.71608 ( 99.31%)    -0.68869 (  0.69%)    -0.71589
      27    175.32    -0.70891 ( 99.34%)    -0.68489 (  0.66%)    -0.70875
      28    181.60    -0.68928 ( 99.43%)    -0.67445 (  0.57%)    -0.68920
      29    194.29    -0.65191 ( 99.56%)    -0.65445 (  0.44%)    -0.65192
      30    202.04    -0.63042 ( 99.63%)    -0.64286 (  0.37%)    -0.63046
      31    203.01    -0.62781 ( 99.63%)    -0.64145 (  0.37%)    -0.62786
      32    219.31    -0.58580 ( 99.73%)    -0.61857 (  0.27%)    -0.58589
      33    220.69    -0.58242 ( 99.74%)    -0.61671 (  0.26%)    -0.58251
      34    225.39    -0.57108 ( 99.76%)    -0.61047 (  0.24%)    -0.57117
      35    229.58    -0.56118 ( 99.78%)    -0.60501 (  0.22%)    -0.56128
      36    238.84    -0.54010 ( 99.81%)    -0.59329 (  0.19%)    -0.54020
      37    248.49    -0.51916 ( 99.84%)    -0.58156 (  0.16%)    -0.51927
      38    253.28    -0.50914 ( 99.85%)    -0.57591 (  0.15%)    -0.50924
      39    259.73    -0.49600 ( 99.86%)    -0.56846 (  0.14%)    -0.49610
      40    260.47    -0.49452 ( 99.86%)    -0.56762 (  0.14%)    -0.49462
      41    268.84    -0.47814 ( 99.88%)    -0.55825 (  0.12%)    -0.47823
      42    276.90    -0.46295 ( 99.89%)    -0.54949 (  0.11%)    -0.46304
      43    284.84    -0.44855 ( 99.91%)    -0.54112 (  0.09%)    -0.44864
      44    293.58    -0.43328 ( 99.92%)    -0.53216 (  0.08%)    -0.43337
   ------------------------------------------------------------------------

   temp. (K)  partition function   enthalpy   heat capacity  entropy
                                   cal/mol     cal/K/mol   cal/K/mol   J/K/mol
 298.15  VIB  0.463E+24            30013.347    188.804    186.942
         ROT  0.177E+09              888.752      2.981     40.726
         INT  0.821E+32            30902.099    191.784    227.669
         TR   0.203E+29             1481.254      4.968     45.747
         TOT                       32383.3530   196.7526   273.4152  1143.9691

       T/K    H(0)-H(T)+PV         H(T)/Eh          T*S/Eh         G(T)/Eh
   ------------------------------------------------------------------------
    298.15    0.516062E-01    0.915564E+00    0.129908E+00    0.785656E+00
   ------------------------------------------------------------------------

         :::::::::::::::::::::::::::::::::::::::::::::::::::::
         ::                  THERMODYNAMIC                  ::
         :::::::::::::::::::::::::::::::::::::::::::::::::::::
         :: total free energy        -151.769047220886 Eh   ::
         ::.................................................::
         :: total energy             -152.554702881534 Eh   ::
         :: zero point energy           0.863957880748 Eh   ::
         :: G(RRHO) w/o ZPVE           -0.078302220100 Eh   ::
         :: G(RRHO) contrib.            0.785655660648 Eh   ::
         :::::::::::::::::::::::::::::::::::::::::::::::::::::

optimized geometry written to: xtbopt.xyz


           -------------------------------------------------
          | TOTAL ENERGY             -152.554702881534 Eh   |
          | TOTAL ENTHALPY           -151.639138842892 Eh   |
          | TOTAL FREE ENERGY        -151.769047220886 Eh   |
          | GRADIENT NORM               0.000061960048 Eh/α |
          | HOMO-LUMO GAP               2.375717777387 eV   |
           -------------------------------------------------

------------------------------------------------------------------------
 * finished run on 2025/08/26 at 12:06:38.429     
------------------------------------------------------------------------
 total:
 * wall-time:     0 d,  0 h,  0 min, 15.696 sec
 *  cpu-time:     0 d,  0 h,  9 min, 53.132 sec
 * ratio c/w:    37.788 speedup
 SCF:
 * wall-time:     0 d,  0 h,  0 min,  0.169 sec
 *  cpu-time:     0 d,  0 h,  0 min,  6.745 sec
 * ratio c/w:    39.796 speedup
 ANC optimizer:
 * wall-time:     0 d,  0 h,  0 min,  8.098 sec
 *  cpu-time:     0 d,  0 h,  5 min, 23.909 sec
 * ratio c/w:    39.997 speedup
 analytical hessian:
 * wall-time:     0 d,  0 h,  0 min,  7.139 sec
 *  cpu-time:     0 d,  0 h,  4 min, 13.077 sec
 * ratio c/w:    35.450 speedup

