$hessian                                                                        
        0.5262258129   0.0114074548   0.0089852038  -0.0654027730   0.0078952109
        0.0263860374   0.0026798311  -0.0019126536  -0.0099127909  -0.0206463489
        0.0106103177   0.0262119405  -0.0005654651   0.0005800550   0.0016269403
       -0.0001271878   0.0005964304  -0.0008709845  -0.0002055595  -0.0004199721
       -0.0000466761   0.0000012063   0.0007462787  -0.0013847864  -0.0035829257
       -0.0037676495   0.0010429421   0.0021169288   0.0020524241  -0.0002035620
        0.0001009390  -0.0001140779   0.0000052124   0.0000188779  -0.0000044154
        0.0000243840   0.0000163121  -0.0000146252  -0.0000014124   0.0000044075
       -0.0000065173  -0.0000237056   0.0000112854  -0.0000172415  -0.0000044504
        0.0000086457   0.0000195340  -0.0000055778  -0.0019591675  -0.0008235072
        0.0000006651   0.0003770194   0.0002344242   0.0004061805  -0.0002401113
       -0.0000784675  -0.0000411966   0.0003964986   0.0002023539   0.0000654840
       -0.0001434557   0.0000279958   0.0000686123   0.0001039845   0.0001601304
       -0.0000196380  -0.0000949930  -0.0000889260  -0.0000475772   0.0000336136
        0.0000147711   0.0000138340  -0.0000459760  -0.0002417930  -0.0001155787
       -0.0000578196   0.0003722793  -0.0001252207  -0.0011222324  -0.0005688457
       -0.0002953725   0.0046878016  -0.0013906861  -0.0047281079  -0.0512837316
       -0.0441622588  -0.0018378865  -0.2706012534  -0.0400462129   0.0500522501
       -0.1185566594   0.0593109537  -0.0921386807  -0.0003663662   0.0002092534
       -0.0013222143  -0.0005323615   0.0003602988  -0.0012850858   0.0009378338
       -0.0004072665  -0.0005539603  -0.0005586028   0.0001757845   0.0009171893
        0.0000015435  -0.0000000650  -0.0000663325  -0.0000343505   0.0000227985
        0.0002351048  -0.0002498876   0.0000093879   0.0001973784  -0.0000359719
        0.0000293458  -0.0000041276  -0.0000131571   0.0000168460  -0.0000080828
       -0.0000101826   0.0000143171   0.0000012176  -0.0000077377   0.0000101723
        0.0000084359  -0.0000055520  -0.0000129952  -0.0000103249  -0.0000087986
       -0.0000702259  -0.0000074423   0.0000217548  -0.0000227322  -0.0000758737
        0.0000176527  -0.0000177884   0.0000310746   0.0000160455  -0.0000173064
       -0.0000111945  -0.0013193663  -0.0008725892  -0.0011322435
        0.0114074548   0.5102840814  -0.0302010331   0.0084636082  -0.0716704610
       -0.0381747494  -0.0019011870   0.0027284420   0.0107253680   0.0043899808
        0.0031330127  -0.0011188309  -0.0012915095  -0.0013066900   0.0000167767
        0.0008559331   0.0001831493   0.0001439332  -0.0002190645   0.0001210162
        0.0001757291   0.0001223903   0.0000337580  -0.0000706668  -0.0004675196
       -0.0009448377  -0.0001278829   0.0018596763   0.0011575759   0.0000443953
       -0.0000966131   0.0001305361   0.0000547554   0.0000100567   0.0000146344
       -0.0000059696  -0.0000143530   0.0000185442  -0.0000025791  -0.0000078535
        0.0000083526   0.0000183611  -0.0000094742   0.0000087534   0.0000051715
        0.0000160163   0.0000024049   0.0000027886  -0.0039885849  -0.0023869134
       -0.0010352575   0.0006007826  -0.0002301298   0.0014653366  -0.0003480063
       -0.0000140170   0.0000315926   0.0003624529  -0.0001969021   0.0008246676
       -0.0000771236   0.0000981243   0.0000725168  -0.0000888030  -0.0002707539
       -0.0000659830   0.0002404641   0.0000640841   0.0000063081  -0.0001564909
       -0.0000292447   0.0000006170   0.0004073431   0.0003373203  -0.0001170161
       -0.0006409726  -0.0003144060  -0.0006874077   0.0012784916   0.0000369391
       -0.0007665474   0.0044425256  -0.0222896653  -0.0240911626  -0.0445574074
       -0.2757587501  -0.0053767602  -0.0396996502  -0.0499741434   0.0099016329
        0.0599630466  -0.0927125366   0.0741924214   0.0003306271  -0.0009145924
        0.0019057539   0.0002513633  -0.0003172172   0.0012907773   0.0000346327
        0.0011130776   0.0012592337  -0.0008196825  -0.0000496088   0.0004525917
       -0.0000277139  -0.0000033133  -0.0000514465  -0.0000583148   0.0000526667
       -0.0000065701  -0.0000616291   0.0000364158  -0.0000704214   0.0000087868
       -0.0000346712  -0.0000147898   0.0000177774  -0.0000233453   0.0000109361
        0.0000174666  -0.0000198409  -0.0000050010   0.0000126119  -0.0000140453
       -0.0000148807  -0.0000106906  -0.0000020704   0.0000148780  -0.0000526598
       -0.0002141905  -0.0001789879  -0.0000183973   0.0000095746  -0.0002956486
       -0.0000183489   0.0000053285   0.0000445214  -0.0000758186   0.0000000910
        0.0000548947  -0.0003856202   0.0001144632  -0.0002363665
        0.0089852038  -0.0302010331   0.4367410202   0.0221839030  -0.0311249408
       -0.1435245927   0.0022294377  -0.0035048516  -0.0250598551   0.0130460645
       -0.0022407601  -0.0075582211  -0.0005837506  -0.0007215445  -0.0001112275
        0.0002205110  -0.0000552021   0.0003073182   0.0000254154  -0.0001875795
        0.0000567965   0.0005372885   0.0001075131   0.0003179776  -0.0006127094
        0.0008149772  -0.0006506048  -0.0000816273  -0.0000680213  -0.0002363120
        0.0000522473  -0.0000602556   0.0001162979   0.0000090512  -0.0000201337
       -0.0000111532   0.0000264477  -0.0000313775   0.0000005149   0.0000029830
       -0.0000014499  -0.0000244937   0.0000030484  -0.0000061925   0.0000022626
       -0.0000341398   0.0000435187  -0.0000661834  -0.0005659984   0.0010262818
       -0.0006716049  -0.0002721949  -0.0005959630   0.0001244737   0.0003114338
        0.0000149139  -0.0000145207   0.0001793930   0.0000984660   0.0002627559
       -0.0002094052   0.0000033032  -0.0000209190  -0.0000795403  -0.0002379269
        0.0001429966  -0.0000776342  -0.0000728229   0.0000367590   0.0000279944
        0.0000192232   0.0000099669   0.0001772627  -0.0002830095  -0.0001213469
       -0.0010881859   0.0007460876  -0.0012338293   0.0006985746   0.0004112025
        0.0003839391  -0.0004870967  -0.0114504521  -0.0044523979  -0.0014916296
       -0.0051046478  -0.0415927838   0.0504114341   0.0101185009  -0.0524309505
       -0.0926623096   0.0739930903  -0.1554660535  -0.0009508654   0.0007429481
       -0.0027343019  -0.0003107832   0.0008360966  -0.0024788610   0.0012020321
       -0.0018711537   0.0009923103   0.0002104654  -0.0001864504  -0.0003160283
       -0.0000276394  -0.0000508167  -0.0000260310  -0.0000529627  -0.0000152038
       -0.0000576050  -0.0000213915   0.0000432582   0.0000176645  -0.0000249260
        0.0000383337   0.0000063048   0.0000010189  -0.0000018177   0.0000072823
        0.0000033244  -0.0000022317   0.0000067325  -0.0000018677   0.0000050701
        0.0000071467   0.0000031590  -0.0000026019   0.0000407038  -0.0000270058
        0.0000202123   0.0000609856   0.0000081204   0.0000289355  -0.0000248265
        0.0000139221   0.0000229236  -0.0000347413   0.0000335953  -0.0000302992
       -0.0000430576  -0.0009396680  -0.0010061171  -0.0006797071
       -0.0654027730   0.0084636082   0.0221839030   0.4657447814   0.0200327849
        0.0042459724  -0.0769090072   0.0192772336  -0.0297728531  -0.1832508603
       -0.0105827464   0.0075051240  -0.0188883192  -0.0114051727   0.0010590950
        0.0006899958  -0.0017033044   0.0002710725  -0.0007178840  -0.0005949363
        0.0000196711   0.0003511248   0.0029479206   0.0002270161  -0.0234918010
        0.0065560719   0.0010850418  -0.0002965574  -0.0031650795  -0.0000967203
       -0.0001646128   0.0000221716  -0.0000047937   0.0000567824  -0.0001398871
        0.0000558543   0.0000031313   0.0000001365   0.0000044447   0.0000106698
       -0.0000145977  -0.0000038866   0.0000106173  -0.0000025583  -0.0000037044
        0.0000575230  -0.0001427294  -0.0000370574   0.0083361287   0.0146541051
        0.0009251486  -0.0027502035   0.0023732856   0.0001103014   0.0004442395
        0.0000085057   0.0000016516  -0.0049503830  -0.0001278536  -0.0001119975
        0.0000141245  -0.0013166826  -0.0000336315   0.0001031344   0.0004774356
        0.0000134622   0.0000983087   0.0000656393   0.0000003526  -0.0000268176
       -0.0000084462   0.0000001566  -0.0000119699  -0.0002537606   0.0000225795
        0.0018184164  -0.0009481038  -0.0000353017  -0.0107835288  -0.0255123863
       -0.0012027104  -0.0744744171  -0.0329760090  -0.0021778247   0.0009985820
       -0.0015327542  -0.0042288165  -0.0095999562   0.0096149623   0.0256040698
        0.0029768676  -0.0050830768  -0.0128819797   0.0063439081  -0.0089168410
        0.0129552616  -0.0083749882   0.0084212292  -0.0149952797  -0.0060906587
        0.0087970153  -0.0104331776   0.0004943440   0.0012800184  -0.0002457665
       -0.0003451002   0.0001288970   0.0001018619   0.0002797233   0.0000460143
       -0.0000612116  -0.0005641237  -0.0002447094  -0.0001188177  -0.0000112380
        0.0000395823  -0.0000069935   0.0000090521  -0.0000033088   0.0000076365
        0.0000054601  -0.0000040166   0.0000016301   0.0000098279  -0.0000075278
       -0.0000062370  -0.0000116743   0.0000309598  -0.0000095956   0.0001202970
        0.0009933091   0.0000211593  -0.0000145814   0.0000051999   0.0000111241
       -0.0003677816  -0.0001748296  -0.0000023061   0.0000592870   0.0000625541
        0.0000093754  -0.0015370899   0.0005626777   0.0000276969
        0.0078952109  -0.0716704610  -0.0311249408   0.0200327849   0.4623729051
       -0.0048421403   0.0176348861  -0.0873578494   0.0380327984  -0.0111253759
       -0.0653744189   0.0010225571  -0.0271371009  -0.0048093357   0.0015613095
       -0.0007427009  -0.0049503947   0.0002589886   0.0003005491   0.0008518562
        0.0000016558   0.0015221186  -0.0040840987   0.0000413826   0.0211136103
        0.0046347217  -0.0012868604  -0.0034115911   0.0007658522   0.0001446759
        0.0000450825  -0.0001844828   0.0000246470  -0.0001415616   0.0001155553
       -0.0000334015   0.0000175106  -0.0000146206  -0.0000391360  -0.0000311629
        0.0000401539  -0.0000008709   0.0000156590  -0.0000012820   0.0000301894
       -0.0001427816   0.0001240371   0.0000000509   0.0016776527  -0.0303344988
       -0.0012034504   0.0037906485  -0.0001866314  -0.0001965564  -0.0011749473
       -0.0004088342  -0.0000086279   0.0003032775   0.0009982150  -0.0001515919
       -0.0005853546  -0.0003386350  -0.0000743330   0.0005042930  -0.0001693168
        0.0000419517  -0.0005670706  -0.0001590055   0.0000274477   0.0003097718
        0.0000782730  -0.0000096041  -0.0003596080  -0.0002363107  -0.0000358864
        0.0016120458   0.0001937507   0.0001236400  -0.0119863737  -0.0092641903
       -0.0002673226  -0.0308395130  -0.1666297151  -0.0055338108   0.0058426739
       -0.0146152007  -0.0260799823   0.0000078956   0.0008607316   0.0028631354
       -0.0022650051   0.0042368740   0.0102245360   0.0026707212  -0.0063468896
        0.0097148657  -0.0046606014   0.0065646201  -0.0096215951   0.0103723497
       -0.0142437457   0.0164271544  -0.0006153607   0.0002922736   0.0000293827
       -0.0014084099  -0.0004967132  -0.0000032948  -0.0000631350   0.0000080903
       -0.0000229483   0.0011531509  -0.0000029277  -0.0000335122   0.0000386010
       -0.0000277023  -0.0000182374  -0.0000089100   0.0000182138  -0.0000108522
        0.0000030343   0.0000045684  -0.0000078731  -0.0000120110   0.0000259221
       -0.0000012342   0.0000313700  -0.0000152336   0.0000301799  -0.0003407747
       -0.0007247863   0.0000544243   0.0000271506   0.0002518821   0.0000459418
        0.0000381333   0.0001260179  -0.0000209765   0.0001699136  -0.0000377162
       -0.0000164491   0.0004892546   0.0001204830  -0.0000554266
        0.0263860374  -0.0381747494  -0.1435245927   0.0042459724  -0.0048421403
        0.4148071203  -0.0313432029   0.0426200702  -0.1173366829   0.0060342631
        0.0012196764  -0.0527827643  -0.0006058339   0.0001167225  -0.0011887680
        0.0010713622  -0.0002859435   0.0062837171   0.0000258851   0.0010321807
       -0.0000238548  -0.0007331543  -0.0005289393   0.0062838857   0.0016232016
        0.0001690054   0.0015189496   0.0000623450  -0.0002216708  -0.0035694875
       -0.0000471430   0.0000553429   0.0001520069  -0.0000336399   0.0000329613
        0.0000295116   0.0000078177   0.0000013282  -0.0000346715  -0.0000027131
        0.0000051906  -0.0000336593  -0.0000047107  -0.0000050644  -0.0000212978
        0.0000292907  -0.0000423060   0.0000414312  -0.0002911165  -0.0014636114
        0.0018987705   0.0004940347   0.0004672623   0.0072175438  -0.0007611639
        0.0000380333   0.0000211188   0.0003576047  -0.0006161199   0.0048262143
       -0.0001984439   0.0000623914   0.0001743899  -0.0000194237  -0.0002836640
       -0.0002505901   0.0001143742   0.0000118441  -0.0000081018  -0.0000740620
       -0.0000187842   0.0000097450   0.0001338837   0.0002840578  -0.0000844579
       -0.0001260542   0.0000894863  -0.0026314015   0.0001041135   0.0003358369
       -0.0010238524  -0.0022229789  -0.0041723099  -0.0532287457   0.0005957860
       -0.0043118078  -0.0047323466   0.0044457677  -0.0030596362  -0.0074278294
        0.0035576863  -0.0069597936  -0.0241189612  -0.0051066387   0.0121921823
       -0.0161863279  -0.0085398486   0.0076419762  -0.0132446225   0.0010095342
       -0.0014784170   0.0039597107  -0.0000113520  -0.0000689903  -0.0026909658
        0.0000062992  -0.0000090560   0.0001293566  -0.0000538364  -0.0000065072
       -0.0014633958  -0.0000515422   0.0000171670  -0.0004799026  -0.0000260276
        0.0000354051  -0.0000646485  -0.0000045018   0.0000027461  -0.0000036845
        0.0000020611   0.0000000589  -0.0000065475   0.0000088390  -0.0000038605
       -0.0000041085   0.0000260862  -0.0000287716  -0.0000375725  -0.0000115157
        0.0000623344  -0.0006485310   0.0000009797   0.0000710471  -0.0015958955
        0.0000148116   0.0000070999   0.0002736866   0.0000146946  -0.0000196623
        0.0002553168  -0.0001038279   0.0000303984   0.0005657928
        0.0026798311  -0.0019011870   0.0022294377  -0.0769090072   0.0176348861
       -0.0313432029   0.5084566382   0.0173185032  -0.0211451616  -0.0218868449
        0.0149213238  -0.0203800330  -0.0013076538   0.0003642821  -0.0014313977
        0.0005364829   0.0004283197   0.0004454153  -0.0002091511   0.0002216162
        0.0000431201  -0.0006249962   0.0005806879   0.0011683815  -0.0034838615
       -0.0032539430  -0.0010821250   0.0019389456   0.0014410631   0.0000632396
        0.0000448460  -0.0000281819   0.0000732145   0.0000250805   0.0000031949
       -0.0000129493   0.0000010042  -0.0000044200   0.0000136461   0.0000023343
       -0.0000057473   0.0000181786   0.0000013481  -0.0000025624   0.0000008867
        0.0000132906  -0.0000035053   0.0000029442  -0.0016714785  -0.0012477400
       -0.0003644312   0.0005145684   0.0003770706  -0.0002612411  -0.0004037054
       -0.0000624929   0.0000100394   0.0005781604   0.0002117519   0.0000106103
       -0.0003515285   0.0000547998  -0.0000695075  -0.0000420391  -0.0001447025
       -0.0000254643   0.0001523937  -0.0000812040   0.0000170902  -0.0001316315
       -0.0000201014  -0.0000088079   0.0001149678  -0.0003227470   0.0000662851
       -0.0009755161  -0.0000117348   0.0013894684  -0.0016473656  -0.0010048583
        0.0003256292   0.0046087148   0.0008377891   0.0023160670   0.0003303606
        0.0001860454   0.0001396773   0.0002316669  -0.0002706020  -0.0000068834
        0.0003391164   0.0006010820   0.0010855123  -0.1725489884  -0.0544590137
        0.1071809612  -0.1348868368  -0.0858598416  -0.0811839160  -0.1009384912
        0.0953439905   0.0405911273  -0.0005763891   0.0000670102  -0.0007449708
        0.0000213531   0.0000130228   0.0000650059  -0.0000420604   0.0000299581
       -0.0001649012  -0.0003052407  -0.0000094492  -0.0001167694  -0.0000100965
       -0.0000089345   0.0000214881  -0.0000074375   0.0000058753   0.0000016318
       -0.0000093898   0.0000115097   0.0000078594  -0.0000072535   0.0000062381
        0.0000126728  -0.0000069766   0.0000097438  -0.0000049520   0.0000013232
       -0.0000788010   0.0000358680   0.0000259315  -0.0000682871   0.0000602129
        0.0000076150  -0.0000587702  -0.0000252728   0.0000154721  -0.0000318379
        0.0000083465  -0.0016575052  -0.0017290992   0.0009679692
       -0.0019126536   0.0027284420  -0.0035048516   0.0192772336  -0.0873578494
        0.0426200702   0.0173185032   0.4968551835   0.0407435926   0.0066307783
        0.0010826150   0.0030391473  -0.0017880913  -0.0013277324  -0.0003548093
        0.0004989110   0.0002276257  -0.0004799082  -0.0002504827  -0.0000944802
       -0.0000466826   0.0003247961   0.0001572727  -0.0001253904  -0.0005093542
       -0.0004766272   0.0006110463   0.0012752924   0.0010924324   0.0000861687
       -0.0000339501   0.0000684221  -0.0001223458   0.0000040579   0.0000195710
        0.0000146536  -0.0000059117   0.0000031853  -0.0000096465  -0.0000061244
        0.0000059549  -0.0000096875  -0.0000014624  -0.0000005964   0.0000040349
        0.0000108026  -0.0000009102  -0.0000011825  -0.0035406010  -0.0024929546
        0.0012213353   0.0004644628  -0.0006807431  -0.0012485984   0.0000756283
       -0.0000479768  -0.0000124785   0.0003534256   0.0001656235  -0.0004542195
       -0.0000213152   0.0000580110  -0.0000535205  -0.0001157109  -0.0001692881
        0.0000112035   0.0001109730   0.0000121188   0.0000018340  -0.0000899805
       -0.0000069535  -0.0000027453   0.0001178015  -0.0000853413   0.0001427960
       -0.0008038096  -0.0005886268   0.0006349707   0.0010190078  -0.0000129290
        0.0005838755   0.0084647935  -0.0239573439   0.0184138160  -0.0005699524
        0.0006758192  -0.0010011637  -0.0000197494   0.0001890972  -0.0002916116
        0.0003352752   0.0000125277  -0.0018951465  -0.0542176158  -0.0662718140
        0.0432486218  -0.0865797081  -0.1229705319  -0.0764401836   0.0954330760
       -0.1972460968  -0.0659262193  -0.0006154838   0.0002330156  -0.0001148703
       -0.0000294951   0.0000000879   0.0000588419  -0.0000816516   0.0000640122
        0.0000730826  -0.0000327118   0.0000419140   0.0000158236  -0.0000072659
       -0.0000047020  -0.0000246991   0.0000096442  -0.0000112773   0.0000105655
        0.0000159519  -0.0000190156   0.0000017633   0.0000123107  -0.0000180867
       -0.0000110176   0.0000041603  -0.0000073287   0.0000180050  -0.0000701855
       -0.0002629855   0.0001054250  -0.0000117238   0.0000018475   0.0002063503
       -0.0000073338   0.0000204460  -0.0000259433  -0.0000439053   0.0000202304
       -0.0000152918  -0.0003906559   0.0003767356   0.0003051901
       -0.0099127909   0.0107253680  -0.0250598551  -0.0297728531   0.0380327984
       -0.1173366829  -0.0211451616   0.0407435926   0.4630902501  -0.0084487982
        0.0026147161  -0.0024500231  -0.0001161317   0.0003179612  -0.0002873921
        0.0003840217   0.0000309830   0.0000810183  -0.0001091718   0.0004786361
        0.0000635714  -0.0006633632  -0.0002258943   0.0002734525   0.0007923628
       -0.0005176801  -0.0009632985  -0.0000394765   0.0000359463  -0.0001562345
       -0.0000701718   0.0000840893   0.0000337279   0.0000271443  -0.0000275574
       -0.0000608676   0.0000049548  -0.0000014296   0.0000108266   0.0000044018
       -0.0000039051  -0.0000027650  -0.0000231758   0.0000251442   0.0000063689
        0.0000019857   0.0000042987  -0.0000235223   0.0002777798  -0.0007898783
       -0.0008199178   0.0002348689   0.0004235107   0.0001159532  -0.0002915748
        0.0000635060  -0.0000189434  -0.0002532703  -0.0003581948   0.0002734455
        0.0002281975  -0.0000346592  -0.0000581426   0.0001016524   0.0002323633
        0.0001378489   0.0000473011   0.0000761171   0.0000536662  -0.0000035466
       -0.0000199269   0.0000071454  -0.0001155364   0.0003327801  -0.0001171389
        0.0012540030  -0.0002421248  -0.0013633448  -0.0002074320  -0.0005393510
        0.0003689758  -0.0002246993   0.0066410491  -0.0010199035  -0.0003365306
        0.0012720082   0.0010751207  -0.0003709446   0.0002753664   0.0007047038
        0.0010560863  -0.0011840826  -0.0052627177   0.1078859551   0.0436510165
       -0.1283637135  -0.0823413576  -0.0770132578  -0.1128250356   0.0412612326
       -0.0665580058  -0.0691761892  -0.0005009492   0.0002092430  -0.0001393685
        0.0000293556   0.0000437966  -0.0001044475   0.0000315208   0.0000186283
       -0.0000222076   0.0000382163  -0.0000336318   0.0001213741   0.0000012893
        0.0000009458   0.0000418680   0.0000032316  -0.0000020462   0.0000085360
       -0.0000027076   0.0000037380   0.0000108516  -0.0000025550   0.0000005103
        0.0000100783  -0.0000030278  -0.0000015264   0.0000213175   0.0000214279
       -0.0000405326   0.0001037904  -0.0000099929  -0.0000187504  -0.0000253081
       -0.0000144558  -0.0000176008  -0.0000272777   0.0000104244   0.0000410702
       -0.0000469948   0.0012822615   0.0012508527  -0.0008825987
       -0.0206463489   0.0043899808   0.0130460645  -0.1832508603  -0.0111253759
        0.0060342631  -0.0218868449   0.0066307783  -0.0084487982   0.5980943668
       -0.0139242532  -0.0194012007  -0.1251023205  -0.1169446951   0.0036312724
       -0.0208464483  -0.0313888166   0.0009984029   0.0039125904   0.0076630875
       -0.0002851368  -0.0434810320   0.0140402181   0.0012389488  -0.1759282629
        0.1431561644   0.0029407780   0.0073966453  -0.0055715375  -0.0002394855
       -0.0011095629  -0.0020140255   0.0000099328   0.0001319945  -0.0001765346
        0.0000063187   0.0001685513   0.0000780235  -0.0000064437   0.0000374250
       -0.0000470910  -0.0000022572   0.0001574044   0.0000807769  -0.0000016963
        0.0001401095  -0.0001631659  -0.0000331133   0.0026679420   0.0014338579
       -0.0001411849  -0.0006956110  -0.0006887272  -0.0000084663   0.0003424834
        0.0000809459   0.0000128703  -0.0007457236  -0.0002964319  -0.0000300304
        0.0003045510  -0.0001202710   0.0000171441  -0.0002407830  -0.0000811261
        0.0000113951   0.0001001194   0.0000344166   0.0000173428  -0.0000709485
       -0.0000257366   0.0000089518   0.0003180047   0.0002463012  -0.0000070885
       -0.0003116918   0.0001721544   0.0000219825   0.0008071311  -0.0007644166
        0.0001417878  -0.0129375148  -0.0106273566   0.0002092766   0.0003944103
       -0.0000286927  -0.0004767911  -0.0011838867   0.0004659459   0.0024373515
        0.0002586884  -0.0002229411  -0.0007152099  -0.0000648622  -0.0008473138
        0.0006138674  -0.0014272335   0.0004561941  -0.0009880833  -0.0009813422
        0.0008875991  -0.0010014044   0.0060720754   0.0163059026  -0.0002828629
       -0.0055653532  -0.0010763483   0.0002913360   0.0008374908   0.0001059489
       -0.0000443901  -0.0055867014  -0.0005207172   0.0004534318  -0.0000126443
       -0.0000048811  -0.0000696807   0.0000150825  -0.0000201497   0.0000012047
       -0.0000114690  -0.0000380626  -0.0000138281   0.0000068750  -0.0000146847
       -0.0000255425  -0.0000344600   0.0000177310   0.0000685529   0.0000767788
        0.0002763993  -0.0000167670   0.0000340023   0.0000820656  -0.0000019349
        0.0000142083   0.0000530256  -0.0000033048   0.0000835781  -0.0000253176
        0.0000096877  -0.0002506031   0.0001011526   0.0000225373
        0.0106103177   0.0031330127  -0.0022407601  -0.0105827464  -0.0653744189
        0.0012196764   0.0149213238   0.0010826150   0.0026147161  -0.0139242532
        0.6604831050  -0.0075670337  -0.0445010707  -0.2818521729   0.0030264269
       -0.0895428216   0.0101960782   0.0029667674   0.0105704696  -0.0618351240
        0.0000673779   0.0621805122   0.0363571454  -0.0022695567   0.0753447684
       -0.2058118192  -0.0012527393   0.0115881480  -0.0580028980   0.0004525168
       -0.0040934415  -0.0030011507   0.0000333655   0.0009395867  -0.0007647736
       -0.0001370421   0.0002877074   0.0003213910   0.0002093477  -0.0000500938
        0.0000327266  -0.0000139804   0.0003286045   0.0003022913  -0.0001692515
        0.0009439322  -0.0006677073   0.0002053767   0.0052398063   0.0034466880
       -0.0000428556  -0.0006359943   0.0000179974  -0.0001669604   0.0004328918
        0.0004294279   0.0000382831  -0.0015528300  -0.0002064668  -0.0000903784
        0.0002408788  -0.0001746530   0.0000011467  -0.0003660616   0.0000345989
        0.0000051376   0.0006566092   0.0001530156   0.0000013338  -0.0003734832
       -0.0000882170  -0.0000041272   0.0001267376  -0.0000637849  -0.0000134765
        0.0002730051  -0.0002016692  -0.0000035820  -0.0012452329  -0.0048523050
       -0.0001610323  -0.0248002835  -0.0053679099   0.0014376564   0.0005853684
       -0.0002172377   0.0002430903   0.0011397228  -0.0005276943  -0.0023730064
       -0.0003417594   0.0005295430   0.0003998460   0.0017844425   0.0005109372
        0.0008705376   0.0012719935  -0.0009485694   0.0011607792   0.0009785949
       -0.0010738868   0.0011139893  -0.0058654205  -0.0260561634   0.0003629820
       -0.0006527842   0.0009440844   0.0000353518   0.0001142419  -0.0007106291
       -0.0000479296  -0.0016072051   0.0004886328   0.0000711990  -0.0001977076
       -0.0001006261   0.0000349891   0.0000972892  -0.0001225539   0.0000667655
       -0.0000574631  -0.0001087164   0.0000077431   0.0000979766  -0.0001315695
       -0.0000491395  -0.0001937709  -0.0001098676  -0.0000582769   0.0000312938
        0.0001559651   0.0000098446  -0.0000090392  -0.0001010995   0.0000363551
       -0.0001282064  -0.0001306004  -0.0000158190  -0.0000835088   0.0000241465
       -0.0000069255   0.0000189547  -0.0000391176  -0.0000087284
        0.0262119405  -0.0011188309  -0.0075582211   0.0075051240   0.0010225571
       -0.0527827643  -0.0203800330   0.0030391473  -0.0024500231  -0.0194012007
       -0.0075670337   0.1497231781   0.0038684142   0.0063324170  -0.0464043834
        0.0005801814   0.0012562270   0.0002246780  -0.0003682753  -0.0003793659
       -0.0044547665   0.0013504451  -0.0006427683  -0.0008356882   0.0028514066
       -0.0040594306  -0.0473605426   0.0000979835   0.0015063750   0.0021754605
        0.0000966806   0.0001165577   0.0018386216   0.0001485912  -0.0003110162
       -0.0000292536   0.0000535210  -0.0000756562   0.0000517671   0.0000010320
       -0.0000016080   0.0000708279  -0.0000813971   0.0000570454   0.0000452418
       -0.0001629605   0.0003131588  -0.0000429764  -0.0001357920   0.0000788211
       -0.0003335794  -0.0000455798   0.0000103030  -0.0000745694   0.0000963158
       -0.0000303808   0.0000075629  -0.0001028624   0.0000770902   0.0000229715
        0.0000232862  -0.0000400984  -0.0000559417   0.0000348758   0.0000906214
       -0.0000038420  -0.0000441614  -0.0000062811  -0.0000264421   0.0000290827
        0.0000063927   0.0000193598  -0.0000778029  -0.0000991234   0.0000265315
        0.0000871139  -0.0000164219   0.0000974154  -0.0001967330  -0.0004998340
        0.0007426714  -0.0011949385   0.0001965908   0.0000697933   0.0001302615
        0.0001066835   0.0005239269   0.0028522782  -0.0019438421  -0.0046359962
        0.0015911332   0.0001630800  -0.0001890830  -0.0028537885   0.0004538435
       -0.0002612788  -0.0017770518   0.0012346924  -0.0019118872  -0.0015920515
        0.0008109839  -0.0010849016  -0.0000864230  -0.0002346871   0.0005683090
        0.0003952266   0.0000872063   0.0073754883  -0.0000108536   0.0000016779
        0.0000926763   0.0004857610   0.0000435040   0.0070112696   0.0000064928
       -0.0000143970  -0.0000336981   0.0000320230  -0.0000091655  -0.0000085410
        0.0000010850   0.0000048264  -0.0000138764  -0.0000376486   0.0000144250
       -0.0000040735  -0.0000027458   0.0000328783  -0.0000401773  -0.0000044762
       -0.0000169419  -0.0000084459  -0.0000033924  -0.0000082505  -0.0000020988
       -0.0000122150  -0.0000105128   0.0000183486  -0.0000063594   0.0000053394
       -0.0000077302   0.0000484866   0.0000232011  -0.0000913177
       -0.0005654651  -0.0012915095  -0.0005837506  -0.0188883192  -0.0271371009
       -0.0006058339  -0.0013076538  -0.0017880913  -0.0001161317  -0.1251023205
       -0.0445010707   0.0038684142   0.6738787243  -0.0070742204  -0.0157290338
       -0.3304170522  -0.0730851231   0.0087629573  -0.0511746413   0.0738088547
        0.0009717047  -0.0361551806  -0.0333384381   0.0013251876   0.0533887745
       -0.0151881442  -0.0011555364  -0.0022909909   0.0084583666   0.0001805877
        0.0007620391   0.0008737494  -0.0000181005  -0.0002988948   0.0002741929
       -0.0000327567  -0.0001064361  -0.0000365650  -0.0000206174   0.0000263834
       -0.0000111316   0.0000162359  -0.0001292589  -0.0000252990   0.0000115982
       -0.0003157529   0.0002340805   0.0000010156  -0.0007985608  -0.0003871632
        0.0000388474  -0.0001091324  -0.0000567064  -0.0000219757   0.0002690465
       -0.0000926017  -0.0000068394  -0.0004796011   0.0001953733  -0.0000272454
        0.0001365595  -0.0001664979  -0.0000166973  -0.0000182734   0.0002383430
        0.0000041077   0.0000198340   0.0000071239  -0.0000008466  -0.0000147343
       -0.0000127302  -0.0000023825  -0.0001524267  -0.0001973639  -0.0000026237
        0.0003541798   0.0000882538   0.0000368576  -0.0007793230  -0.0015591067
       -0.0000177502  -0.0059495998   0.0012769108   0.0006813708  -0.0008591164
       -0.0006823867   0.0004143509  -0.0001718317  -0.0002511396   0.0001727310
        0.0000143731   0.0000014688   0.0002331345  -0.0013688240  -0.0005048228
       -0.0006974961  -0.0006448147   0.0001409974  -0.0000253986  -0.0000563216
       -0.0003450248   0.0001512982  -0.1358310735   0.1235357043   0.0014777906
       -0.0134596621  -0.0040201562   0.0005105625  -0.0015757447   0.0033267186
        0.0002653636   0.0000280825  -0.0006184324  -0.0000759657   0.0000821210