 Entering Gaussian System
 *********************************************
 Gaussian 98:
 frequency output generated by the xtb code
 *********************************************
                         Standard orientation:
 --------------------------------------------------------------------
  Center     Atomic     Atomic              Coordinates (Angstroms)
  Number     Number      Type              X           Y           Z
 --------------------------------------------------------------------
    1          6             0       -0.347892    5.312598   -1.073768
    2          6             0       -0.711108    3.866592   -0.968505
    3          6             0       -1.701236    3.443750   -0.081355
    4          6             0       -2.043127    2.114312    0.041141
    5          6             0       -3.132853    1.724311    0.989509
    6          6             0       -1.338018    1.126468   -0.690703
    7          5             0       -1.431640   -0.391686   -0.326660
    8          6             0       -0.199135   -1.239963   -0.076391
    9          6             0       -0.239212   -2.659476   -0.219371
   10          6             0        0.864670   -3.457757   -0.186134
   11          6             0        2.125948   -2.874750    0.029838
   12         35             0        3.681103   -3.972747    0.115224
   13          6             0        2.236556   -1.510565    0.232978
   14          6             0        1.114799   -0.700678    0.219805
   15          7             0        1.313510    0.666065    0.441333
   16          6             0        0.730191    1.427912    1.433414
   17          6             0       -0.140962    1.037987    2.438881
   18          6             0       -0.558999    2.000106    3.338745
   19          6             0       -0.112900    3.315895    3.253134
   20          6             0        0.790728    3.699650    2.279202
   21          6             0        1.224189    2.750728    1.367300
   22          6             0        2.180777    2.772589    0.293757
   23          6             0        2.989736    3.761064   -0.242081
   24          6             0        3.827563    3.433480   -1.293634
   25          6             0        3.863419    2.138499   -1.804906
   26          6             0        3.065969    1.135961   -1.285380
   27          6             0        2.220615    1.458073   -0.230953
   28          6             0       -2.868860   -1.075708   -0.256005
   29          6             0       -3.748827   -0.948717   -1.343744
   30          6             0       -3.354886   -0.198265   -2.580721
   31          6             0       -4.988775   -1.565318   -1.315049
   32          6             0       -5.407987   -2.310758   -0.221604
   33          6             0       -6.753993   -2.970359   -0.218914
   34          6             0       -4.541742   -2.428414    0.849856
   35          6             0       -3.290783   -1.821352    0.853873
   36          6             0       -2.474623   -1.962202    2.106934
   37          6             0       -0.444740    1.574230   -1.696518
   38          6             0        0.142641    0.637461   -2.708394
   39          6             0       -0.122855    2.916523   -1.792036
   40          1             0        0.644971    5.429674   -1.501915
   41          1             0       -1.059206    5.835918   -1.714726
   42          1             0       -0.373902    5.784364   -0.093506
   43          1             0       -2.203986    4.179918    0.530673
   44          1             0       -3.996090    1.347696    0.441763
   45          1             0       -3.445022    2.576432    1.588822
   46          1             0       -2.793421    0.931823    1.650654
   47          1             0       -1.205037   -3.109138   -0.398997
   48          1             0        0.786237   -4.524922   -0.325668
   49          1             0        3.199341   -1.074441    0.458442
   50          1             0       -0.469877    0.015563    2.518596
   51          1             0       -1.239839    1.724710    4.130482
   52          1             0       -0.464557    4.040526    3.972462
   53          1             0        1.160827    4.712747    2.234139
   54          1             0        2.964422    4.764731    0.154436
   55          1             0        4.466566    4.189241   -1.725611
   56          1             0        4.529325    1.912312   -2.624405
   57          1             0        3.100548    0.136177   -1.689799
   58          1             0       -3.112085    0.836277   -2.345062
   59          1             0       -4.160602   -0.208250   -3.311422
   60          1             0       -2.474114   -0.655353   -3.028385
   61          1             0       -5.643472   -1.472933   -2.171185
   62          1             0       -7.004203   -3.340326    0.772381
   63          1             0       -7.525030   -2.270860   -0.538011
   64          1             0       -6.760850   -3.812366   -0.911712
   65          1             0       -4.847167   -2.993747    1.720036
   66          1             0       -1.410763   -1.919415    1.895658
   67          1             0       -2.723534   -1.161636    2.806374
   68          1             0       -2.692393   -2.908444    2.598117
   69          1             0        0.218162   -0.376172   -2.325037
   70          1             0       -0.499117    0.615266   -3.590848
   71          1             0        1.124909    0.980882   -3.025723
   72          1             0        0.601568    3.232790   -2.530440
 --------------------------------------------------------------------
     1 basis functions        1 primitive gaussians
     1 alpha electrons        1 beta electrons
 
 Harmonic frequencies (cm**-1), IR intensities (km*mol⁻¹),
 Raman scattering activities (A**4/amu), Raman depolarization ratios,
 reduced masses (AMU), force constants (mDyne/A) and normal coordinates:
                      1                      2                      3
                        a                      a                      a 
 Frequencies --    19.2172                20.7851                28.3854
 Red. masses --     1.6977                18.4694                22.7235
 Frc consts  --     0.0000                 0.0000                 0.0000
 IR Inten    --     1.0052                 0.0293                 0.1376
 Raman Activ --     0.0000                 0.0000                 0.0000
 Depolar     --     0.0000                 0.0000                 0.0000
 Atom AN      X      Y      Z        X      Y      Z        X      Y      Z
   1   6    -0.02  -0.00   0.00    -0.10   0.08   0.26    -0.11  -0.00   0.08
   2   6    -0.01  -0.01   0.00    -0.08   0.07   0.18    -0.06  -0.02   0.04
   3   6    -0.01  -0.01   0.00    -0.07   0.01   0.17    -0.02  -0.07   0.06
   4   6    -0.00  -0.02   0.00    -0.05   0.00   0.11     0.02  -0.08   0.03
   5   6     0.00  -0.03   0.00    -0.04  -0.06   0.10     0.07  -0.14   0.06
   6   6     0.00  -0.01  -0.01    -0.05   0.05   0.05     0.01  -0.04  -0.03
   7   5     0.01  -0.01  -0.01    -0.02   0.03  -0.02     0.03  -0.05  -0.09
   8   6     0.01  -0.01  -0.01    -0.02   0.03  -0.04     0.04  -0.05  -0.10
   9   6     0.01  -0.01  -0.01    -0.03   0.03  -0.05     0.07  -0.05  -0.11
  10   6     0.02  -0.01  -0.00    -0.04   0.02  -0.01     0.08  -0.03  -0.05
  11   6     0.01  -0.00   0.01    -0.04   0.00   0.03     0.06  -0.01   0.01
  12  35     0.04   0.01   0.05    -0.16  -0.06   0.30     0.19   0.04   0.39
  13   6     0.01  -0.00   0.01    -0.03   0.00   0.00     0.03  -0.00  -0.01
  14   6     0.00  -0.00  -0.00    -0.01   0.02  -0.03     0.02  -0.02  -0.06
  15   7    -0.00  -0.00  -0.00     0.01   0.02  -0.06    -0.01  -0.02  -0.06
  16   6    -0.00  -0.00  -0.00     0.05   0.05  -0.06     0.01  -0.05  -0.02
  17   6    -0.00  -0.00  -0.00     0.05   0.09  -0.04     0.05  -0.08  -0.00
  18   6    -0.00   0.00  -0.00     0.11   0.12  -0.04     0.07  -0.10   0.04
  19   6    -0.00   0.00  -0.01     0.16   0.10  -0.05     0.05  -0.10   0.05
  20   6    -0.00   0.00  -0.01     0.16   0.05  -0.07     0.01  -0.07   0.03
  21   6    -0.00  -0.00  -0.01     0.10   0.03  -0.08    -0.01  -0.04  -0.01
  22   6    -0.01  -0.00  -0.01     0.08  -0.01  -0.10    -0.04  -0.01  -0.04
  23   6    -0.01  -0.00  -0.01     0.10  -0.05  -0.13    -0.07   0.01  -0.05
  24   6    -0.01  -0.00  -0.01     0.07  -0.09  -0.14    -0.10   0.04  -0.08
  25   6    -0.01  -0.00  -0.01     0.02  -0.10  -0.12    -0.09   0.04  -0.10
  26   6    -0.01  -0.00  -0.01    -0.01  -0.06  -0.10    -0.06   0.02  -0.09
  27   6    -0.00  -0.00  -0.00     0.02  -0.02  -0.08    -0.04   0.00  -0.06
  28   6     0.01  -0.01  -0.01    -0.01  -0.00  -0.04     0.02  -0.04  -0.08
  29   6    -0.00   0.00  -0.00    -0.01  -0.00  -0.04    -0.02   0.06  -0.04
  30   6     0.00  -0.00  -0.01    -0.04   0.07  -0.00    -0.01   0.04  -0.05
  31   6    -0.00   0.02   0.00     0.03  -0.08  -0.07    -0.08   0.19   0.02
  32   6    -0.00   0.01   0.01     0.06  -0.15  -0.11    -0.10   0.22   0.03
  33   6    -0.06   0.13   0.01     0.11  -0.24  -0.15    -0.17   0.36   0.10
  34   6     0.00  -0.01  -0.01     0.06  -0.13  -0.10    -0.05   0.09  -0.03
  35   6     0.01  -0.02  -0.01     0.02  -0.05  -0.06     0.02  -0.04  -0.09
  36   6     0.02  -0.04  -0.02     0.01  -0.04  -0.05     0.06  -0.18  -0.13
  37   6    -0.00  -0.00  -0.01    -0.07   0.11   0.06    -0.02   0.01  -0.04
  38   6     0.00   0.00  -0.01    -0.07   0.16   0.01    -0.02   0.05  -0.07
  39   6    -0.01  -0.00  -0.00    -0.08   0.12   0.13    -0.06   0.03  -0.01
  40   1    -0.01   0.00   0.00    -0.05   0.04   0.04    -0.05   0.01  -0.01
  41   1    -0.01  -0.00  -0.00    -0.06   0.04   0.12    -0.06   0.01   0.06
  42   1    -0.01  -0.00   0.00     0.01  -0.01   0.09     0.00  -0.02   0.03
  43   1    -0.00  -0.01   0.00    -0.02  -0.01   0.06    -0.00  -0.03   0.03
  44   1     0.00  -0.01   0.00    -0.01  -0.02   0.03     0.01  -0.03   0.02
  45   1     0.00  -0.01   0.00    -0.02  -0.03   0.04     0.03  -0.05   0.04
  46   1     0.00  -0.01  -0.00    -0.00  -0.02   0.02     0.03  -0.05   0.00
  47   1     0.00  -0.00  -0.00    -0.01   0.01  -0.02     0.02  -0.02  -0.04
  48   1     0.01  -0.00  -0.00    -0.01   0.00  -0.00     0.03  -0.01  -0.01
  49   1     0.00   0.00   0.00    -0.01  -0.00   0.00     0.00   0.01   0.00
  50   1    -0.00  -0.00   0.00     0.00   0.03  -0.01     0.02  -0.02  -0.00
  51   1     0.00   0.00  -0.00     0.03   0.04  -0.01     0.03  -0.04   0.02
  52   1    -0.00   0.00  -0.00     0.06   0.03  -0.02     0.02  -0.03   0.02
  53   1    -0.00   0.00  -0.00     0.06   0.01  -0.03     0.00  -0.02   0.01
  54   1    -0.00  -0.00  -0.00     0.04  -0.01  -0.04    -0.02   0.00  -0.01
  55   1    -0.00  -0.00  -0.00     0.03  -0.03  -0.05    -0.04   0.02  -0.03
  56   1    -0.00  -0.00  -0.00    -0.00  -0.04  -0.04    -0.03   0.02  -0.03
  57   1    -0.00  -0.00  -0.00    -0.01  -0.02  -0.02    -0.01   0.01  -0.03
  58   1     0.00  -0.00  -0.00    -0.02   0.02   0.01     0.00   0.01  -0.02
  59   1    -0.00   0.00  -0.00    -0.02   0.03   0.00    -0.00   0.01  -0.01
  60   1    -0.00  -0.00  -0.00    -0.01   0.03  -0.01    -0.00   0.01  -0.01
  61   1    -0.00   0.01   0.00     0.01  -0.02  -0.02    -0.04   0.08   0.02
  62   1     0.21  -0.44  -0.12     0.04  -0.09  -0.05    -0.09   0.21   0.06
  63   1    -0.07   0.22   0.54     0.02  -0.08  -0.03    -0.02   0.09  -0.06
  64   1    -0.22   0.38  -0.41     0.05  -0.06  -0.06    -0.05   0.04   0.11
  65   1     0.00  -0.00  -0.00     0.02  -0.05  -0.03    -0.01   0.03  -0.01
  66   1     0.00   0.01  -0.00     0.00   0.04  -0.01     0.02   0.02  -0.04
  67   1    -0.01  -0.03   0.01    -0.04  -0.04   0.00    -0.02  -0.11   0.02
  68   1     0.02  -0.03  -0.02     0.04  -0.03  -0.04     0.07  -0.10  -0.10
  69   1     0.01   0.00  -0.00    -0.02   0.04  -0.01     0.02   0.02  -0.02
  70   1    -0.00  -0.00   0.00    -0.02   0.06   0.00    -0.02   0.00  -0.01
  71   1    -0.00   0.01  -0.01    -0.02   0.05   0.01    -0.02   0.03  -0.04
  72   1    -0.00   0.00  -0.00    -0.03   0.05   0.04    -0.03   0.02  -0.01
                      4                      5                      6
                        a                      a                      a 
 Frequencies --    33.5993                36.4657                40.1393
 Red. masses --    15.1545                 2.3138                16.4163
 Frc consts  --     0.0000                 0.0000                 0.0000
 IR Inten    --     0.4757                 0.7067                 2.9858
 Raman Activ --     0.0000                 0.0000                 0.0000
 Depolar     --     0.0000                 0.0000                 0.0000
 Atom AN      X      Y      Z        X      Y      Z        X      Y      Z
   1   6     0.10   0.00  -0.20     0.01  -0.00   0.07     0.05  -0.06   0.03
   2   6     0.09   0.01  -0.13     0.02  -0.01  -0.03     0.02  -0.05   0.04
   3   6     0.14   0.06  -0.05     0.01  -0.01  -0.03     0.04  -0.04   0.06
   4   6     0.12   0.07   0.01    -0.00   0.00  -0.02     0.03  -0.04   0.06
   5   6     0.18   0.10   0.09    -0.01   0.01  -0.02     0.05  -0.04   0.09
   6   6     0.04   0.03  -0.02     0.00  -0.01  -0.00    -0.01  -0.04   0.03
   7   5     0.00   0.04  -0.00    -0.00  -0.00   0.02    -0.03  -0.04   0.03
   8   6    -0.01   0.02  -0.01    -0.00  -0.00   0.03    -0.04  -0.03   0.10
   9   6    -0.03   0.02   0.00    -0.01  -0.00   0.06    -0.02  -0.04   0.19
  10   6    -0.03   0.01   0.02    -0.01  -0.00   0.05    -0.00  -0.01   0.16
  11   6    -0.03  -0.00   0.01    -0.00   0.00   0.01    -0.00   0.03   0.05
  12  35    -0.14  -0.08   0.21     0.01   0.02  -0.07     0.12   0.23  -0.17
  13   6    -0.01  -0.00  -0.02     0.00   0.00   0.01    -0.03   0.03   0.02
  14   6    -0.00   0.01  -0.02    -0.00   0.00   0.02    -0.04   0.01   0.06
  15   7    -0.01   0.01   0.00    -0.00   0.00   0.01    -0.05   0.02   0.03
  16   6     0.03  -0.04   0.06     0.00   0.00   0.01     0.03   0.03   0.06
  17   6     0.11  -0.11   0.10     0.00  -0.00   0.01     0.07   0.05   0.10
  18   6     0.15  -0.15   0.17     0.01  -0.01   0.02     0.15   0.06   0.13
  19   6     0.10  -0.14   0.19     0.02  -0.01   0.03     0.19   0.05   0.12
  20   6     0.02  -0.07   0.13     0.02  -0.01   0.03     0.14   0.03   0.06
  21   6    -0.01  -0.03   0.07    -0.00   0.00   0.01     0.06   0.02   0.03
  22   6    -0.08   0.04   0.01    -0.01   0.01  -0.00     0.00  -0.01  -0.01
  23   6    -0.15   0.08  -0.02    -0.04   0.02  -0.03     0.01  -0.03  -0.05
  24   6    -0.21   0.13  -0.08    -0.04   0.02  -0.03    -0.06  -0.05  -0.10
  25   6    -0.18   0.14  -0.10    -0.02   0.01  -0.01    -0.12  -0.05  -0.10
  26   6    -0.11   0.10  -0.07    -0.00   0.00   0.01    -0.11  -0.03  -0.06
  27   6    -0.07   0.05  -0.03    -0.00   0.00   0.01    -0.06  -0.01  -0.02
  28   6    -0.01   0.06  -0.00    -0.00  -0.00   0.00    -0.04  -0.04  -0.03
  29   6    -0.02   0.07   0.01     0.03  -0.05  -0.03     0.05  -0.12  -0.11
  30   6    -0.07   0.17   0.05     0.08  -0.10  -0.05     0.17  -0.24  -0.14
  31   6     0.02  -0.01  -0.03     0.03  -0.04  -0.04     0.03  -0.08  -0.15
  32   6     0.07  -0.10  -0.07    -0.01   0.01  -0.02    -0.08   0.03  -0.12
  33   6     0.12  -0.20  -0.13    -0.02   0.03  -0.03    -0.10   0.08  -0.17
  34   6     0.06  -0.08  -0.06    -0.04   0.05   0.01    -0.16   0.09  -0.05
  35   6     0.02   0.01  -0.02    -0.03   0.04   0.02    -0.14   0.04  -0.01
  36   6     0.00   0.04  -0.01    -0.06   0.08   0.04    -0.22   0.09   0.05
  37   6    -0.01  -0.01  -0.08     0.01  -0.02   0.00    -0.02  -0.04   0.02
  38   6    -0.07  -0.05  -0.08     0.02  -0.03   0.01    -0.04  -0.05   0.02
  39   6     0.01  -0.02  -0.14     0.02  -0.02  -0.01    -0.01  -0.05   0.02
  40   1     0.02  -0.01  -0.07    -0.21   0.04  -0.46     0.07  -0.03   0.12
  41   1     0.02  -0.00  -0.05    -0.32   0.12   0.48     0.09  -0.04  -0.10
  42   1     0.05   0.01  -0.06     0.51  -0.16   0.11    -0.11   0.02  -0.01
  43   1     0.06   0.02  -0.01     0.00   0.00  -0.01     0.02  -0.01   0.03
  44   1     0.04   0.04   0.04     0.00  -0.01  -0.01     0.02  -0.04   0.03
  45   1     0.07   0.03   0.03    -0.01   0.01  -0.02     0.00  -0.01   0.01
  46   1     0.06   0.03   0.02     0.00   0.02   0.01     0.03   0.01   0.04
  47   1    -0.01   0.01   0.00    -0.00  -0.00   0.02    -0.01  -0.02   0.08
  48   1    -0.01   0.00   0.01    -0.00  -0.00   0.02     0.00  -0.01   0.06
  49   1    -0.00  -0.00  -0.01     0.00   0.00  -0.00    -0.01   0.02  -0.01
  50   1     0.05  -0.04   0.03     0.00  -0.00   0.00     0.01   0.02   0.03
  51   1     0.06  -0.06   0.06     0.00  -0.00   0.01     0.05   0.02   0.05
  52   1     0.04  -0.05   0.07     0.01  -0.00   0.01     0.07   0.02   0.04
  53   1    -0.01  -0.02   0.04     0.01  -0.00   0.01     0.05   0.00   0.01
  54   1    -0.05   0.02  -0.00    -0.02   0.01  -0.02     0.02  -0.01  -0.01
  55   1    -0.08   0.05  -0.03    -0.02   0.01  -0.01    -0.02  -0.02  -0.04
  56   1    -0.06   0.05  -0.04    -0.01   0.00  -0.00    -0.05  -0.02  -0.04
  57   1    -0.02   0.03  -0.02     0.00  -0.00   0.00    -0.04  -0.01  -0.02
  58   1    -0.01   0.04   0.03     0.03  -0.03  -0.02     0.08  -0.07  -0.06
  59   1    -0.03   0.07   0.02     0.03  -0.03  -0.02     0.06  -0.06  -0.05
  60   1    -0.03   0.05  -0.01     0.02  -0.04  -0.00     0.04  -0.10  -0.02
  61   1     0.01  -0.00  -0.01     0.02  -0.02  -0.02     0.03  -0.04  -0.06
  62   1     0.05  -0.10  -0.05    -0.00   0.00  -0.01    -0.05   0.03  -0.05
  63   1     0.02  -0.06  -0.01    -0.00   0.01  -0.00    -0.02   0.03  -0.06
  64   1     0.05  -0.03  -0.07    -0.01   0.01  -0.02    -0.03   0.02  -0.05
  65   1     0.02  -0.04  -0.03    -0.02   0.02   0.01    -0.07   0.05  -0.01
  66   1     0.00  -0.01  -0.00    -0.02  -0.00   0.01    -0.06   0.09   0.04
  67   1     0.01   0.03  -0.02    -0.00   0.04  -0.01    -0.13  -0.01   0.03
  68   1    -0.02   0.03   0.01    -0.04   0.04   0.03    -0.02  -0.00  -0.02
  69   1    -0.04  -0.02  -0.02    -0.00  -0.01   0.00     0.01  -0.01   0.02
  70   1    -0.02  -0.00  -0.02     0.01  -0.00  -0.00    -0.03  -0.03   0.02
  71   1    -0.01  -0.03  -0.02     0.01  -0.01   0.01    -0.02  -0.01  -0.02
  72   1    -0.01  -0.02  -0.06     0.01  -0.01  -0.00    -0.01  -0.01   0.00
                      7                      8                      9
                        a                      a                      a 
 Frequencies --    40.9591                45.7068                63.7076
 Red. masses --    20.8319                14.1520                11.3989
 Frc consts  --     0.0000                 0.0000                 0.0000
 IR Inten    --     2.9331                 2.6518                 3.2815
 Raman Activ --     0.0000                 0.0000                 0.0000
 Depolar     --     0.0000                 0.0000                 0.0000
 Atom AN      X      Y      Z        X      Y      Z        X      Y      Z
   1   6     0.35  -0.13   0.13     0.10   0.03   0.17    -0.33   0.08  -0.29
   2   6     0.19  -0.09   0.03     0.04   0.04   0.08    -0.18   0.06  -0.19
   3   6     0.14  -0.04  -0.00    -0.02   0.02   0.02    -0.13   0.03  -0.14
   4   6     0.02  -0.01  -0.06    -0.06   0.03  -0.06    -0.04   0.01  -0.07
   5   6    -0.04   0.04  -0.10    -0.11   0.02  -0.12     0.03  -0.02  -0.01
   6   6    -0.05  -0.04  -0.08    -0.04   0.04  -0.05    -0.01   0.02  -0.06
   7   5    -0.08  -0.04  -0.07    -0.01   0.03  -0.06    -0.02   0.02  -0.06
   8   6    -0.06  -0.01  -0.06    -0.00   0.04  -0.11    -0.04   0.01  -0.05
   9   6    -0.01  -0.01  -0.05    -0.02   0.04  -0.09    -0.03   0.02  -0.09
  10   6     0.01   0.02  -0.03    -0.03   0.02  -0.05    -0.02   0.02  -0.09
  11   6    -0.01   0.07  -0.02    -0.02   0.01  -0.06    -0.03   0.03  -0.03
  12  35     0.10   0.37   0.08    -0.16  -0.08   0.20    -0.08   0.11   0.01
  13   6    -0.06   0.07  -0.03    -0.00   0.02  -0.11    -0.05   0.02   0.01
  14   6    -0.09   0.04  -0.06     0.01   0.03  -0.13    -0.05   0.02  -0.00
  15   7    -0.11   0.04  -0.07     0.01   0.03  -0.12    -0.05   0.02   0.01
  16   6    -0.06   0.03  -0.03     0.02  -0.03  -0.06     0.01   0.01   0.05
  17   6    -0.10   0.06  -0.06     0.03  -0.10  -0.08     0.03   0.02   0.07
  18   6    -0.03   0.04  -0.01     0.04  -0.15  -0.02     0.14   0.00   0.14
  19   6     0.08   0.01   0.06     0.04  -0.15   0.06     0.22  -0.02   0.19
  20   6     0.12  -0.01   0.09     0.03  -0.09   0.08     0.18  -0.03   0.15
  21   6     0.04   0.00   0.04     0.02  -0.03   0.01     0.08  -0.01   0.09
  22   6     0.05  -0.02   0.05     0.02   0.03   0.01     0.08  -0.03   0.08
  23   6     0.14  -0.05   0.11     0.02   0.05   0.07     0.17  -0.07   0.14
  24   6     0.12  -0.06   0.10     0.02   0.11   0.05     0.19  -0.10   0.17
  25   6     0.01  -0.04   0.02     0.00   0.14  -0.04     0.11  -0.09   0.12
  26   6    -0.07  -0.00  -0.04    -0.00   0.12  -0.09     0.00  -0.04   0.05
  27   6    -0.05   0.01  -0.02     0.01   0.06  -0.07    -0.00  -0.01   0.04
  28   6    -0.08  -0.04  -0.03     0.01  -0.02  -0.01    -0.01  -0.02  -0.04
  29   6    -0.14   0.00   0.03     0.05  -0.18  -0.05    -0.03  -0.05  -0.03
  30   6    -0.22   0.07   0.04     0.10  -0.34  -0.14    -0.04  -0.09  -0.05
  31   6    -0.13  -0.02   0.06     0.04  -0.17  -0.00    -0.03  -0.05   0.01
  32   6    -0.07  -0.07   0.05     0.02  -0.02   0.09    -0.00  -0.03   0.04
  33   6    -0.05  -0.11   0.08     0.01   0.00   0.16     0.00  -0.03   0.09
  34   6    -0.01  -0.10   0.00     0.00   0.10   0.11     0.03  -0.01   0.02
  35   6    -0.02  -0.08  -0.03     0.01   0.09   0.06     0.03  -0.01  -0.03
  36   6     0.01  -0.09  -0.06     0.03   0.20   0.06     0.06  -0.01  -0.05
  37   6    -0.02  -0.08  -0.07    -0.01   0.06  -0.02    -0.01   0.03  -0.06
  38   6    -0.10  -0.10  -0.10    -0.02   0.09  -0.05     0.05   0.03  -0.01
  39   6     0.10  -0.11  -0.02     0.03   0.06   0.05    -0.10   0.05  -0.12
  40   1     0.09  -0.06   0.01     0.06  -0.00   0.12    -0.12   0.05  -0.13
  41   1     0.10   0.01   0.08     0.08   0.01  -0.00    -0.14  -0.00  -0.06
  42   1     0.15  -0.06   0.05    -0.03   0.01   0.05    -0.07   0.03  -0.09
  43   1     0.06  -0.01   0.01    -0.01   0.00   0.01    -0.05   0.01  -0.05
  44   1    -0.02   0.04  -0.04    -0.00  -0.05  -0.05     0.01  -0.04   0.02
  45   1     0.00   0.01  -0.02    -0.08   0.02  -0.07    -0.01  -0.00  -0.02
  46   1    -0.04  -0.01  -0.04    -0.02   0.04   0.00     0.04   0.02   0.01
  47   1     0.00  -0.01  -0.02    -0.01   0.01  -0.03    -0.01   0.01  -0.03
  48   1     0.01   0.01  -0.01    -0.01   0.01  -0.01    -0.00   0.01  -0.04
  49   1    -0.02   0.03  -0.01     0.00   0.00  -0.04    -0.02   0.01   0.01
  50   1    -0.05   0.02  -0.03     0.01  -0.03  -0.04    -0.01   0.01   0.01
  51   1    -0.02   0.02  -0.01     0.01  -0.06  -0.01     0.05   0.00   0.05
  52   1     0.04   0.00   0.03     0.01  -0.06   0.03     0.09  -0.01   0.07
  53   1     0.06  -0.01   0.04     0.01  -0.03   0.04     0.07  -0.01   0.05
  54   1     0.06  -0.02   0.05     0.01   0.01   0.04     0.06  -0.02   0.05
  55   1     0.05  -0.03   0.04     0.01   0.04   0.03     0.08  -0.04   0.07
  56   1    -0.00  -0.01   0.00    -0.00   0.06  -0.02     0.04  -0.03   0.04
  57   1    -0.04   0.01  -0.03    -0.00   0.04  -0.04    -0.02  -0.01   0.00
  58   1    -0.04   0.01   0.02     0.05  -0.10  -0.07    -0.00  -0.03  -0.02
  59   1    -0.08   0.04   0.03     0.03  -0.11  -0.04    -0.02  -0.02  -0.01
  60   1    -0.08   0.02  -0.02     0.02  -0.13  -0.02    -0.02  -0.03  -0.02
  61   1    -0.05   0.00   0.03     0.02  -0.08  -0.01    -0.01  -0.02   0.01
  62   1    -0.00  -0.03   0.03     0.02  -0.01   0.05     0.01  -0.00   0.03
  63   1    -0.02  -0.04   0.03    -0.00   0.01   0.07    -0.00  -0.01   0.03
  64   1    -0.01  -0.03   0.02    -0.02   0.01   0.04    -0.00  -0.01   0.03
  65   1     0.01  -0.04  -0.00    -0.00   0.06   0.05     0.01   0.00   0.01
  66   1     0.00  -0.00  -0.02     0.01  -0.08  -0.01     0.01   0.04  -0.01
  67   1    -0.01  -0.04  -0.00     0.11   0.15  -0.05    -0.02  -0.03   0.01
  68   1     0.03  -0.04  -0.03    -0.09   0.13   0.11     0.06  -0.03  -0.04
  69   1    -0.03  -0.03  -0.03     0.03   0.03  -0.01     0.09   0.03   0.03
  70   1    -0.05  -0.03  -0.02    -0.03   0.00   0.00    -0.02  -0.07   0.02
  71   1    -0.03  -0.04  -0.05    -0.02   0.05  -0.05    -0.02   0.06  -0.05
  72   1     0.04  -0.04  -0.00     0.02   0.02   0.02    -0.03   0.02  -0.04
                     10                     11                     12
                        a                      a                      a 
 Frequencies --    66.2634                78.3733                80.7114
 Red. masses --    11.1201                 8.1112                13.1113
 Frc consts  --     0.0000                 0.0000                 0.0000
 IR Inten    --     0.7617                31.8393                 3.1353
 Raman Activ --     0.0000                 0.0000                 0.0000
 Depolar     --     0.0000                 0.0000                 0.0000
 Atom AN      X      Y      Z        X      Y      Z        X      Y      Z
   1   6     0.12   0.04   0.09    -0.09   0.02   0.02    -0.01   0.01  -0.02
   2   6     0.09   0.04   0.03    -0.03   0.01   0.01    -0.01   0.01   0.01
   3   6     0.06   0.02  -0.02    -0.12  -0.01  -0.09    -0.02   0.03   0.00
   4   6     0.05   0.02  -0.06    -0.09  -0.01  -0.10    -0.04   0.03   0.02
   5   6     0.02  -0.01  -0.11    -0.19  -0.00  -0.21    -0.07   0.07  -0.01
   6   6     0.07   0.03  -0.06     0.04  -0.02   0.02    -0.03   0.02   0.05
   7   5     0.03   0.03  -0.09    -0.00  -0.01   0.03     0.00   0.01   0.04
   8   6    -0.00   0.01  -0.03    -0.01  -0.03   0.05    -0.00  -0.03  -0.06
   9   6    -0.01   0.02  -0.14    -0.00  -0.03   0.12     0.05  -0.01  -0.29
  10   6    -0.01   0.02  -0.14     0.01  -0.03   0.13     0.07   0.00  -0.30
  11   6    -0.03  -0.00   0.01     0.01  -0.02   0.04     0.03  -0.01  -0.05
  12  35    -0.13  -0.09  -0.09     0.11   0.05   0.01     0.22   0.16   0.07
  13   6    -0.03  -0.02   0.14     0.02  -0.01  -0.04    -0.02  -0.03   0.12
  14   6    -0.03  -0.01   0.12     0.01  -0.02  -0.02    -0.03  -0.06   0.07
  15   7    -0.04  -0.01   0.17     0.01  -0.02  -0.05    -0.03  -0.07   0.11
  16   6    -0.03   0.03   0.13     0.02  -0.03  -0.03    -0.02  -0.03   0.07
  17   6    -0.05   0.10   0.14    -0.01  -0.05  -0.06    -0.02  -0.00   0.09
  18   6    -0.06   0.15   0.08     0.01  -0.07  -0.03     0.01   0.02   0.07
  19   6    -0.04   0.14   0.02     0.07  -0.09   0.03     0.03   0.02   0.03
  20   6    -0.03   0.08   0.01     0.08  -0.07   0.05     0.02  -0.01   0.01
  21   6    -0.03   0.03   0.06     0.06  -0.05   0.01    -0.00  -0.04   0.02
  22   6    -0.06  -0.01   0.04     0.04  -0.03  -0.01    -0.03  -0.08  -0.00
  23   6    -0.11  -0.02  -0.06     0.01  -0.02  -0.03    -0.05  -0.11  -0.09
  24   6    -0.19  -0.05  -0.11    -0.05   0.00  -0.09    -0.09  -0.17  -0.11
  25   6    -0.20  -0.07  -0.06    -0.08   0.02  -0.12    -0.09  -0.20  -0.03
  26   6    -0.14  -0.07   0.05    -0.05   0.00  -0.10    -0.06  -0.17   0.06
  27   6    -0.07  -0.03   0.09     0.01  -0.02  -0.05    -0.04  -0.10   0.06
  28   6     0.06  -0.02  -0.07    -0.02   0.03   0.04    -0.01   0.04   0.00
  29   6     0.03  -0.07  -0.04    -0.05   0.11   0.06     0.01   0.04  -0.01
  30   6     0.01  -0.13  -0.09    -0.08   0.20   0.10     0.02   0.05   0.00
  31   6     0.02  -0.05   0.02    -0.04   0.10   0.03     0.02   0.02  -0.02
  32   6     0.06  -0.02   0.06    -0.03   0.01  -0.03     0.01   0.03  -0.02
  33   6     0.06  -0.01   0.14    -0.00  -0.03  -0.09     0.02   0.02  -0.04
  34   6     0.11  -0.01   0.02    -0.03  -0.03  -0.03    -0.01   0.05   0.01
  35   6     0.12  -0.02  -0.05    -0.04  -0.01   0.01    -0.02   0.07   0.02
  36   6     0.16  -0.06  -0.08    -0.07   0.03   0.03     0.00   0.15   0.02
  37   6     0.12   0.06  -0.02     0.14  -0.00   0.11    -0.04  -0.00   0.03
  38   6     0.15   0.05   0.01     0.24  -0.02   0.18    -0.07   0.01   0.00
  39   6     0.12   0.06   0.02     0.10   0.01   0.11    -0.03  -0.01   0.02
  40   1     0.04   0.01   0.04    -0.02   0.02   0.02     0.00  -0.00   0.01
  41   1     0.04   0.02   0.02    -0.02  -0.00  -0.00     0.01  -0.00  -0.02
  42   1     0.03   0.00   0.03    -0.04   0.01   0.00    -0.01   0.01  -0.01
  43   1     0.01   0.00  -0.00    -0.07  -0.00  -0.05    -0.01   0.01  -0.00
  44   1     0.02  -0.01  -0.04    -0.03  -0.03  -0.08    -0.01  -0.00  -0.00
  45   1    -0.01  -0.00  -0.04    -0.10   0.01  -0.10    -0.04   0.03  -0.02
  46   1     0.01   0.00  -0.02    -0.07   0.02  -0.02    -0.02   0.04   0.02
  47   1     0.00   0.01  -0.07    -0.00  -0.01   0.05     0.02  -0.00  -0.13
  48   1    -0.00   0.01  -0.07     0.00  -0.01   0.06     0.03   0.01  -0.14
  49   1    -0.01  -0.01   0.07     0.01   0.00  -0.03    -0.02  -0.01   0.07
  50   1    -0.02   0.03   0.06    -0.01  -0.01  -0.04    -0.01  -0.00   0.03
  51   1    -0.02   0.06   0.02    -0.00  -0.02  -0.02     0.00   0.02   0.03
  52   1    -0.01   0.05  -0.01     0.03  -0.03   0.02     0.02   0.01   0.01
  53   1    -0.01   0.02  -0.01     0.03  -0.02   0.03     0.01  -0.00  -0.00
  54   1    -0.03  -0.00  -0.03     0.01  -0.01  -0.00    -0.01  -0.02  -0.04
  55   1    -0.07  -0.02  -0.06    -0.02   0.00  -0.03    -0.03  -0.06  -0.05
  56   1    -0.08  -0.03  -0.03    -0.04   0.01  -0.05    -0.03  -0.07  -0.01
  57   1    -0.05  -0.02   0.02    -0.03   0.01  -0.04    -0.02  -0.06   0.04
  58   1     0.07  -0.05  -0.03     0.01   0.04   0.05    -0.03   0.02  -0.00
  59   1    -0.02   0.01   0.00    -0.04   0.10   0.05     0.02  -0.01  -0.01
  60   1    -0.04  -0.09  -0.06    -0.05   0.04  -0.00     0.02   0.04   0.02
  61   1    -0.00  -0.02   0.01    -0.02   0.05   0.01     0.01   0.00  -0.01
  62   1     0.03   0.01   0.05    -0.01  -0.02  -0.03     0.01  -0.00  -0.01
  63   1     0.01  -0.01   0.04    -0.01  -0.01  -0.02     0.00   0.01  -0.00
  64   1     0.01  -0.01   0.05     0.01  -0.00  -0.04     0.01   0.01  -0.02
  65   1     0.04   0.00   0.01    -0.01  -0.02  -0.02    -0.01   0.02   0.00
  66   1     0.04   0.11  -0.02    -0.02  -0.12   0.00     0.01  -0.25  -0.04
  67   1    -0.04  -0.10   0.04     0.07   0.09  -0.05     0.22   0.23  -0.13
  68   1     0.15  -0.08  -0.10    -0.12   0.07   0.09    -0.21   0.19   0.18
  69   1     0.23   0.06   0.07     0.34   0.06   0.16    -0.12  -0.02  -0.04
  70   1    -0.06  -0.15   0.08    -0.07  -0.26   0.16     0.03   0.10  -0.04
  71   1    -0.04   0.12  -0.14    -0.05   0.16  -0.15     0.03  -0.06   0.08
  72   1     0.04   0.02   0.02     0.05   0.01   0.05    -0.01  -0.01   0.00
                     13                     14                     15
                        a                      a                      a 
 Frequencies --    95.4774               104.1966               111.2873
 Red. masses --    11.2509                11.7275                11.0729
 Frc consts  --     0.0000                 0.0000                 0.0000
 IR Inten    --     0.6622                 1.7156                 7.8021
 Raman Activ --     0.0000                 0.0000                 0.0000
 Depolar     --     0.0000                 0.0000                 0.0000
 Atom AN      X      Y      Z        X      Y      Z        X      Y      Z
   1   6    -0.04   0.07  -0.04     0.02  -0.05  -0.18    -0.09   0.04  -0.05
   2   6     0.03   0.06   0.02     0.03  -0.04  -0.02    -0.05   0.04  -0.03
   3   6     0.15   0.03   0.13     0.03   0.04   0.02     0.01   0.01   0.02
   4   6     0.18   0.02   0.15     0.01   0.06   0.12     0.03   0.01   0.02
   5   6     0.30   0.01   0.28    -0.00   0.12   0.13     0.01   0.02   0.01
   6   6     0.08   0.03   0.04    -0.03  -0.00   0.16     0.00   0.02  -0.02
   7   5    -0.01   0.01  -0.04    -0.04   0.00   0.16     0.05   0.01  -0.01
   8   6    -0.05  -0.04  -0.05     0.01   0.04   0.01     0.03  -0.01   0.02
   9   6    -0.03  -0.05  -0.02     0.03   0.06  -0.19     0.02  -0.02   0.09
  10   6    -0.02  -0.03  -0.02     0.03   0.07  -0.29     0.02  -0.02   0.13
  11   6    -0.02  -0.02  -0.05     0.02   0.05  -0.16     0.03  -0.02   0.06
  12  35     0.10   0.18   0.06    -0.13  -0.05   0.10     0.09  -0.10  -0.03
  13   6    -0.04  -0.01  -0.06     0.02   0.04  -0.08     0.03  -0.01   0.01
  14   6    -0.04  -0.03  -0.05     0.02   0.05  -0.02     0.03  -0.02   0.02
  15   7    -0.05  -0.04  -0.06     0.04   0.05  -0.01     0.01  -0.02   0.05
  16   6    -0.05  -0.05  -0.05     0.04   0.05  -0.01     0.02  -0.03   0.06
  17   6    -0.01  -0.09  -0.03    -0.03   0.07  -0.06    -0.21   0.04  -0.11
  18   6    -0.08  -0.08  -0.07    -0.05   0.08  -0.08    -0.30   0.07  -0.18
  19   6    -0.19  -0.05  -0.14     0.00   0.07  -0.04    -0.10   0.01  -0.04
  20   6    -0.17  -0.03  -0.12     0.07   0.04   0.02     0.14  -0.07   0.16
  21   6    -0.08  -0.04  -0.07     0.08   0.04   0.03     0.17  -0.07   0.18
  22   6    -0.04  -0.05  -0.03     0.08   0.04   0.03     0.16  -0.08   0.18
  23   6     0.04  -0.08   0.03     0.06   0.06   0.03     0.17  -0.09   0.17
  24   6     0.10  -0.10   0.09     0.00   0.10  -0.02    -0.05  -0.03  -0.02
  25   6     0.05  -0.09   0.04    -0.03   0.11  -0.06    -0.24   0.03  -0.19
  26   6    -0.04  -0.06  -0.03     0.00   0.09  -0.05    -0.19   0.02  -0.13
  27   6    -0.04  -0.04  -0.05     0.05   0.05  -0.01     0.01  -0.03   0.05
  28   6    -0.04   0.05  -0.01    -0.02  -0.07   0.10     0.05   0.03   0.00
  29   6    -0.04  -0.00  -0.01     0.05  -0.06   0.05     0.06   0.03  -0.00
  30   6    -0.03  -0.05  -0.04     0.15  -0.14   0.04     0.06   0.00  -0.01
  31   6    -0.02  -0.03  -0.01     0.02  -0.01  -0.01     0.06   0.02  -0.01
  32   6    -0.01  -0.01   0.01    -0.05  -0.02  -0.04     0.06   0.03  -0.00
  33   6     0.02  -0.09  -0.01    -0.10   0.08  -0.11     0.06   0.03  -0.00
  34   6    -0.04   0.07   0.03    -0.07  -0.12  -0.03     0.05   0.04   0.01
  35   6    -0.05   0.09   0.02    -0.05  -0.15   0.03     0.05   0.04   0.01
  36   6    -0.05   0.15   0.03    -0.04  -0.28   0.01     0.04   0.03   0.02
  37   6     0.03   0.06   0.00     0.00  -0.09   0.14    -0.08   0.05  -0.07
  38   6     0.02   0.05   0.00    -0.02  -0.15   0.19    -0.16   0.06  -0.14
  39   6    -0.01   0.07  -0.02     0.02  -0.10   0.06    -0.09   0.05  -0.08
  40   1    -0.03   0.03  -0.04    -0.01  -0.02  -0.08    -0.03   0.02  -0.02
  41   1    -0.04   0.01   0.01    -0.01  -0.03  -0.05    -0.03   0.01  -0.01
  42   1     0.01   0.03  -0.01     0.03   0.01  -0.06    -0.02   0.01  -0.02
  43   1     0.06   0.00   0.06     0.01   0.03  -0.01     0.01   0.00   0.02
  44   1     0.04   0.07   0.10    -0.02   0.09   0.03    -0.04   0.12  -0.01
  45   1     0.15  -0.01   0.14     0.04   0.03   0.07     0.08  -0.02   0.08
  46   1     0.09  -0.04   0.02    -0.03  -0.00   0.01    -0.05  -0.08  -0.07
  47   1    -0.01  -0.02  -0.00     0.01   0.02  -0.08     0.01  -0.01   0.04
  48   1    -0.00  -0.01  -0.00     0.01   0.03  -0.13     0.00  -0.01   0.06
  49   1    -0.01   0.00  -0.02     0.01   0.01  -0.01     0.01   0.00  -0.01
  50   1     0.02  -0.03   0.00    -0.03   0.02  -0.03    -0.10   0.02  -0.06
  51   1    -0.02  -0.03  -0.02    -0.03   0.03  -0.04    -0.15   0.04  -0.10
  52   1    -0.08  -0.01  -0.06    -0.00   0.02  -0.01    -0.05   0.01  -0.02
  53   1    -0.07  -0.00  -0.04     0.03   0.01   0.01     0.08  -0.03   0.08
  54   1     0.02  -0.02   0.01     0.02   0.01   0.02     0.09  -0.04   0.08
  55   1     0.05  -0.04   0.05    -0.01   0.03  -0.01    -0.02  -0.01  -0.02
  56   1     0.02  -0.03   0.02    -0.02   0.04  -0.03    -0.13   0.02  -0.10
  57   1    -0.03  -0.01  -0.02    -0.00   0.03  -0.02    -0.09   0.01  -0.06
  58   1     0.11  -0.04  -0.01     0.14  -0.06   0.01     0.03  -0.00  -0.01
  59   1    -0.05   0.08   0.03     0.03   0.03   0.03     0.02   0.00  -0.00
  60   1    -0.08  -0.10  -0.07    -0.01  -0.12  -0.01     0.01  -0.01  -0.01
  61   1    -0.00  -0.02  -0.01     0.02   0.01  -0.01     0.02   0.00  -0.00
  62   1     0.01  -0.04  -0.01    -0.05   0.03  -0.03     0.02   0.01  -0.00
  63   1    -0.01  -0.04   0.01    -0.01   0.04  -0.05     0.02   0.01  -0.00
  64   1     0.02  -0.02  -0.01    -0.04   0.02  -0.03     0.02   0.01  -0.00
  65   1    -0.01   0.03   0.02    -0.03  -0.05  -0.02     0.01   0.01   0.00
  66   1    -0.01   0.01   0.00    -0.01  -0.15  -0.01     0.01  -0.01   0.01
  67   1     0.01   0.07  -0.01     0.05  -0.06  -0.00     0.02   0.02   0.00
  68   1    -0.04   0.06   0.04    -0.07  -0.06   0.02    -0.00   0.02   0.01
  69   1     0.21   0.06   0.08     0.06  -0.02   0.09    -0.08   0.01  -0.06
  70   1    -0.12  -0.17   0.10    -0.05  -0.12   0.09    -0.04   0.06  -0.04
  71   1    -0.09   0.14  -0.17    -0.04  -0.01  -0.01    -0.03  -0.00  -0.03
  72   1    -0.02   0.02  -0.02     0.01  -0.05   0.01    -0.04   0.02  -0.04
                     16                     17                     18
                        a                      a                      a 
 Frequencies --   120.6120               125.7665               135.2849
 Red. masses --    13.0739                13.4678                 7.4777
 Frc consts  --     0.0000                 0.0000                 0.0000
 IR Inten    --     7.5121                 8.7804                11.5308
 Raman Activ --     0.0000                 0.0000                 0.0000
 Depolar     --     0.0000                 0.0000                 0.0000
 Atom AN      X      Y      Z        X      Y      Z        X      Y      Z
   1   6     0.04   0.09  -0.08     0.04   0.09  -0.02    -0.03  -0.01   0.01
   2   6     0.04   0.09  -0.01     0.03   0.09  -0.01     0.03  -0.02   0.00
   3   6    -0.03   0.13  -0.07     0.03   0.10  -0.00     0.08  -0.06   0.03
   4   6    -0.03   0.13  -0.01     0.04   0.10   0.01     0.10  -0.07  -0.00
   5   6    -0.12   0.18  -0.09     0.02   0.10  -0.00     0.18  -0.11   0.08
   6   6     0.01   0.08   0.08     0.02   0.07   0.02     0.06  -0.04  -0.07
   7   5    -0.01   0.08   0.08     0.00   0.06   0.02    -0.01  -0.02  -0.04
   8   6    -0.05  -0.02  -0.03    -0.04   0.01   0.04    -0.03  -0.02  -0.02
   9   6    -0.06  -0.02  -0.04    -0.08   0.00   0.17    -0.05  -0.02  -0.01
  10   6    -0.06  -0.02  -0.08    -0.09  -0.01   0.27    -0.05  -0.01  -0.03
  11   6    -0.05  -0.03  -0.10    -0.09  -0.01   0.18    -0.06   0.02  -0.05
  12  35     0.07   0.25   0.09    -0.13   0.19  -0.09    -0.17   0.14   0.01
  13   6    -0.05  -0.04  -0.10    -0.06   0.01   0.07    -0.05   0.02  -0.06
  14   6    -0.04  -0.05  -0.07    -0.05   0.01   0.02    -0.04   0.02  -0.03
  15   7    -0.03  -0.07  -0.05    -0.07   0.01  -0.05    -0.05   0.02  -0.03
  16   6    -0.02  -0.09  -0.04    -0.05  -0.00  -0.05    -0.04   0.02  -0.02
  17   6    -0.03  -0.13  -0.06    -0.02  -0.05  -0.04    -0.08   0.04  -0.05
  18   6    -0.05  -0.16  -0.04     0.02  -0.09   0.01    -0.06   0.04  -0.04
  19   6    -0.04  -0.16  -0.00     0.01  -0.08   0.02     0.01   0.02   0.01
  20   6    -0.02  -0.13   0.02    -0.05  -0.03  -0.01     0.04   0.00   0.03
  21   6    -0.01  -0.10  -0.01    -0.06   0.00  -0.06     0.01   0.00   0.01
  22   6    -0.01  -0.08  -0.02    -0.06  -0.01  -0.06     0.00  -0.00   0.01
  23   6    -0.03  -0.09  -0.05    -0.02  -0.04  -0.06    -0.00  -0.00   0.00
  24   6    -0.05  -0.09  -0.07     0.03  -0.09  -0.01    -0.03   0.01  -0.02
  25   6    -0.03  -0.10  -0.05     0.03  -0.10   0.01    -0.04   0.01  -0.03
  26   6    -0.01  -0.10  -0.03    -0.03  -0.07  -0.01    -0.03   0.01  -0.01
  27   6    -0.01  -0.08  -0.03    -0.06  -0.01  -0.05    -0.02   0.00  -0.01
  28   6     0.00   0.06   0.12     0.07  -0.07   0.01     0.00  -0.04   0.04
  29   6     0.06   0.01   0.07     0.09  -0.04   0.01     0.02  -0.06   0.02
  30   6     0.16  -0.05   0.06     0.14  -0.09  -0.01     0.08   0.02   0.09
  31   6     0.07  -0.00   0.03     0.05   0.03   0.02     0.02  -0.05  -0.00
  32   6     0.03   0.02   0.03     0.06  -0.01  -0.02    -0.00  -0.02   0.01
  33   6     0.07  -0.05  -0.05    -0.02   0.16   0.05    -0.02   0.01   0.01
  34   6    -0.02   0.06   0.07     0.13  -0.20  -0.09    -0.01  -0.02   0.02
  35   6    -0.01   0.05   0.10     0.14  -0.22  -0.06    -0.00  -0.04   0.04
  36   6    -0.01  -0.08   0.08     0.16  -0.30  -0.08    -0.00  -0.05   0.04
  37   6     0.05   0.06   0.10     0.01   0.08   0.00     0.09  -0.01  -0.03
  38   6     0.04   0.05   0.09    -0.03   0.08  -0.02     0.25   0.04   0.02
  39   6     0.08   0.05   0.07     0.01   0.08  -0.02     0.05   0.00  -0.00
  40   1     0.01   0.02  -0.03     0.01   0.02  -0.01    -0.01   0.01   0.00
  41   1     0.01   0.02  -0.03     0.01   0.03  -0.01    -0.01  -0.01   0.00
  42   1     0.02   0.04  -0.03     0.01   0.03  -0.01    -0.02  -0.00   0.00
  43   1    -0.03   0.05  -0.04     0.01   0.03  -0.00     0.03  -0.02   0.02
  44   1    -0.02   0.04  -0.05     0.01   0.02  -0.01     0.03  -0.00   0.04
  45   1    -0.05   0.06  -0.05     0.00   0.03  -0.00     0.08  -0.05   0.06
  46   1    -0.05   0.06  -0.00     0.00   0.03   0.00     0.06  -0.06  -0.01
  47   1    -0.02  -0.01   0.00    -0.02   0.00   0.05    -0.02  -0.00  -0.00
  48   1    -0.02  -0.01  -0.03    -0.03  -0.01   0.11    -0.01  -0.00  -0.01
  49   1    -0.01  -0.01  -0.03    -0.01   0.00   0.00    -0.01   0.00  -0.02
  50   1    -0.01  -0.04  -0.02     0.00  -0.02  -0.02    -0.04   0.01  -0.02
  51   1    -0.02  -0.05  -0.02     0.02  -0.03   0.01    -0.03   0.02  -0.02
  52   1    -0.01  -0.05   0.00     0.01  -0.03   0.02     0.01   0.01   0.01
  53   1    -0.01  -0.04   0.02    -0.02  -0.01   0.00     0.03  -0.00   0.02
  54   1    -0.01  -0.02  -0.02    -0.00  -0.01  -0.03     0.00  -0.00   0.00
  55   1    -0.02  -0.02  -0.03     0.02  -0.03   0.00    -0.01   0.00  -0.01
  56   1    -0.01  -0.03  -0.02     0.02  -0.04   0.02    -0.02   0.00  -0.01
  57   1    -0.00  -0.03  -0.00    -0.01  -0.02   0.01    -0.01   0.00  -0.00
  58   1     0.00  -0.00   0.00     0.11  -0.04   0.00    -0.41   0.12  -0.01
  59   1     0.07  -0.05  -0.01     0.02   0.03   0.02     0.20  -0.35  -0.16
  60   1     0.08   0.00   0.06    -0.00  -0.08  -0.03     0.30   0.29   0.28
  61   1     0.03  -0.02  -0.00     0.01   0.03   0.01     0.01  -0.02  -0.00
  62   1     0.01  -0.03  -0.02    -0.02   0.08   0.02    -0.01   0.01   0.00
  63   1     0.01  -0.03  -0.02     0.02   0.07   0.00     0.00   0.01   0.00
  64   1     0.04  -0.01  -0.02    -0.04   0.03   0.03    -0.01   0.00   0.00
  65   1    -0.01   0.02   0.02     0.04  -0.08  -0.04    -0.01  -0.01   0.00
  66   1    -0.01   0.25   0.05     0.05  -0.30  -0.04     0.00  -0.09   0.00
  67   1    -0.21  -0.21   0.16     0.20   0.03  -0.10     0.06   0.03  -0.02
  68   1     0.20  -0.16  -0.16    -0.11  -0.00   0.07    -0.06   0.02   0.05
  69   1    -0.08  -0.01  -0.01    -0.05   0.01  -0.02     0.11   0.02   0.02
  70   1     0.06   0.10  -0.01     0.01   0.06  -0.02     0.09  -0.02  -0.00
  71   1     0.06  -0.04   0.10     0.01  -0.00   0.02     0.06   0.05   0.01
  72   1     0.03   0.00   0.03    -0.00   0.02  -0.01     0.02   0.01   0.00
                     19                     20                     21
                        a                      a                      a 
 Frequencies --   141.8904               151.0811               157.2248
 Red. masses --     8.2150                 8.8871                11.6950
 Frc consts  --     0.0000                 0.0000                 0.0000
 IR Inten    --    16.4815                 9.5732                 5.5162
 Raman Activ --     0.0000                 0.0000                 0.0000
 Depolar     --     0.0000                 0.0000                 0.0000
 Atom AN      X      Y      Z        X      Y      Z        X      Y      Z
   1   6     0.12  -0.05   0.10    -0.06   0.02  -0.08     0.13   0.05  -0.04
   2   6    -0.05  -0.02  -0.05     0.04  -0.00   0.02    -0.02   0.09  -0.03
   3   6    -0.08  -0.00  -0.07     0.01   0.01  -0.00    -0.03   0.14  -0.02
   4   6    -0.06  -0.00  -0.05     0.04   0.00   0.03    -0.09   0.14   0.00
   5   6    -0.02  -0.03  -0.02     0.09  -0.05   0.06    -0.11   0.24   0.01
   6   6    -0.02  -0.01  -0.02     0.04   0.00   0.03    -0.13   0.09   0.03
   7   5     0.04   0.02   0.08    -0.03   0.00  -0.03    -0.04   0.04   0.02
   8   6     0.02  -0.01   0.03    -0.02   0.02   0.01     0.01   0.08   0.03
   9   6     0.03   0.00  -0.01    -0.05   0.01   0.04     0.03   0.07   0.00
  10   6     0.04   0.02  -0.06    -0.06  -0.01   0.02     0.02   0.04   0.06
  11   6     0.04   0.03  -0.05    -0.05  -0.01  -0.05     0.04  -0.03   0.11
  12  35    -0.02  -0.08   0.02    -0.07   0.16   0.03     0.20  -0.10  -0.02
  13   6     0.03   0.03  -0.04    -0.03  -0.02  -0.08     0.03  -0.03   0.11
  14   6     0.01   0.01   0.01    -0.01   0.00  -0.01     0.05  -0.00   0.06
  15   7    -0.05   0.02  -0.00     0.10  -0.03   0.06     0.13  -0.02   0.07
  16   6    -0.01   0.00   0.03     0.14  -0.04   0.09     0.13  -0.03   0.07
  17   6     0.10  -0.02   0.12     0.13  -0.05   0.08     0.18  -0.09   0.09
  18   6     0.07   0.01   0.09    -0.04  -0.01  -0.05     0.07  -0.09   0.03
  19   6    -0.09   0.05  -0.05    -0.18   0.03  -0.15    -0.09  -0.04  -0.07
  20   6    -0.15   0.06  -0.10    -0.05   0.01  -0.05    -0.09  -0.00  -0.06
  21   6    -0.06   0.02  -0.03     0.13  -0.04   0.09     0.06  -0.01   0.02
  22   6    -0.05   0.01  -0.01     0.15  -0.04   0.11     0.07  -0.00   0.02
  23   6     0.14  -0.06   0.13     0.12  -0.03   0.08     0.07  -0.01   0.00
  24   6     0.15  -0.10   0.15    -0.03   0.03  -0.05     0.04  -0.01  -0.02
  25   6    -0.07  -0.03  -0.03    -0.10   0.06  -0.13     0.01  -0.01  -0.04
  26   6    -0.21   0.03  -0.13    -0.01   0.02  -0.05     0.03  -0.01  -0.01
  27   6    -0.12   0.03  -0.06     0.10  -0.02   0.05     0.08  -0.01   0.03
  28   6     0.06   0.01   0.11    -0.02  -0.05  -0.09    -0.06  -0.01  -0.08
  29   6     0.11   0.06   0.08    -0.06  -0.06  -0.07    -0.09  -0.08  -0.07
  30   6     0.18   0.06   0.11    -0.15   0.03  -0.05    -0.14  -0.05  -0.07
  31   6     0.09   0.10   0.03    -0.06  -0.07  -0.03    -0.07  -0.13  -0.06
  32   6     0.06   0.06  -0.01    -0.03  -0.06  -0.01    -0.07  -0.09  -0.03
  33   6     0.07   0.05  -0.14    -0.08   0.02   0.11    -0.13   0.03   0.09
  34   6     0.02   0.00   0.01     0.01  -0.06  -0.05    -0.02  -0.09  -0.07
  35   6     0.03  -0.02   0.08     0.01  -0.05  -0.09    -0.05  -0.04  -0.09
  36   6     0.01  -0.08   0.08     0.00   0.03  -0.08    -0.04  -0.03  -0.09
  37   6    -0.11  -0.01  -0.10     0.09  -0.01   0.08    -0.14   0.05   0.01
  38   6    -0.16  -0.01  -0.12     0.06  -0.01   0.07    -0.12   0.02   0.05
  39   6    -0.12  -0.01  -0.12     0.12  -0.01   0.10    -0.09   0.04  -0.02
  40   1     0.04  -0.04   0.03    -0.03   0.02  -0.04     0.04  -0.02  -0.02
  41   1     0.05   0.04   0.05    -0.04  -0.02  -0.02     0.05   0.04  -0.00
  42   1     0.05  -0.05   0.04    -0.01   0.02  -0.03     0.07   0.01  -0.01
  43   1    -0.02   0.00  -0.02    -0.01   0.01  -0.01     0.00   0.05  -0.01
  44   1     0.08  -0.25   0.02     0.15  -0.34   0.06    -0.08   0.19  -0.00
  45   1    -0.17   0.04  -0.16    -0.20   0.06  -0.20     0.06   0.05   0.07
  46   1     0.09   0.16   0.15     0.16   0.22   0.23    -0.09  -0.01  -0.07
  47   1     0.01  -0.00  -0.00    -0.02   0.01   0.02     0.01   0.02  -0.01
  48   1     0.02   0.01  -0.03    -0.02  -0.00   0.02    -0.01   0.01   0.01
  49   1     0.01   0.01  -0.02    -0.00  -0.01  -0.03     0.01  -0.01   0.04
  50   1     0.06  -0.01   0.06     0.06  -0.02   0.04     0.08  -0.04   0.04
  51   1     0.05  -0.00   0.05    -0.03   0.00  -0.02     0.03  -0.03   0.01
  52   1    -0.05   0.02  -0.03    -0.11   0.02  -0.09    -0.06  -0.01  -0.04
  53   1    -0.07   0.03  -0.05    -0.04   0.01  -0.03    -0.06   0.01  -0.03
  54   1     0.08  -0.03   0.06     0.05  -0.01   0.04     0.02  -0.00   0.00
  55   1     0.09  -0.05   0.08    -0.03   0.02  -0.03     0.01  -0.00  -0.01
  56   1    -0.03  -0.01  -0.02    -0.07   0.03  -0.07    -0.01   0.00  -0.02
  57   1    -0.10   0.02  -0.06    -0.01   0.01  -0.02    -0.00  -0.00  -0.01
  58   1    -0.03   0.04   0.02    -0.02  -0.00   0.01    -0.27   0.05  -0.05
  59   1     0.09  -0.05  -0.01    -0.06   0.04   0.01     0.04  -0.21  -0.10
  60   1     0.10   0.06   0.09    -0.06   0.01  -0.05     0.09   0.13   0.10
  61   1     0.03   0.04   0.00    -0.03  -0.02  -0.00    -0.02  -0.04  -0.02
  62   1    -0.00   0.00  -0.05    -0.01   0.03   0.04    -0.03   0.04   0.04
  63   1     0.02   0.01  -0.05    -0.01   0.02   0.04    -0.02   0.03   0.03
  64   1     0.04   0.02  -0.05    -0.05  -0.00   0.05    -0.08  -0.00   0.04
  65   1    -0.01  -0.01  -0.01     0.01  -0.01  -0.01     0.00  -0.03  -0.02
  66   1     0.00  -0.01   0.03     0.00   0.00  -0.02    -0.01   0.02  -0.02
  67   1    -0.00  -0.03   0.03    -0.00   0.03  -0.05    -0.03  -0.02  -0.02
  68   1     0.01  -0.03   0.01    -0.00   0.02  -0.00     0.01  -0.02  -0.04
  69   1     0.07   0.02   0.01    -0.10  -0.03  -0.03     0.09   0.04   0.07
  70   1    -0.12  -0.10   0.02     0.08   0.11  -0.03    -0.10  -0.11   0.06
  71   1    -0.10   0.06  -0.14     0.07  -0.07   0.11    -0.09   0.07  -0.08
  72   1    -0.04   0.00  -0.04     0.05  -0.01   0.04    -0.02  -0.00  -0.01
                     22                     23                     24
                        a                      a                      a 
 Frequencies --   167.0486               169.9786               176.8604
 Red. masses --     9.8418                22.3491                12.9186
 Frc consts  --     0.0000                 0.0000                 0.0000
 IR Inten    --     4.1263                 1.3467                 7.0916
 Raman Activ --     0.0000                 0.0000                 0.0000
 Depolar     --     0.0000                 0.0000                 0.0000
 Atom AN      X      Y      Z        X      Y      Z        X      Y      Z
   1   6    -0.09  -0.04  -0.00     0.07  -0.09   0.16     0.04  -0.16  -0.04
   2   6     0.01  -0.06   0.04    -0.11  -0.06  -0.07    -0.05  -0.13   0.03
   3   6    -0.05  -0.07  -0.03    -0.09  -0.07  -0.07    -0.06  -0.04   0.05
   4   6    -0.02  -0.07  -0.02    -0.07  -0.08  -0.08    -0.11  -0.03   0.11
   5   6    -0.10  -0.06  -0.12     0.04  -0.14   0.01    -0.08   0.01   0.16
   6   6     0.04  -0.05   0.01    -0.05  -0.03  -0.11    -0.09  -0.02   0.13
   7   5     0.02  -0.03  -0.01     0.01   0.01   0.01     0.03  -0.00   0.04
   8   6    -0.00  -0.02   0.02     0.01   0.05   0.05     0.01  -0.00   0.01
   9   6    -0.03  -0.02   0.03    -0.07   0.06  -0.01    -0.02   0.01  -0.04
  10   6    -0.03  -0.01  -0.02    -0.11   0.01  -0.06    -0.03   0.00   0.02
  11   6    -0.03   0.02  -0.11    -0.11  -0.02  -0.02    -0.05   0.01   0.09
  12  35    -0.16   0.12   0.03    -0.22   0.35   0.02    -0.15   0.13  -0.03
  13   6    -0.01   0.02  -0.12    -0.03  -0.04   0.04    -0.02   0.00   0.10
  14   6    -0.01   0.01  -0.03     0.03   0.01   0.05    -0.00   0.00   0.02
  15   7    -0.02   0.00   0.01     0.19  -0.03   0.11    -0.03   0.02  -0.06
  16   6     0.07  -0.02   0.08     0.18  -0.04   0.08    -0.05   0.01  -0.07
  17   6     0.21  -0.04   0.20     0.14  -0.09   0.03    -0.07  -0.02  -0.11
  18   6     0.16  -0.01   0.14    -0.02  -0.09  -0.05    -0.05  -0.07  -0.05
  19   6    -0.09   0.06  -0.07    -0.09  -0.07  -0.07     0.02  -0.09   0.03
  20   6    -0.15   0.07  -0.13     0.01  -0.04   0.02     0.02  -0.05   0.05
  21   6    -0.01   0.01  -0.00     0.15  -0.03   0.08    -0.03   0.00  -0.03
  22   6    -0.00   0.00   0.01     0.15  -0.03   0.07    -0.02   0.01  -0.03
  23   6     0.13  -0.05   0.12    -0.00   0.02  -0.08     0.00  -0.00  -0.02
  24   6     0.09  -0.05   0.08    -0.07   0.04  -0.14     0.02  -0.02  -0.00
  25   6    -0.11   0.01  -0.09     0.07  -0.01  -0.01     0.02  -0.02  -0.01
  26   6    -0.17   0.04  -0.13     0.20  -0.05   0.12    -0.01  -0.00  -0.03
  27   6    -0.07   0.02  -0.04     0.20  -0.04   0.11    -0.02   0.01  -0.04
  28   6     0.03  -0.00  -0.02     0.02   0.03   0.06     0.08   0.05  -0.12
  29   6     0.04   0.01  -0.02     0.02   0.07   0.06     0.10   0.03  -0.14
  30   6     0.03   0.04  -0.01     0.08  -0.04   0.01     0.01   0.16  -0.09
  31   6     0.04   0.00  -0.02     0.01   0.10   0.05     0.16  -0.06  -0.12
  32   6     0.06  -0.00  -0.01     0.01   0.05   0.02     0.19   0.02  -0.05
  33   6     0.03   0.06   0.03     0.05  -0.03  -0.08     0.13   0.15   0.10
  34   6     0.06  -0.02  -0.02     0.00   0.02   0.02     0.18   0.07  -0.04
  35   6     0.05   0.00  -0.01     0.00   0.02   0.05     0.15   0.09  -0.08
  36   6     0.05   0.08   0.00     0.01  -0.05   0.04     0.19   0.21  -0.09
  37   6     0.10  -0.06   0.07    -0.10  -0.03  -0.16    -0.09  -0.13   0.10
  38   6     0.07  -0.04   0.04    -0.02  -0.05  -0.08    -0.08  -0.24   0.20
  39   6     0.12  -0.06   0.11    -0.15  -0.02  -0.16    -0.06  -0.15   0.05
  40   1    -0.04   0.01  -0.02     0.04  -0.04   0.08     0.01  -0.07  -0.02
  41   1    -0.05  -0.03   0.01     0.06   0.03   0.05     0.02  -0.04  -0.01
  42   1    -0.02  -0.01  -0.00     0.01  -0.07   0.07     0.03  -0.03  -0.02
  43   1    -0.03  -0.02  -0.03    -0.01  -0.03  -0.00    -0.00   0.00   0.01
  44   1    -0.13   0.28  -0.08    -0.03   0.03   0.02    -0.02  -0.03   0.07
  45   1     0.17  -0.09   0.17     0.07  -0.06   0.07    -0.03   0.02   0.02
  46   1    -0.16  -0.24  -0.23     0.01  -0.09  -0.06    -0.00   0.03   0.07
  47   1    -0.01  -0.00   0.02    -0.03   0.04  -0.01    -0.01   0.01  -0.02
  48   1    -0.00  -0.00   0.00    -0.04   0.01  -0.03    -0.00   0.00  -0.00
  49   1     0.00   0.00  -0.05    -0.00  -0.03   0.02    -0.00  -0.00   0.03
  50   1     0.09  -0.02   0.09     0.06  -0.03   0.00    -0.02  -0.01  -0.04
  51   1     0.08  -0.01   0.06    -0.02  -0.03  -0.03    -0.02  -0.03  -0.02
  52   1    -0.06   0.03  -0.05    -0.06  -0.02  -0.04     0.02  -0.03   0.03
  53   1    -0.09   0.03  -0.08    -0.02  -0.00   0.01     0.02  -0.02   0.04
  54   1     0.08  -0.03   0.06    -0.02   0.01  -0.05     0.00  -0.00  -0.01
  55   1     0.06  -0.03   0.05    -0.06   0.02  -0.08     0.01  -0.01   0.00
  56   1    -0.05   0.01  -0.04     0.02  -0.00  -0.01     0.01  -0.01   0.00
  57   1    -0.07   0.02  -0.05     0.07  -0.02   0.05    -0.00  -0.00  -0.01
  58   1     0.04   0.00   0.01     0.08  -0.02  -0.01    -0.06   0.06  -0.01
  59   1    -0.00   0.04   0.01     0.01   0.02   0.02     0.01   0.01  -0.03
  60   1    -0.01  -0.01  -0.03    -0.01  -0.07  -0.01     0.03   0.10  -0.03
  61   1     0.01   0.00  -0.00     0.00   0.03   0.01     0.04  -0.04  -0.03
  62   1     0.01   0.03   0.01     0.01  -0.03  -0.03     0.05   0.08   0.05
  63   1     0.02   0.03   0.01     0.01  -0.02  -0.03     0.05   0.06   0.03
  64   1    -0.01   0.01   0.02     0.05   0.00  -0.04    -0.01   0.03   0.05
  65   1     0.02  -0.01  -0.00    -0.00  -0.01  -0.00     0.05   0.03  -0.00
  66   1     0.01   0.01  -0.00     0.00  -0.03   0.01     0.05   0.13  -0.03
  67   1     0.02   0.04  -0.02     0.02  -0.01   0.02    -0.00   0.03  -0.01
  68   1     0.01   0.04   0.02    -0.01  -0.01   0.01     0.12   0.04  -0.04
  69   1    -0.08  -0.04  -0.03     0.07   0.01   0.02     0.04  -0.05   0.11
  70   1     0.07   0.08  -0.03    -0.03  -0.10  -0.01    -0.05  -0.15   0.08
  71   1     0.06  -0.07   0.08    -0.03   0.03  -0.06    -0.05  -0.04   0.00
  72   1     0.05  -0.02   0.05    -0.05   0.00  -0.04    -0.01  -0.05   0.01
                     25                     26                     27
                        a                      a                      a 
 Frequencies --   183.2886               192.1590               193.5635
 Red. masses --    10.1500                11.2336                10.0324
 Frc consts  --     0.0000                 0.0000                 0.0000
 IR Inten    --     1.9444                 2.4490                 1.6133
 Raman Activ --     0.0000                 0.0000                 0.0000
 Depolar     --     0.0000                 0.0000                 0.0000
 Atom AN      X      Y      Z        X      Y      Z        X      Y      Z
   1   6     0.05   0.04   0.06     0.19  -0.01   0.17    -0.06  -0.01  -0.10
   2   6    -0.03   0.05  -0.04    -0.15   0.05  -0.14     0.05  -0.03   0.08
   3   6     0.01   0.02  -0.02    -0.31   0.09  -0.30     0.17  -0.02   0.21
   4   6     0.03   0.02  -0.03    -0.13   0.06  -0.08     0.03  -0.00   0.10
   5   6     0.01   0.01  -0.05     0.17   0.06   0.27    -0.18   0.07  -0.11
   6   6     0.03   0.02  -0.03    -0.06   0.03   0.01    -0.02  -0.00   0.06
   7   5     0.01   0.01   0.04    -0.01   0.02   0.00     0.00  -0.02  -0.01
   8   6    -0.01  -0.01   0.07    -0.04  -0.03   0.01    -0.03  -0.05   0.01
   9   6    -0.02  -0.02   0.12    -0.02  -0.04   0.09    -0.06  -0.07   0.13
  10   6    -0.00  -0.00  -0.08    -0.00  -0.03   0.03    -0.06  -0.09   0.05
  11   6     0.03   0.02  -0.30     0.03  -0.02  -0.16    -0.03  -0.06  -0.24
  12  35     0.01   0.01   0.09     0.13  -0.10   0.05     0.04   0.04   0.08
  13   6     0.04   0.01  -0.28     0.00  -0.00  -0.22    -0.01  -0.05  -0.32
  14   6     0.02  -0.01  -0.05    -0.02  -0.02  -0.06    -0.01  -0.05  -0.08
  15   7     0.01  -0.03   0.05    -0.05  -0.03  -0.00     0.02  -0.08   0.05
  16   6    -0.02  -0.02   0.03    -0.06  -0.02  -0.00     0.01  -0.06   0.06
  17   6    -0.06   0.03   0.02    -0.07   0.05   0.02    -0.01   0.05   0.09
  18   6    -0.04   0.05   0.01    -0.01   0.09   0.01     0.02   0.13   0.03
  19   6     0.03   0.03   0.03     0.04   0.07   0.01     0.04   0.11  -0.02
  20   6     0.04  -0.01   0.03     0.04   0.01  -0.01     0.05   0.02  -0.04
  21   6    -0.01  -0.02   0.02    -0.03  -0.03   0.00     0.01  -0.06   0.03
  22   6    -0.02  -0.02   0.01    -0.02  -0.04   0.02    -0.02  -0.06   0.02
  23   6    -0.09  -0.01  -0.05    -0.02  -0.02   0.05    -0.12   0.01   0.00
  24   6    -0.05  -0.03  -0.02    -0.04   0.00   0.03    -0.07   0.05   0.04
  25   6     0.04  -0.06   0.07    -0.05   0.01   0.00     0.05   0.02   0.10
  26   6     0.05  -0.06   0.09    -0.03  -0.01   0.00     0.08  -0.02   0.08
  27   6     0.02  -0.04   0.05    -0.03  -0.03   0.01     0.03  -0.06   0.05
  28   6     0.06  -0.08   0.03    -0.02   0.04  -0.05    -0.00   0.05  -0.05
  29   6     0.10  -0.13  -0.01    -0.04   0.06  -0.03    -0.03   0.11  -0.02
  30   6    -0.06   0.19   0.13     0.00  -0.09  -0.11     0.07  -0.13  -0.13
  31   6     0.16  -0.26  -0.10    -0.08   0.13   0.04    -0.10   0.25   0.08
  32   6     0.09  -0.18  -0.07    -0.00   0.04   0.01     0.02   0.08   0.01
  33   6    -0.13   0.27   0.08     0.04  -0.05   0.04     0.09  -0.06   0.01
  34   6     0.06  -0.17  -0.05     0.06  -0.05  -0.05     0.11  -0.08  -0.08
  35   6     0.03  -0.11   0.00     0.03   0.01  -0.06     0.06   0.01  -0.06
  36   6    -0.13   0.13   0.13     0.05   0.03  -0.07     0.10   0.06  -0.09
  37   6    -0.04   0.05  -0.07    -0.03   0.01   0.03    -0.06  -0.02   0.02
  38   6    -0.02   0.05  -0.06     0.15  -0.04   0.18    -0.15  -0.04  -0.01
  39   6    -0.09   0.06  -0.11    -0.02   0.01  -0.00    -0.08  -0.02  -0.02
  40   1     0.02   0.00   0.03     0.08  -0.05   0.10    -0.03   0.01  -0.06
  41   1     0.03   0.03   0.02     0.12   0.09   0.06    -0.05  -0.05  -0.03
  42   1     0.01  -0.01   0.03     0.06  -0.07   0.08    -0.01   0.03  -0.05
  43   1     0.01   0.00   0.01    -0.12   0.03  -0.12     0.08  -0.01   0.08
  44   1     0.00   0.02  -0.03    -0.01   0.03   0.17    -0.01   0.00  -0.08
  45   1     0.01  -0.00  -0.01     0.12   0.02   0.12    -0.10   0.04  -0.08
  46   1    -0.01  -0.01  -0.03     0.11   0.01   0.03    -0.10   0.04   0.02
  47   1    -0.01  -0.01   0.08    -0.01  -0.02   0.06    -0.02  -0.02   0.09
  48   1    -0.01  -0.00  -0.01    -0.01  -0.01   0.04    -0.03  -0.03   0.06
  49   1     0.02   0.00  -0.10     0.00   0.00  -0.08     0.01  -0.02  -0.12
  50   1    -0.03   0.01   0.01    -0.03   0.02   0.02    -0.02   0.02   0.05
  51   1    -0.02   0.02  -0.00    -0.00   0.03   0.01    -0.00   0.05   0.01
  52   1     0.02   0.01   0.01     0.02   0.02   0.00     0.02   0.05  -0.02
  53   1     0.02  -0.01   0.01     0.03  -0.00  -0.01     0.03   0.00  -0.04
  54   1    -0.04   0.00  -0.03    -0.00  -0.01   0.02    -0.07   0.01  -0.01
  55   1    -0.03  -0.01  -0.02    -0.01   0.00   0.01    -0.04   0.02   0.00
  56   1     0.02  -0.02   0.03    -0.02   0.01  -0.00     0.03   0.01   0.04
  57   1     0.02  -0.02   0.03    -0.00   0.00  -0.00     0.04   0.00   0.01
  58   1     0.02   0.03   0.12     0.03  -0.02  -0.06    -0.05  -0.00  -0.11
  59   1    -0.05   0.14   0.08    -0.00  -0.03  -0.03     0.07  -0.14  -0.09
  60   1    -0.05   0.08  -0.05    -0.01  -0.06  -0.02     0.07  -0.03   0.06
  61   1     0.05  -0.08  -0.03    -0.04   0.05   0.03    -0.05   0.10   0.04
  62   1    -0.06   0.15   0.05     0.03  -0.03   0.01     0.04  -0.04  -0.00
  63   1     0.04   0.15   0.01    -0.01  -0.03   0.02    -0.00  -0.04   0.01
  64   1    -0.14   0.05   0.06     0.03  -0.01   0.01     0.06  -0.01  -0.01
  65   1     0.00  -0.03  -0.01     0.03  -0.04  -0.03     0.06  -0.07  -0.05
  66   1    -0.03   0.08   0.08     0.02  -0.02  -0.03     0.03   0.00  -0.03
  67   1    -0.11   0.05   0.00     0.04   0.03  -0.04     0.04   0.04  -0.04
  68   1    -0.02   0.04   0.06    -0.00   0.03   0.00     0.02   0.03  -0.00
  69   1     0.03   0.02   0.00    -0.02  -0.01   0.05     0.02   0.00   0.02
  70   1    -0.03  -0.02  -0.00     0.11   0.01   0.00    -0.09  -0.06   0.04
  71   1    -0.02   0.04  -0.05     0.08  -0.04   0.13    -0.07   0.02  -0.07
  72   1    -0.04   0.02  -0.04     0.04  -0.01   0.04    -0.06  -0.00  -0.04
                     28                     29                     30
                        a                      a                      a 
 Frequencies --   204.9478               209.8653               220.6822
 Red. masses --    11.8204                 9.7712                 8.7534
 Frc consts  --     0.0000                 0.0000                 0.0000
 IR Inten    --     0.6920                 4.9602                 0.0512
 Raman Activ --     0.0000                 0.0000                 0.0000
 Depolar     --     0.0000                 0.0000                 0.0000
 Atom AN      X      Y      Z        X      Y      Z        X      Y      Z
   1   6     0.04   0.01   0.01     0.01  -0.01  -0.01    -0.07  -0.01  -0.06
   2   6    -0.02   0.02  -0.02    -0.00  -0.01   0.00     0.08  -0.04   0.06
   3   6    -0.05   0.03  -0.05     0.02  -0.00   0.03    -0.21   0.02  -0.23
   4   6    -0.02   0.03  -0.01    -0.01  -0.00   0.02    -0.05  -0.01  -0.06
   5   6    -0.02   0.05   0.01    -0.04   0.01  -0.01     0.10  -0.04   0.11
   6   6    -0.00   0.00   0.02    -0.01   0.01   0.01    -0.01  -0.01  -0.00
   7   5    -0.00  -0.01  -0.01     0.00   0.00  -0.01     0.01  -0.00  -0.01
   8   6    -0.05  -0.11  -0.10     0.02   0.04   0.04     0.02   0.02  -0.04
   9   6    -0.10  -0.12  -0.10     0.03   0.03   0.15     0.01   0.01   0.01
  10   6    -0.14  -0.19   0.05     0.05   0.06   0.09     0.00   0.01   0.04
  11   6    -0.15  -0.21   0.13     0.08   0.10  -0.18     0.00   0.01  -0.03
  12  35     0.11   0.10  -0.02    -0.05  -0.05   0.04    -0.03   0.02   0.00
  13   6    -0.13  -0.19   0.06     0.08   0.11  -0.25     0.02   0.01  -0.06
  14   6    -0.07  -0.13  -0.03     0.04   0.06  -0.04     0.02   0.01  -0.04
  15   7     0.00  -0.12  -0.02     0.01   0.04   0.05     0.02   0.00   0.03
  16   6     0.01  -0.10   0.00     0.01   0.03   0.05    -0.00   0.00   0.01
  17   6     0.02   0.06   0.07     0.00  -0.00   0.03    -0.02   0.01  -0.00
  18   6     0.09   0.18  -0.01    -0.03  -0.03   0.04    -0.02   0.01   0.00
  19   6     0.11   0.17  -0.10    -0.05  -0.02   0.04    -0.00   0.00   0.02
  20   6     0.11   0.03  -0.15    -0.05   0.02   0.05     0.01  -0.00   0.03
  21   6     0.02  -0.11  -0.03    -0.00   0.04   0.04     0.00   0.00   0.02
  22   6    -0.01  -0.11   0.00     0.00   0.04   0.02     0.01   0.01   0.02
  23   6    -0.09   0.02   0.15     0.01  -0.01  -0.08    -0.07   0.02  -0.06
  24   6    -0.06   0.19   0.13     0.00  -0.10  -0.06    -0.03  -0.01  -0.03
  25   6    -0.01   0.23   0.06     0.01  -0.13   0.01     0.06  -0.04   0.06
  26   6     0.07   0.09  -0.05    -0.02  -0.07   0.07     0.05  -0.03   0.07
  27   6     0.01  -0.09  -0.03     0.01   0.03   0.06     0.04  -0.01   0.05
  28   6     0.00  -0.01   0.03    -0.01   0.02  -0.04     0.01  -0.00   0.01
  29   6     0.05  -0.05  -0.01     0.00  -0.03  -0.06     0.02   0.00   0.01
  30   6    -0.01   0.12   0.07    -0.11   0.09  -0.03     0.01  -0.00   0.01
  31   6     0.12  -0.19  -0.10     0.08  -0.21  -0.12     0.02   0.01   0.00
  32   6     0.02  -0.00  -0.00    -0.03   0.08   0.02     0.01   0.00  -0.00
  33   6     0.01   0.03  -0.04     0.05  -0.09  -0.03     0.00   0.02  -0.03
  34   6    -0.08   0.18   0.10    -0.16   0.39   0.16     0.01  -0.01  -0.00
  35   6    -0.01   0.03   0.05    -0.03   0.11   0.01     0.01   0.00   0.01
  36   6     0.09  -0.14  -0.03     0.18  -0.30  -0.17     0.00   0.01   0.01
  37   6    -0.02   0.01   0.00    -0.02  -0.01   0.01     0.08  -0.02   0.06
  38   6    -0.04   0.03  -0.03    -0.01  -0.03   0.04    -0.38   0.06  -0.27
  39   6    -0.01   0.01  -0.00    -0.03  -0.01  -0.02     0.39  -0.08   0.33
  40   1     0.01  -0.01   0.00     0.00  -0.01  -0.00    -0.03   0.02  -0.03
  41   1     0.02   0.02   0.01     0.00  -0.00  -0.00    -0.05  -0.05  -0.02
  42   1     0.02  -0.00   0.01     0.00  -0.00  -0.00    -0.03   0.02  -0.03
  43   1    -0.02   0.01  -0.02     0.01  -0.00   0.01    -0.13   0.02  -0.14
  44   1    -0.01   0.03   0.01    -0.01   0.01  -0.01    -0.00  -0.01   0.08
  45   1     0.01   0.01   0.01    -0.01   0.01  -0.01     0.06  -0.02   0.06
  46   1    -0.01   0.01  -0.00    -0.02   0.00   0.00     0.07  -0.02   0.00
  47   1    -0.03  -0.02  -0.06     0.01  -0.00   0.08     0.00   0.00   0.01
  48   1    -0.05  -0.05   0.02     0.01   0.01   0.07    -0.00  -0.00   0.03
  49   1    -0.03  -0.06   0.01     0.03   0.04  -0.10     0.01   0.00  -0.02
  50   1    -0.02   0.03   0.06     0.01  -0.00  -0.00    -0.01   0.00  -0.00
  51   1     0.03   0.08   0.01    -0.01  -0.01   0.01    -0.01   0.00  -0.00
  52   1     0.04   0.07  -0.05    -0.02  -0.01   0.01     0.00  -0.00   0.01
  53   1     0.05  -0.00  -0.08    -0.03   0.01   0.02     0.01  -0.00   0.01
  54   1    -0.06  -0.01   0.08     0.01   0.01  -0.05    -0.04   0.02  -0.04
  55   1    -0.03   0.08   0.06    -0.00  -0.04  -0.03    -0.02   0.00  -0.02
  56   1     0.00   0.10   0.01     0.00  -0.05   0.01     0.03  -0.02   0.03
  57   1     0.06   0.04  -0.04    -0.02  -0.02   0.03     0.01  -0.01   0.02
  58   1     0.00   0.02   0.07    -0.05   0.02   0.02    -0.06   0.02  -0.01
  59   1    -0.01   0.07   0.04    -0.05   0.03   0.01     0.03  -0.05  -0.02
  60   1    -0.01   0.06  -0.02    -0.03   0.06  -0.04     0.04   0.03   0.04
  61   1     0.06  -0.10  -0.05     0.06  -0.14  -0.07     0.01   0.00   0.00
  62   1    -0.01   0.01  -0.01     0.03  -0.06  -0.02    -0.01   0.01  -0.01
  63   1     0.01   0.02  -0.02    -0.02  -0.06   0.00     0.01   0.01  -0.01
  64   1     0.00   0.01  -0.01     0.06  -0.01  -0.02     0.00   0.01  -0.01
  65   1    -0.05   0.10   0.05    -0.08   0.18   0.08     0.00  -0.00  -0.00
  66   1     0.02  -0.09  -0.04     0.04  -0.19  -0.11     0.00  -0.00   0.00
  67   1     0.09  -0.04   0.01     0.19  -0.09  -0.00     0.00   0.01   0.00
  68   1    -0.01  -0.04  -0.02    -0.02  -0.08  -0.07    -0.00   0.00   0.01
  69   1     0.02   0.01  -0.01    -0.00  -0.01   0.02    -0.03   0.01  -0.11
  70   1    -0.03  -0.01   0.01    -0.00  -0.02   0.01    -0.25   0.02   0.02
  71   1    -0.03   0.02  -0.03    -0.00  -0.01   0.01    -0.16   0.03  -0.23
  72   1    -0.00   0.00   0.00    -0.01  -0.00  -0.01     0.18  -0.03   0.16
                     31                     32                     33
                        a                      a                      a 
 Frequencies --   259.2925               274.4609               276.6906
 Red. masses --    10.6496                 9.4078                 9.3367
 Frc consts  --     0.0000                 0.0000                 0.0000
 IR Inten    --     0.4219                 1.4942                 2.7189
 Raman Activ --     0.0000                 0.0000                 0.0000
 Depolar     --     0.0000                 0.0000                 0.0000
 Atom AN      X      Y      Z        X      Y      Z        X      Y      Z
   1   6    -0.10   0.07   0.14     0.22  -0.05  -0.19    -0.19   0.07   0.22
   2   6     0.03   0.02  -0.04    -0.09   0.04   0.03     0.06  -0.01  -0.07
   3   6     0.02  -0.00  -0.08    -0.12   0.05   0.02     0.07  -0.02  -0.08
   4   6     0.08  -0.01  -0.02     0.00   0.01   0.06     0.04   0.00  -0.04
   5   6     0.05  -0.01  -0.07    -0.02  -0.19  -0.04     0.03   0.17   0.00
   6   6     0.13   0.01   0.03     0.05  -0.00   0.10     0.04  -0.01  -0.02
   7   5     0.03   0.02   0.14     0.02  -0.01   0.02    -0.01   0.01   0.01
   8   6    -0.04  -0.02   0.43     0.01  -0.03   0.01    -0.01  -0.01   0.01
   9   6    -0.06  -0.01   0.25     0.01  -0.03  -0.00    -0.00  -0.01  -0.02
  10   6    -0.03   0.01  -0.29     0.02  -0.01  -0.02    -0.00  -0.01  -0.00
  11   6    -0.02  -0.04  -0.19     0.00   0.00   0.01    -0.01  -0.01   0.03
  12  35     0.01   0.05   0.05    -0.04   0.01  -0.00     0.01  -0.01  -0.00
  13   6    -0.01  -0.09   0.17    -0.00   0.01   0.02    -0.02  -0.00   0.01
  14   6     0.02  -0.06   0.28    -0.01  -0.01   0.01    -0.02  -0.00   0.00
  15   7     0.08  -0.05   0.05    -0.01   0.01  -0.01    -0.02   0.01  -0.01
  16   6    -0.02   0.00  -0.06     0.17  -0.05   0.14     0.17  -0.05   0.14
  17   6    -0.05  -0.01  -0.10     0.13  -0.04   0.11     0.14  -0.04   0.11
  18   6     0.00  -0.03  -0.06    -0.14   0.04  -0.10    -0.15   0.04  -0.10
  19   6     0.09  -0.06   0.01    -0.07   0.02  -0.06    -0.09   0.02  -0.06
  20   6     0.02  -0.02  -0.04     0.17  -0.05   0.13     0.17  -0.05   0.15
  21   6    -0.06   0.01  -0.10     0.12  -0.03   0.10     0.13  -0.03   0.11
  22   6    -0.05  -0.01  -0.09    -0.11   0.04  -0.10    -0.11   0.05  -0.11
  23   6     0.00   0.00   0.03    -0.15   0.06  -0.14    -0.15   0.06  -0.15
  24   6     0.07   0.05   0.07     0.07  -0.01   0.05     0.08  -0.02   0.05
  25   6    -0.01   0.08  -0.03     0.13  -0.03   0.11     0.14  -0.04   0.11
  26   6    -0.02   0.05  -0.10    -0.12   0.05  -0.11    -0.13   0.05  -0.12
  27   6    -0.00  -0.03  -0.06    -0.16   0.06  -0.15    -0.17   0.07  -0.16
  28   6    -0.00   0.09  -0.05     0.02  -0.05  -0.06    -0.01   0.01   0.03
  29   6    -0.02   0.04  -0.06     0.01  -0.01  -0.05    -0.01  -0.02   0.04
  30   6    -0.04  -0.00  -0.10     0.13   0.07   0.04    -0.13  -0.07  -0.03
  31   6    -0.01  -0.01  -0.07    -0.04   0.05  -0.07     0.02  -0.04   0.08
  32   6    -0.01   0.02  -0.05    -0.04   0.05  -0.06     0.01  -0.04   0.07
  33   6     0.04  -0.07   0.18     0.04  -0.13   0.23    -0.05   0.10  -0.22
  34   6     0.01   0.06  -0.07    -0.04   0.07  -0.07     0.02  -0.05   0.07
  35   6    -0.00   0.05  -0.06    -0.01  -0.02  -0.06     0.01  -0.01   0.03
  36   6    -0.07  -0.11  -0.04    -0.13  -0.03   0.01     0.13   0.05  -0.03
  37   6     0.07   0.02  -0.01     0.00   0.02   0.07     0.05  -0.02  -0.02
  38   6    -0.12  -0.07  -0.03     0.02   0.14  -0.02    -0.01  -0.15   0.06
  39   6     0.06   0.04  -0.04    -0.08   0.02   0.06     0.08  -0.01  -0.08
  40   1    -0.02   0.07   0.07     0.06  -0.11  -0.09    -0.05   0.11   0.11
  41   1    -0.03   0.02   0.04     0.09   0.01  -0.06    -0.06   0.01   0.06
  42   1    -0.07  -0.02   0.06     0.13   0.03  -0.08    -0.13  -0.04   0.09
  43   1    -0.01  -0.00  -0.04    -0.06   0.01  -0.01     0.02  -0.00  -0.03
  44   1     0.02  -0.00  -0.03     0.01  -0.05  -0.04    -0.00   0.05   0.02
  45   1     0.01  -0.00  -0.03    -0.04  -0.09   0.02     0.03   0.08  -0.03
  46   1     0.00  -0.00  -0.01     0.00  -0.08  -0.05    -0.01   0.06   0.03
  47   1    -0.02   0.01   0.09     0.01  -0.01  -0.00    -0.00  -0.00  -0.01
  48   1    -0.01   0.02  -0.19     0.01  -0.00  -0.01     0.00  -0.00  -0.01
  49   1     0.00  -0.04   0.05    -0.00   0.00   0.00    -0.00   0.00  -0.00
  50   1    -0.02  -0.00  -0.04     0.04  -0.01   0.04     0.05  -0.01   0.04
  51   1     0.00  -0.01  -0.02    -0.10   0.03  -0.08    -0.11   0.03  -0.08
  52   1     0.06  -0.03   0.03    -0.06   0.02  -0.05    -0.07   0.02  -0.05
  53   1     0.01  -0.01  -0.01     0.07  -0.02   0.05     0.07  -0.02   0.06
  54   1    -0.00  -0.01   0.03    -0.06   0.02  -0.06    -0.06   0.02  -0.06
  55   1     0.04   0.01   0.05     0.06  -0.02   0.05     0.06  -0.02   0.05
  56   1    -0.00   0.04  -0.01     0.10  -0.03   0.09     0.10  -0.03   0.09
  57   1     0.00   0.02  -0.04    -0.04   0.02  -0.04    -0.04   0.02  -0.04
  58   1    -0.04   0.01  -0.05     0.05   0.01   0.05    -0.07  -0.01  -0.04
  59   1    -0.00  -0.04  -0.04     0.05   0.06  -0.01    -0.05  -0.06   0.00
  60   1     0.00   0.01  -0.01     0.04   0.02   0.02    -0.03  -0.00  -0.01
  61   1     0.00  -0.02  -0.03    -0.01   0.03  -0.02     0.00  -0.02   0.02
  62   1     0.07  -0.01   0.07     0.10  -0.03   0.09    -0.10   0.02  -0.09
  63   1    -0.02  -0.05   0.08    -0.05  -0.08   0.11     0.03   0.06  -0.10
  64   1    -0.00  -0.03   0.07     0.00  -0.05   0.08     0.00   0.04  -0.08
  65   1     0.01   0.02  -0.02    -0.02   0.03  -0.02     0.01  -0.02   0.02
  66   1    -0.01  -0.08   0.01    -0.03  -0.03   0.03     0.03   0.04  -0.04
  67   1     0.01  -0.03  -0.00    -0.04  -0.00  -0.01     0.04   0.01  -0.01
  68   1    -0.07  -0.03  -0.03    -0.07  -0.00   0.00     0.07   0.01   0.00
  69   1    -0.07  -0.02   0.00     0.02   0.03  -0.04    -0.05  -0.04   0.04
  70   1    -0.06  -0.00   0.01     0.00   0.06  -0.00     0.01  -0.04   0.01
  71   1    -0.03  -0.06  -0.04     0.00   0.06   0.00     0.01  -0.09   0.02
  72   1     0.01   0.01  -0.02    -0.03   0.01   0.01     0.02  -0.01  -0.02
                     34                     35                     36
                        a                      a                      a 
 Frequencies --   280.9069               288.1049               302.8238
 Red. masses --     8.8947                22.1812                10.8526
 Frc consts  --     0.0000                 0.0000                 0.0000
 IR Inten    --     0.8631                 2.8081                 7.2327
 Raman Activ --     0.0000                 0.0000                 0.0000
 Depolar     --     0.0000                 0.0000                 0.0000
 Atom AN      X      Y      Z        X      Y      Z        X      Y      Z
   1   6     0.22  -0.03  -0.22     0.02   0.07   0.08    -0.02  -0.08  -0.08
   2   6    -0.07   0.06   0.06    -0.04   0.07  -0.09     0.04  -0.08   0.09
   3   6    -0.09   0.05   0.06    -0.03   0.03  -0.09     0.03  -0.06   0.08
   4   6    -0.00   0.01   0.04     0.10   0.01   0.06    -0.13  -0.03  -0.08
   5   6     0.00  -0.21  -0.04    -0.01   0.15  -0.01    -0.03   0.04   0.08
   6   6     0.01   0.01   0.04     0.14  -0.05   0.16    -0.17   0.01  -0.17
   7   5     0.03  -0.01   0.02     0.09  -0.11  -0.03    -0.03   0.05   0.07
   8   6     0.01  -0.01   0.16     0.10  -0.14  -0.02    -0.03   0.06   0.09
   9   6    -0.02  -0.01   0.14     0.18  -0.14   0.02     0.06   0.07   0.07
  10   6    -0.01  -0.01  -0.10     0.28   0.03   0.03     0.14   0.19  -0.00
  11   6    -0.00  -0.02  -0.10     0.19   0.19   0.05     0.14   0.17   0.01
  12  35    -0.03   0.04   0.02    -0.38   0.15  -0.04    -0.09   0.01  -0.01
  13   6     0.01  -0.05   0.07     0.16   0.16   0.08     0.10   0.14   0.08
  14   6     0.03  -0.03   0.13     0.05  -0.03   0.01    -0.01  -0.01   0.00
  15   7     0.05  -0.03   0.04    -0.06  -0.05  -0.06    -0.06  -0.06  -0.05
  16   6    -0.01   0.00  -0.02    -0.04  -0.09  -0.02    -0.01  -0.13   0.01
  17   6    -0.03  -0.00  -0.05    -0.01  -0.04   0.02     0.02  -0.08   0.07
  18   6    -0.02  -0.01  -0.03     0.05   0.02  -0.01     0.03   0.03  -0.04
  19   6     0.05  -0.03   0.01     0.04   0.02  -0.09     0.04   0.03  -0.14
  20   6     0.01  -0.01  -0.01     0.05  -0.05  -0.10     0.12  -0.08  -0.09
  21   6    -0.04   0.00  -0.05     0.01  -0.12  -0.02     0.03  -0.17  -0.00
  22   6    -0.04  -0.00  -0.05     0.03  -0.14   0.03    -0.03  -0.16  -0.01
  23   6    -0.00  -0.00   0.01    -0.05  -0.06   0.08    -0.12  -0.07   0.07
  24   6     0.03   0.01   0.04    -0.10   0.04   0.03    -0.09   0.02   0.09
  25   6    -0.01   0.03  -0.02    -0.01   0.04   0.03    -0.00   0.03   0.06
  26   6    -0.02   0.02  -0.04     0.08  -0.05   0.01     0.01  -0.05  -0.05
  27   6    -0.00  -0.01  -0.02     0.03  -0.11  -0.00    -0.03  -0.12  -0.06
  28   6     0.04  -0.06  -0.01     0.09  -0.19  -0.09    -0.11   0.27   0.12
  29   6    -0.00  -0.05   0.03     0.03  -0.10  -0.03    -0.05   0.17   0.05
  30   6    -0.27  -0.10  -0.09    -0.04   0.00   0.01    -0.05  -0.04  -0.08
  31   6     0.01  -0.02   0.15    -0.05   0.05   0.05     0.07  -0.07  -0.06
  32   6     0.01  -0.01   0.13    -0.07   0.05   0.04     0.08  -0.08  -0.06
  33   6    -0.05   0.12  -0.35    -0.02  -0.06  -0.03     0.01   0.07   0.04
  34   6     0.02  -0.02   0.14    -0.05   0.05   0.03     0.07  -0.07  -0.05
  35   6     0.04  -0.02   0.03     0.02  -0.08  -0.06    -0.04   0.15   0.08
  36   6     0.18   0.09  -0.04    -0.03   0.06  -0.02    -0.01  -0.10   0.03
  37   6    -0.02   0.04   0.06     0.04   0.02   0.08    -0.08  -0.03  -0.10
  38   6     0.03   0.17  -0.01    -0.09   0.01   0.02     0.16   0.12  -0.11
  39   6    -0.07   0.04   0.09    -0.06   0.04  -0.07     0.04  -0.05   0.09
  40   1     0.06  -0.11  -0.11     0.01   0.02   0.05    -0.02  -0.03  -0.05
  41   1     0.08   0.01  -0.07     0.02   0.06   0.03    -0.03  -0.06  -0.03
  42   1     0.14   0.05  -0.09    -0.01  -0.02   0.04     0.01   0.02  -0.04
  43   1    -0.04   0.01   0.01    -0.03   0.01  -0.05     0.04  -0.02   0.05
  44   1     0.02  -0.06  -0.04     0.00   0.06  -0.03    -0.03  -0.01   0.08
  45   1    -0.03  -0.10   0.03     0.00   0.06  -0.02     0.02   0.03   0.01
  46   1     0.02  -0.08  -0.05    -0.05   0.04   0.01     0.03   0.04   0.04
  47   1    -0.01   0.00   0.06     0.07  -0.07   0.01     0.03  -0.01   0.03
  48   1    -0.00   0.00  -0.06     0.14   0.01   0.01     0.06   0.05  -0.01
  49   1     0.00  -0.02   0.02     0.03   0.07   0.04     0.01   0.07   0.03
  50   1    -0.01  -0.00  -0.01    -0.01  -0.01   0.02     0.00  -0.02   0.05
  51   1    -0.01  -0.00  -0.01     0.02   0.02   0.01     0.00   0.04  -0.01
  52   1     0.03  -0.01   0.02     0.01   0.02  -0.04     0.00   0.03  -0.06
  53   1     0.01  -0.01   0.00     0.03  -0.02  -0.05     0.06  -0.03  -0.05
  54   1    -0.00  -0.00   0.01    -0.04  -0.02   0.04    -0.06  -0.03   0.04
  55   1     0.02   0.00   0.03    -0.05   0.03   0.00    -0.03   0.02   0.03
[...]
  58   1    -0.00  -0.00  -0.00     0.00   0.00   0.00     0.00   0.00   0.00
  59   1    -0.00  -0.00  -0.00     0.00  -0.00   0.00    -0.00  -0.00  -0.00
  60   1    -0.01   0.00   0.00     0.00  -0.00  -0.00     0.00  -0.00   0.00
  61   1    -0.01   0.00  -0.01    -0.00   0.00  -0.00    -0.00   0.00  -0.00
  62   1     0.00   0.00  -0.00    -0.00  -0.00   0.00    -0.00  -0.00   0.00
  63   1    -0.00   0.00  -0.00    -0.00   0.00  -0.00    -0.00   0.00  -0.00
  64   1    -0.00   0.00   0.00    -0.00  -0.00  -0.00     0.00  -0.00  -0.00
  65   1    -0.00  -0.01   0.01    -0.00  -0.00   0.00    -0.00  -0.00   0.00
  66   1    -0.01  -0.00   0.00     0.02   0.00  -0.00     0.00   0.00  -0.00
  67   1     0.00  -0.00  -0.00     0.00  -0.00  -0.00    -0.00   0.00   0.00
  68   1     0.00   0.00  -0.00    -0.00  -0.00   0.00    -0.00  -0.00   0.00
  69   1    -0.00   0.01  -0.00     0.00   0.01  -0.00     0.00  -0.01   0.00
  70   1    -0.00  -0.00   0.00    -0.00  -0.00  -0.00     0.00   0.00   0.00
  71   1     0.01   0.00  -0.00    -0.00  -0.00   0.00     0.00   0.00  -0.00
  72   1     0.09   0.04  -0.09    -0.00  -0.00   0.00     0.00   0.00  -0.00
                    202                    203                    204
                        a                      a                      a 
 Frequencies --  3078.5917              3080.0061              3085.2531
 Red. masses --     1.7590                 1.7559                 1.8192
 Frc consts  --     0.0000                 0.0000                 0.0000
 IR Inten    --    10.4983                 3.0472                38.4977
 Raman Activ --     0.0000                 0.0000                 0.0000
 Depolar     --     0.0000                 0.0000                 0.0000
 Atom AN      X      Y      Z        X      Y      Z        X      Y      Z
   1   6    -0.00  -0.00  -0.00     0.00   0.00   0.00     0.00   0.00   0.00
   2   6    -0.00  -0.00  -0.00     0.00   0.00  -0.00    -0.00   0.00   0.00
   3   6    -0.00   0.00   0.00    -0.00   0.00   0.00    -0.00   0.00   0.00
   4   6     0.00  -0.00  -0.00    -0.00   0.00   0.00     0.00   0.00  -0.00
   5   6    -0.00  -0.00  -0.00     0.00   0.00   0.00    -0.00  -0.00  -0.00
   6   6    -0.00  -0.00   0.00    -0.00  -0.00   0.00     0.00  -0.00   0.00
   7   5    -0.00   0.00  -0.00     0.00   0.00   0.00    -0.00   0.00  -0.00
   8   6     0.00   0.00   0.00     0.00   0.00   0.00     0.00  -0.00   0.00
   9   6     0.00   0.00   0.00    -0.00  -0.00  -0.00     0.00   0.00   0.00
  10   6     0.00  -0.00  -0.00     0.00   0.00   0.00     0.00  -0.00  -0.00
  11   6    -0.00   0.00  -0.00    -0.00   0.00  -0.00    -0.00   0.00  -0.00
  12  35     0.00  -0.00   0.00     0.00  -0.00   0.00     0.00   0.00   0.00
  13   6    -0.03  -0.01  -0.01    -0.03  -0.01  -0.01    -0.01  -0.01  -0.00
  14   6    -0.00  -0.00  -0.00    -0.00  -0.00  -0.00    -0.00  -0.00  -0.00
  15   7     0.00  -0.00  -0.00     0.00   0.00  -0.00     0.00   0.00  -0.00
  16   6    -0.00  -0.00   0.00     0.00   0.00   0.00    -0.00  -0.00   0.00
  17   6    -0.00  -0.01  -0.00     0.00   0.00   0.00    -0.00  -0.02   0.00
  18   6     0.09   0.04  -0.10    -0.03  -0.01   0.03     0.10   0.04  -0.11
  19   6    -0.06   0.12   0.12     0.01  -0.03  -0.02     0.01  -0.01  -0.02
  20   6    -0.04  -0.10   0.01     0.00   0.00  -0.00     0.05   0.15  -0.01
  21   6    -0.00  -0.00   0.00    -0.00   0.00   0.00     0.00   0.00  -0.00
  22   6    -0.00   0.00   0.00    -0.00   0.00   0.00     0.00  -0.00  -0.00
  23   6    -0.00   0.03   0.01    -0.00   0.09   0.04     0.00  -0.10  -0.04
  24   6    -0.02  -0.02   0.01    -0.11  -0.13   0.07     0.01   0.01  -0.01
  25   6     0.01  -0.00  -0.01     0.09  -0.03  -0.11     0.06  -0.02  -0.08
  26   6     0.00   0.00   0.00     0.00   0.04   0.01    -0.00   0.05   0.02
  27   6    -0.00  -0.00  -0.00     0.00   0.00   0.00     0.00   0.00   0.00
  28   6    -0.00  -0.00   0.00    -0.00  -0.00  -0.00     0.00  -0.00   0.00
  29   6     0.00  -0.00   0.00     0.00   0.00   0.00    -0.00  -0.00  -0.00
  30   6     0.00  -0.00   0.00    -0.00  -0.00   0.00     0.00  -0.00  -0.00
  31   6     0.00  -0.00   0.00    -0.00   0.00  -0.00     0.00  -0.00   0.00
  32   6     0.00   0.00  -0.00    -0.00  -0.00   0.00     0.00   0.00  -0.00
  33   6     0.00   0.00  -0.00    -0.00  -0.00   0.00     0.00   0.00  -0.00
  34   6     0.00   0.00  -0.00    -0.00  -0.00   0.00     0.00   0.00  -0.00
  35   6    -0.00   0.00  -0.00     0.00   0.00   0.00    -0.00   0.00  -0.00
  36   6    -0.00  -0.00  -0.00     0.00   0.00   0.00    -0.00  -0.00  -0.00
  37   6    -0.00  -0.00   0.00    -0.00   0.00  -0.00    -0.00   0.00   0.00
  38   6    -0.00  -0.00   0.00    -0.00   0.00  -0.00    -0.00   0.00  -0.00
  39   6    -0.00  -0.00   0.00     0.00   0.00  -0.00    -0.00  -0.00   0.00
  40   1     0.00   0.00  -0.00    -0.01  -0.00   0.00    -0.00   0.00  -0.00
  41   1     0.00  -0.00   0.00    -0.00   0.00  -0.00     0.00  -0.00  -0.00
  42   1    -0.00   0.00   0.00     0.00  -0.00  -0.00     0.00  -0.00  -0.00
  43   1     0.00  -0.00  -0.00     0.00  -0.00  -0.00     0.00  -0.00  -0.00
  44   1     0.00   0.00   0.00    -0.00  -0.00  -0.00     0.00   0.00   0.00
  45   1    -0.00   0.00   0.00     0.00  -0.00  -0.00    -0.00   0.01   0.00
  46   1    -0.00  -0.00  -0.00    -0.00   0.00  -0.00     0.00  -0.00   0.00
  47   1    -0.01  -0.00  -0.00     0.01   0.00   0.00    -0.00  -0.00  -0.00
  48   1     0.00   0.01   0.00    -0.00  -0.01  -0.00     0.00   0.01   0.00
  49   1     0.11   0.05   0.03     0.10   0.05   0.02     0.04   0.02   0.01
  50   1     0.02   0.05  -0.00    -0.00  -0.01   0.00     0.02   0.07  -0.01
  51   1    -0.33  -0.13   0.38     0.10   0.04  -0.11    -0.34  -0.13   0.39
  52   1     0.22  -0.45  -0.45    -0.04   0.09   0.09    -0.03   0.05   0.05
  53   1     0.13   0.36  -0.02    -0.00  -0.01   0.00    -0.19  -0.51   0.02
  54   1     0.00  -0.11  -0.04     0.01  -0.33  -0.13    -0.01   0.35   0.14
  55   1     0.07   0.09  -0.05     0.40   0.47  -0.27    -0.03  -0.04   0.02
  56   1    -0.04   0.01   0.05    -0.33   0.11   0.40    -0.23   0.08   0.28
  57   1     0.00  -0.01  -0.00     0.00  -0.15  -0.06     0.01  -0.20  -0.08
  58   1     0.00   0.00   0.00     0.00   0.00   0.00     0.00   0.00   0.00
  59   1    -0.00  -0.00  -0.00    -0.00  -0.00  -0.00    -0.00  -0.00  -0.00
  60   1     0.00  -0.00  -0.00     0.00  -0.00  -0.00    -0.00   0.00   0.00
  61   1    -0.00   0.00  -0.00     0.00  -0.00   0.00    -0.00   0.00  -0.00
  62   1    -0.00  -0.00   0.00     0.00   0.00  -0.00    -0.00  -0.00   0.00
  63   1    -0.00   0.00  -0.00    -0.00   0.00  -0.00    -0.00   0.00  -0.00
  64   1     0.00  -0.00  -0.00     0.00   0.00   0.00    -0.00  -0.00  -0.00
  65   1    -0.00  -0.00   0.00     0.00   0.00  -0.00    -0.00  -0.00   0.00
  66   1     0.01  -0.00  -0.00    -0.00   0.00   0.00     0.00  -0.00  -0.00
  67   1    -0.00   0.00   0.00     0.00  -0.00  -0.00    -0.00   0.00   0.00
  68   1    -0.00  -0.00   0.00     0.00   0.00  -0.00    -0.00  -0.00   0.00
  69   1    -0.00  -0.00   0.00     0.00  -0.01   0.00     0.00  -0.00   0.00
  70   1    -0.00  -0.00  -0.00     0.00   0.00   0.00     0.00   0.00   0.00
  71   1     0.00   0.00  -0.00     0.00   0.00  -0.00     0.00   0.00  -0.00
  72   1     0.00   0.00  -0.00    -0.00  -0.00   0.00     0.00   0.00  -0.00
                    205                    206                    207
                        a                      a                      a 
 Frequencies --  3086.9264              3093.5645              3095.2552
 Red. masses --     1.8109                 1.8749                 1.8864
 Frc consts  --     0.0000                 0.0000                 0.0000
 IR Inten    --     9.0712                45.2605               121.1104
 Raman Activ --     0.0000                 0.0000                 0.0000
 Depolar     --     0.0000                 0.0000                 0.0000
 Atom AN      X      Y      Z        X      Y      Z        X      Y      Z
   1   6     0.00   0.00   0.00     0.00  -0.00   0.00    -0.00  -0.00  -0.00
   2   6     0.00   0.00   0.00     0.00   0.00   0.00    -0.00  -0.00  -0.00
   3   6    -0.00   0.00   0.00     0.00  -0.00  -0.00     0.00  -0.00  -0.00
   4   6     0.00   0.00  -0.00     0.00  -0.00  -0.00     0.00  -0.00  -0.00
   5   6    -0.00  -0.00  -0.00    -0.00  -0.00  -0.00     0.00  -0.00  -0.00
   6   6    -0.00  -0.00   0.00    -0.00  -0.00   0.00    -0.00   0.00   0.00
   7   5    -0.00   0.00  -0.00     0.00   0.00  -0.00    -0.00  -0.00  -0.00
   8   6     0.00  -0.00  -0.00    -0.00   0.00   0.00    -0.00   0.00  -0.00
   9   6    -0.00   0.00   0.00     0.00   0.00   0.00    -0.01  -0.00  -0.00
  10   6    -0.00  -0.00  -0.00     0.00   0.01   0.00    -0.00  -0.02  -0.00
  11   6     0.00  -0.00   0.00    -0.00   0.00  -0.00     0.00  -0.00   0.00
  12  35    -0.00   0.00   0.00     0.00  -0.00  -0.00    -0.00   0.00   0.00
  13   6     0.01   0.01   0.00    -0.01  -0.00  -0.00     0.01   0.00   0.00
  14   6     0.00   0.00   0.00    -0.00  -0.00  -0.00     0.00   0.00   0.00
  15   7    -0.00   0.00   0.00     0.00   0.00  -0.00    -0.00  -0.00   0.00
  16   6    -0.00  -0.00   0.00    -0.00   0.00   0.00     0.00  -0.00  -0.00
  17   6    -0.00  -0.01   0.00    -0.00  -0.01   0.00    -0.00  -0.01   0.00
  18   6     0.07   0.03  -0.08     0.05   0.02  -0.06     0.06   0.03  -0.07
  19   6     0.02  -0.03  -0.03     0.04  -0.07  -0.07     0.05  -0.10  -0.10
  20   6     0.04   0.10  -0.00    -0.02  -0.07   0.00    -0.05  -0.14   0.01
  21   6     0.00   0.00  -0.00    -0.00   0.00   0.00    -0.00  -0.00   0.00
  22   6    -0.00   0.00   0.00    -0.00  -0.00   0.00     0.00   0.00  -0.00
  23   6    -0.00   0.12   0.05    -0.00   0.14   0.05     0.00  -0.09  -0.04
  24   6    -0.05  -0.05   0.03     0.08   0.09  -0.05    -0.03  -0.04   0.02
  25   6    -0.08   0.02   0.10     0.01  -0.00  -0.01     0.01  -0.00  -0.02
  26   6     0.00  -0.09  -0.04    -0.01   0.12   0.05     0.00  -0.09  -0.04
  27   6    -0.00  -0.00  -0.00     0.00   0.00  -0.00    -0.00  -0.00   0.00
  28   6     0.00   0.00   0.00    -0.00  -0.00  -0.00     0.00   0.00   0.00
  29   6    -0.00  -0.00   0.00     0.00  -0.00   0.00     0.00  -0.00   0.00
  30   6     0.00  -0.00   0.00    -0.00  -0.00   0.00     0.00   0.00   0.00
  31   6     0.00  -0.00   0.00     0.00  -0.00   0.00     0.00  -0.00   0.00
  32   6     0.00   0.00  -0.00     0.00   0.00  -0.00     0.00   0.00  -0.00
  33   6     0.00   0.00  -0.00     0.00   0.00  -0.00     0.00   0.00  -0.00
  34   6     0.00   0.00  -0.00     0.00   0.00  -0.00     0.00   0.00  -0.00
  35   6    -0.00  -0.00  -0.00     0.00   0.00  -0.00    -0.00   0.00  -0.00
  36   6    -0.00  -0.00  -0.00     0.00  -0.00  -0.00     0.00   0.00  -0.00
  37   6     0.00  -0.00  -0.00    -0.00   0.00   0.00    -0.00  -0.00   0.00
  38   6     0.00  -0.00   0.00    -0.00   0.00  -0.00     0.00  -0.00   0.00
  39   6     0.00   0.00  -0.00    -0.00  -0.00   0.00    -0.00  -0.00   0.00
  40   1    -0.01  -0.00   0.00    -0.00  -0.00   0.00     0.00   0.00  -0.00
  41   1    -0.00   0.00  -0.00    -0.00   0.00  -0.00     0.00  -0.00   0.00
  42   1     0.00  -0.00  -0.01     0.00  -0.00  -0.00    -0.00   0.00   0.01
  43   1     0.00  -0.00  -0.00    -0.00   0.00   0.00    -0.01   0.01   0.01
  44   1     0.00   0.00   0.00     0.00   0.00   0.00     0.00   0.00   0.00
  45   1    -0.00   0.00   0.00    -0.00   0.00   0.00    -0.00   0.01   0.00
  46   1     0.00  -0.00   0.00     0.00  -0.00  -0.00     0.00  -0.00  -0.00
  47   1    -0.00  -0.00  -0.00    -0.01  -0.00  -0.00     0.02   0.01   0.00
  48   1     0.00   0.02   0.00    -0.00  -0.03  -0.00     0.01   0.09   0.01
  49   1    -0.04  -0.02  -0.01     0.04   0.02   0.01    -0.03  -0.01  -0.01
  50   1     0.02   0.05  -0.00     0.02   0.05  -0.00     0.02   0.06  -0.00
  51   1    -0.25  -0.10   0.29    -0.16  -0.07   0.19    -0.20  -0.08   0.24
  52   1    -0.05   0.11   0.11    -0.12   0.24   0.24    -0.17   0.35   0.35
  53   1    -0.13  -0.35   0.01     0.08   0.22  -0.01     0.18   0.49  -0.02
  54   1     0.01  -0.42  -0.16     0.01  -0.47  -0.19    -0.01   0.31   0.12
  55   1     0.16   0.19  -0.11    -0.26  -0.30   0.17     0.10   0.12  -0.07
  56   1     0.28  -0.09  -0.35    -0.03   0.01   0.04    -0.04   0.01   0.05
  57   1    -0.01   0.32   0.13     0.02  -0.43  -0.18    -0.01   0.31   0.12
  58   1     0.00   0.00   0.00     0.00   0.00   0.00    -0.00  -0.00  -0.00
  59   1    -0.00  -0.00  -0.00    -0.00  -0.00  -0.00    -0.00  -0.00  -0.00
  60   1    -0.00   0.00   0.00     0.00  -0.00  -0.00    -0.00   0.00   0.00
  61   1    -0.00   0.00  -0.00    -0.00   0.00  -0.00    -0.00   0.00  -0.00
  62   1    -0.00  -0.00   0.00    -0.00  -0.00   0.00    -0.00  -0.00   0.00
  63   1    -0.00   0.00  -0.00    -0.00   0.00  -0.00    -0.00   0.00  -0.00
  64   1     0.00  -0.00  -0.00    -0.00  -0.00  -0.00     0.00  -0.00  -0.00
  65   1    -0.00  -0.00   0.00    -0.00  -0.00   0.00    -0.00  -0.00   0.00
  66   1     0.00  -0.00  -0.00    -0.00  -0.00  -0.00     0.00  -0.00  -0.00
  67   1    -0.00   0.00   0.00    -0.00   0.00   0.00    -0.00   0.00   0.00
  68   1    -0.00  -0.00   0.00    -0.00  -0.00   0.00    -0.00  -0.00   0.00
  69   1    -0.00   0.01  -0.00     0.00  -0.01   0.00    -0.00   0.01  -0.00
  70   1    -0.00  -0.00  -0.00     0.00   0.00   0.00    -0.00  -0.00  -0.00
  71   1    -0.01  -0.00   0.00     0.00   0.00  -0.00     0.00  -0.00   0.00
  72   1    -0.01  -0.00   0.01     0.00   0.00  -0.00     0.00   0.00  -0.00
                    208                    209                    210
                        a                      a                      a 
 Frequencies --  3096.4203              3099.2803              3124.7857
 Red. masses --     1.8685                 1.9050                 1.8406
 Frc consts  --     0.0000                 0.0000                 0.0000
 IR Inten    --    42.5557                46.1185                 6.0306
 Raman Activ --     0.0000                 0.0000                 0.0000
 Depolar     --     0.0000                 0.0000                 0.0000
 Atom AN      X      Y      Z        X      Y      Z        X      Y      Z
   1   6     0.00   0.00   0.00     0.00  -0.00  -0.00     0.00   0.00   0.00
   2   6     0.00   0.00   0.00    -0.00  -0.00  -0.00    -0.00   0.00   0.00
   3   6    -0.00   0.00   0.00     0.00  -0.00  -0.00    -0.00   0.00   0.00
   4   6    -0.00   0.00   0.00     0.00  -0.00  -0.00     0.00   0.00  -0.00
   5   6    -0.00   0.00   0.00     0.00  -0.00  -0.00    -0.00   0.00  -0.00
   6   6     0.00  -0.00   0.00     0.00   0.00  -0.00     0.00   0.00   0.00
   7   5     0.00  -0.00   0.00     0.00  -0.00   0.00     0.00  -0.00   0.00
   8   6    -0.00   0.00   0.00    -0.00   0.00   0.00    -0.00   0.00   0.00
   9   6    -0.09  -0.04  -0.02    -0.01  -0.00  -0.00    -0.00  -0.00  -0.00
  10   6    -0.02  -0.26  -0.03    -0.00  -0.01  -0.00    -0.00  -0.00  -0.00
  11   6     0.01  -0.01   0.00     0.00  -0.00   0.00     0.00   0.00   0.00
  12  35    -0.00   0.00  -0.00     0.00  -0.00  -0.00     0.00  -0.00   0.00
  13   6     0.00   0.00   0.00    -0.01  -0.00  -0.00    -0.00  -0.00  -0.00
  14   6     0.00   0.00  -0.00     0.00  -0.00  -0.00     0.00  -0.00  -0.00
  15   7    -0.00   0.00  -0.00     0.00   0.00  -0.00    -0.00   0.00   0.00
  16   6    -0.00   0.00   0.00    -0.00   0.00   0.00    -0.00   0.01   0.01
  17   6    -0.00  -0.00  -0.00    -0.00  -0.00   0.00     0.08   0.26  -0.02
  18   6    -0.01  -0.00   0.01     0.01   0.00  -0.01     0.03   0.01  -0.03
  19   6    -0.00   0.01   0.01     0.01  -0.01  -0.01     0.00  -0.01  -0.01
  20   6     0.00   0.01  -0.00    -0.01  -0.02   0.00    -0.00  -0.00  -0.00
  21   6     0.00  -0.00  -0.00    -0.00   0.00   0.00    -0.00  -0.00  -0.00
  22   6    -0.00  -0.00   0.00     0.00  -0.00  -0.00     0.00   0.00  -0.00
  23   6    -0.00   0.02   0.01     0.00  -0.08  -0.03    -0.00   0.00   0.00
  24   6     0.01   0.01  -0.01    -0.07  -0.09   0.05    -0.00  -0.00   0.00
  25   6     0.01  -0.00  -0.01    -0.10   0.03   0.12    -0.00   0.00   0.00
  26   6    -0.00   0.00   0.00    -0.01   0.17   0.07    -0.00   0.00   0.00
  27   6     0.00   0.00  -0.00     0.00   0.00  -0.00     0.00   0.00  -0.00
  28   6     0.00   0.00  -0.00    -0.00  -0.00  -0.00    -0.00  -0.00  -0.00
  29   6    -0.00   0.00  -0.00     0.00  -0.00   0.00     0.00  -0.00   0.00
  30   6    -0.00   0.00  -0.00     0.00   0.00   0.00    -0.00  -0.00   0.00
  31   6    -0.00   0.00  -0.00     0.00  -0.00   0.00     0.00  -0.00   0.00
  32   6    -0.00  -0.00   0.00     0.00   0.00  -0.00     0.00   0.00   0.00
  33   6    -0.00  -0.00   0.00     0.00   0.00  -0.00     0.00  -0.00  -0.00
  34   6    -0.00  -0.00   0.00     0.00   0.00  -0.00    -0.00  -0.00  -0.00
  35   6     0.00  -0.00   0.00     0.00   0.00  -0.00    -0.00  -0.00   0.00
  36   6     0.00  -0.00  -0.00     0.00   0.00  -0.00     0.00   0.00   0.00
  37   6     0.00   0.00  -0.00    -0.00   0.00   0.00    -0.00   0.00  -0.00
  38   6    -0.00  -0.00  -0.00    -0.00   0.00  -0.00    -0.00   0.00  -0.00
  39   6     0.00   0.00  -0.00     0.00   0.00  -0.00     0.00   0.00  -0.00
  40   1    -0.00  -0.00   0.00    -0.00   0.00  -0.00    -0.00  -0.00   0.00
  41   1    -0.00   0.00  -0.00     0.00  -0.00   0.00    -0.00   0.00  -0.00
  42   1    -0.00  -0.00  -0.00     0.00   0.00   0.00     0.00  -0.00  -0.00
  43   1     0.00  -0.00  -0.00    -0.00   0.01   0.00     0.00  -0.00  -0.00
  44   1    -0.00  -0.00  -0.00    -0.00  -0.00  -0.00     0.00   0.00   0.00
  45   1     0.00  -0.00  -0.00    -0.00   0.00   0.00    -0.00   0.00   0.00
  46   1     0.00  -0.00   0.00     0.00  -0.00   0.00    -0.00  -0.00   0.00
  47   1     0.28   0.13   0.05     0.02   0.01   0.00     0.01   0.00   0.00
  48   1     0.07   0.89   0.12     0.00   0.05   0.01     0.00   0.01   0.00
  49   1    -0.01  -0.01  -0.00     0.02   0.01   0.01     0.00   0.00   0.00
  50   1     0.00   0.00  -0.00     0.00   0.01  -0.00    -0.30  -0.90   0.07
  51   1     0.02   0.01  -0.03    -0.02  -0.01   0.02    -0.08  -0.03   0.09
  52   1     0.01  -0.03  -0.03    -0.02   0.04   0.04    -0.01   0.02   0.02
  53   1    -0.01  -0.04   0.00     0.02   0.07  -0.00     0.00   0.00  -0.00
  54   1     0.00  -0.05  -0.02    -0.01   0.25   0.10    -0.00  -0.00  -0.00
  55   1    -0.03  -0.04   0.02     0.24   0.28  -0.16     0.00   0.00  -0.00
  56   1    -0.02   0.01   0.02     0.33  -0.11  -0.40     0.00  -0.00  -0.00
  57   1     0.00  -0.02  -0.01     0.02  -0.58  -0.24     0.00  -0.01  -0.00
  58   1    -0.00  -0.00  -0.00     0.00   0.00   0.00     0.00   0.00   0.00
  59   1     0.00   0.00   0.00    -0.00  -0.00  -0.00    -0.00   0.00  -0.00
  60   1    -0.00   0.00   0.00     0.00  -0.00  -0.00     0.00  -0.00  -0.00
  61   1     0.00  -0.00   0.00    -0.00   0.00  -0.00    -0.00   0.00  -0.00
  62   1     0.00   0.00  -0.00    -0.00  -0.00   0.00    -0.00  -0.00   0.00
  63   1     0.00  -0.00   0.00    -0.00   0.00  -0.00    -0.00   0.00  -0.00
  64   1     0.00   0.00   0.00     0.00  -0.00  -0.00     0.00  -0.00  -0.00
  65   1     0.00   0.00  -0.01    -0.00  -0.00   0.00     0.00   0.00  -0.00
  66   1    -0.01  -0.00   0.00    -0.00  -0.00   0.00    -0.00   0.00   0.00
  67   1    -0.00   0.00   0.00    -0.00   0.00   0.00     0.00  -0.01  -0.01
  68   1     0.00   0.01  -0.00    -0.00  -0.00   0.00     0.00   0.01  -0.00
  69   1    -0.00   0.00  -0.00     0.00  -0.01   0.00     0.00  -0.00   0.00
  70   1     0.00  -0.00   0.00     0.00   0.00   0.00     0.00   0.00   0.00
  71   1     0.00   0.00  -0.00    -0.00   0.00  -0.00     0.00   0.00  -0.00
  72   1    -0.00  -0.00   0.00    -0.00  -0.00   0.00    -0.00  -0.00   0.00
