$hessian                                                                        
        0.5060219230   0.0018647400  -0.0204141251  -0.0631511048  -0.0124342738
        0.0046774036  -0.0001700117  -0.0178368293   0.0040914644   0.0021415541
       -0.0011675671   0.0061637118  -0.0003242201  -0.0009384645   0.0001508467
       -0.0002314098   0.0001752157  -0.0010014302  -0.0006997033  -0.0003055218
       -0.0004385114  -0.0000671750   0.0002091389   0.0000767069  -0.0000290404
       -0.0000459376  -0.0000034294  -0.0000285369   0.0000304806  -0.0000029459
        0.0000296499  -0.0000135408   0.0000048370  -0.0000017637  -0.0000014088
       -0.0000004589  -0.0000006715   0.0000118670   0.0000033957   0.0000614793
        0.0000103108   0.0000245921  -0.0000721798  -0.0000398379   0.0000540710
       -0.0000404604  -0.0000494990   0.0000540803   0.0000042780   0.0000297858
       -0.0000153528   0.0000221174   0.0000291021  -0.0000100436  -0.0000427566
       -0.0000083014   0.0000241190  -0.0000762183  -0.0001512858  -0.0000296050
        0.0000057856  -0.0000045404   0.0000041157  -0.0000172745  -0.0000079013
       -0.0000451578  -0.0000026502  -0.0000161444  -0.0000421721   0.0000868950
        0.0000525015  -0.0000291878  -0.0000181210   0.0000502258   0.0000152057
       -0.0000198342  -0.0000291776   0.0000110031   0.0000664435   0.0000465556
       -0.0000620147   0.0000527208  -0.0000386272   0.0000575875  -0.0000220334
        0.0000123412  -0.0000106152   0.0000218044  -0.0000093577  -0.0000253173
        0.0000079131   0.0000142177  -0.0000106597  -0.0000100378  -0.0000034866
       -0.0000041706   0.0000096308   0.0000006509   0.0000030290   0.0000089429
        0.0000023520   0.0000159616  -0.0000152320  -0.0000238089   0.0000449793
       -0.0000025511  -0.0000071282  -0.0000021070   0.0026815431   0.0015086326
        0.0049750858  -0.0001777004   0.0008701714  -0.0000856832   0.0006344619
        0.0152093245  -0.0001268299  -0.2383482458  -0.0547184987   0.0776387033
       -0.1566739314   0.0528818420  -0.1057600126  -0.0496903387   0.0147468895
        0.0330764748  -0.0007664051  -0.0009989127  -0.0018550755   0.0000644485
       -0.0000107013  -0.0001226196  -0.0001594726  -0.0000628618   0.0001402059
       -0.0000515555  -0.0000831283   0.0001119526  -0.0000020602   0.0000039172
        0.0000011250  -0.0000063373   0.0000117944   0.0000005175  -0.0000059179
       -0.0000046711  -0.0000026731   0.0000057975   0.0000043132   0.0000002956
        0.0000090295   0.0000177033  -0.0000060974  -0.0000065333   0.0000078358
       -0.0000002426   0.0000616295   0.0000791936   0.0000525438   0.0000201335
        0.0000624977  -0.0000476700  -0.0000594402  -0.0000276373   0.0000313059
       -0.0000112937   0.0000175386   0.0000095482   0.0000002999  -0.0000169625
        0.0000023331  -0.0000104920  -0.0000235832  -0.0000065090  -0.0000253505
        0.0000231223   0.0000303020   0.0000034212   0.0000016354   0.0000057803
        0.0000018609   0.0000004829   0.0000033935   0.0000049269   0.0000020025
       -0.0000003597   0.0000013596   0.0000035545   0.0000008640   0.0000005886
        0.0000024452  -0.0000029936   0.0000012267   0.0000035534  -0.0000048736
       -0.0000008126  -0.0000004620  -0.0000139112   0.0000014179   0.0000005116
       -0.0000050344  -0.0000060865  -0.0000005319   0.0000052596  -0.0002021444
        0.0001188277   0.0001643861   0.0000048301  -0.0000241677  -0.0000300957
        0.0000363097  -0.0000093079  -0.0000344857  -0.0008273186   0.0009967918
       -0.0014747163
        0.0018647400   0.4695702952   0.0114482210  -0.0076775285  -0.2169482785
        0.0170499974  -0.0055536268  -0.0206330222   0.0066483014  -0.0019576383
        0.0016056558   0.0012292594  -0.0000243559  -0.0006127109   0.0001909800
       -0.0000052980  -0.0015443355   0.0003364437   0.0000643904   0.0009196814
       -0.0001120626   0.0001071761  -0.0001888610  -0.0002420685   0.0000351343
        0.0001165731   0.0000085460   0.0001357586  -0.0000529121   0.0000595929
       -0.0001020803   0.0000061371  -0.0000176651   0.0000561914  -0.0000240718
        0.0000105968   0.0000139938  -0.0000124938   0.0000223280  -0.0001551712
       -0.0001111902  -0.0000508848   0.0001204873   0.0003174380   0.0000149204
        0.0000524760  -0.0001198761  -0.0001714915  -0.0000013414   0.0000462203
        0.0000407451   0.0000024720  -0.0000396462  -0.0000430087   0.0000449563
        0.0000042721  -0.0000587850  -0.0000117817  -0.0001324548   0.0000402882
       -0.0000373728  -0.0000040205  -0.0000019719  -0.0000251109   0.0000860430
       -0.0000218394   0.0000151673  -0.0001876822  -0.0000735065  -0.0000368465
       -0.0000357869   0.0000372383  -0.0000119222  -0.0000361284   0.0000270289
        0.0000320326   0.0000504569   0.0000036433  -0.0001733142  -0.0001980691
        0.0000447248  -0.0001049689  -0.0000936919   0.0002408538   0.0001341577
        0.0000102435   0.0000527636  -0.0000417730   0.0000607672  -0.0000682572
        0.0000352257  -0.0000279577   0.0000657197   0.0000414590   0.0000261715
        0.0000086270  -0.0000475054   0.0000162989  -0.0000224928  -0.0000304059
        0.0000000074  -0.0000495986  -0.0000329623   0.0000973389  -0.0001175391
       -0.0000147442  -0.0000075654   0.0000258212   0.0020324908   0.0005650123
       -0.0027500736   0.0001516997  -0.0010399323   0.0001193649   0.0027123562
       -0.0283533582  -0.0021793527  -0.0544045637  -0.0565931022   0.0185956563
        0.0483457234  -0.0597496993   0.0439413076   0.0140225645  -0.0887094988
       -0.0948945831   0.0011299110   0.0010054697  -0.0007077507   0.0000268464
       -0.0000343943  -0.0000189460  -0.0001654202  -0.0000144058   0.0000297788
        0.0000633199  -0.0000509255   0.0000651868  -0.0000069063   0.0000200409
       -0.0000133566  -0.0000061534  -0.0000411804   0.0000101026   0.0000022996
        0.0000260636  -0.0000033398  -0.0000035026   0.0000559435   0.0000079133
        0.0000118050   0.0000016053  -0.0000239807   0.0000126444   0.0000098884
        0.0000263585  -0.0000243528   0.0000860196   0.0000040580   0.0000362018
        0.0000775024   0.0000399645   0.0000256960   0.0000256362   0.0000000117
        0.0000086084   0.0000258988  -0.0000036529   0.0000019075   0.0000452244
        0.0000101588  -0.0000250704   0.0000116997   0.0000188834   0.0000665492
       -0.0000773821   0.0000439984  -0.0000139350  -0.0000400514  -0.0000061677
       -0.0000033770  -0.0000147581  -0.0000326729  -0.0000021185  -0.0000164839
        0.0000140214  -0.0000176307  -0.0000363253  -0.0000173970   0.0000005057
        0.0000096958   0.0000184966  -0.0000292454  -0.0000125049   0.0000321595
       -0.0000118366   0.0000014403  -0.0000268021   0.0000104066  -0.0000017175
        0.0000449265  -0.0000125022  -0.0000129973  -0.0000276852   0.0001251183
       -0.0001325885  -0.0001856103   0.0000224909  -0.0000174657   0.0001289045
       -0.0001352832   0.0000242621   0.0000151627  -0.0006573178   0.0010345234
        0.0011694872
       -0.0204141251   0.0114482210   0.5095727291   0.0037752662   0.0133570907
       -0.0648275527   0.0034178756   0.0211530715  -0.0039143406   0.0055152653
        0.0005629749   0.0006990520  -0.0000453611   0.0009122907  -0.0002889971
       -0.0002799789   0.0004550042  -0.0007185968  -0.0006527389  -0.0004961819
       -0.0003583540  -0.0000580073   0.0002327816   0.0001049319  -0.0000511478
       -0.0000184411   0.0000133090  -0.0000487827   0.0000229822  -0.0000144555
        0.0000440391  -0.0000176900   0.0000046292  -0.0000125325   0.0000056817
       -0.0000019374  -0.0000245518   0.0000399785   0.0000026791   0.0000482688
        0.0000188264   0.0000025625   0.0000527656   0.0000179875  -0.0000608754
       -0.0000063959  -0.0000213542   0.0000026968  -0.0000008223  -0.0000204307
       -0.0000319922  -0.0000067434   0.0000032542  -0.0000048112  -0.0000426087
        0.0000221910   0.0000796276   0.0000520385   0.0000807165   0.0000300497
       -0.0000274447  -0.0000209009   0.0000175364  -0.0000473045  -0.0000348429
        0.0000529661  -0.0000482145  -0.0001082987  -0.0001107067   0.0000213221
        0.0000375221  -0.0000855763  -0.0000000355  -0.0000232342   0.0000208069
       -0.0000010469   0.0000225214  -0.0000033535  -0.0000069859  -0.0000937865
       -0.0000159491   0.0000465034  -0.0000513574   0.0000509843  -0.0000135664
        0.0000136214  -0.0000379137  -0.0000020999  -0.0000377225   0.0000227700
       -0.0000179811   0.0000108155  -0.0000212372  -0.0000211145  -0.0000173923
       -0.0000006561   0.0000078423  -0.0000069508   0.0000085086   0.0000066585
       -0.0000061826   0.0000420224  -0.0000180955  -0.0000383626   0.0000398142
       -0.0000001257   0.0000119051  -0.0000106493   0.0054667283  -0.0018122756
        0.0012113440  -0.0001115314  -0.0007689571   0.0000125221   0.0011008867
       -0.0166707457   0.0025833406   0.0776359789   0.0194013793  -0.0742732017
       -0.1051079795   0.0477918968  -0.1386146033   0.0332790193  -0.0954435524
       -0.2304673028  -0.0014854034   0.0010065773  -0.0003788743  -0.0000622045
        0.0000196539   0.0000630873   0.0001007420   0.0001138451  -0.0000910676
        0.0000269266   0.0000115152  -0.0000552472   0.0000054085  -0.0000080924
        0.0000001738  -0.0000002270   0.0000123216  -0.0000018694   0.0000022840
       -0.0000119227  -0.0000001619   0.0000108887  -0.0000257607  -0.0000016571
       -0.0000042527   0.0000105744   0.0000130326   0.0000205073   0.0000004035
       -0.0000454096  -0.0000617268   0.0000070010   0.0000074339   0.0000000370
        0.0001074177   0.0001087109   0.0000109515   0.0000135904  -0.0000142810
       -0.0000071172   0.0000183067   0.0000188920  -0.0000101039   0.0000134355
        0.0000111577  -0.0000022878   0.0000282707   0.0000118892   0.0000241620
        0.0000267329  -0.0000348452  -0.0000025613   0.0000069196   0.0000022397
        0.0000041571   0.0000021992   0.0000089015   0.0000024595   0.0000021108
       -0.0000038923   0.0000050717   0.0000122201   0.0000051428   0.0000008431
        0.0000002224  -0.0000074308   0.0000032537   0.0000008650  -0.0000107811
        0.0000005941  -0.0000136429   0.0000195408  -0.0000019794   0.0000079270
       -0.0000093315   0.0000037564  -0.0000032747   0.0000024575  -0.0000087614
       -0.0002498533  -0.0001135610   0.0000237319  -0.0000051386   0.0000279953
       -0.0000815993   0.0000022176   0.0000523518  -0.0019206866  -0.0010206967
       -0.0002964164
       -0.0631511048  -0.0076775285   0.0037752662   0.3671458686  -0.0126164585
       -0.2547709560  -0.1516327299  -0.0281415839   0.1146303296   0.0076176965
       -0.0601904383  -0.0061145223   0.0054058716   0.0008727174   0.0041808291
       -0.0293586368   0.0056607684   0.0274294168   0.0002266277  -0.0000255594
        0.0005297390  -0.0001611811   0.0001079795   0.0000148158   0.0000195720
       -0.0001447512   0.0000062708  -0.0001176245   0.0000144878  -0.0000312223
        0.0000319068   0.0001246428   0.0000025932  -0.0000033761  -0.0000030437
        0.0000150545   0.0000990801  -0.0000935024  -0.0000537840   0.0000146366
        0.0002139451   0.0000359850  -0.0005429231  -0.0000764163  -0.0003640407
        0.0000876395   0.0000852160   0.0001338259   0.0000094930  -0.0000826763
        0.0000378318  -0.0000557993  -0.0000116471   0.0000886202  -0.0000610443
       -0.0000014117   0.0001111958  -0.0000323735   0.0000628770  -0.0000925707
       -0.0001192239   0.0000352754  -0.0003344892  -0.0004453108   0.0001724342
       -0.0004867555  -0.0001132717  -0.0000389083   0.0000077455  -0.0000224675
       -0.0001138604   0.0000974744   0.0000217718   0.0000874586   0.0000626667
       -0.0000214392  -0.0000504836   0.0000831389   0.0002957486   0.0002809870
       -0.0000080153   0.0000494201  -0.0000876479  -0.0000873982   0.0000252478
       -0.0000124295   0.0000279226   0.0000355169  -0.0000061276   0.0000764635
       -0.0000253860  -0.0000021361  -0.0000077844   0.0000006983  -0.0000078975
       -0.0000113696  -0.0000016214  -0.0000081921  -0.0000037554   0.0000102519
        0.0000163385   0.0000124661   0.0000202096   0.0000672808  -0.0000240128
        0.0000131973  -0.0000065258   0.0000208464   0.0119401493   0.0509319071
       -0.0206453743   0.0045963395  -0.0016240803   0.0017369080  -0.1282029877
        0.0503422604   0.0988023309  -0.0031810881  -0.0278948983   0.0047336945
        0.0018278669   0.0206539601  -0.0028415402   0.0002772586   0.0049962145
        0.0004099060  -0.0114316694  -0.0046434461   0.0150877730   0.0000050707
        0.0001705497   0.0001236814  -0.0011634181  -0.0006158055   0.0008779869
        0.0007253549   0.0008068127  -0.0005939012  -0.0000126456  -0.0000053979
        0.0000044501  -0.0000027059   0.0000007823  -0.0000121694  -0.0000221028
        0.0000103355  -0.0000025679  -0.0000273178   0.0000098322   0.0000057990
       -0.0000049391  -0.0000158912   0.0000084737  -0.0000093420   0.0000129759
        0.0000221814  -0.0000046882  -0.0000545005  -0.0000279704   0.0000003759
       -0.0001120322   0.0000008121   0.0000370704  -0.0000009694  -0.0000293090
        0.0000065844  -0.0000190272  -0.0000159362   0.0000147225   0.0000024064
       -0.0000239267  -0.0000200561  -0.0000021804  -0.0000247670   0.0000868269
        0.0000279322  -0.0000012184   0.0000282467  -0.0000006216  -0.0000239833
        0.0000006652  -0.0000097863  -0.0000044619  -0.0000022546  -0.0000016469
       -0.0000043235   0.0000004880   0.0000052668   0.0000015865   0.0000022962
       -0.0000003047  -0.0000066248   0.0000021451  -0.0000017254  -0.0000071946
        0.0000110068  -0.0000225984  -0.0000254626   0.0000082797  -0.0000056745
       -0.0000144294  -0.0000296645  -0.0000089614   0.0000094631   0.0007934945
       -0.0003269171  -0.0002093512  -0.0003318439   0.0003413419   0.0010448792
        0.0002150348  -0.0003677724  -0.0002904874  -0.0113974938   0.0090184778
        0.0129452521
       -0.0124342738  -0.2169482785   0.0133570907  -0.0126164585   0.6388727318
       -0.0033080171  -0.0796307960  -0.1273618258   0.0941651502  -0.0186196264
       -0.0226878886   0.0239846127   0.0001202416  -0.0046015501   0.0009208332
        0.0042554789   0.0073228519  -0.0076817374  -0.0002205464  -0.0031229565
        0.0002551371  -0.0005540359   0.0006416436   0.0004272201  -0.0000973725
       -0.0002217216  -0.0000176631  -0.0001437350   0.0000437577  -0.0000707304
        0.0002856603  -0.0000521240   0.0000342248  -0.0001971025   0.0000965345
       -0.0000019819   0.0000326487   0.0000063025  -0.0000665832   0.0003286058
        0.0002842502   0.0000992578  -0.0002327664  -0.0009888024  -0.0001160331
       -0.0001475656   0.0001316354   0.0004408227  -0.0001078145  -0.0001826001
       -0.0000605439  -0.0001421674   0.0000133649   0.0000892894  -0.0000464962
       -0.0000384288  -0.0000310907   0.0001380822   0.0005214414   0.0000409770
        0.0000051336   0.0000690331   0.0002178854   0.0002762872   0.0000435749
       -0.0001381889   0.0000468491   0.0005443637   0.0001589989  -0.0000498344
        0.0000563485   0.0000923812   0.0000081434   0.0000234721  -0.0001288435
       -0.0000049139  -0.0001542261  -0.0001333419   0.0004110352   0.0004208316
       -0.0001730442   0.0005467909   0.0005114768  -0.0004117098  -0.0003073210
        0.0000603487  -0.0001203288   0.0000447129  -0.0000088981  -0.0000391346
        0.0000273863   0.0000798189  -0.0000982146  -0.0001516225  -0.0000999690
       -0.0000134228   0.0000677944   0.0000324378   0.0000289519   0.0000870496
        0.0000494153   0.0000630219   0.0000868295  -0.0002274576   0.0002773048
       -0.0000104634  -0.0000094668  -0.0000166610   0.0114376013  -0.0489877323
       -0.0110176671   0.0001853533  -0.0045970826   0.0017017755   0.1006879264
       -0.1763521082  -0.1155848103  -0.0048242371  -0.0130958585   0.0054714466
        0.0042759766  -0.0184480641   0.0066706629   0.0024584308  -0.0205687108
       -0.0028580614   0.0107095146   0.0053815305  -0.0128176605   0.0002447638
       -0.0000577234  -0.0002564911  -0.0006999822  -0.0005508189   0.0006013672
       -0.0002293783  -0.0002431088   0.0003679193   0.0000167200   0.0000176370
        0.0000313386  -0.0000240267   0.0000423562   0.0000100270  -0.0000273083
       -0.0000003681   0.0000027369   0.0000280965  -0.0000220850   0.0000035594
        0.0000305391  -0.0000516564  -0.0000148071   0.0000435588  -0.0000359438
       -0.0000322347  -0.0000772298  -0.0002895781  -0.0002023674  -0.0001333170
       -0.0003632221  -0.0001397864  -0.0000588237  -0.0000849507   0.0000704173
        0.0000066049  -0.0000640990   0.0000088327   0.0000025225  -0.0000701582
        0.0000191968   0.0000060536   0.0000154254   0.0000244173  -0.0001664574
       -0.0001294413  -0.0001070045   0.0000456774   0.0000508257   0.0000690004
        0.0000459015   0.0000073884   0.0000348926   0.0000372666  -0.0000022433
       -0.0000092367   0.0000110502   0.0000455283   0.0000156604   0.0000071117
        0.0000198449  -0.0000222744   0.0000293597   0.0000537415  -0.0000476721
       -0.0000058189  -0.0000170814  -0.0000311183  -0.0000193386   0.0000465702
       -0.0000401682  -0.0000410386  -0.0000023225   0.0000174715   0.0005044202
       -0.0009780024  -0.0010841506  -0.0000652666   0.0001479090   0.0001072558
       -0.0001475904   0.0002053253   0.0002308216  -0.0053484530   0.0058588363
        0.0067808224
        0.0046774036   0.0170499974  -0.0648275527  -0.2547709560  -0.0033080171
        0.4411307869   0.1185958186   0.0337960636  -0.1806437590  -0.0095063704
        0.0705705259   0.0041680724   0.0026885752  -0.0001403522   0.0030872617
        0.0293924714  -0.0068312174  -0.0359154407  -0.0000427997   0.0001963634
       -0.0006288230   0.0001418890  -0.0002121474  -0.0000503486   0.0000182465
        0.0001141820   0.0000196853   0.0000816083  -0.0000250669   0.0000197275
       -0.0000581127  -0.0000411841   0.0000162895   0.0000306073  -0.0000173799
       -0.0000104521  -0.0000539851   0.0000128068   0.0000127139  -0.0000698258
       -0.0001029626  -0.0000298262   0.0004051249   0.0000709644   0.0002043689
        0.0000609900   0.0001855773   0.0001329966   0.0000390409   0.0000318114
       -0.0001129975   0.0000602553   0.0000938358  -0.0000293575   0.0001083947
       -0.0000799347  -0.0000745677  -0.0000968585  -0.0000751969  -0.0002469563
       -0.0002279644   0.0000834676   0.0000013298  -0.0005278704  -0.0000099291
        0.0002289893   0.0000091024   0.0000786462  -0.0001671829  -0.0000183432
        0.0001604467   0.0000170574  -0.0000020498  -0.0001925732  -0.0000692475
        0.0000871145   0.0000782427  -0.0001482666  -0.0003557734  -0.0003081703
        0.0001008910  -0.0001245576   0.0000520485   0.0000742853  -0.0000109553
       -0.0000208669   0.0000505785  -0.0000462146   0.0000460671  -0.0001302520
        0.0000293230   0.0000063580   0.0000136189   0.0000249302   0.0000141100
        0.0000307674  -0.0000075334   0.0000086915  -0.0000033153  -0.0000342706
       -0.0000185019  -0.0000444836   0.0000047571  -0.0000535377   0.0000388692
       -0.0000202721  -0.0000238108  -0.0000375253  -0.0167494613  -0.0586202285
        0.0246221071   0.0029024303   0.0020271298   0.0044851563   0.0925779701
       -0.0542214010  -0.1615681381   0.0025772471   0.0119712852  -0.0023871533
       -0.0002358353   0.0205195979  -0.0020858054  -0.0006862849  -0.0268720290
        0.0017392902   0.0129526820   0.0047730875  -0.0150702043  -0.0001619368
       -0.0000239996   0.0000403411   0.0003474921  -0.0006044404   0.0004712146
        0.0008136835   0.0005293786  -0.0008389789   0.0000124798   0.0000003778
        0.0000038939   0.0000054766  -0.0000027361   0.0000034982   0.0000143202
       -0.0000077799   0.0000049987   0.0000050753  -0.0000279605   0.0000119895
       -0.0000053861  -0.0000093721  -0.0000093795  -0.0000129062  -0.0000327995
        0.0000126181   0.0000057189  -0.0000954457   0.0000016440   0.0000101855
       -0.0000200333   0.0000210410   0.0000127701   0.0000024485  -0.0000060502
        0.0000111460   0.0000075028  -0.0000036483  -0.0000083845  -0.0000281041
       -0.0000113589   0.0000055635   0.0000099100   0.0000438776  -0.0000650847
       -0.0000157331   0.0000442455  -0.0000458800  -0.0000198150   0.0000119648
       -0.0000138449   0.0000050997  -0.0000096309  -0.0000089802   0.0000001329
        0.0000072177  -0.0000032884  -0.0000145267  -0.0000046071  -0.0000020539
        0.0000017340   0.0000095195  -0.0000050375  -0.0000008598   0.0000101614
       -0.0000065001   0.0000519340  -0.0000024852  -0.0000107962  -0.0000054276
        0.0000148002   0.0000138992   0.0000147641  -0.0000089170  -0.0001893195
       -0.0001804014  -0.0001038515  -0.0003278297   0.0007809935   0.0003623412
        0.0003237389   0.0005448172  -0.0004448071   0.0154659915  -0.0116264575
       -0.0155448396
       -0.0001700117  -0.0055536268   0.0034178756  -0.1516327299  -0.0796307960
        0.1185958186   0.3587015995  -0.0176942520  -0.2736013263  -0.0660087304
        0.0187602470   0.0191272877  -0.0021089040  -0.0190089029   0.0073984345
        0.0121389658   0.0138462313  -0.0092605003   0.0017784410   0.0025214719
        0.0029046118   0.0003801741  -0.0008900567  -0.0009269160   0.0002008798
        0.0000665306   0.0000194110  -0.0000197600  -0.0001209072   0.0000684617
       -0.0000641280  -0.0000150783   0.0000108129   0.0000801572  -0.0000324818
       -0.0000238072  -0.0000609306   0.0000613119   0.0000754883  -0.0002191291
       -0.0001503106  -0.0000303609   0.0001684184   0.0003788503   0.0003051684
       -0.0001801176  -0.0000960308  -0.0004927148  -0.0000672766  -0.0000198317
        0.0001709241   0.0000183503  -0.0003776211  -0.0000146256  -0.0000964762
        0.0000874079  -0.0000801884  -0.0000985011   0.0000305623  -0.0001982085
       -0.0003635904   0.0001460850  -0.0005682591  -0.0000383030   0.0000279058
        0.0001156202   0.0000370103   0.0000347040   0.0000480309   0.0000088462
        0.0001065614   0.0000077161  -0.0000233909  -0.0001024920  -0.0000089305
        0.0000647721   0.0000350727  -0.0000444125  -0.0003678427  -0.0000916539
        0.0001571320  -0.0003563897   0.0001485079  -0.0003063698   0.0000116604
       -0.0000532574   0.0001601452   0.0000291192   0.0001135965   0.0000545719
        0.0000329394  -0.0000251229   0.0000254579   0.0000751218   0.0000549352
        0.0000284706  -0.0000452458  -0.0000379440  -0.0000103853   0.0000087985
       -0.0000197275  -0.0000910999   0.0001619581   0.0000657402  -0.0000936030
        0.0000219901  -0.0000543972  -0.0000089683  -0.0086421893  -0.0209773192
        0.0064360470  -0.0002327286   0.0004485921   0.0007494965  -0.0282136856
        0.0250358415   0.0316187280   0.0000399412  -0.0003772833   0.0003439936
       -0.0005818705   0.0007195694   0.0001604333   0.0004315900   0.0013373144
        0.0000458287  -0.1158834609   0.0833940961   0.0858721570   0.0000710028
       -0.0020077820  -0.0001220982  -0.0009879244  -0.0015606584   0.0012643585
       -0.0013376593  -0.0011152798   0.0012735814   0.0000060619  -0.0000083881
       -0.0000093291   0.0000453728  -0.0000119996  -0.0000096275   0.0000352082
       -0.0000268643   0.0000032217  -0.0000352791   0.0000953848   0.0000129088
        0.0000026776   0.0000350214  -0.0000239867  -0.0000557193   0.0000630096
        0.0001034929   0.0000582432   0.0000530669  -0.0000107753   0.0000228929
       -0.0000395390  -0.0000150049   0.0000070304  -0.0000033004  -0.0000125547
        0.0000135299  -0.0000012998  -0.0000211384   0.0000039227  -0.0000325234
       -0.0000150502   0.0000639608  -0.0000522613  -0.0000477945  -0.0000618943
        0.0000759276   0.0000313323  -0.0000143781  -0.0000055205  -0.0000268930
       -0.0000257471   0.0000081330  -0.0000023223  -0.0000116007   0.0000095943
        0.0000060436  -0.0000028905  -0.0000169733  -0.0000034548  -0.0000033627
       -0.0000083006   0.0000021776   0.0000058640   0.0000020925   0.0000016149
       -0.0000049794   0.0000647626  -0.0000870589  -0.0000070027  -0.0000520609
       -0.0000020909  -0.0000032194   0.0000230551   0.0000093831  -0.0000464411
       -0.0001560057  -0.0000628272  -0.0001118087   0.0001503277  -0.0001035969
        0.0002116774   0.0002516014  -0.0000772311   0.0032471211   0.0021747383
        0.0057872727
       -0.0178368293  -0.0206330222   0.0211530715  -0.0281415839  -0.1273618258
        0.0337960636  -0.0176942520   0.6597103121  -0.0189380228  -0.0340216716
       -0.3201818252   0.0600621082  -0.0069100234  -0.0191299355   0.0071632927
        0.0477762126  -0.0483183832  -0.0478681604   0.0014560250   0.0016909137
       -0.0019634600   0.0004441410  -0.0008212884  -0.0001482234   0.0001130975
        0.0001763771   0.0000653439   0.0002230667   0.0000116349   0.0000745999
       -0.0001666734  -0.0001201802  -0.0000355392   0.0000180246   0.0000171751
       -0.0000179503  -0.0001064603   0.0000933381   0.0000824950  -0.0001590272
       -0.0006362466  -0.0000878416   0.0006987912   0.0003288241   0.0001170443
        0.0001524012  -0.0002627636  -0.0001986886  -0.0002203588  -0.0001701086
        0.0000876877  -0.0000484568   0.0000786417   0.0000134326   0.0000111763
        0.0000700055   0.0000191654  -0.0002012015   0.0000886775   0.0000937739
        0.0000077236   0.0002967011  -0.0001629219   0.0000010767  -0.0000113213
        0.0001254044   0.0000580684  -0.0000137757  -0.0002173744  -0.0001240472
        0.0001081073   0.0001357635  -0.0000643096  -0.0002500776   0.0000374933
        0.0001882388   0.0001208003  -0.0001910790  -0.0003896805  -0.0003074728
        0.0001754862  -0.0006094160   0.0001499295   0.0006114354   0.0001613134
       -0.0000730132   0.0002080910  -0.0001072186  -0.0000037443  -0.0000689840
        0.0000402775   0.0000032716  -0.0000326449   0.0000510756   0.0000116011
        0.0000423287  -0.0000110055   0.0000157647  -0.0000113632   0.0000020382
       -0.0000587198  -0.0000560623   0.0000124359  -0.0000159553  -0.0000033327
       -0.0000287243   0.0000307342  -0.0000540454  -0.0174694959  -0.0404290037
        0.0249227066   0.0003964336   0.0005692075   0.0004377376  -0.0107205242
        0.0548557799   0.0072862355  -0.0009317822  -0.0054659836   0.0010281655
       -0.0012349748  -0.0011742089   0.0009078623  -0.0011205404   0.0006380400
        0.0018066518   0.0824121916  -0.1324243369  -0.0872605260   0.0014780824
        0.0008776997  -0.0017654228  -0.0002137255  -0.0007126671   0.0002727840
        0.0001842099  -0.0005928130   0.0006325307   0.0000330531   0.0000527180
        0.0000104848   0.0000138222  -0.0000340910   0.0000065442   0.0000214493
        0.0000122516   0.0000044008   0.0000392369  -0.0000142765  -0.0000172622
        0.0000080331   0.0000045321  -0.0000513140   0.0000513156  -0.0000529263
       -0.0000671994   0.0000151330  -0.0000448576   0.0000320874   0.0000341253
        0.0000053456   0.0000640314   0.0000326609   0.0000066572  -0.0000044795
       -0.0000035867   0.0000030587   0.0000117172  -0.0000312561   0.0000192219
        0.0000351133   0.0000099117   0.0000871821   0.0001165357  -0.0000641122
       -0.0001173808  -0.0001706789  -0.0000416512   0.0000416299   0.0000227711
       -0.0000144784  -0.0000070911  -0.0000168962  -0.0000022597  -0.0000065491
        0.0000082790  -0.0000003204  -0.0000107538  -0.0000150730   0.0000049290
        0.0000139236  -0.0000007719  -0.0000084001   0.0000025298  -0.0000013321
       -0.0000526616   0.0000033167  -0.0000140492   0.0000043701   0.0000257130
       -0.0000031642   0.0000100544  -0.0000395765  -0.0000462389  -0.0003295801
        0.0001428180   0.0000606551  -0.0001535362   0.0002711967   0.0001200827
        0.0000242209   0.0003596320   0.0000373503   0.0030454086  -0.0014990884
       -0.0023987059
        0.0040914644   0.0066483014  -0.0039143406   0.1146303296   0.0941651502
       -0.1806437590  -0.2736013263  -0.0189380228   0.4162173187   0.0258022960
       -0.0009658759  -0.0761563406   0.0069087222   0.0223529502  -0.0055546548
       -0.0175917883  -0.0072312026   0.0238273183   0.0044141213  -0.0029218301
        0.0016908572  -0.0004996412  -0.0004601958   0.0010830093   0.0001751191
       -0.0002772843  -0.0000150244  -0.0000482994   0.0000078195  -0.0001467679
        0.0001001535   0.0000354103  -0.0000032352  -0.0001022726   0.0000505746
        0.0000432262   0.0000933847   0.0000112939  -0.0001495183   0.0002047258
        0.0000775602   0.0000075780  -0.0004679903  -0.0002960078  -0.0001590703
       -0.0000822166  -0.0000296834   0.0001324181  -0.0000569508  -0.0000528144
        0.0000474844  -0.0000548602   0.0001099871   0.0000043453   0.0000175412
        0.0000734068  -0.0000013820  -0.0003038058   0.0000257636  -0.0000014576
       -0.0004734360   0.0000199635  -0.0000509120   0.0001491395  -0.0000420315
       -0.0002708075   0.0000474084   0.0000160615  -0.0000661679  -0.0000241666
       -0.0000834930   0.0000097288  -0.0000070731   0.0000627758   0.0000263807
        0.0000035457  -0.0000281525  -0.0000119900   0.0003306483   0.0001899807
       -0.0001866707   0.0003428008   0.0005421843  -0.0009680109  -0.0002026164
        0.0000026362  -0.0001332223   0.0001027754   0.0000295247   0.0000792644
       -0.0000425999  -0.0000001963  -0.0000272377  -0.0000957526  -0.0000660631
       -0.0000248096   0.0000439457   0.0000400205   0.0000129215   0.0000065935
        0.0000700940  -0.0000128028   0.0001384448  -0.0000282412   0.0000137414
       -0.0000009011   0.0000505340   0.0000375334   0.0061297604   0.0265208083
       -0.0151723897   0.0000086049  -0.0005739673  -0.0009922526   0.0351276775