140
 energy: -177.508481938421 gnorm: 0.000035628556 xtb: 6.7.1 (edcfbbe)
C            5.80145186078150       -4.60729349311248        2.61954386217349
C            6.40591449545700       -3.55671056649351        1.68323706029684
C            7.61258852652818       -2.92157045673032        2.39084321263860
C            6.86983118914125       -4.26808669712911        0.40327572979271
C            5.41557822041088       -2.46370603258035        1.31419072794188
C            4.10469486586132       -2.43284257704959        1.77830076521683
C            3.23564691990461       -1.41906197572123        1.42575984883262
C            3.64672109738457       -0.38719659626862        0.58344948766039
N            2.74796049171577        0.61422407582358        0.21893231649061
C            3.17572366190533        1.91342288328645       -0.04866871308997
C            2.48767875065804        2.69418237195607       -0.97906754984245
C            2.88831213007165        3.98607498778687       -1.24083287101934
C            3.98612207311442        4.56100257144464       -0.60118868874772
C            4.38474248013231        5.99151159249827       -0.92792007285734
C            5.61430752257417        6.45649650930311       -0.14152440788953
C            3.21465590943462        6.92559224929507       -0.58401067560639
C            4.70881693126906        6.09446128420137       -2.42605485495569
C            4.66336795685463        3.77503005659398        0.32576207616216
C            4.26911147891849        2.48104369013472        0.60510471395820
C            1.38465319458305        0.30522885517012        0.11098378924571
C            0.43492723132496        1.04674592160568        0.87450107949575
C            0.81159212933541        2.01183796042073        1.81218742119314
C           -0.12024149606248        2.69108816083449        2.58759909501200
C           -1.47116118652118        2.40305877886945        2.49215850958220
C           -2.54414646785019        3.11021353506753        3.30316373340835
C           -1.96847636437448        4.19170255499977        4.22254337148382
C           -3.28222151308578        2.08317940841141        4.17501129803560
C           -3.53637834901909        3.77843825543701        2.33904821755488
C           -1.85361491000354        1.40123293296072        1.59570014058099
C           -0.95098865323122        0.73423182763976        0.76698761361296
C           -1.36562733567294       -0.31671842538818       -0.10988644889310
N           -2.72909445676848       -0.62354422406418       -0.22043412889664
C           -3.62690989405059        0.38109781684462       -0.57816648959651
C           -4.93713122992136        0.40685323774573       -0.09467019193940
C           -5.79198939434774        1.42767207299660       -0.44983081009163
C           -5.39153585575853        2.46856350402351       -1.28779551049619
C           -6.37844373833478        3.56955978841378       -1.64195234452745
C           -6.83440071255547        4.26939317301117       -0.35276100151562
C           -5.77267756795248        4.62736313047994       -2.56922430567281
C           -7.59064198946930        2.94740716662164       -2.35160515123370
C           -4.08240551435105        2.43668276375675       -1.75684122579202
C           -3.21547167709247        1.41756846065833       -1.41464909959157
C           -3.16035971877391       -1.92203999534741        0.04547662218525
C           -2.47961398435928       -2.70514416538603        0.97633271657825
C           -2.88369728995840       -3.99863479113893        1.24213559914813
C           -3.97987935812716       -4.56594972626066        0.60085407644730
C           -4.46069639345052       -5.98344416113461        0.86843571775597
C           -5.90890859645420       -5.93434502121992        1.37852509409629
C           -4.39729567293264       -6.78963818873293       -0.43779759724838
C           -3.60978357827109       -6.70664681804776        1.91679570688615
C           -4.65057385156577       -3.77500314827181       -0.33210696781881
C           -4.25509984609208       -2.48537132777203       -0.61374001962161
C           -0.41571826619551       -1.05896759008695       -0.87258167899329
C           -0.79187968660536       -2.02439177580379       -1.81012628344876
C            0.14041354330751       -2.70454136757539       -2.58428842707218
C            1.49145776685012       -2.41745236903192       -2.48750280335984
C            2.56476538111981       -3.12499968379709       -3.29775511812668
C            3.55928601931118       -3.78946489368665       -2.33340775527005
C            1.98984437380985       -4.20948998965883       -4.21405855457383
C            3.30014452871296       -2.09858563050097       -4.17262034181514
C            1.87356514487445       -1.41532074178272       -1.59125849191069
C            0.97031226821146       -0.74700394887796       -0.76428986104242
C            4.95776751815066       -0.41372406806559        0.10236201447044
C            5.81474396994859       -1.42913417390626        0.46783357417257
H            6.55152482525469       -5.36132101763316        2.85017954097944
H            4.95566622389249       -5.10664764471562        2.15221471658098
H            5.47808818638334       -4.15802010315384        3.55592677971181
H            8.11998071184803       -2.20852747533147        1.74679997493487
H            7.28978629538856       -2.39989836031242        3.28994439014459
H            8.32692393618716       -3.69118071159372        2.67604024647605
H            7.36239676298094       -3.57951264775010       -0.27772509501688
H            6.01753969117051       -4.70640812317195       -0.11161478899175
H            7.57087350521157       -5.06274965146088        0.65023417727267
H            3.73651067619000       -3.20415981904697        2.43467977775241
H            2.22439964346811       -1.41521674138793        1.80631103691227
H            1.63840053786678        2.27116091127583       -1.49608657331317
H            2.32920352871804        4.55320889974835       -1.96977689517289
H            5.85446048531363        7.48123714698521       -0.41827518580284
H            5.42569565404920        6.43418175804581        0.92946487253994
H            6.47984892224667        5.83679273348620       -0.36513857310074
H            2.96345181885501        6.84007396315895        0.47161060202373
H            2.32898629458268        6.68126986455350       -1.16420740516760
H            3.48570900924955        7.95853981158953       -0.79264068293719
H            5.01465821055990        7.10882147075186       -2.67400991327508
H            5.52059979170870        5.41652098557187       -2.68298995386945
H            3.84680064993165        5.84029010710115       -3.03660383044729
H            5.51273653390529        4.16703895577933        0.86110008214813
H            4.80034650893925        1.90905345023206        1.35259979743046
H            1.85633045266557        2.24189932081133        1.95294981657443
H            0.24534546804913        3.44040456537820        3.27088836071638
H           -2.77758918207776        4.67459367058409        4.76746526560247
H           -1.44641731769044        4.95410257490752        3.64847873164528
H           -1.28235878441042        3.76216431492062        4.94929518557262
H           -2.58175686442330        1.58260883250598        4.84112741131016
H           -3.77295464398849        1.32807464991166        3.56683439351417
H           -4.03960192436137        2.57927144323302        4.77882281450806
H           -4.31026487109792        4.29990569803648        2.89915045045351
H           -4.01486841018530        3.04776670547175        1.69201214550824
H           -3.01788124405651        4.49962529992291        1.70954274030238
H           -2.89382609251614        1.12636319746152        1.54456315101852
H           -5.27362969982465       -0.36776622844925        0.57983353556036
H           -6.79412797231655        1.41220419278771       -0.04831723908451
H           -7.32587349930620        3.57545878472652        0.32358129203869
H           -5.97844208994228        4.69988812879165        0.16262960780874
H           -7.53422141278051        5.06852312502812       -0.58850447188837
H           -6.51974826361298        5.38789321066506       -2.78795625984948
H           -4.92218387119093        5.11698968177971       -2.10014063482011
H           -5.45594075523996        4.18693027778123       -3.51205032378960
H           -8.30162802535023        3.72345440019521       -2.62759566709229
H           -7.27344882273919        2.43219220702742       -3.25640880450767
H           -8.09996952383986        2.23136626078185       -1.71242968076293
H           -3.71378974456624        3.21174160360958       -2.40856857160945
H           -2.20532106496433        1.41349779977072       -1.79813232496219
H           -1.63005665512999       -2.28539805131846        1.49565645153704
H           -2.32488961469825       -4.55912286742296        1.97363434506157
H           -6.26613369839080       -6.94051249370000        1.58804823169585
H           -6.57247030990523       -5.48338919841197        0.64573437797982
H           -5.96495053474960       -5.34995296705735        2.29504273464007
H           -3.37831506649364       -6.80596388848575       -0.81999863821900
H           -5.04032686741047       -6.36000250179620       -1.20104865670228
H           -4.71657552998148       -7.81469344543893       -0.26100524967898
H           -2.57562132989159       -6.79145628633747        1.59052714297018
H           -3.64130202588065       -6.18777757931414        2.87226571503991
H           -3.99827088117932       -7.71201501605483        2.06748502081522
H           -5.50021821124247       -4.17280769595939       -0.86651454567812
H           -4.78142348376891       -1.91120857466201       -1.36299685280598
H           -1.83656118740541       -2.25410455571479       -1.95192284150513
H           -0.22498979019750       -3.45387820123693       -3.26767850314987
H            4.03918266779235       -3.05638487475737       -1.69018366730566
H            3.04254218305439       -4.50846324014247       -1.69996584791147
H            4.33206314055382       -4.31278284808787       -2.89331174664059
H            1.30304596145695       -3.78264335748092       -4.94173192243544
H            1.46867361692226       -4.97082958751856       -3.63776515581032
H            2.79922177352714       -4.69303976716576       -4.75799794992792
H            3.78911935531746       -1.34068797282908       -3.56648487894133
H            4.05854712362464       -2.59445456269048       -4.77533168954575
H            2.59831008653084       -1.60142321962419       -4.83984143373098
H            2.91388899939741       -1.14102752391024       -1.53885926551776
H            5.29354097094872        0.35651545857213       -0.57748820105984
H            6.81776074503132       -1.41414327053024        0.06849363672398
