72
 energy: -114.915622022943 gnorm: 0.000059396772 xtb: 6.7.1 (edcfbbe)
N           -0.00577040162530       -1.00389437277991        0.01910365117925
C           -0.00336373762450        0.14300587182863        0.01840051019604
C           -0.00129941829634        1.55891742793330        0.01875551339334
C           -1.21427215267601        2.26725852650192        0.01510262443986
C           -2.51490117846293        1.59046874713234        0.02189152551011
C           -3.51367716974388        1.99451599288074       -0.86242767492249
C           -4.73963141179356        1.36302745785648       -0.87549857148777
C           -5.00207914966880        0.32445691270500        0.01603332556358
N           -6.24263267010597       -0.31728306916678        0.00650738259187
C           -7.47749660277039        0.30438383328354        0.00883758880763
C           -7.78850865188469        1.65445425832888        0.08090033209286
C           -9.12407369389361        2.00933618294814        0.09841287505059
C          -10.13249221817487        1.04961602800032        0.05578250628484
C           -9.82910209842422       -0.29653950245248        0.01187946629835
C           -8.49410222600919       -0.67747045430656       -0.00684800730062
C           -7.83180461668586       -1.95213398215074       -0.02655801491614
C           -8.28790967290285       -3.26304161860073       -0.06720376932030
C           -7.36018644570932       -4.28470647916971       -0.10354536515463
C           -5.99440754829292       -4.01142352269258       -0.11678817084183
C           -5.51637350273865       -2.71530773635198       -0.07714383422875
C           -6.44405712836150       -1.68577806503921       -0.01319518631022
C           -4.01455207378822       -0.06698835118987        0.91770909455285
C           -2.78332886243369        0.55462593987195        0.91418430843492
C           -1.13403608272798        3.65975067364521        0.01084409381243
N            0.00106933126380        4.33086464384698        0.02345115701727
C            1.13494126649497        3.65770844153096        0.03244692169244
C            1.21302015329612        2.26500582594202        0.02298093155467
C            2.51269329107420        1.58680985906468        0.00666996452154
C            2.77205023797039        0.55055701710198       -0.88798175794955
C            4.00342275328285       -0.07048110409797       -0.90481500786540
C            5.00096028653835        0.32287303297621       -0.01515407072656
N            6.24311898476095       -0.31586037587175       -0.02098230228469
C            7.47591000642828        0.30945601366140       -0.04183207035137
C            7.78149035700423        1.66026409400713       -0.12244903725863
C            9.11553760248675        2.01928224697116       -0.15949682561562
C           10.12744963158855        1.06281300556643       -0.12751636992977
C            9.82902019879157       -0.28415200485578       -0.07503716138830
C            8.49562189957805       -0.66926174405060       -0.03693260609977
C            7.83746838051882       -1.94582946270507       -0.00447209317095
C            8.29786937144726       -3.25529347923682        0.03409833513260
C            7.37367728279776       -4.27950706755696        0.08572080115678
C            6.00736837270453       -4.01019567886984        0.11573388243960
C            5.52505472986610       -2.71559706095990        0.07843659493877
C            6.44885169270022       -1.68362333148994       -0.00023405911954
C            4.74744713496286        1.36112185442260        0.87934828511767
C            3.52073171938930        1.99125274615588        0.88032352748227
H           -3.31160654403010        2.78738542095253       -1.56780313640581
H           -5.49443293217927        1.65597178503324       -1.58937817469832
H           -7.01593721290092        2.40661839419416        0.13555884716279
H           -9.39119241783981        3.05454467444986        0.15048588913546
H          -11.16434435508866        1.36754147517893        0.06811961675866
H          -10.60998056356498       -1.04175265241385       -0.00254955474252
H           -9.34679939346356       -3.47299492259615       -0.07526385339653
H           -7.69329875099398       -5.31143824387117       -0.13271029227484
H           -5.29193311373912       -4.83027953444935       -0.16314810184282
H           -4.45592204852819       -2.51608544898296       -0.10855325904865
H           -4.22392829975243       -0.84963528212898        1.63059099308845
H           -2.03341865100383        0.25252119279321        1.62990633066000
H           -2.03557441774205        4.25763319182027        0.01887587198910
H            2.03740563924032        4.25419684396893        0.02532520965132
H            2.01477301695374        0.24799695768077       -1.59569472789870
H            4.20528677148391       -0.85354009811502       -1.61942394557643
H            7.00567914594723        2.40966196629300       -0.16885414375266
H            9.37862343716104        3.06512626435329       -0.21879502693226
H           11.15801752053296        1.38393128716754       -0.15503164413362
H           10.61244466904217       -1.02679957175173       -0.06884207380019
H            9.35737621862284       -3.46219710249703        0.02885832195761
H            7.71016693384458       -5.30516763109688        0.11376685658084
H            5.30800423951960       -4.83098433843003        0.17352295886649
H            4.46452148564333       -2.51920183297972        0.12257754058424
H            5.51033655980503        1.65519293212311        1.58413378115597
H            3.32595062227860        2.78370775806945        1.58818761138402
