111
 energy: -156.253435855175 gnorm: 0.000041438436 xtb: 6.7.1 (edcfbbe)
C           -4.66976028272704        5.10741280568315       -2.10604266247254
C           -3.36472111867753        4.69734418472565       -1.40927071745443
C           -2.19806143450132        5.12972759364829       -2.30164384599378
C           -3.23668720737530        5.43336320434001       -0.06783039378991
C           -3.38688527295055        3.19823014322952       -1.14567694362475
C           -2.41425865254077        2.33408784017113       -1.65396855584362
C           -2.41946251628895        0.97373907287815       -1.40355615695390
C           -3.42526845005655        0.45593871976800       -0.60546195679026
C           -4.44230984467286        1.30038894861936       -0.11331859360968
C           -4.41256548380147        2.66019194769221       -0.37877748688323
C           -5.36095517293801        0.45812038505629        0.60517639569816
C           -6.52779057537651        0.72243165500102        1.30921702648278
C           -7.20291547637436       -0.31297697544556        1.93488396734857
C           -8.49226479501585       -0.10017697301328        2.71426645601411
C           -9.60400691205036       -0.95499286115612        2.08954182093937
C           -8.27305964340034       -0.51757197300379        4.17528622286719
C           -8.95288332698591        1.36002648859871        2.70102838770678
C           -6.66658198818126       -1.60444613662289        1.85390066304635
C           -5.50837271854273       -1.89502913977456        1.16095931959082
C           -4.86084525144327       -0.85649370627207        0.51159929868920
N           -3.68494108760643       -0.85129325742190       -0.22080649411863
C           -2.86666283245057       -1.94123320521628       -0.50284012219209
C           -3.40098988882755       -3.14853323377052       -0.95888561014907
C           -2.56493156839988       -4.20611563131157       -1.28549347733469
C           -1.20358213372144       -4.03777286233995       -1.17661632782822
C           -0.65160813129058       -2.84508993370741       -0.71675479790005
C           -1.48588578681592       -1.80059129296758       -0.35637718273494
C            0.80780822185382       -2.81199117202876       -0.73809028325311
C            1.60470246896134       -1.74237531503830       -0.36816377392785
C            2.98508909567447       -1.81099461776195       -0.56479069130648
N            3.76207393680900       -0.69835711995461       -0.25869047481562
C            4.96952318955944       -0.68497805871781        0.42223827468113
C            5.70846687017399       -1.72452451573056        0.96384885733018
C            6.87925978806862       -1.41283116757119        1.62573605338048
C            7.34135955005943       -0.09965604657173        1.78106329918563
C            8.65312631271953        0.13630752891261        2.51493494547928
C            8.53315463312060       -0.40053116723235        3.94818189597525
C            9.02452981859852        1.61974932477137        2.59224896812202
C            9.78090617322516       -0.59827223782670        1.77636804938682
C            6.57447927651830        0.93383506836622        1.26875947801918
C            5.39283743655719        0.64819958545946        0.59816696139501
C            4.38813389578992        1.48298976980927       -0.00340259873277
C            4.25685521982492        2.85990401278077       -0.13063257266269
C            3.15248210148452        3.38853026448049       -0.77865593526744
C            2.91024998248992        4.88497976246650       -0.90903360730072
C            4.04199882061617        5.71905627818696       -0.30310141962811
C            1.60956896864320        5.23610131781277       -0.17214366716978
C            2.78574552710501        5.26017338962226       -2.39242790672684
C            2.21712797663489        2.50403518952748       -1.33046472510187
C            2.32796317024309        1.13266748193259       -1.22519177204725
C            3.40482148978872        0.61662022199286       -0.52057766546257
C            3.55687574086350       -2.97411082737907       -1.08636927081430
C            2.76160153002436       -4.06483258807977       -1.40613578590620
C            1.39907577703378       -3.96810022033541       -1.24055778334936
S            0.11913751441840       -5.17203226040093       -1.61818367490816
O            0.08746437029577       -5.47186204365886       -3.02401902037189
O            0.17620516864035       -6.28278383855499       -0.70704934206221
H           -5.53569151404227        4.89850693936401       -1.48452454842196
H           -4.78273623365264        4.56369271273848       -3.04171734765766
H           -4.65873791985694        6.17309019324843       -2.32505309840835
H           -1.24227885097731        4.89726046185129       -1.83812417022276
H           -2.25055353859483        4.65044332977349       -3.27658352642958
H           -2.23968967362358        6.20629152793247       -2.45448350489104
H           -2.31628953091736        5.14235542875034        0.43460046096686
H           -3.21599903211171        6.50900871123771       -0.22988485551006
H           -4.07030101171285        5.20348409646136        0.58987630240753
H           -1.62283845743859        2.71975039000207       -2.27486783508180
H           -1.66280301935850        0.34084172827711       -1.84247228526882
H           -5.19875477648918        3.28536639326465        0.01504245962695
H           -6.88203511149739        1.73847355617440        1.35694349368572
H           -9.74936768734094       -0.67848732143281        1.04725436536143
H           -9.36246250237733       -2.01333608536506        2.13035688162396
H          -10.54006787048360       -0.79944738543419        2.62180119150384
H           -7.46886539106795        0.06772254554692        4.61647067886650
H           -9.17964494861292       -0.34965625892679        4.75288005060658
H           -8.01070235071639       -1.56886512488235        4.25330732647810
H           -8.21432190953965        2.00790404227954        3.16748322692559
H           -9.13914747490133        1.70211840377550        1.68558561350387
H           -9.88089623702621        1.45210024344189        3.26173637461515
H           -7.16876591910680       -2.41808847619948        2.35426132205750
H           -5.11943569650238       -2.90179549673694        1.14511376416837
H           -4.46793685831220       -3.24215556127786       -1.08707876606227
H           -2.96684593117322       -5.13928289824021       -1.64705282901172
H           -1.08597413930289       -0.87914885358425        0.03570130346315
H            1.17504320450498       -0.85945502543654        0.07677407164550
H            5.38046829125978       -2.75022547408651        0.89261494967035
H            7.45205787807790       -2.22775411755645        2.04090985885156
H            9.45626391887285       -0.21897300763772        4.49463674674283
H            8.33777721946310       -1.46911979618714        3.95744938148845
H            7.71908169302307        0.09900367590261        4.46940433350898
H            9.13775392628729        2.04683609484323        1.59847248058805
H            8.27347007518153        2.18345699173108        3.14078554404477
H            9.97285707339906        1.72887403685672        3.11459258601582
H            9.85722160217907       -0.23674768073274        0.75293337579845
H           10.73159390548335       -0.42398245992457        2.27589388702670
H            9.60485444862256       -1.66982110755389        1.74653477045520
H            6.86739790133553        1.96430859316658        1.38010174103994
H            5.02490598200346        3.49149724536740        0.28321437569142
H            4.15119482756696        5.51828168181964        0.76010666291468
H            3.81659677883120        6.77690901524665       -0.42245052377877
H            4.98612082523920        5.51775998978375       -0.80397292941350
H            0.76664449738964        4.67884477852987       -0.57205808212620
H            1.70038634843977        4.99675274053614        0.88546246182427
H            1.39587221773832        6.29844911616907       -0.26952772298144
H            2.65401536201477        6.33517758327607       -2.49608715595863
H            1.93634257585730        4.77027083860312       -2.85983141827506
H            3.68562871894663        4.96922381896617       -2.93020031605077
H            1.36702121800734        2.89756340296800       -1.86615618083106
H            1.59740684636649        0.49216593084532       -1.69567173257745
H            4.62001405122319       -3.01003703523761       -1.26425503166367
H            3.19473982766884       -4.96851753118998       -1.80467558394313
