111
 energy: -156.252130912437 gnorm: 0.000049142310 xtb: 6.7.1 (edcfbbe)
C           -3.36612377994033        2.99347596259960       -4.97969211520897
C           -3.43207528663588        3.29670582120879       -3.47618835734003
C           -2.17569344419131        4.06615452908591       -3.04433016849719
C           -4.64718911102524        4.19390756763906       -3.22528956593437
C           -3.50401713948311        1.98690198155251       -2.70513966982266
C           -2.45494984927007        1.06766458042850       -2.83310027059656
C           -2.43017249888160       -0.14170929691737       -2.16742684818357
C           -3.49078540014114       -0.44551666428717       -1.32890765621144
C           -4.57359672592803        0.44822073798460       -1.20707085634070
C           -4.57383357772707        1.65745047208842       -1.88891318092046
C           -5.52513817813936       -0.17718260009945       -0.32855822547210
C           -6.75319989994994        0.22186428498071        0.17322777627537
C           -7.44962451582984       -0.60411819876177        1.04597924675294
C           -8.80219266086292       -0.14827554333654        1.57484361702539
C           -8.61977346576743        1.16390405591395        2.35083457802891
C           -9.75189881960548        0.07654833821430        0.38954975772312
C           -9.45026697100919       -1.16917816381927        2.51387111122789
C           -6.87072598900423       -1.82097198013315        1.41486726265607
C           -5.64591790462628       -2.24338397371236        0.92917053206101
C           -4.97849568028362       -1.42632646875697        0.03349190833022
N           -3.74273495692292       -1.58136574393002       -0.57543084377464
C           -2.90883817118581       -2.69066965414829       -0.46484985313620
C           -3.43812263191954       -3.97797053772918       -0.58539991670255
C           -2.61645086702917       -5.08699168609798       -0.46511825235025
C           -1.27234244216122       -4.89484094338935       -0.24630447223827
C           -0.71803866498522       -3.62128639989236       -0.13571688115386
C           -1.54328942041366       -2.51172655275135       -0.23422341454447
C            0.72669230478724       -3.62008137053515        0.09586180272687
C            1.54698577009231       -2.50873264553486        0.21405147733799
C            2.91384751605344       -2.68579743399301        0.43790500186715
N            3.74343859573619       -1.57514536323660        0.56676364567871
C            3.49103886979610       -0.45549824978638        1.34361081823600
C            2.43208325097164       -0.17064333596437        2.19090765473716
C            2.45639193690490        1.02525452903885        2.88027362646696
C            3.50360833563002        1.94888909570099        2.76772661220886
C            3.43130285342540        3.24272527473484        3.56529558884615
C            2.17343970554640        4.01930935488626        3.15087670967960
C            4.64511888083405        4.14617269813503        3.33109450849155
C            3.36777115819801        2.90906410695861        5.06245223767654
C            4.57153638266178        1.63834106799037        1.94195627596337
C            4.57183122800250        0.44276189054748        1.23591680357796
C            5.52132983870159       -0.16268496796318        0.34189361439633
C            6.74938840534853        0.25504420020776       -0.15363433125834
C            7.44122799078549       -0.55002200415835       -1.04352174034580
C            8.79545472325174       -0.16314013603142       -1.61939084656944
C            9.82523630673050       -1.24019673562267       -1.24997968777693
C            9.30044095844100        1.17916319759371       -1.08299092265142
C            8.68121095769224       -0.05392047561320       -3.14643838643663
C            6.86074785024794       -1.76305118375206       -1.43653682158944
C            5.64225311888431       -2.20229821206606       -0.95920505110200
C            4.97641139333066       -1.40405427199087       -0.04278975411409
C            3.44938009568025       -3.97263929759625        0.53289408225591
C            2.63249100167815       -5.08300102907168        0.39380474490580
C            1.28707227766063       -4.89290636062710        0.18138533575963
S            0.01009216314639       -6.13238712130160       -0.04329673709417
O            0.22012672835200       -6.86907325615139       -1.26004091736052
O           -0.19651912480063       -6.89081973740234        1.16060005819632
H           -4.24202471614413        2.42582996994090       -5.28696545487238
H           -2.48118780904494        2.41530601150062       -5.23021753169329
H           -3.33862550969765        3.92079926050444       -5.54808073329398
H           -2.11820462891962        5.01576110461096       -3.57220354598401
H           -2.20704940865955        4.26669189993589       -1.97529998589839
H           -1.27132812890511        3.50363671271514       -3.25852245794555
H           -4.53881285213599        5.11700880609290       -3.79120992528885
H           -5.56533015821071        3.70902001724306       -3.54868637692785
H           -4.73087609531328        4.45366789896039       -2.17249024557923
H           -1.62441100855643        1.29940031515643       -3.48213427104199
H           -1.61238364068712       -0.83039637336004       -2.31820192170942
H           -5.41839073344536        2.31531121045739       -1.77088306761446
H           -7.15005033230868        1.18093701509876       -0.12140970427527
H           -9.57442662371536        1.49893067806692        2.75096516305927
H           -7.93016362593895        1.01724937555940        3.17958526903096
H           -8.22351169326034        1.94967751429586        1.71383709336819
H           -9.86970465369483       -0.84475295489524       -0.17719388648632
H          -10.73068805099824        0.38938908861568        0.74708998824584
H           -9.37464781260780        0.84272150667553       -0.28185577674026
H           -9.61929656638803       -2.11626325089304        2.00670907931565
H           -8.83477608413672       -1.33922400004029        3.39418101545540
H          -10.41450304876297       -0.79121163111231        2.84800102335913
H           -7.37940176896143       -2.47037177149642        2.10761182293869
H           -5.22556359756027       -3.18127405583431        1.25955136640155
H           -4.48988680842689       -4.09987426637733       -0.79165770068481
H           -3.01173556440467       -6.08646431608146       -0.55283741740398
H           -1.15155244763088       -1.51400651209030       -0.11370395175164
H            1.15046470320701       -1.51067670108137        0.11361338902855
H            1.61603772753731       -0.86385852857071        2.33001414749699
H            1.62715890777506        1.24263046722664        3.53590907613482
H            2.11527478237847        4.95769031221249        3.69839150350772
H            1.27004725430282        3.45123123986058        3.35427567915188
H            2.20338215471818        4.24202476556635        2.08620630456988
H            5.56431277385099        3.65539621137735        3.64232649639492
H            4.72662689277241        4.42819994258471        2.28389235764663
H            4.53697911794879        5.05700114221090        3.91661346038461
H            3.34029281604026        3.82465760512819        5.64955181066864
H            2.48371851096211        2.32516393744187        5.30258343300386
H            4.24462697884955        2.33611477151836        5.35688184575258
H            5.41431509018652        2.30024523607918        1.83439466627970
H            7.13646176183837        1.20825603341723        0.16513798901886
H            9.89444304832478       -1.33821231051292       -0.16852754155451
H           10.80580056463739       -0.96890842133574       -1.63549028543751
H            9.55447976749249       -2.20785219741295       -1.66278297468155
H            8.62383235240653        1.98749934717690       -1.35041194894052
H            9.41402249048880        1.15027925342636       -0.00175539825829
H           10.27361820225972        1.39960523160419       -1.51708128976819
H            9.63685361552415        0.24310597942361       -3.57333310727853
H            7.93601366473919        0.69212223900593       -3.41482324713790
H            8.38995034571197       -1.00096128346341       -3.59192116991743
H            7.37635165203154       -2.39061647394083       -2.14708210632126
H            5.22263435505092       -3.13396227948903       -1.30757353227318
H            4.50229487368283       -4.09347391062485        0.73397603939592
H            3.03259654287408       -6.08211801338508        0.46141689268798
