68
 energy: -116.832753484395 gnorm: 0.000067806620 xtb: 6.7.1 (edcfbbe)
C          -10.16235504201568       -1.15043043396717        1.53388629180510
C           -9.45151125235390       -2.16735965702288        2.16581984144941
C           -8.07379137933352       -2.23084631680051        2.09324579887718
C           -7.40611121435081       -1.25091837254598        1.37032627516274
C           -8.13979720295865       -0.22786893933656        0.73637727557489
C           -9.51900082730288       -0.16310246060986        0.80850123812437
O           -7.32157372131502        0.63862226904786        0.07477917111149
C           -6.05746686153201        0.18403289272723        0.26759590794074
C           -6.02832926487248       -0.97691950741234        1.06197398212649
C           -4.81680482421011       -1.57832640604215        1.40143588006023
C           -3.63349586154885       -1.05452026704782        0.92417864703154
C           -3.66972822304974        0.06930220799211        0.09801016474014
C           -4.87827731314428        0.73143244518296       -0.21508218077202
C           -4.54195804245633        1.89434113363930       -0.98317453346186
C           -5.30538760547025        2.90139256917724       -1.55741948529597
C           -4.65257566595440        3.90326956980783       -2.24746093108420
C           -3.26518360604747        3.90114360537489       -2.36856349018517
C           -2.48812619122604        2.90627575220704       -1.80345417111853
C           -3.13668392953431        1.90164760395743       -1.10375731574207
N           -2.61829796722148        0.77537320164017       -0.47098350241613
C           -1.29355941111233        0.38372816143540       -0.50928196912658
C           -0.90361344867484       -0.95978707061208       -0.58569551698044
N            0.36337753976176       -1.31184844812258       -0.57851520341868
C            1.29228278805400       -0.35386009542095       -0.52370437231776
N            2.61658404883437       -0.74815795781944       -0.50011997186229
C            3.12781294057587       -1.86609698738101       -1.15330603439138
C            2.47317369896062       -2.85378301640276       -1.87129709238192
C            3.24399592995439       -3.84330149857024       -2.45402361000092
C            4.63130006863433       -3.85660060853401       -2.33270630310179
C            5.29025309623825       -2.87142479687780       -1.62472943789037
C            4.53303960172120       -1.87003330507645       -1.03262239264387
C            4.87661755667697       -0.72362353999589       -0.24335363089245
C            6.05926366545699       -0.19467508567905        0.25113396932951
O            7.31983582608615       -0.65651089602230        0.05260950763520
C            8.14373721901114        0.18935300329584        0.73352219192719
C            9.52197154091004        0.10987308097904        0.80924936374481
C           10.17197552308297        1.07615374122643        1.55669921468655
C            9.46844794450365        2.08700658256039        2.20631143266532
C            8.09168736262311        2.16533739469488        2.12987860541299
C            7.41736251480496        1.20654118644369        1.38510969298465
C            6.03806897161775        0.95103550526660        1.06754546537375
C            4.83070321666254        1.55582565513344        1.41572385179663
C            3.64398177184293        1.05009575821005        0.92741193062276
C            3.67244583521448       -0.05905473163289        0.08135333043528
C            0.90201533292435        0.99084808276031       -0.57121832274947
N           -0.36508496040332        1.34272587072700       -0.55016889141703
H          -11.23897996590198       -1.13162168306561        1.61072326742387
H           -9.99133296842660       -2.91927483790070        2.72186331442635
H           -7.52489134121315       -3.02038983310965        2.58320508778210
H          -10.06313779346673        0.62687744892557        0.31624353765990
H           -4.80802211131992       -2.44646926305865        2.04158106632723
H           -2.69505585411897       -1.49902281114123        1.21482375818362
H           -6.37979740254436        2.88866516443481       -1.45965369021374
H           -5.22171605247055        4.70091352269170       -2.70111909773321
H           -2.78237860512840        4.69762178093548       -2.91513151819166
H           -1.41454560665263        2.91437983035642       -1.89301954439160
H           -1.61817958084125       -1.76199536515847       -0.69917540664426
H            1.39962446300622       -2.85367467466947       -1.96135836299621
H            2.75617818874339       -4.62669280144114       -3.01487024917277
H            5.19541193820801       -4.64971727284658       -2.80036281381653
H            6.36468644320387       -2.86725472975816       -1.52651381062642
H           10.06032222136280       -0.67545945870334        0.30337413275026
H           11.24804818616375        1.04523537125520        1.63728400112972
H           10.01329575648232        2.82224977489716        2.77948903029200
H            7.54855239395489        2.95016111189831        2.63364919492814
H            4.82764066551638        2.41216747272259        2.07163476741404
H            2.70876545765371        1.49673341427339        1.22502188132776
H            1.61589985430373        1.79528765777508       -0.67253418614338
