49
 energy: -73.236540607093 gnorm: 0.000179629706 xtb: 6.7.1 (edcfbbe)
O            2.54657642902090       -1.43131713151777       -0.39761327752988
B            2.84952540126519       -0.33526086198866        0.34873390160799
O            3.98936309242841        0.32907314148553        0.04466205309922
C            2.01276248944289        0.17613238569427        1.59512317149305
C            2.69678799725558        0.46978625804908        2.77431843877926
C            2.03511199654678        0.90416274269360        3.90897002260204
C            0.66055359729177        1.06690025331638        3.87828122768178
C           -0.03173978935471        0.79716359433265        2.71192644278711
C            0.61932043364861        0.34848072770855        1.56551613655458
Si          -0.38519189043018        0.04555129511191       -0.01586897236355
C            0.60132622145715        0.70385624656713       -1.49480146773298
C            1.28248127327227        1.91269087420761       -1.37616284075570
C            2.01534886229802        2.42788798228361       -2.43013776848117
C            2.08594183753407        1.73569957782985       -3.62786599511749
C            1.41972523701078        0.52886125668508       -3.76147948525094
C            0.68518554040907        0.02181435224418       -2.70421899370562
C           -0.77131771784000       -1.80989487745019       -0.18372598212006
C           -1.62284808486764       -2.26750796020012       -1.18719920834580
C           -1.90989617137933       -3.61374042678226       -1.32507555688040
C           -1.35443254168672       -4.53457537838243       -0.45126486541121
C           -0.52079243962223       -4.09819010101848        0.56477369960040
C           -0.23522679725335       -2.74954883830668        0.69520650367273
C           -2.04904227279778        0.95535177581017        0.08459060655885
C           -2.22115190589594        2.22304008897833       -0.46324346751539
C           -3.43329192240857        2.88427796203507       -0.37048040900133
C           -4.50207646099248        2.28569182733690        0.27583387318480
C           -4.35064052932277        1.02229847040332        0.82364544980293
C           -3.13596230190610        0.36741825017319        0.72674121211332
H            1.74842258591204       -1.91165343510541       -0.17246598143726
H            4.46160211533822       -0.03888530191662       -0.70514286849038
H            3.77105569288005        0.35149303674169        2.79161368179056
H            2.59027666450570        1.11975876929433        4.81103031376309
H            0.13188490796460        1.40915681220507        4.75690767784793
H           -1.10266067422104        0.94090736479642        2.68502389533533
H            1.24469482976890        2.45250494906516       -0.44040989437746
H            2.53754205297396        3.36751336661249       -2.31604884374989
H            2.66114755148662        2.13365171606337       -4.45189373098934
H            1.47541429116623       -0.01880618560912       -4.69196402424178
H            0.17662426897001       -0.92436260406853       -2.81668626145215
H           -2.07298607730943       -1.55312392801767       -1.86171731061546
H           -2.57094169853464       -3.94715804156322       -2.11251798519222
H           -1.57686970669333       -5.58655126767573       -0.55708903082489
H           -0.09511091119982       -4.80897989099911        1.25878878278303
H            0.39950076610484       -2.41687952254769        1.50608427245543
H           -1.39392445681001        2.69497484244623       -0.97374540284203
H           -3.54587481439274        3.86863602629960       -0.80306414771475
H           -5.44969301046215        2.80011049887890        0.34999377963678
H           -5.18160941917257        0.54781775152609        1.32682902633522
H           -3.02632853686029       -0.61996141167426        1.15276514013885
