$hessian                                                                        
        0.4651575732   0.0356943108   0.0097340986  -0.1520130174   0.0418755669
        0.0197597719  -0.0216759306   0.0096092117  -0.0018603944  -0.0220328111
        0.0043798154   0.0092938195   0.0016174113   0.0065868051   0.0025613660
       -0.0002618119  -0.0007861402  -0.0011111913  -0.0000970518   0.0002526217
        0.0000571075   0.0000625528   0.0001367382   0.0000198259  -0.0000254301
       -0.0002829615  -0.0000839401  -0.0001649763   0.0002655736   0.0001133856
       -0.0000145249  -0.0000097561  -0.0000042346  -0.0000050945   0.0000223685
        0.0000205348  -0.0000049073  -0.0000026626  -0.0000060037   0.0000083001
        0.0000040772   0.0000002906  -0.0000051337  -0.0000028663  -0.0000029460
        0.0000110683   0.0000004918  -0.0000011090   0.0000047209   0.0000025669
       -0.0000039576  -0.0000131756  -0.0000020932  -0.0000016237   0.0000142413
        0.0000189919   0.0000105206  -0.0000106507  -0.0000247455  -0.0000119814
        0.0000039844   0.0000079762   0.0000020025   0.0000034297  -0.0000065639
       -0.0000041822  -0.0000002412   0.0000028235   0.0000005890  -0.0000021348
       -0.0000010018  -0.0000003876   0.0000042993   0.0000052882   0.0000025609
       -0.0000011881   0.0000012617   0.0000011150   0.0000019179   0.0000007053
        0.0000016083   0.0000012379   0.0000002645   0.0000021923   0.0000013329
        0.0000007688  -0.0000014311  -0.0000028522   0.0000002093  -0.0000003210
        0.0000007100  -0.0000002815   0.0000021109   0.0000014802   0.0000005810
       -0.0000020841  -0.0000000765   0.0000002735  -0.0000027928  -0.0000003074
       -0.0000022747  -0.0000026536   0.0000006477   0.0000013639  -0.0000000762
        0.0000000847  -0.0000015558   0.0000021194  -0.0000007299  -0.0000016413
       -0.0000024095   0.0000002270   0.0000022627  -0.0000010668  -0.0000038561
       -0.0000019170   0.0000014331   0.0000011769  -0.0000051817  -0.0000003318
       -0.0000007785   0.0000031706   0.0000004464  -0.0000009210   0.0000023844
        0.0000007633   0.0000006175  -0.0000011928   0.0000004350   0.0000022289
       -0.0000036946   0.0000002790   0.0000004257   0.0000009849   0.0000050700
        0.0000107106   0.0000049055  -0.0000023207  -0.0000260043  -0.0000158825
       -0.0000183648  -0.0000011660  -0.0000227377  -0.0000043414  -0.0000292025
       -0.0001703799  -0.0000888207   0.0000192906  -0.0000422539  -0.0000028561
        0.0000205329   0.0000088847   0.0000126535  -0.0000119522  -0.0000064234
       -0.0000020451   0.0000039522   0.0000036291   0.0000010534  -0.0000037292
       -0.0000020958  -0.0000008203   0.0000128343  -0.0000003709  -0.0000003911
       -0.0000111705  -0.0000032084  -0.0000035454   0.0000097961   0.0000112209
        0.0000071665  -0.0000012260  -0.0000073598  -0.0000032770   0.0000049515
        0.0000100061   0.0000012067   0.0000164463   0.0000105491   0.0000022674
        0.0000050407  -0.0000170889  -0.0000090518   0.0000007991   0.0000135908
        0.0000029447   0.0001897188   0.0001225469   0.0000287248   0.0000958504
        0.0003037259   0.0002463701  -0.0005072682  -0.0013492245   0.0001541247
       -0.1065278157  -0.0658617983   0.0838100451  -0.1119671612   0.0073487947
       -0.1079384001  -0.0492094955  -0.0380192583  -0.0151611903   0.0004199572
        0.0002829020   0.0008435272  -0.0024889846   0.0007142097  -0.0030166896
        0.0008473198  -0.0003618430   0.0010238225   0.0006928102   0.0005714959
       -0.0007911477  -0.0024010357  -0.0017623405   0.0026144924   0.0002259555
        0.0010013696  -0.0002491893   0.0000383425   0.0000184917   0.0000017790
        0.0000418922  -0.0000436415  -0.0000308070  -0.0000024724  -0.0000000256
        0.0000019190   0.0000080460  -0.0000015316   0.0000032356  -0.0000016146
       -0.0000025140  -0.0000013412   0.0000024501  -0.0000008874   0.0000022313
        0.0000002581  -0.0000053202  -0.0000023390   0.0000017298   0.0000041012
        0.0000019973  -0.0000001065   0.0000006604  -0.0000004176  -0.0000018261
        0.0000005676   0.0000000992   0.0000005578   0.0000000227  -0.0000007971
       -0.0000004963   0.0000003031  -0.0000004743  -0.0000004450   0.0000001839
       -0.0000002286  -0.0000008723  -0.0000001128  -0.0000002653  -0.0000000864
       -0.0000004556   0.0000006594   0.0000001894   0.0000013984   0.0000004214
        0.0000001335  -0.0000000740   0.0000011732   0.0000001555  -0.0000005837
        0.0000001445   0.0000005313  -0.0000002561  -0.0000000571   0.0000004491
       -0.0000006804  -0.0000003526  -0.0000004169   0.0000006302   0.0000001233
       -0.0000000227   0.0000007864   0.0000004024  -0.0000000325   0.0000015189
        0.0000003276   0.0000016831   0.0000001486  -0.0000003280   0.0000004549
       -0.0000003072  -0.0000009171  -0.0000019690  -0.0000022917   0.0000037722
        0.0000143182   0.0000027539   0.0000090519  -0.0000154251   0.0000000770
       -0.0000112014  -0.0000011020   0.0000015011   0.0000005484   0.0000007632
       -0.0000044267  -0.0000017149  -0.0000016245  -0.0000033401  -0.0000016310
       -0.0000034647   0.0000005788  -0.0000001057  -0.0000038012  -0.0000072290
       -0.0000024794  -0.0000083916   0.0000016574  -0.0000008942  -0.0000121730
        0.0000083063   0.0000062890   0.0000094448  -0.0000290585   0.0000046610
       -0.0000231245   0.0000142601   0.0000034963   0.0000062459  -0.0004637045
        0.0000697440
        0.0356943108   0.5067148875  -0.0088532640   0.0488078510  -0.0846929522
       -0.0089907339   0.0066826213  -0.0017002510   0.0012848682  -0.0119538825
        0.0041853659   0.0041238312   0.0214856757  -0.0200967126  -0.0100332377
       -0.0002549161  -0.0024585379   0.0006066111  -0.0012389288  -0.0004840259
       -0.0012366578   0.0001571665   0.0003640745  -0.0004406657   0.0002022514
       -0.0004206470   0.0000009434  -0.0001635049   0.0001622004   0.0001020285
        0.0000197009  -0.0000016105  -0.0000078412   0.0000108149   0.0000030999
       -0.0000037805   0.0000069756   0.0000096405   0.0000101919  -0.0000074018
       -0.0000011726  -0.0000035711  -0.0000257396  -0.0000043471  -0.0000059298
        0.0000062989  -0.0000024005  -0.0000062935  -0.0000001116  -0.0000010059
       -0.0000028851  -0.0000143297  -0.0000002367   0.0000000041   0.0000209576
        0.0000084853   0.0000079056  -0.0000076591  -0.0000200804  -0.0000103037
       -0.0000035716   0.0000059513   0.0000011326   0.0000002397  -0.0000052058
       -0.0000029432   0.0000007871   0.0000016334   0.0000010412   0.0000018371
       -0.0000011868  -0.0000000682   0.0000047501   0.0000018188   0.0000013887
        0.0000014901  -0.0000000918  -0.0000004166  -0.0000021058  -0.0000000611
       -0.0000009090   0.0000008006  -0.0000002199   0.0000001386  -0.0000003768
       -0.0000002258  -0.0000010495   0.0000002764  -0.0000003397  -0.0000000505
        0.0000001188  -0.0000002592  -0.0000000269   0.0000005983  -0.0000001598
        0.0000006072   0.0000006290  -0.0000004028   0.0000003494   0.0000006151
       -0.0000000841  -0.0000003369   0.0000003493  -0.0000004184   0.0000004833
        0.0000002083   0.0000001775   0.0000004657  -0.0000001932  -0.0000007376
        0.0000005522  -0.0000000473  -0.0000002800  -0.0000006973   0.0000008225
       -0.0000032653   0.0000005845   0.0000006773   0.0000011257  -0.0000006172
        0.0000020788  -0.0000003752  -0.0000002412  -0.0000013065   0.0000020495
       -0.0000001550  -0.0000026091  -0.0000028015  -0.0000001242  -0.0000017201
        0.0000086669   0.0000023906   0.0000029533   0.0000011017  -0.0000000718
        0.0000025921   0.0000040156   0.0000078523   0.0000100358  -0.0000261043
       -0.0000251747  -0.0000103549   0.0000027120   0.0000528988  -0.0000585351
       -0.0001735803  -0.0001031582   0.0000431121  -0.0000539867  -0.0000027675
        0.0000212372   0.0000082192   0.0000120205  -0.0000136707  -0.0000048654
       -0.0000014433  -0.0000037111   0.0000074593   0.0000008014   0.0000031582
        0.0000012502   0.0000009393   0.0000146628  -0.0000006087  -0.0000000815
       -0.0000103448  -0.0000097437  -0.0000045116  -0.0000118120   0.0000015821
        0.0000024114   0.0000094407   0.0000057098   0.0000030667   0.0000092099
        0.0000049771   0.0000015842  -0.0000010625  -0.0000532819  -0.0000044081
        0.0000301282   0.0000525489   0.0000277884  -0.0000178300  -0.0000026080
       -0.0000041207   0.0001678485   0.0001323844   0.0000113087  -0.0003460402
        0.0007499435  -0.0003242959   0.0004742649  -0.0009385071  -0.0002258248
       -0.0661695134  -0.1098124151   0.0863142467   0.0073389966  -0.0450402359
        0.0130693577  -0.0374793841  -0.2455611852  -0.0780989649  -0.0007929083
        0.0005083322  -0.0002186215   0.0004701774   0.0003388271   0.0007376724
        0.0002578555   0.0000732521  -0.0004178554  -0.0005076610   0.0002969713
       -0.0001159443  -0.0026411776  -0.0012166144   0.0022467729  -0.0011813275
        0.0007621058   0.0007169487   0.0002635885  -0.0002173753   0.0001405269
       -0.0000742418  -0.0001878913  -0.0001022025   0.0000018157   0.0000003526
       -0.0000002417   0.0000046771  -0.0000049447  -0.0000073412  -0.0000043410
        0.0000015208  -0.0000018808   0.0000043529  -0.0000009480   0.0000026909
       -0.0000008263  -0.0000039555  -0.0000004214  -0.0000004862   0.0000009556
        0.0000018481   0.0000017529   0.0000005392   0.0000007284   0.0000011344
        0.0000001565   0.0000002885  -0.0000003384  -0.0000006053  -0.0000002989
        0.0000005154  -0.0000007116   0.0000006382   0.0000011031  -0.0000004575
        0.0000001219   0.0000009496  -0.0000002200  -0.0000003279   0.0000000469
       -0.0000001964  -0.0000003023  -0.0000002148   0.0000004256   0.0000001253
       -0.0000001770   0.0000001721  -0.0000001361   0.0000001887   0.0000003635
       -0.0000007888   0.0000005975   0.0000010925  -0.0000001699   0.0000002616
        0.0000000315   0.0000007904   0.0000019635  -0.0000009529  -0.0000004446
        0.0000013871  -0.0000010393  -0.0000005212  -0.0000000607  -0.0000005461
       -0.0000004808   0.0000010042   0.0000013645  -0.0000005782   0.0000051995
       -0.0000004933  -0.0000016088  -0.0000018939  -0.0000030388   0.0000009181
       -0.0000090744   0.0000020863   0.0000022993  -0.0000110865   0.0000361189
       -0.0000352699   0.0000022594   0.0000044780   0.0000007004  -0.0000015895
       -0.0000082242  -0.0000026523  -0.0000063166  -0.0000069092  -0.0000017626
       -0.0000079206  -0.0000013514  -0.0000017414  -0.0000073275  -0.0000016973
       -0.0000018809  -0.0000211019  -0.0000028643  -0.0000043088  -0.0000043538
        0.0000197389  -0.0000029085   0.0000202829  -0.0000318989  -0.0000039209
        0.0000461191  -0.0000002382   0.0000101077   0.0007493122  -0.0012195746
       -0.0001907382
        0.0097340986  -0.0088532640   0.5232580516   0.0230060200  -0.0092043987
       -0.0649564902  -0.0218642271   0.0101917544   0.0007135150   0.0204012699
       -0.0050687822  -0.0072174929   0.0089456019  -0.0104569638  -0.0038542265
       -0.0004268507  -0.0012292800   0.0000256973  -0.0005807022  -0.0002481055
       -0.0006142721   0.0000140213   0.0001771065  -0.0000899951   0.0001216829
       -0.0001182945   0.0000203240  -0.0000644859   0.0001059681   0.0000553356
        0.0000050992   0.0000015279   0.0000036803  -0.0000095138   0.0000089713
        0.0000088700   0.0000012970  -0.0000022704  -0.0000036785   0.0000067125
        0.0000023667   0.0000017895   0.0000002461  -0.0000010405  -0.0000000418
        0.0000040851   0.0000021791  -0.0000016588  -0.0000008559   0.0000009958
        0.0000006320   0.0000005830  -0.0000002579   0.0000010569  -0.0000004623
       -0.0000009951   0.0000026005   0.0000018480  -0.0000005915  -0.0000015528
       -0.0000012935  -0.0000029857   0.0000010683   0.0000006081   0.0000014571
        0.0000022278  -0.0000002742   0.0000015002   0.0000016567  -0.0000008724
       -0.0000033546  -0.0000012286   0.0000000980   0.0000006803  -0.0000005511
       -0.0000007888   0.0000011854  -0.0000000874  -0.0000016238  -0.0000000449
       -0.0000004684   0.0000001173  -0.0000000393  -0.0000002335  -0.0000006487
       -0.0000003011   0.0000008099   0.0000004575  -0.0000002110   0.0000005991
       -0.0000004195   0.0000000494  -0.0000003894  -0.0000003724  -0.0000000833
        0.0000005127  -0.0000001647   0.0000005977   0.0000015514   0.0000002185
        0.0000009753   0.0000015953  -0.0000002789  -0.0000008693  -0.0000003381
       -0.0000000594   0.0000006020  -0.0000010298   0.0000004085   0.0000010180
        0.0000013141  -0.0000004369  -0.0000020082   0.0000008687   0.0000005741
        0.0000011189  -0.0000002225   0.0000002740   0.0000006507   0.0000000248
       -0.0000002009  -0.0000010641  -0.0000001279  -0.0000001545  -0.0000001695
       -0.0000000784  -0.0000005118   0.0000001660   0.0000002532  -0.0000003182
        0.0000012815  -0.0000007716   0.0000001529  -0.0000006446   0.0000008524
        0.0000007350  -0.0000002494  -0.0000027139  -0.0000154306  -0.0000078086
       -0.0000091991  -0.0000134602  -0.0000046032   0.0000043646  -0.0000023081
       -0.0000752538  -0.0000384574  -0.0000152599  -0.0000128160  -0.0000032335
        0.0000094518   0.0000078195   0.0000029400  -0.0000001699  -0.0000033022
       -0.0000018337   0.0000068323  -0.0000038047  -0.0000013595  -0.0000094384
       -0.0000041876  -0.0000026406  -0.0000010200   0.0000046678  -0.0000007802
       -0.0000054208   0.0000017365  -0.0000009013   0.0000007286   0.0000063711
        0.0000038156   0.0000042121  -0.0000027754  -0.0000019314  -0.0000130134
        0.0000062068  -0.0000015499   0.0000283825  -0.0000212580  -0.0000203564
        0.0000031819   0.0000113648  -0.0000288225   0.0000110546   0.0000005881
        0.0000048387   0.0000795578   0.0000777741   0.0000307668  -0.0003181806
        0.0000706235  -0.0003025769   0.0009183161   0.0000554703  -0.0000947170
        0.0842177900   0.0862657023  -0.1552884101  -0.1084338502   0.0134068954
       -0.2132203306  -0.0147871100  -0.0781641328  -0.0746553150  -0.0002402840
        0.0006591311   0.0006929551  -0.0040215628   0.0010439722  -0.0037419466
       -0.0007585591   0.0001616329   0.0008655742   0.0008807626  -0.0004926886
        0.0004895052   0.0031617168   0.0019992620  -0.0025459092  -0.0003100010
       -0.0006992584   0.0003559652   0.0002206715   0.0000088259   0.0001807245
        0.0000137494  -0.0000971491  -0.0000527874   0.0000034022  -0.0000021848
       -0.0000014467   0.0000033121   0.0000005751   0.0000008754  -0.0000002517
       -0.0000031881  -0.0000013730   0.0000018284  -0.0000009878   0.0000000637
       -0.0000000002  -0.0000006527  -0.0000023200   0.0000013498   0.0000005954
       -0.0000009875  -0.0000003864  -0.0000002398   0.0000001441   0.0000000379
        0.0000004832   0.0000006439   0.0000002088  -0.0000002205  -0.0000001800
        0.0000002783  -0.0000002570  -0.0000001526   0.0000000035  -0.0000001408
        0.0000000831   0.0000002291   0.0000001178   0.0000000347  -0.0000002958
        0.0000002686  -0.0000002768  -0.0000002421  -0.0000003276  -0.0000003674
       -0.0000002144   0.0000006395   0.0000000104  -0.0000003032   0.0000006074
        0.0000003155  -0.0000004252   0.0000003456   0.0000000803  -0.0000000766
        0.0000007716   0.0000000711  -0.0000001002  -0.0000000674  -0.0000001285
       -0.0000000030  -0.0000000126  -0.0000003176   0.0000000223  -0.0000000851
       -0.0000003721  -0.0000001862  -0.0000000357  -0.0000005563  -0.0000005776
        0.0000003015   0.0000009820  -0.0000014473   0.0000007527   0.0000029579
        0.0000093354  -0.0000086572  -0.0000060582  -0.0000150749   0.0000075802
       -0.0000150094  -0.0000015888   0.0000012685   0.0000005569  -0.0000025937
       -0.0000001783   0.0000008462  -0.0000000427  -0.0000004147   0.0000010424
       -0.0000018932  -0.0000027060   0.0000003809  -0.0000037237   0.0000029000
        0.0000027323  -0.0000064896  -0.0000023727   0.0000026687  -0.0000290214
        0.0000053694   0.0000165460   0.0000237583  -0.0000377476   0.0000305409
        0.0000293522   0.0000121750   0.0000116349   0.0000897874   0.0005208357
       -0.0000192948
       -0.1520130174   0.0488078510   0.0230060200   0.4671711657   0.0135552971
       -0.0085668106  -0.0948371251   0.0025808309  -0.0535279514  -0.0948513025
       -0.0367467949   0.0394480439  -0.0618915684  -0.0223263743  -0.0052706581
        0.0034196042   0.0066626927   0.0022578999   0.0047054295  -0.0013333602
        0.0041106155   0.0002086862  -0.0004068343   0.0004734113  -0.0012167147
        0.0007063568  -0.0005555716   0.0001768277  -0.0000378181  -0.0000654399
        0.0000606986   0.0000218027   0.0000078731  -0.0000200839  -0.0000165529
       -0.0000123827   0.0000118875   0.0000036039   0.0000069121  -0.0000129378
       -0.0000071322  -0.0000043932   0.0000087960   0.0000001913  -0.0000023063
       -0.0000093437  -0.0000077845   0.0000030502  -0.0000028555  -0.0000051938
       -0.0000006190  -0.0000028491   0.0000031915  -0.0000017445   0.0000046346
       -0.0000508673  -0.0000131184   0.0000182597   0.0000354250   0.0000111567
       -0.0000048159  -0.0000049750   0.0000019817  -0.0000125567   0.0000032377
        0.0000046511   0.0000039269  -0.0000071619  -0.0000018689   0.0000007666
        0.0000105301   0.0000051391  -0.0000171432  -0.0000034940   0.0000035361
        0.0000021355  -0.0000023998  -0.0000033539  -0.0000038785  -0.0000014293
       -0.0000007014   0.0000018506  -0.0000019666   0.0000031100  -0.0000003172
       -0.0000001461  -0.0000033391  -0.0000038971  -0.0000004007  -0.0000011961
       -0.0000012142  -0.0000007046   0.0000032554   0.0000029335  -0.0000002766
       -0.0000001518   0.0000016915  -0.0000015071  -0.0000013426   0.0000002771
        0.0000011658  -0.0000036017   0.0000007986   0.0000050986   0.0000019313
        0.0000007987  -0.0000013315   0.0000041478   0.0000007027  -0.0000006446
       -0.0000005177   0.0000023042   0.0000037549  -0.0000006950   0.0000101536
       -0.0000015988   0.0000007584  -0.0000025492   0.0000003042   0.0000000227
       -0.0000004292  -0.0000004096  -0.0000005378  -0.0000020493   0.0000079561
       -0.0000010626   0.0000021575  -0.0000119977  -0.0000022483  -0.0000266640
        0.0000324282   0.0000035586   0.0000012106  -0.0000018655   0.0000015198
       -0.0000085405  -0.0000079582   0.0000036969   0.0000187878  -0.0000003925
        0.0000391729  -0.0000151843   0.0000350381   0.0000468176  -0.0000275986
        0.0002545037   0.0001437506  -0.0000901122  -0.0000310122  -0.0000013960
        0.0000100020   0.0000008144  -0.0000028352   0.0000074313  -0.0000095019
       -0.0000028807   0.0000080041  -0.0000023244  -0.0000011296  -0.0000054548
        0.0000058881   0.0000011566  -0.0000157296  -0.0000049167  -0.0000024047
        0.0000030058   0.0000188010   0.0000058663  -0.0000253533  -0.0000176652
       -0.0000126415   0.0000053063   0.0000146037   0.0000041064  -0.0000038074
       -0.0000061868  -0.0000012627   0.0000109533  -0.0000150608   0.0000057843
       -0.0000711289  -0.0000366964  -0.0000129747   0.0000782607  -0.0000279949
        0.0000015306  -0.0001636677  -0.0002561682  -0.0000953232   0.0031505750
       -0.0033946908   0.0037084992  -0.0040663542  -0.0142076985  -0.0045404366
       -0.0172017041   0.0051957731   0.0060991340  -0.0184438521   0.0090467585
        0.0001447385   0.0009846631   0.0015407233   0.0010962632  -0.0046212117
       -0.0015335180  -0.0080024592  -0.0186369076   0.0039763544  -0.0218062530
        0.0067703427  -0.0011348857   0.0110856950   0.0067397715   0.0082663328
       -0.0084771992  -0.0181445536  -0.0144939810   0.0179227774  -0.0035319266
       -0.0057031763   0.0028604521  -0.0018369366   0.0006561062  -0.0004756068
       -0.0000910924   0.0004925812   0.0002142796   0.0000066000  -0.0000033088
       -0.0000093647  -0.0000061496   0.0000004680  -0.0000043237   0.0000022437
        0.0000054976  -0.0000051341  -0.0000023283   0.0000034086  -0.0000022080
        0.0000078912   0.0000054746   0.0000008982   0.0000036082  -0.0000097654
       -0.0000062630   0.0000006137  -0.0000009058   0.0000001424   0.0000032533
        0.0000004181  -0.0000005491   0.0000007561   0.0000007958  -0.0000018798
       -0.0000000085  -0.0000002331   0.0000009930   0.0000021636   0.0000001056
        0.0000007824   0.0000013371   0.0000008111  -0.0000013216  -0.0000012077
        0.0000007925   0.0000000877  -0.0000008069  -0.0000007402   0.0000007116
       -0.0000014616  -0.0000013709  -0.0000017599  -0.0000011240   0.0000013924
       -0.0000008383  -0.0000017015  -0.0000006619   0.0000016045  -0.0000023816
       -0.0000019095  -0.0000005491   0.0000012477   0.0000001689  -0.0000004056
        0.0000019300  -0.0000023454  -0.0000006066  -0.0000008151  -0.0000031727
       -0.0000003271  -0.0000006140   0.0000013567  -0.0000001147  -0.0000005949
        0.0000030943   0.0000003387   0.0000015575   0.0000053955  -0.0000005289
       -0.0000364558  -0.0000127962  -0.0000396608   0.0000369474  -0.0000202270
       -0.0000214369  -0.0000029333   0.0000010017   0.0000003359  -0.0000019093
        0.0000060485   0.0000021850   0.0000019728   0.0000039109   0.0000019657
       -0.0000004195  -0.0000026834  -0.0000004091   0.0000077785   0.0000083321
        0.0000037273   0.0000100786   0.0000047988   0.0000020369  -0.0000338599
        0.0000274147   0.0000001265   0.0000624325  -0.0000035714   0.0000103640
       -0.0001063280  -0.0007152672  -0.0001562645  -0.0016216848   0.0006171255
       -0.0010382539
        0.0418755669  -0.0846929522  -0.0092043987   0.0135552971   0.4846498593
       -0.0087793069   0.0068700478  -0.0619339989   0.0136662565  -0.0360255488
       -0.1051698629   0.0441624267  -0.0204722043  -0.1601665019  -0.0414593648
        0.0008182778  -0.0099332956  -0.0112775042  -0.0013724132   0.0019336012
       -0.0012563092  -0.0003267674  -0.0010490354  -0.0006090286   0.0005302438
        0.0004057603   0.0004645414   0.0002029274  -0.0004713628  -0.0001678747
       -0.0000418955   0.0000071394  -0.0000099472   0.0000326507  -0.0000340742
       -0.0000220219   0.0000002870   0.0000193536   0.0000363383   0.0000059868
       -0.0000071026  -0.0000024808  -0.0000097214   0.0000051942   0.0000095450
       -0.0000132992   0.0000059254  -0.0000171871  -0.0000062911  -0.0000044241
        0.0000146946   0.0000514641   0.0000013695   0.0000056560  -0.0000560114
       -0.0000291134  -0.0000180483   0.0000189022   0.0000521113   0.0000260751
        0.0000098498  -0.0000173394   0.0000008938  -0.0000021182   0.0000061668
        0.0000101113  -0.0000014980  -0.0000045498   0.0000029705   0.0000037989
        0.0000049165   0.0000043044  -0.0000129365  -0.0000124932  -0.0000035504
       -0.0000004496  -0.0000041657  -0.0000001688   0.0000055770  -0.0000018314
        0.0000018648   0.0000006446  -0.0000024755  -0.0000020126   0.0000014950
       -0.0000027594   0.0000004331   0.0000011635  -0.0000019115   0.0000002388
        0.0000016446  -0.0000004665  -0.0000014357  -0.0000013617  -0.0000007213
       -0.0000019653  -0.0000017154   0.0000011484  -0.0000037605  -0.0000007592
        0.0000016029   0.0000015597  -0.0000006654   0.0000022992  -0.0000011660
       -0.0000001337   0.0000031287  -0.0000009824   0.0000011137   0.0000050000
        0.0000004199   0.0000002737   0.0000010941   0.0000040353  -0.0000009261
        0.0000054773  -0.0000031267   0.0000009579   0.0000009280  -0.0000006476
       -0.0000012539  -0.0000040682  -0.0000027250   0.0000046672  -0.0000063059
       -0.0000032427   0.0000051610   0.0000074366  -0.0000003382   0.0000086130
       -0.0000224598  -0.0000074366  -0.0000060015  -0.0000057741  -0.0000159319
       -0.0000207862  -0.0000103410  -0.0000012084   0.0000208182   0.0000012630
       -0.0000249732   0.0000658759   0.0000558918  -0.0000310709   0.0000496349
        0.0002274985   0.0000974698   0.0000238885   0.0000630739   0.0000166694
       -0.0000362525  -0.0000192499  -0.0000244977   0.0000226931   0.0000165984
        0.0000033617  -0.0000122870  -0.0000071120  -0.0000040777   0.0000162250
        0.0000041435   0.0000021128  -0.0000163375  -0.0000006160   0.0000009924
        0.0000220123   0.0000027771   0.0000067507  -0.0000130400  -0.0000228051
       -0.0000146896   0.0000026035   0.0000240834   0.0000111328   0.0000244117
       -0.0000170747   0.0000018640  -0.0000273776   0.0000013511   0.0000002848
        0.0000004380   0.0000636243   0.0000313263   0.0000056358  -0.0000057759
        0.0000035529  -0.0002689138  -0.0001114701  -0.0000113599  -0.0032131210
        0.0004524245   0.0019562166  -0.0088559456  -0.0264332712  -0.0020781704
       -0.0125832676   0.0059886305   0.0029536552   0.0043077948  -0.0020253720
        0.0008854237   0.0245455215  -0.0173878679  -0.0075079990  -0.0148467376
       -0.0004134508  -0.0229636039   0.0083652362  -0.0016395809   0.0109777923
        0.0075879860  -0.0027327835   0.0144641163  -0.0012000235  -0.0033250116
        0.0052280700   0.0047404031   0.0065159650  -0.0062573054  -0.0154634413
       -0.0221105600   0.0156878173   0.0000437220  -0.0000920331   0.0016486092
       -0.0000530280  -0.0000630847   0.0002146579   0.0000041430   0.0000197724
        0.0000153414  -0.0000151071   0.0000163185  -0.0000009393   0.0000016293
       -0.0000080272   0.0000174486  -0.0000028384  -0.0000023644  -0.0000036885
       -0.0000008309   0.0000039571   0.0000016425   0.0000019560  -0.0000054759
       -0.0000017334  -0.0000037555  -0.0000063984   0.0000001137  -0.0000028235
       -0.0000030412   0.0000006017  -0.0000000945  -0.0000025345   0.0000011423
        0.0000004735  -0.0000026204  -0.0000010057  -0.0000010134  -0.0000012835
       -0.0000009456  -0.0000013925   0.0000003163   0.0000007597   0.0000001631
        0.0000008369   0.0000008744   0.0000006064  -0.0000018810  -0.0000019784
        0.0000003301   0.0000019747  -0.0000008895  -0.0000002854   0.0000024990
        0.0000035613  -0.0000016569  -0.0000019272   0.0000039051  -0.0000004972
       -0.0000002151   0.0000003173  -0.0000022015   0.0000001652  -0.0000017635
       -0.0000009943   0.0000005744  -0.0000037400   0.0000014445  -0.0000025105
       -0.0000038711  -0.0000020802  -0.0000047838  -0.0000015770  -0.0000053217
        0.0000003134   0.0000065577   0.0000035977   0.0000030501  -0.0000062524
        0.0000385959  -0.0000067342   0.0000173086  -0.0000575963  -0.0000540637
        0.0000201749   0.0000022660  -0.0000056565  -0.0000043074  -0.0000025415
        0.0000034016   0.0000013033   0.0000019330  -0.0000002993   0.0000016025
        0.0000071035  -0.0000044232  -0.0000013418   0.0000101283   0.0000085173
        0.0000036095   0.0000119792  -0.0000097980   0.0000020643  -0.0000026675
       -0.0000217840  -0.0000053329  -0.0000219300  -0.0000703554  -0.0000064924
       -0.0001203411  -0.0006231047  -0.0003072262   0.0012726386   0.0002372531
       -0.0005585662
        0.0197597719  -0.0089907339  -0.0649564902  -0.0085668106  -0.0087793069
        0.4682407080  -0.0525716627   0.0071371134  -0.1444833353   0.0400626248
        0.0457340653  -0.1128793170  -0.0035845164  -0.0369676878  -0.0781954187
       -0.0025101539  -0.0234749693  -0.0119429145   0.0040675078  -0.0014419969
       -0.0025287662   0.0005148792  -0.0004688339  -0.0009966666  -0.0005463242
        0.0002395354  -0.0002287486   0.0000198598   0.0000504730   0.0000050741
        0.0000144980   0.0000126662  -0.0000066579  -0.0000021470  -0.0000059248
       -0.0000047245   0.0000086724   0.0000195274   0.0000210375  -0.0000089269
       -0.0000104935  -0.0000116777  -0.0000238636  -0.0000037316  -0.0000052899
       -0.0000044448  -0.0000076728   0.0000020815  -0.0000001429  -0.0000038888
        0.0000008120  -0.0000145851  -0.0000020482   0.0000034903   0.0000201203
        0.0000048110  -0.0000007642  -0.0000036935  -0.0000193725  -0.0000053360
       -0.0000020109   0.0000046007  -0.0000044316  -0.0000024697  -0.0000011595
       -0.0000036931   0.0000027947   0.0000017833  -0.0000000530   0.0000000003
       -0.0000042681  -0.0000020750   0.0000027399   0.0000023561   0.0000007313
        0.0000008454   0.0000002315  -0.0000016054  -0.0000018862   0.0000000892
       -0.0000014294  -0.0000015961  -0.0000010029   0.0000003019  -0.0000007195
       -0.0000012222   0.0000011631   0.0000012216  -0.0000005696  -0.0000001664
       -0.0000002070  -0.0000001414  -0.0000005737  -0.0000002038  -0.0000001461
        0.0000014759   0.0000022875  -0.0000012332   0.0000067034   0.0000005706
        0.0000007212  -0.0000002308  -0.0000006742  -0.0000013284  -0.0000000915
       -0.0000007999   0.0000008356  -0.0000001348  -0.0000011987  -0.0000015285
        0.0000031589  -0.0000007930  -0.0000017353  -0.0000013250   0.0000006229
       -0.0000019534  -0.0000005795   0.0000010088   0.0000011102  -0.0000016078
        0.0000029852  -0.0000015505  -0.0000015752  -0.0000035858   0.0000008552
       -0.0000014762  -0.0000021180  -0.0000028420  -0.0000025385  -0.0000036633
        0.0000085004   0.0000039776   0.0000042512   0.0000016838   0.0000006957
        0.0000009317   0.0000061153   0.0000121595   0.0000069392  -0.0000131012
       -0.0000128317  -0.0000146452   0.0000358534   0.0000510608  -0.0000424685
        0.0000579771   0.0000159825  -0.0000199866  -0.0000562016   0.0000006249
        0.0000146299  -0.0000007328   0.0000070148  -0.0000050442  -0.0000034195
       -0.0000017652   0.0000004865   0.0000054260  -0.0000009363   0.0000051249
        0.0000074238   0.0000020488   0.0000032133  -0.0000004684  -0.0000017294