 Entering Gaussian System
 *********************************************
 Gaussian 98:
 frequency output generated by the xtb code
 *********************************************
                         Standard orientation:
 --------------------------------------------------------------------
  Center     Atomic     Atomic              Coordinates (Angstroms)
  Number     Number      Type              X           Y           Z
 --------------------------------------------------------------------
    1          6             0       -5.941460   -6.848566    0.267083
    2          6             0       -6.793096   -5.800801   -0.456269
    3          6             0       -6.851934   -6.176548   -1.944585
    4          6             0       -8.206759   -5.836284    0.143709
    5          6             0       -6.231442   -4.393790   -0.320980
    6          6             0       -6.893360   -3.326030   -0.925186
    7          6             0       -6.423634   -2.032329   -0.833808
    8          6             0       -5.261795   -1.753691   -0.117312
    9          7             0       -4.791779   -0.436318   -0.001257
   10          6             0       -3.432665   -0.161869   -0.043380
   11          6             0       -2.565254   -0.936060   -0.820837
   12          6             0       -1.218863   -0.649982   -0.865485
   13          6             0       -0.688149    0.429487   -0.158391
   14          6             0        0.744225    0.737277   -0.219025
   15          6             0        1.668896   -0.270117   -0.078825
   16          6             0        3.048504    0.005021   -0.062718
   17          7             0        3.933618   -0.991340    0.080697
   18          6             0        5.217919   -0.679150    0.118819
   19          6             0        6.190835   -1.739603    0.269625
   20          6             0        5.748661   -3.065230    0.355102
   21          6             0        6.638287   -4.100299    0.498635
   22          6             0        8.008358   -3.811727    0.559683
   23          6             0        8.943608   -4.861406    0.708154
   24          7             0        9.703520   -5.712731    0.828538
   25          6             0        8.461661   -2.501540    0.475363
   26          6             0        7.567837   -1.438114    0.328909
   27          6             0        8.014016   -0.053216    0.235673
   28          6             0        9.363344    0.302579    0.295670
   29          6             0        9.758713    1.630760    0.200460
   30          6             0       11.133240    1.953651    0.265079
   31          7             0       12.248818    2.217525    0.317378
   32          6             0        8.810116    2.650256    0.040615
   33          6             0        7.480769    2.315357   -0.017717
   34          6             0        7.067180    0.980922    0.077802
   35          6             0        5.655826    0.673094    0.015816
   36          7             0        4.792082    1.664349   -0.135504
   37          6             0        3.490358    1.359722   -0.180521
   38          6             0        2.531654    2.377587   -0.356274
   39          6             0        1.192363    2.085177   -0.390729
   40          6             0        0.235365    3.165733   -0.671118
   41          6             0        0.276067    4.375660    0.018546
   42          6             0       -0.638811    5.365385   -0.298082
   43          6             0       -1.562825    5.111835   -1.300365
   44          7             0       -1.593691    3.978773   -1.984532
   45          6             0       -0.721562    3.038254   -1.680990
   46          6             0       -1.553059    1.190422    0.630292
   47          6             0       -2.896180    0.898937    0.694221
   48          6             0       -5.718192    0.605816    0.168243
   49          6             0       -5.541784    1.828950   -0.475517
   50          6             0       -6.456680    2.846204   -0.301045
   51          6             0       -7.584335    2.692021    0.504065
   52          6             0       -8.561644    3.847300    0.658505
   53          6             0       -7.823655    5.048535    1.268654
   54          6             0       -9.745390    3.501491    1.567082
   55          6             0       -9.114936    4.226237   -0.723524
   56          6             0       -7.753552    1.463168    1.132081
   57          6             0       -6.839189    0.437820    0.974447
   58          6             0       -4.593403   -2.809639    0.494446
   59          6             0       -5.070839   -4.102823    0.387226
   60          1             0       -6.387739   -7.832156    0.133716
   61          1             0       -5.892466   -6.644833    1.334453
   62          1             0       -4.932304   -6.880985   -0.137486
   63          1             0       -7.236847   -7.187683   -2.060104
   64          1             0       -7.498069   -5.501499   -2.499018
   65          1             0       -5.856935   -6.133913   -2.383667
   66          1             0       -8.617371   -6.841560    0.074520
   67          1             0       -8.178516   -5.546686    1.192533
   68          1             0       -8.876491   -5.158921   -0.378985
   69          1             0       -7.796919   -3.499642   -1.489804
   70          1             0       -6.956325   -1.226668   -1.318210
   71          1             0       -2.962146   -1.756198   -1.400435
   72          1             0       -0.569225   -1.245090   -1.490673
   73          1             0        1.354465   -1.294024    0.053684
   74          1             0        4.686435   -3.244924    0.304343
   75          1             0        6.300636   -5.123321    0.564505
   76          1             0        9.525131   -2.331354    0.525563
   77          1             0       10.130895   -0.444678    0.418081
   78          1             0        9.132529    3.677732   -0.032822
   79          1             0        6.719653    3.069937   -0.138444
   80          1             0        2.885033    3.388772   -0.492225
   81          1             0        1.002129    4.523965    0.805424
   82          1             0       -0.638642    6.309231    0.224435
   83          1             0       -2.309477    5.844132   -1.577907
   84          1             0       -0.775581    2.138334   -2.279785
   85          1             0       -1.159023    1.998140    1.229308
   86          1             0       -3.545345    1.488952    1.323885
   87          1             0       -4.684813    1.977421   -1.116468
   88          1             0       -6.282218    3.777985   -0.817368
   89          1             0       -7.007184    5.377139    0.631331
   90          1             0       -7.412484    4.783670    2.241035
   91          1             0       -8.510685    5.882000    1.400197
   92          1             0      -10.316708    2.667580    1.165395
   93          1             0      -10.410161    4.360233    1.637741
   94          1             0       -9.409831    3.254051    2.571726
   95          1             0       -8.322778    4.548398   -1.393737
   96          1             0       -9.832402    5.038800   -0.629068
   97          1             0       -9.617627    3.372850   -1.174714
   98          1             0       -8.604533    1.283971    1.768622
   99          1             0       -6.993868   -0.503858    1.481492
  100          1             0       -3.695825   -2.613606    1.063474
  101          1             0       -4.518319   -4.885043    0.881577
 --------------------------------------------------------------------
     1 basis functions        1 primitive gaussians
     1 alpha electrons        1 beta electrons
 
 Harmonic frequencies (cm**-1), IR intensities (km*mol⁻¹),
 Raman scattering activities (A**4/amu), Raman depolarization ratios,
 reduced masses (AMU), force constants (mDyne/A) and normal coordinates:
                      1                      2                      3
                        a                      a                      a 
 Frequencies --     9.2280                10.6935                14.3907
 Red. masses --    11.1272                11.1384                12.1771
 Frc consts  --     0.0000                 0.0000                 0.0000
 IR Inten    --     0.1174                 0.0571                 0.0077
 Raman Activ --     0.0000                 0.0000                 0.0000
 Depolar     --     0.0000                 0.0000                 0.0000
 Atom AN      X      Y      Z        X      Y      Z        X      Y      Z
   1   6    -0.09   0.01  -0.11    -0.22  -0.01  -0.03    -0.02   0.00   0.14
   2   6    -0.09   0.03  -0.08    -0.18   0.03  -0.04    -0.02  -0.01   0.12
   3   6    -0.11   0.06  -0.09    -0.18   0.04  -0.04    -0.04  -0.04   0.13
   4   6    -0.08   0.05  -0.06    -0.19   0.07  -0.05    -0.02   0.01   0.14
   5   6    -0.06   0.02  -0.06    -0.13   0.00  -0.02    -0.02  -0.01   0.09
   6   6    -0.05   0.04  -0.03    -0.09   0.03  -0.02    -0.02  -0.02   0.08
   7   6    -0.03   0.03  -0.02    -0.05   0.01  -0.01    -0.01  -0.02   0.05
   8   6    -0.01   0.00  -0.03    -0.04  -0.03   0.01    -0.01  -0.01   0.03
   9   7     0.01  -0.01  -0.02    -0.00  -0.05   0.03    -0.00  -0.01   0.00
  10   6     0.01  -0.02  -0.03     0.00  -0.08   0.06    -0.00  -0.01  -0.01
  11   6    -0.01  -0.03  -0.04     0.01  -0.09   0.07    -0.01  -0.02  -0.01
  12   6    -0.00  -0.03  -0.05     0.01  -0.10   0.08    -0.01  -0.02  -0.02
  13   6     0.01  -0.03  -0.07     0.01  -0.10   0.08    -0.00  -0.01  -0.04
  14   6     0.01  -0.03  -0.08     0.01  -0.08   0.07    -0.00  -0.01  -0.04
  15   6     0.01  -0.03  -0.05     0.02  -0.07   0.06     0.00  -0.01  -0.04
  16   6     0.01  -0.02  -0.05     0.02  -0.04   0.04     0.00  -0.01  -0.04
  17   7     0.02  -0.01  -0.02     0.05  -0.03   0.03     0.00  -0.01  -0.05
  18   6     0.01   0.00   0.00     0.04  -0.00   0.02     0.00  -0.00  -0.03
  19   6     0.02   0.01   0.04     0.06   0.02   0.00     0.01  -0.00  -0.07
  20   6     0.03   0.01   0.05     0.09   0.01   0.01     0.01  -0.01  -0.14
  21   6     0.03   0.02   0.08     0.11   0.03  -0.00     0.02  -0.01  -0.20
  22   6     0.03   0.03   0.10     0.11   0.06  -0.02     0.02  -0.01  -0.19
  23   6     0.03   0.04   0.14     0.13   0.08  -0.03     0.03  -0.01  -0.27
  24   7     0.04   0.05   0.18     0.16   0.10  -0.05     0.04  -0.02  -0.37
  25   6     0.02   0.03   0.09     0.08   0.07  -0.03     0.01  -0.00  -0.11
  26   6     0.01   0.02   0.06     0.06   0.05  -0.02     0.00   0.00  -0.04
  27   6     0.01   0.03   0.04     0.03   0.06  -0.02    -0.00   0.01   0.06
  28   6     0.00   0.04   0.07     0.02   0.08  -0.05    -0.01   0.02   0.14
  29   6    -0.01   0.04   0.06    -0.01   0.09  -0.05    -0.02   0.03   0.22
  30   6    -0.01   0.05   0.08    -0.01   0.12  -0.07    -0.03   0.04   0.31
  31   7    -0.02   0.07   0.11    -0.02   0.15  -0.10    -0.03   0.05   0.42
  32   6    -0.01   0.03   0.02    -0.03   0.07  -0.04    -0.02   0.03   0.22
  33   6    -0.01   0.02   0.00    -0.02   0.04  -0.02    -0.02   0.02   0.15
  34   6     0.00   0.02   0.01     0.00   0.04  -0.01    -0.01   0.01   0.07
  35   6     0.00   0.00  -0.01     0.01   0.01   0.01    -0.00   0.00   0.01
  36   7    -0.00  -0.01  -0.06    -0.01  -0.01   0.02    -0.01   0.00   0.01
  37   6     0.00  -0.02  -0.07    -0.01  -0.03   0.04    -0.00  -0.00  -0.02
  38   6    -0.00  -0.03  -0.11    -0.03  -0.05   0.05    -0.00  -0.01  -0.03
  39   6     0.00  -0.04  -0.12    -0.02  -0.08   0.07    -0.00  -0.01  -0.05
  40   6    -0.01  -0.05  -0.15    -0.04  -0.09   0.07    -0.00  -0.02  -0.06
  41   6    -0.02  -0.03  -0.19    -0.07  -0.10   0.08    -0.01  -0.01  -0.08
  42   6    -0.03  -0.05  -0.23    -0.09  -0.11   0.09    -0.02  -0.02  -0.09
  43   6    -0.02  -0.09  -0.22    -0.08  -0.12   0.09    -0.01  -0.03  -0.10
  44   7    -0.01  -0.12  -0.20    -0.06  -0.13   0.08     0.00  -0.04  -0.09
  45   6     0.00  -0.09  -0.15    -0.04  -0.10   0.07     0.00  -0.03  -0.07
  46   6     0.02  -0.02  -0.07     0.01  -0.10   0.08     0.01  -0.00  -0.04
  47   6     0.02  -0.01  -0.05     0.01  -0.09   0.07     0.01  -0.00  -0.03
  48   6     0.02  -0.00   0.04     0.02  -0.02  -0.00     0.01   0.00  -0.01
  49   6    -0.01   0.00   0.05     0.07  -0.03  -0.02     0.01  -0.01  -0.03
  50   6     0.01   0.01   0.10     0.10   0.00  -0.04     0.02  -0.00  -0.04
  51   6     0.04  -0.00   0.15     0.09   0.05  -0.06     0.02   0.02  -0.02
  52   6     0.06   0.00   0.22     0.12   0.08  -0.09     0.03   0.03  -0.03
  53   6     0.09  -0.01   0.21     0.15   0.07  -0.09     0.05   0.03  -0.05
  54   6     0.10  -0.01   0.26     0.09   0.13  -0.11     0.04   0.05  -0.02
  55   6    -0.00   0.03   0.25     0.16   0.09  -0.11     0.02   0.01  -0.03
  56   6     0.06  -0.01   0.14     0.03   0.06  -0.05     0.02   0.03  -0.00
  57   6     0.05  -0.01   0.08     0.00   0.03  -0.02     0.01   0.02   0.00
  58   6    -0.02  -0.02  -0.06    -0.08  -0.06   0.00    -0.00   0.00   0.04
  59   6    -0.05  -0.01  -0.08    -0.13  -0.04  -0.01    -0.01   0.00   0.07
  60   1    -0.03   0.00  -0.03    -0.07   0.00  -0.01    -0.01   0.00   0.05
  61   1    -0.02  -0.00  -0.03    -0.07  -0.00  -0.01    -0.00   0.01   0.04
  62   1    -0.03  -0.00  -0.04    -0.06  -0.01  -0.01    -0.01  -0.00   0.04
  63   1    -0.04   0.02  -0.03    -0.06   0.01  -0.01    -0.01  -0.01   0.05
  64   1    -0.03   0.02  -0.02    -0.04   0.02  -0.01    -0.01  -0.01   0.04
  65   1    -0.03   0.01  -0.03    -0.05   0.00  -0.01    -0.01  -0.01   0.04
  66   1    -0.03   0.02  -0.02    -0.06   0.03  -0.02    -0.01   0.00   0.05
  67   1    -0.02   0.01  -0.02    -0.05   0.02  -0.01    -0.00   0.01   0.04
  68   1    -0.02   0.02  -0.01    -0.05   0.03  -0.01    -0.01   0.00   0.04
  69   1    -0.02   0.02  -0.01    -0.03   0.02  -0.01    -0.01  -0.01   0.03
  70   1    -0.01   0.01   0.00    -0.00   0.01  -0.00    -0.00  -0.01   0.01
  71   1    -0.00  -0.01  -0.01     0.00  -0.02   0.02    -0.00  -0.01   0.00
  72   1    -0.00  -0.01  -0.02     0.00  -0.03   0.02    -0.00  -0.01  -0.00
  73   1     0.00  -0.01  -0.01     0.01  -0.02   0.02     0.00  -0.00  -0.01
  74   1     0.01   0.00   0.01     0.03  -0.00   0.01     0.00  -0.00  -0.05
  75   1     0.01   0.01   0.03     0.04   0.01   0.00     0.01  -0.01  -0.08
  76   1     0.01   0.01   0.03     0.02   0.03  -0.01     0.00   0.00  -0.03
  77   1     0.00   0.01   0.03     0.01   0.03  -0.02    -0.00   0.01   0.04
  78   1    -0.01   0.01   0.01    -0.02   0.02  -0.01    -0.01   0.01   0.08
  79   1    -0.00   0.00  -0.01    -0.01   0.01  -0.00    -0.00   0.01   0.04
  80   1    -0.00  -0.01  -0.04    -0.01  -0.01   0.01    -0.00  -0.00  -0.01
  81   1    -0.01   0.00  -0.06    -0.02  -0.02   0.02    -0.01   0.00  -0.02
  82   1    -0.01  -0.01  -0.08    -0.03  -0.03   0.03    -0.01  -0.00  -0.03
  83   1    -0.01  -0.03  -0.07    -0.03  -0.04   0.03    -0.00  -0.01  -0.03
  84   1     0.00  -0.03  -0.04    -0.01  -0.03   0.02     0.00  -0.01  -0.02
  85   1     0.01  -0.00  -0.02     0.00  -0.03   0.03     0.00   0.00  -0.01
  86   1     0.01  -0.00  -0.01     0.00  -0.03   0.02     0.00   0.00  -0.01
  87   1    -0.01   0.00   0.00     0.03  -0.02  -0.00     0.00  -0.01  -0.01
  88   1    -0.00   0.00   0.03     0.04  -0.00  -0.02     0.00  -0.00  -0.02
  89   1     0.02  -0.00   0.05     0.05   0.01  -0.02     0.01   0.00  -0.02
  90   1     0.04  -0.01   0.05     0.04   0.02  -0.02     0.01   0.01  -0.02
  91   1     0.03  -0.00   0.07     0.05   0.03  -0.03     0.02   0.01  -0.02
  92   1     0.02   0.00   0.08     0.02   0.04  -0.03     0.01   0.01  -0.00
  93   1     0.03  -0.00   0.09     0.04   0.05  -0.04     0.01   0.02  -0.01
  94   1     0.04  -0.01   0.07     0.02   0.04  -0.03     0.01   0.02  -0.00
  95   1    -0.01   0.01   0.06     0.05   0.02  -0.03     0.01   0.00  -0.01
  96   1     0.00   0.01   0.09     0.05   0.03  -0.04     0.01   0.01  -0.01
  97   1    -0.01   0.01   0.07     0.04   0.03  -0.03     0.00   0.00  -0.01
  98   1     0.03  -0.01   0.05     0.01   0.03  -0.02     0.01   0.01   0.00
  99   1     0.02  -0.01   0.02    -0.01   0.01  -0.00     0.00   0.01   0.01
 100   1    -0.00  -0.01  -0.02    -0.02  -0.03   0.00     0.00   0.00   0.01
 101   1    -0.01  -0.01  -0.03    -0.05  -0.02  -0.00    -0.00   0.00   0.02
                      4                      5                      6
                        a                      a                      a 
 Frequencies --    20.3857                23.6261                27.0037
 Red. masses --    11.1108                10.3376                 9.0137
 Frc consts  --     0.0000                 0.0000                 0.0000
 IR Inten    --     0.3062                 0.4525                 0.4740
 Raman Activ --     0.0000                 0.0000                 0.0000
 Depolar     --     0.0000                 0.0000                 0.0000
 Atom AN      X      Y      Z        X      Y      Z        X      Y      Z
   1   6     0.05  -0.04   0.08     0.29  -0.06  -0.15    -0.07   0.06   0.22
   2   6     0.00  -0.07   0.10     0.21  -0.08  -0.08     0.01   0.02   0.06
   3   6    -0.08  -0.11   0.11     0.24   0.01  -0.11     0.16  -0.08   0.08
   4   6     0.04  -0.06   0.18     0.21  -0.23  -0.09    -0.05   0.07  -0.08
   5   6     0.00  -0.06   0.03     0.11  -0.05  -0.00     0.01   0.02   0.02
   6   6    -0.04  -0.08   0.04     0.05  -0.06   0.04     0.06  -0.01  -0.08
   7   6    -0.04  -0.07  -0.01    -0.02  -0.04   0.08     0.05  -0.00  -0.10
   8   6    -0.00  -0.05  -0.08    -0.03  -0.00   0.08     0.00   0.03  -0.03
   9   7    -0.01  -0.05  -0.13    -0.05   0.00   0.07    -0.01   0.04  -0.04
  10   6    -0.01  -0.04  -0.13    -0.04  -0.00   0.06    -0.01   0.02  -0.02
  11   6    -0.02   0.00  -0.17    -0.05   0.00   0.05    -0.02   0.01  -0.03
  12   6    -0.02   0.01  -0.17    -0.05  -0.01   0.04    -0.01  -0.01  -0.03
  13   6    -0.02  -0.01  -0.13    -0.04  -0.01   0.05     0.00  -0.02  -0.02
  14   6    -0.02  -0.00  -0.12    -0.05  -0.01   0.03     0.00  -0.03  -0.03
  15   6    -0.02  -0.01  -0.17    -0.05  -0.01   0.05     0.01  -0.03  -0.04
  16   6    -0.02  -0.00  -0.13    -0.05  -0.01   0.03     0.01  -0.03  -0.05
  17   7    -0.02  -0.00  -0.15    -0.05  -0.01   0.04     0.01  -0.02  -0.05
  18   6    -0.02   0.00  -0.09    -0.05  -0.01   0.02     0.01  -0.02  -0.04
  19   6    -0.02   0.00  -0.05    -0.04  -0.01   0.02     0.02  -0.01  -0.03
  20   6    -0.02   0.00  -0.06    -0.04  -0.01   0.02     0.02  -0.01  -0.03
  21   6    -0.03   0.01   0.00    -0.04  -0.01   0.01     0.03  -0.01  -0.01
  22   6    -0.03   0.01   0.07    -0.04  -0.01  -0.01     0.02   0.00   0.01
  23   6    -0.04   0.02   0.15    -0.04  -0.01  -0.03     0.03   0.01   0.04
  24   7    -0.05   0.03   0.23    -0.04  -0.01  -0.05     0.04   0.02   0.07
  25   6    -0.03   0.01   0.07    -0.04  -0.01  -0.01     0.02   0.01   0.01
  26   6    -0.03   0.01   0.00    -0.04  -0.01   0.00     0.01  -0.00  -0.01
  27   6    -0.03   0.01   0.00    -0.05  -0.01   0.00     0.01   0.00  -0.01
  28   6    -0.03   0.01   0.02    -0.05  -0.00  -0.01     0.00   0.01   0.00
  29   6    -0.03   0.01   0.03    -0.05  -0.00  -0.01    -0.00   0.01   0.01
  30   6    -0.03   0.01   0.05    -0.05  -0.00  -0.02    -0.01   0.02   0.03
  31   7    -0.03   0.02   0.07    -0.05  -0.00  -0.02    -0.01   0.03   0.05
  32   6    -0.03   0.01   0.01    -0.05  -0.01  -0.01    -0.01   0.00  -0.01
  33   6    -0.03   0.01  -0.01    -0.05  -0.01  -0.00    -0.01  -0.00  -0.03
  34   6    -0.03   0.01  -0.02    -0.05  -0.01   0.00     0.00  -0.01  -0.03
  35   6    -0.02   0.00  -0.05    -0.05  -0.01   0.01     0.00  -0.01  -0.04
  36   7    -0.03   0.01  -0.04    -0.05  -0.01   0.00     0.00  -0.02  -0.04
  37   6    -0.02   0.00  -0.06    -0.05  -0.01   0.01     0.00  -0.02  -0.04
  38   6    -0.02   0.01  -0.02    -0.05  -0.01  -0.01    -0.00  -0.02  -0.03
  39   6    -0.02   0.01  -0.03    -0.05  -0.02  -0.00     0.00  -0.03  -0.02
  40   6    -0.02   0.03   0.05    -0.06  -0.03  -0.03    -0.01  -0.03  -0.01
  41   6    -0.01  -0.02   0.15    -0.08  -0.02  -0.06    -0.01  -0.04   0.00
  42   6    -0.02   0.00   0.23    -0.09  -0.04  -0.09    -0.01  -0.04   0.02
  43   6    -0.03   0.08   0.23    -0.09  -0.08  -0.08    -0.02  -0.03   0.02
  44   7    -0.05   0.14   0.15    -0.07  -0.10  -0.06    -0.02  -0.02   0.01
  45   6    -0.04   0.11   0.06    -0.05  -0.07  -0.03    -0.01  -0.02  -0.01
  46   6    -0.01  -0.05  -0.09    -0.03  -0.01   0.06     0.02  -0.03   0.00
  47   6    -0.01  -0.06  -0.09    -0.03  -0.01   0.07     0.01  -0.01   0.00
  48   6     0.00  -0.03  -0.10    -0.03   0.02   0.03    -0.01   0.02  -0.03
  49   6     0.01  -0.04  -0.11     0.03   0.01   0.02     0.04   0.07   0.08
  50   6     0.05  -0.01  -0.06     0.07   0.05   0.01     0.03   0.07   0.10
  51   6     0.08   0.02  -0.02     0.05   0.10  -0.01    -0.04   0.00  -0.01
  52   6     0.14   0.06   0.04     0.12   0.16   0.00    -0.03   0.01   0.04
  53   6     0.22   0.02   0.02     0.19   0.10   0.05    -0.08  -0.14   0.40
  54   6     0.17   0.10   0.10     0.08   0.21  -0.03    -0.20  -0.13  -0.23
  55   6     0.09   0.10   0.08     0.17   0.23   0.00     0.22   0.30   0.02
  56   6     0.06   0.02  -0.02    -0.01   0.11  -0.02    -0.09  -0.05  -0.12
  57   6     0.03  -0.01  -0.06    -0.06   0.07  -0.00    -0.08  -0.03  -0.13
  58   6     0.04  -0.03  -0.10     0.01   0.01   0.07    -0.03   0.05   0.05
  59   6     0.04  -0.04  -0.05     0.08  -0.01   0.03    -0.03   0.05   0.07
  60   1     0.01  -0.01   0.04     0.11  -0.03  -0.06    -0.02   0.02   0.07
  61   1     0.03  -0.00   0.02     0.08  -0.04  -0.04    -0.05   0.04   0.06
  62   1     0.01  -0.01   0.01     0.08   0.01  -0.04    -0.01   0.00   0.09
  63   1    -0.02  -0.03   0.05     0.09  -0.01  -0.05     0.04  -0.02   0.03
  64   1    -0.03  -0.04   0.04     0.05  -0.00  -0.02     0.07  -0.03  -0.01
  65   1    -0.03  -0.03   0.02     0.07   0.03  -0.03     0.06  -0.04   0.05
  66   1     0.01  -0.02   0.07     0.08  -0.07  -0.05    -0.01   0.02  -0.01
  67   1     0.03  -0.01   0.05     0.05  -0.09  -0.02    -0.04   0.04  -0.03
  68   1     0.00  -0.02   0.06     0.05  -0.07  -0.01     0.00   0.01  -0.06
  69   1    -0.02  -0.03   0.03     0.02  -0.03   0.01     0.03  -0.01  -0.04
  70   1    -0.02  -0.02   0.00    -0.02  -0.02   0.03     0.02  -0.01  -0.05
  71   1    -0.00   0.01  -0.06    -0.02   0.00   0.01    -0.01   0.01  -0.01
  72   1    -0.01   0.01  -0.06    -0.02  -0.00   0.01    -0.01  -0.00  -0.01
  73   1    -0.00  -0.00  -0.07    -0.01  -0.00   0.02     0.00  -0.01  -0.01
  74   1    -0.01  -0.00  -0.03    -0.01  -0.00   0.01     0.01  -0.01  -0.01
  75   1    -0.01   0.00   0.00    -0.01  -0.00   0.00     0.01  -0.00  -0.00
  76   1    -0.01   0.01   0.04    -0.01  -0.00  -0.01     0.00   0.00   0.01
  77   1    -0.01   0.00   0.01    -0.01  -0.00  -0.00     0.00   0.00   0.00
  78   1    -0.01   0.00   0.00    -0.01  -0.00  -0.00    -0.00   0.00  -0.00
  79   1    -0.01   0.00  -0.01    -0.01  -0.00  -0.00    -0.00  -0.00  -0.01
  80   1    -0.01   0.01   0.01    -0.01  -0.00  -0.01    -0.00  -0.01  -0.01
  81   1    -0.00  -0.02   0.04    -0.02   0.00  -0.02    -0.00  -0.01   0.00
  82   1    -0.00  -0.01   0.09    -0.03  -0.01  -0.03    -0.00  -0.01   0.01
  83   1    -0.01   0.03   0.09    -0.03  -0.03  -0.03    -0.01  -0.01   0.01
  84   1    -0.01   0.04  -0.00    -0.01  -0.03  -0.00    -0.00  -0.00  -0.00
  85   1    -0.00  -0.02  -0.01    -0.01  -0.00   0.02     0.01  -0.01   0.01
  86   1    -0.00  -0.03  -0.02    -0.01  -0.00   0.02     0.01  -0.00   0.00
  87   1    -0.00  -0.02  -0.04     0.01  -0.01   0.01     0.02   0.04   0.05
  88   1     0.02  -0.00  -0.02     0.03   0.01   0.00     0.02   0.03   0.06
  89   1     0.06  -0.00  -0.00     0.07   0.02   0.02     0.02  -0.02   0.17
  90   1     0.07  -0.00   0.00     0.04   0.01   0.01    -0.08  -0.10   0.12
  91   1     0.08   0.01   0.02     0.07   0.04   0.01    -0.02  -0.04   0.12
  92   1     0.03   0.04   0.03     0.01   0.07  -0.02    -0.04  -0.02  -0.14
  93   1     0.06   0.04   0.04     0.04   0.07  -0.01    -0.06  -0.04  -0.07
  94   1     0.06   0.02   0.02     0.01   0.05  -0.01    -0.11  -0.08  -0.06
  95   1     0.02   0.02   0.01     0.06   0.06   0.01     0.10   0.13   0.06
  96   1     0.03   0.04   0.04     0.06   0.08   0.00     0.06   0.08   0.02
  97   1     0.01   0.04   0.02     0.04   0.08  -0.01     0.08   0.12  -0.07
  98   1     0.02   0.01   0.00    -0.01   0.04  -0.01    -0.04  -0.03  -0.06
  99   1     0.00  -0.00  -0.02    -0.03   0.02  -0.00    -0.04  -0.02  -0.06
 100   1     0.02  -0.00  -0.04    -0.00   0.01   0.02    -0.02   0.02   0.03
 101   1     0.02  -0.01  -0.02     0.03   0.00   0.00    -0.02   0.02   0.04
                      7                      8                      9
                        a                      a                      a 
 Frequencies --    27.6821                33.8664                37.8275
 Red. masses --    11.6682                 8.7638                10.9639
 Frc consts  --     0.0000                 0.0000                 0.0000
 IR Inten    --     1.5109                 0.3688                 0.3075
 Raman Activ --     0.0000                 0.0000                 0.0000
 Depolar     --     0.0000                 0.0000                 0.0000
 Atom AN      X      Y      Z        X      Y      Z        X      Y      Z
   1   6     0.04  -0.00  -0.15     0.16  -0.05  -0.29     0.16   0.10   0.02
   2   6     0.02   0.03  -0.07    -0.03   0.01   0.02     0.10   0.06   0.04
   3   6     0.01   0.13  -0.09    -0.42   0.11   0.01     0.05   0.04   0.05
   4   6     0.02  -0.03  -0.06     0.13  -0.03   0.38     0.12   0.02   0.10
   5   6     0.00   0.03   0.02    -0.01   0.00  -0.01     0.05   0.08   0.00
   6   6    -0.00   0.06   0.07    -0.06   0.02   0.09     0.01   0.05  -0.01
   7   6    -0.01   0.05   0.13    -0.05   0.02   0.08    -0.02   0.07  -0.04
   8   6    -0.01   0.02   0.14     0.01   0.00  -0.00    -0.02   0.11  -0.06
   9   7     0.01   0.02   0.19     0.01  -0.00   0.01    -0.04   0.13  -0.12
  10   6     0.01  -0.00   0.12     0.01   0.00  -0.01    -0.03   0.09  -0.10
  11   6    -0.03  -0.00   0.08     0.00   0.03  -0.04    -0.06   0.08  -0.13
  12   6    -0.03  -0.01   0.02     0.00   0.03  -0.04    -0.04   0.01  -0.10
  13   6     0.01  -0.02  -0.00     0.01   0.01  -0.01     0.01  -0.06  -0.04
  14   6     0.01  -0.03  -0.07     0.01   0.01  -0.00     0.02  -0.09  -0.01
  15   6     0.01  -0.03  -0.12     0.01   0.00   0.00     0.02  -0.09  -0.03
  16   6     0.02  -0.03  -0.16     0.01   0.01   0.02     0.02  -0.08  -0.00
  17   7     0.02  -0.03  -0.18     0.01   0.01   0.03     0.04  -0.08  -0.02
  18   6     0.02  -0.03  -0.16     0.01   0.01   0.03     0.03  -0.06   0.01
  19   6     0.02  -0.02  -0.12     0.00   0.00   0.03     0.05  -0.05   0.00
  20   6     0.02  -0.02  -0.12     0.00   0.00   0.02     0.08  -0.06  -0.01
  21   6     0.02  -0.01  -0.04     0.00   0.00   0.01     0.10  -0.04  -0.01
  22   6     0.02   0.00   0.04     0.00   0.00   0.00     0.09  -0.01   0.00
  23   6     0.02   0.01   0.14     0.01  -0.00  -0.02     0.11   0.01   0.01
  24   7     0.01   0.03   0.26     0.01  -0.00  -0.03     0.15   0.04   0.02
  25   6     0.01   0.00   0.04     0.01   0.00   0.00     0.06  -0.00   0.01
  26   6     0.01  -0.01  -0.04     0.01   0.00   0.02     0.04  -0.02   0.01
  27   6     0.01  -0.01  -0.04     0.01   0.00   0.02     0.03  -0.02   0.01
  28   6     0.00   0.01   0.04     0.01  -0.00  -0.00     0.02   0.01  -0.01
  29   6    -0.00   0.01   0.05     0.01  -0.00  -0.00    -0.00   0.01  -0.00
  30   6    -0.01   0.02   0.16     0.01  -0.01  -0.03    -0.01   0.04  -0.03
  31   7    -0.02   0.04   0.28     0.02  -0.01  -0.06    -0.01   0.07  -0.07
  32   6    -0.00  -0.00  -0.03     0.01   0.00   0.02    -0.02   0.00   0.03
  33   6     0.00  -0.02  -0.11     0.01   0.00   0.04    -0.02  -0.02   0.05
  34   6     0.01  -0.02  -0.11     0.01   0.00   0.03     0.01  -0.03   0.04
  35   6     0.01  -0.03  -0.16     0.01   0.01   0.04     0.01  -0.05   0.03
  36   7     0.01  -0.03  -0.19     0.01   0.01   0.05     0.00  -0.07   0.06
  37   6     0.01  -0.03  -0.17     0.01   0.01   0.03     0.01  -0.08   0.03
  38   6     0.01  -0.03  -0.14     0.01   0.01   0.03     0.00  -0.08   0.04
  39   6     0.01  -0.03  -0.08     0.01   0.01   0.01     0.01  -0.09   0.02
  40   6    -0.00  -0.02  -0.02     0.01   0.00  -0.01    -0.02  -0.11   0.02
  41   6     0.05  -0.03  -0.00    -0.00   0.01  -0.02    -0.13  -0.15   0.10
  42   6     0.03  -0.02   0.07    -0.00   0.00  -0.04    -0.18  -0.20   0.13
  43   6    -0.04  -0.00   0.13     0.02  -0.01  -0.05    -0.12  -0.19   0.07
  44   7    -0.09   0.01   0.12     0.03  -0.01  -0.05    -0.01  -0.16  -0.02
  45   6    -0.07   0.00   0.04     0.02  -0.01  -0.02     0.04  -0.11  -0.04
  46   6     0.05  -0.02   0.05     0.01  -0.01   0.01     0.04  -0.05  -0.01
  47   6     0.05  -0.01   0.10     0.01  -0.02   0.02     0.02   0.03  -0.05
  48   6     0.02   0.03   0.15     0.01  -0.00   0.02    -0.03   0.11  -0.05
  49   6     0.03   0.02   0.13     0.02   0.01   0.03    -0.05   0.14  -0.00
  50   6     0.02   0.01   0.07     0.01   0.00   0.02    -0.07   0.12   0.03
  51   6    -0.02   0.01   0.02    -0.01  -0.01  -0.02    -0.07   0.07   0.02
  52   6    -0.06  -0.01  -0.08    -0.03  -0.02  -0.04    -0.12   0.03   0.03
  53   6    -0.13   0.05  -0.11    -0.08  -0.09   0.15    -0.16   0.10  -0.07
  54   6    -0.09   0.00  -0.12    -0.14  -0.10  -0.21    -0.05   0.01   0.11
  55   6    -0.01  -0.10  -0.13     0.13   0.11  -0.07    -0.21  -0.07   0.04
  56   6    -0.02   0.03   0.06    -0.01  -0.01  -0.01    -0.04   0.05  -0.02
  57   6    -0.00   0.04   0.12     0.00  -0.00   0.01    -0.02   0.07  -0.05
  58   6    -0.01   0.00   0.10     0.06  -0.02  -0.09     0.01   0.15  -0.04
  59   6    -0.00   0.00   0.04     0.05  -0.02  -0.10     0.05   0.13  -0.01
  60   1     0.02  -0.00  -0.06     0.05  -0.01  -0.09     0.06   0.02   0.01
  61   1     0.01  -0.02  -0.04     0.11  -0.05  -0.08     0.05   0.03   0.01
  62   1     0.01   0.01  -0.04     0.02   0.01  -0.15     0.04   0.04  -0.00
  63   1     0.01   0.04  -0.05    -0.12   0.03   0.01     0.03   0.01   0.02
  64   1    -0.00   0.04  -0.01    -0.18   0.03   0.07     0.00   0.00   0.02
  65   1     0.00   0.05  -0.03    -0.16   0.05  -0.08     0.01   0.02   0.00
  66   1     0.01  -0.01  -0.04     0.03  -0.00   0.11     0.04   0.00   0.04
  67   1     0.01  -0.03  -0.01     0.12  -0.04   0.12     0.04   0.01   0.03
  68   1     0.00   0.00  -0.00     0.00   0.01   0.18     0.02  -0.00   0.03
  69   1    -0.00   0.02   0.02    -0.04   0.01   0.05     0.00   0.00   0.00
  70   1    -0.00   0.02   0.05    -0.03   0.01   0.04    -0.01   0.01  -0.02
  71   1    -0.02   0.00   0.03    -0.00   0.01  -0.02    -0.03   0.04  -0.05
  72   1    -0.02  -0.00  -0.00    -0.00   0.01  -0.02    -0.02   0.00  -0.03
  73   1     0.00  -0.01  -0.03     0.00   0.00  -0.00     0.01  -0.03  -0.02
  74   1     0.01  -0.01  -0.05     0.00   0.00   0.01     0.02  -0.02  -0.00
  75   1     0.01  -0.00  -0.01     0.00   0.00   0.00     0.03  -0.01  -0.00
  76   1     0.00   0.00   0.03     0.00  -0.00  -0.00     0.02   0.00   0.01
  77   1    -0.00   0.00   0.03     0.00  -0.00  -0.01     0.01   0.00  -0.01
  78   1    -0.00  -0.00  -0.01     0.00   0.00   0.01    -0.01   0.00   0.01
  79   1     0.00  -0.01  -0.05     0.00   0.00   0.02    -0.01  -0.01   0.02
  80   1     0.00  -0.01  -0.04     0.00   0.00   0.01    -0.00  -0.02   0.02
  81   1     0.03  -0.01  -0.01    -0.00   0.00  -0.00    -0.05  -0.04   0.04
  82   1     0.02  -0.01   0.03    -0.00   0.00  -0.01    -0.08  -0.07   0.06
  83   1    -0.01   0.00   0.06     0.01  -0.00  -0.02    -0.05  -0.07   0.03
  84   1    -0.03   0.00   0.01     0.01  -0.00  -0.00     0.04  -0.02  -0.03
  85   1     0.03  -0.01   0.01     0.00  -0.01   0.01     0.02  -0.03   0.01
  86   1     0.02  -0.00   0.04     0.01  -0.01   0.01     0.01   0.01  -0.01
  87   1     0.02   0.00   0.04     0.01   0.00   0.01    -0.01   0.05   0.00
  88   1     0.01  -0.00   0.01     0.01   0.00   0.01    -0.03   0.04   0.02
  89   1    -0.03   0.01  -0.03     0.00  -0.02   0.08    -0.06   0.04  -0.04
  90   1    -0.05   0.03  -0.02    -0.06  -0.05   0.05    -0.02   0.05  -0.02
  91   1    -0.05   0.01  -0.05    -0.02  -0.02   0.04    -0.06   0.02  -0.02
  92   1    -0.01  -0.01  -0.03    -0.02  -0.03  -0.10    -0.01  -0.00   0.05
  93   1    -0.04  -0.00  -0.06    -0.05  -0.03  -0.07    -0.02  -0.00   0.04
  94   1    -0.04   0.02  -0.03    -0.08  -0.04  -0.05     0.01   0.01   0.03
  95   1     0.00  -0.04  -0.03     0.06   0.05   0.02    -0.07  -0.03  -0.01
  96   1    -0.01  -0.03  -0.06     0.03   0.03  -0.02    -0.07  -0.02   0.01
  97   1     0.01  -0.04  -0.03     0.06   0.04  -0.06    -0.06  -0.03   0.03
  98   1    -0.01   0.01   0.01    -0.01  -0.01  -0.01    -0.01   0.00  -0.01
  99   1    -0.00   0.02   0.04     0.00  -0.00   0.00    -0.00   0.02  -0.02
 100   1    -0.00  -0.01   0.03     0.03  -0.01  -0.04     0.00   0.05  -0.02
 101   1    -0.00  -0.00   0.00     0.03  -0.01  -0.05     0.02   0.05   0.00
                     10                     11                     12
                        a                      a                      a 
 Frequencies --    45.2784                45.4702                53.8508
 Red. masses --    11.4557                11.6369                11.5008
 Frc consts  --     0.0000                 0.0000                 0.0000
 IR Inten    --     1.0473                 0.3994                 2.9432
 Raman Activ --     0.0000                 0.0000                 0.0000
 Depolar     --     0.0000                 0.0000                 0.0000
 Atom AN      X      Y      Z        X      Y      Z        X      Y      Z
   1   6     0.07  -0.01  -0.04    -0.05  -0.02   0.02    -0.05   0.00   0.04
   2   6     0.02  -0.02  -0.01    -0.01  -0.01  -0.01    -0.01   0.01  -0.01
   3   6     0.01   0.00  -0.01     0.08   0.02  -0.02     0.10   0.03  -0.02
   4   6     0.03  -0.08   0.01    -0.04  -0.03  -0.09    -0.05  -0.02  -0.11
   5   6    -0.02  -0.01   0.01    -0.02  -0.01   0.04    -0.02   0.01   0.03
   6   6    -0.04  -0.02   0.01    -0.03   0.00   0.07    -0.05   0.03   0.10
   7   6    -0.06  -0.01  -0.00    -0.03   0.00   0.09    -0.04   0.02   0.11
   8   6    -0.07   0.01   0.00    -0.02  -0.01   0.08     0.00  -0.00   0.05
   9   7    -0.07   0.02  -0.03    -0.00  -0.02   0.09     0.02  -0.01   0.06
  10   6    -0.06  -0.00  -0.03    -0.00  -0.03   0.03     0.02  -0.01  -0.03
  11   6    -0.07  -0.03  -0.00    -0.03  -0.02  -0.02    -0.03   0.02  -0.12
  12   6    -0.06  -0.07   0.01    -0.04  -0.01  -0.07    -0.03   0.02  -0.19
  13   6    -0.04  -0.07   0.00    -0.01  -0.02  -0.08     0.01  -0.01  -0.17
  14   6    -0.03  -0.09   0.01    -0.01  -0.02  -0.09     0.01  -0.02  -0.19
  15   6    -0.04  -0.10   0.02    -0.00  -0.03  -0.16     0.00  -0.02  -0.16
  16   6    -0.03  -0.11   0.02    -0.01  -0.02  -0.09    -0.00  -0.01  -0.07
  17   7    -0.02  -0.11   0.04     0.00  -0.02  -0.19    -0.01  -0.00   0.05
  18   6    -0.02  -0.08   0.03    -0.01  -0.01  -0.07    -0.01   0.01   0.13
  19   6     0.02  -0.05   0.04     0.00  -0.01  -0.12    -0.02   0.01   0.20
  20   6     0.07  -0.07   0.06     0.01  -0.02  -0.23    -0.02   0.02   0.28
  21   6     0.10  -0.04   0.05     0.01  -0.02  -0.20    -0.01   0.02   0.22
  22   6     0.10   0.00   0.01     0.00   0.00  -0.03    -0.00   0.00   0.07
  23   6     0.15   0.04  -0.02    -0.00   0.02   0.09     0.01  -0.01  -0.13
  24   7     0.22   0.10  -0.06    -0.01   0.03   0.22     0.03  -0.03  -0.36
  25   6     0.05   0.02  -0.00    -0.01   0.01   0.04    -0.01   0.00   0.05
  26   6     0.01  -0.01   0.01    -0.01   0.00  -0.02    -0.01   0.01   0.13
  27   6    -0.02  -0.01   0.00    -0.01   0.01   0.05    -0.01   0.01   0.10
  28   6    -0.03   0.04   0.00    -0.01   0.01  -0.05    -0.01   0.01   0.07
  29   6    -0.07   0.05  -0.01    -0.02   0.01   0.03    -0.01   0.00   0.03
  30   6    -0.09   0.12  -0.00    -0.01   0.01  -0.14    -0.00  -0.00  -0.07
  31   7    -0.12   0.21   0.00     0.00   0.00  -0.34     0.00  -0.01  -0.19
  32   6    -0.11   0.02  -0.04    -0.04   0.03   0.24    -0.01   0.00   0.05
  33   6    -0.09  -0.02  -0.03    -0.04   0.03   0.31    -0.01   0.01   0.10
  34   6    -0.04  -0.04  -0.01    -0.02   0.02   0.18    -0.01   0.01   0.11
  35   6    -0.03  -0.08  -0.00    -0.02   0.01   0.13    -0.01   0.00   0.08
  36   7    -0.05  -0.10  -0.02    -0.03   0.02   0.22    -0.00  -0.01  -0.02
  37   6    -0.04  -0.11  -0.00    -0.02   0.00   0.09     0.00  -0.01  -0.09
  38   6    -0.03  -0.11  -0.00    -0.02   0.01   0.14     0.01  -0.02  -0.15
  39   6    -0.03  -0.09   0.01    -0.01  -0.00   0.03     0.01  -0.01  -0.17
  40   6     0.04  -0.03   0.03     0.01   0.01   0.01     0.00  -0.00  -0.10
  41   6     0.23  -0.00  -0.03    -0.04  -0.01   0.04     0.05  -0.03  -0.05
  42   6     0.38   0.12  -0.06     0.01   0.02  -0.03     0.02  -0.02   0.08
  43   6     0.33   0.22  -0.04     0.11   0.05  -0.13    -0.07   0.02   0.15
  44   7     0.14   0.20   0.04     0.16   0.07  -0.16    -0.12   0.06   0.10
  45   6    -0.01   0.06   0.06     0.09   0.04  -0.08    -0.07   0.05  -0.04
  46   6    -0.04  -0.03  -0.03     0.02  -0.03  -0.04     0.06  -0.04  -0.09
  47   6    -0.05   0.00  -0.04     0.03  -0.03   0.02     0.06  -0.04  -0.02
  48   6    -0.06   0.02  -0.03     0.01  -0.01   0.08     0.04   0.01   0.08
  49   6    -0.06   0.02  -0.02     0.02  -0.02   0.06     0.04  -0.00   0.06
  50   6    -0.06   0.02  -0.01     0.03  -0.01   0.04     0.04  -0.00   0.05
  51   6    -0.05   0.03  -0.00     0.01   0.00   0.02     0.04   0.01   0.04
  52   6    -0.04   0.04   0.02     0.00   0.00  -0.03     0.01  -0.01  -0.03
  53   6    -0.01   0.03   0.01    -0.02   0.02  -0.03    -0.05   0.02  -0.01
  54   6    -0.02   0.04   0.04    -0.03   0.01  -0.06    -0.04  -0.02  -0.09
  55   6    -0.06   0.05   0.03     0.05  -0.03  -0.05     0.07  -0.04  -0.06
  56   6    -0.06   0.02  -0.01     0.01   0.02   0.05     0.05   0.03   0.09
  57   6    -0.06   0.02  -0.02     0.01   0.01   0.08     0.06   0.03   0.11
  58   6    -0.06   0.03   0.02    -0.01  -0.03   0.05     0.03  -0.02  -0.02
  59   6    -0.04   0.02   0.03    -0.02  -0.02   0.04     0.02  -0.02  -0.02
  60   1     0.03  -0.01  -0.02    -0.01  -0.00  -0.00    -0.02   0.00   0.01
  61   1     0.02  -0.01  -0.01    -0.02  -0.01   0.01    -0.02   0.01   0.01
  62   1     0.02   0.01  -0.01    -0.01  -0.01   0.02    -0.01  -0.01   0.02
  63   1     0.02  -0.00  -0.01     0.02   0.01  -0.02     0.03   0.01  -0.02
  64   1    -0.01  -0.01   0.00     0.03   0.01  -0.01     0.04   0.02  -0.02
  65   1     0.00   0.01  -0.01     0.03   0.01   0.01     0.04   0.01   0.02
  66   1     0.02  -0.03  -0.00    -0.01  -0.01  -0.04    -0.01  -0.01  -0.04
  67   1     0.01  -0.03   0.01    -0.03  -0.01  -0.02    -0.04  -0.01  -0.03
  68   1     0.00  -0.02   0.01    -0.01  -0.01  -0.03    -0.01  -0.01  -0.04
  69   1    -0.01  -0.01   0.00    -0.01   0.00   0.02    -0.02   0.01   0.04
  70   1    -0.02  -0.01  -0.00    -0.01   0.00   0.03    -0.02   0.01   0.05
  71   1    -0.02  -0.01   0.00    -0.02  -0.00  -0.00    -0.02   0.01  -0.04
  72   1    -0.02  -0.03   0.01    -0.02  -0.00  -0.03    -0.02   0.01  -0.07
  73   1    -0.01  -0.03   0.01     0.00  -0.01  -0.08    -0.00  -0.00  -0.05
  74   1     0.02  -0.03   0.02     0.01  -0.01  -0.10    -0.01   0.01   0.11
  75   1     0.04  -0.01   0.02     0.01  -0.01  -0.08    -0.00   0.01   0.08
  76   1     0.01   0.01  -0.01    -0.00   0.01   0.05     0.00  -0.00  -0.01
  77   1    -0.00   0.02   0.01     0.00  -0.00  -0.06    -0.00   0.00   0.02
  78   1    -0.04   0.01  -0.01    -0.01   0.01   0.10    -0.00   0.00   0.01
  79   1    -0.03  -0.02  -0.01    -0.01   0.01   0.13    -0.00   0.00   0.03
  80   1    -0.00  -0.03  -0.00    -0.01   0.01   0.07     0.00  -0.01  -0.04
  81   1     0.08  -0.02  -0.01    -0.03  -0.01   0.03     0.03  -0.02  -0.03
  82   1     0.15   0.04  -0.03    -0.01   0.00  -0.00     0.02  -0.01   0.04
  83   1     0.13   0.09  -0.02     0.05   0.02  -0.06    -0.03   0.01   0.07
  84   1    -0.05   0.01   0.03     0.04   0.01  -0.03    -0.03   0.02  -0.02
  85   1    -0.01  -0.01  -0.01     0.01  -0.01  -0.01     0.03  -0.02  -0.02
  86   1    -0.01   0.01  -0.02     0.01  -0.01   0.01     0.03  -0.02   0.01
  87   1    -0.02   0.01  -0.01     0.01  -0.01   0.02     0.01  -0.00   0.02
  88   1    -0.02   0.01  -0.00     0.01  -0.01   0.01     0.01  -0.00   0.01
  89   1    -0.01   0.01   0.00    -0.00   0.00  -0.00    -0.01   0.00   0.01
  90   1     0.00   0.00   0.00    -0.02   0.01  -0.00    -0.03   0.01   0.01
  91   1    -0.00   0.01   0.01    -0.01   0.01  -0.02    -0.02   0.00  -0.02
  92   1    -0.01   0.02   0.01    -0.00  -0.00  -0.02     0.00  -0.02  -0.03
  93   1    -0.00   0.02   0.02    -0.01   0.00  -0.03    -0.02  -0.01  -0.05
  94   1    -0.00   0.01   0.01    -0.02   0.01  -0.01    -0.03   0.01  -0.02
  95   1    -0.02   0.01   0.01     0.02  -0.01  -0.01     0.03  -0.01  -0.01
  96   1    -0.01   0.02   0.02     0.01  -0.01  -0.03     0.01  -0.02  -0.03
  97   1    -0.02   0.02   0.01     0.02  -0.01  -0.02     0.04  -0.02  -0.02
  98   1    -0.02   0.01  -0.00     0.00   0.01   0.01     0.02   0.01   0.03
  99   1    -0.02   0.00  -0.01     0.00   0.01   0.03     0.02   0.01   0.04
 100   1    -0.02   0.01   0.01    -0.00  -0.01   0.01     0.02  -0.01  -0.02
 101   1    -0.01   0.01   0.01    -0.00  -0.01   0.00     0.01  -0.01  -0.02
                     13                     14                     15
                        a                      a                      a 
 Frequencies --    59.0374                66.1195                69.0309
 Red. masses --    11.1116                10.0097                10.0911
 Frc consts  --     0.0000                 0.0000                 0.0000
 IR Inten    --     1.3969                 3.5780                 5.6637
 Raman Activ --     0.0000                 0.0000                 0.0000
 Depolar     --     0.0000                 0.0000                 0.0000
 Atom AN      X      Y      Z        X      Y      Z        X      Y      Z
   1   6     0.03   0.02   0.00    -0.02  -0.01   0.04     0.06  -0.03  -0.14
   2   6     0.02   0.01   0.01     0.00  -0.01   0.01     0.00   0.01  -0.02
   3   6    -0.06  -0.03   0.03    -0.08  -0.10   0.03    -0.13   0.04  -0.03
   4   6     0.04   0.06   0.08     0.02   0.09   0.07     0.05   0.02   0.09
   5   6     0.03   0.01  -0.04     0.06  -0.03  -0.07     0.01   0.00   0.00
   6   6     0.06  -0.01  -0.10     0.09  -0.03  -0.12     0.15  -0.02  -0.19
   7   6     0.06  -0.00  -0.10     0.08  -0.03  -0.10     0.15  -0.03  -0.16
   8   6     0.02   0.01  -0.05     0.03  -0.02  -0.03    -0.00  -0.01   0.06
   9   7     0.00   0.02  -0.04     0.00  -0.02   0.06     0.01  -0.00   0.07
  10   6     0.01   0.01   0.01     0.01  -0.02   0.05     0.00  -0.02   0.06
  11   6     0.01   0.01   0.01    -0.04   0.08  -0.10     0.02  -0.13   0.19
  12   6     0.01  -0.00   0.02    -0.04   0.08  -0.13     0.01  -0.12   0.13
  13   6     0.01  -0.01   0.04    -0.01  -0.01  -0.02     0.01  -0.01  -0.03
  14   6     0.01   0.00   0.01    -0.01  -0.00  -0.02     0.00  -0.01  -0.08
  15   6     0.01   0.00   0.01    -0.02  -0.01  -0.05     0.01   0.00  -0.08
  16   6     0.01   0.00  -0.01    -0.02  -0.00  -0.02     0.01   0.01  -0.09
  17   7     0.01   0.00  -0.03    -0.02   0.00  -0.02     0.01   0.01  -0.05
  18   6     0.01   0.00  -0.01    -0.02   0.00   0.01     0.01   0.02   0.00
  19   6     0.01  -0.00  -0.04    -0.03   0.01   0.03     0.00   0.02   0.04
  20   6     0.01  -0.01  -0.10    -0.03   0.01   0.07    -0.00   0.02   0.06
  21   6     0.00  -0.01  -0.10    -0.04   0.01   0.07    -0.01   0.02   0.05
  22   6    -0.00  -0.00  -0.02    -0.03   0.00   0.02    -0.01   0.01   0.03
  23   6    -0.01  -0.00   0.02    -0.04  -0.01  -0.02    -0.01  -0.00  -0.02
  24   7    -0.02  -0.00   0.08    -0.06  -0.03  -0.07    -0.01  -0.01  -0.09
  25   6    -0.00  -0.00   0.02    -0.03   0.00   0.00    -0.00   0.01   0.04
  26   6     0.00   0.00   0.00    -0.03   0.00   0.01     0.00   0.01   0.05
  27   6     0.00   0.00   0.05    -0.03   0.00  -0.01     0.00   0.01   0.05
  28   6     0.00  -0.00   0.01    -0.03   0.01   0.00     0.01   0.00   0.04
  29   6     0.01  -0.00   0.05    -0.03   0.01  -0.02     0.01   0.00   0.04
  30   6     0.01  -0.02  -0.06    -0.04   0.03   0.01     0.02  -0.02  -0.03
  31   7     0.03  -0.04  -0.21    -0.05   0.06   0.06     0.03  -0.05  -0.13
  32   6    -0.00   0.01   0.18    -0.03   0.00  -0.07     0.01   0.01   0.09
  33   6    -0.00   0.02   0.21    -0.03  -0.00  -0.07     0.01   0.02   0.09
  34   6    -0.00   0.01   0.11    -0.03   0.00  -0.03     0.01   0.02   0.06
  35   6     0.00   0.01   0.05    -0.03   0.00  -0.01     0.01   0.02   0.00
  36   7     0.00   0.01   0.02    -0.03   0.01   0.02     0.01   0.01  -0.07
  37   6     0.00  -0.00  -0.04    -0.03   0.00   0.02     0.01   0.00  -0.11
  38   6     0.00  -0.01  -0.09    -0.03   0.01   0.06     0.01  -0.01  -0.13
  39   6    -0.00  -0.00  -0.06    -0.02   0.00   0.04     0.01  -0.01  -0.11
  40   6    -0.01  -0.01  -0.05    -0.02   0.00   0.03     0.01   0.00  -0.06
  41   6     0.21   0.10  -0.26    -0.04   0.01   0.03    -0.05  -0.07   0.08
  42   6     0.18   0.09  -0.20     0.01   0.03  -0.04    -0.07  -0.06   0.15
  43   6    -0.11  -0.04   0.10     0.08   0.05  -0.12    -0.01   0.03   0.07
  44   7    -0.34  -0.16   0.30     0.09   0.05  -0.11     0.06   0.12  -0.06
  45   6    -0.25  -0.12   0.19     0.03   0.02  -0.02     0.06   0.09  -0.12
  46   6     0.01  -0.03   0.06     0.04  -0.12   0.14     0.00   0.08  -0.12
  47   6     0.01  -0.02   0.04     0.05  -0.14   0.18     0.01   0.08  -0.08
  48   6    -0.00   0.01  -0.04     0.02  -0.02   0.07    -0.02  -0.02  -0.01
  49   6     0.03   0.04   0.03     0.19   0.08   0.30     0.00  -0.00   0.03
  50   6     0.03   0.04   0.04     0.21   0.10   0.30    -0.00  -0.01   0.01
  51   6    -0.00   0.01  -0.01     0.06   0.03   0.08    -0.04  -0.02  -0.04
  52   6    -0.00   0.01   0.01     0.04   0.02   0.00     0.00   0.00   0.01
  53   6     0.01   0.02  -0.03    -0.03   0.12  -0.13     0.07  -0.02  -0.01
  54   6     0.03   0.01   0.06     0.06   0.07   0.05     0.04   0.03   0.08
  55   6    -0.04  -0.02   0.02     0.03  -0.16  -0.05    -0.06   0.03   0.04
  56   6    -0.04  -0.03  -0.09    -0.11  -0.07  -0.15    -0.10  -0.06  -0.12
  57   6    -0.04  -0.02  -0.10    -0.13  -0.09  -0.15    -0.09  -0.05  -0.11
  58   6    -0.00   0.03  -0.00     0.03  -0.02  -0.03    -0.16   0.03   0.29
  59   6     0.01   0.02   0.00     0.04  -0.03  -0.05    -0.15   0.03   0.26
  60   1     0.01   0.00   0.01    -0.02  -0.00   0.03     0.03  -0.01  -0.07
  61   1     0.02   0.01   0.00     0.00   0.01   0.01     0.01  -0.05  -0.03
  62   1     0.01   0.01  -0.01    -0.01  -0.02   0.00     0.02   0.02  -0.04
  63   1    -0.02  -0.01   0.02    -0.04  -0.03   0.03    -0.02   0.01  -0.00
  64   1    -0.02  -0.02   0.01    -0.02  -0.03   0.01    -0.07   0.00   0.01
  65   1    -0.02  -0.02  -0.01    -0.03  -0.05  -0.00    -0.05   0.03  -0.04
  66   1     0.00   0.02   0.03    -0.01   0.03   0.04    -0.00   0.01   0.01
  67   1     0.03   0.02   0.02     0.02   0.05   0.01     0.04  -0.02   0.03
  68   1     0.01   0.02   0.03     0.01   0.03   0.02     0.01   0.03   0.06
  69   1     0.02  -0.01  -0.04     0.03  -0.01  -0.05     0.07  -0.01  -0.10
  70   1     0.02  -0.00  -0.04     0.03  -0.01  -0.04     0.08  -0.01  -0.09
  71   1     0.00   0.01  -0.00    -0.02   0.05  -0.05     0.01  -0.06   0.09
  72   1     0.00   0.00   0.01    -0.02   0.05  -0.07     0.00  -0.06   0.06
  73   1     0.00   0.00   0.01    -0.01  -0.00  -0.03     0.01   0.00  -0.02
  74   1     0.00  -0.00  -0.04    -0.01   0.01   0.03    -0.00   0.01   0.02
  75   1     0.00  -0.00  -0.04    -0.01   0.00   0.03    -0.00   0.01   0.02
  76   1    -0.00   0.00   0.02    -0.01  -0.00  -0.01     0.00   0.00   0.01
  77   1     0.00  -0.00  -0.03    -0.01   0.00   0.01     0.00  -0.00   0.00
  78   1    -0.00   0.01   0.07    -0.01   0.00  -0.03     0.00   0.00   0.03
  79   1    -0.00   0.01   0.08    -0.01  -0.00  -0.03     0.00   0.01   0.03
  80   1     0.00  -0.01  -0.04    -0.01   0.00   0.03     0.00  -0.00  -0.04
  81   1     0.12   0.06  -0.13    -0.02  -0.00   0.02    -0.03  -0.04   0.04
  82   1     0.10   0.05  -0.10     0.00   0.01  -0.01    -0.03  -0.04   0.08
  83   1    -0.05  -0.02   0.05     0.04   0.02  -0.05    -0.00   0.01   0.03
  84   1    -0.12  -0.06   0.09     0.01   0.00  -0.00     0.03   0.04  -0.06
  85   1     0.01  -0.01   0.02     0.02  -0.05   0.06    -0.00   0.04  -0.06
  86   1     0.00  -0.01   0.01     0.02  -0.07   0.09     0.00   0.05  -0.04
  87   1     0.02   0.02   0.02     0.08   0.04   0.13     0.01   0.01   0.02
  88   1     0.01   0.02   0.02     0.10   0.05   0.14     0.01   0.00   0.01
  89   1    -0.01   0.01  -0.02    -0.02   0.04  -0.05     0.01  -0.01  -0.02
  90   1     0.02   0.01  -0.01     0.01   0.07  -0.03     0.04  -0.01  -0.01
  91   1    -0.00   0.00  -0.00    -0.03   0.02  -0.05     0.03  -0.00   0.02
  92   1    -0.00   0.01   0.02     0.00   0.03   0.02    -0.01   0.02   0.02
  93   1     0.02   0.01   0.03     0.03   0.03   0.02     0.03   0.02   0.05
  94   1     0.02  -0.00   0.01     0.03   0.02   0.01     0.03  -0.01   0.01
  95   1    -0.02  -0.02  -0.00     0.01  -0.08  -0.03    -0.02  -0.00   0.00
  96   1    -0.01  -0.00   0.01     0.01  -0.04  -0.05    -0.00   0.02   0.02
  97   1    -0.02  -0.01   0.02     0.01  -0.06   0.02    -0.04   0.02   0.02
  98   1    -0.02  -0.02  -0.04    -0.07  -0.04  -0.10    -0.04  -0.02  -0.06
  99   1    -0.02  -0.01  -0.04    -0.08  -0.05  -0.09    -0.04  -0.02  -0.05
 100   1    -0.01   0.01   0.01     0.00  -0.01  -0.00    -0.08   0.02   0.14
 101   1    -0.00   0.01   0.01     0.01  -0.01  -0.01    -0.08   0.01   0.12
                     16                     17                     18
                        a                      a                      a 
 Frequencies --    79.6355                84.5648                87.0754
 Red. masses --    13.2634                10.3242                11.4762
 Frc consts  --     0.0000                 0.0000                 0.0000
 IR Inten    --     0.6303                 0.1308                 1.8522
 Raman Activ --     0.0000                 0.0000                 0.0000
 Depolar     --     0.0000                 0.0000                 0.0000
 Atom AN      X      Y      Z        X      Y      Z        X      Y      Z
   1   6    -0.01  -0.03  -0.00     0.00  -0.00  -0.00    -0.05   0.01   0.05
   2   6    -0.02  -0.03   0.00    -0.00  -0.00   0.00     0.02   0.02  -0.02
   3   6     0.01  -0.01  -0.01     0.00   0.00  -0.00    -0.05  -0.10   0.02
   4   6    -0.03  -0.08  -0.02    -0.00  -0.01  -0.00     0.04   0.20   0.03
   5   6    -0.04  -0.02   0.02    -0.01  -0.00   0.01     0.12  -0.01  -0.12
   6   6    -0.06  -0.02   0.04    -0.01  -0.00   0.01     0.13   0.00  -0.10
   7   6    -0.07  -0.02   0.04    -0.01  -0.00   0.00     0.11   0.00  -0.03
   8   6    -0.05  -0.01   0.01    -0.01   0.00   0.00     0.09  -0.01   0.00
   9   7    -0.05  -0.01   0.00    -0.00   0.00  -0.00     0.04  -0.01   0.12
  10   6    -0.04  -0.01  -0.00    -0.00  -0.00  -0.00     0.02   0.06   0.09
  11   6    -0.04   0.01  -0.03    -0.00  -0.00  -0.00     0.02   0.09   0.06
  12   6    -0.04   0.01  -0.04    -0.00  -0.00  -0.00     0.01   0.12   0.06
  13   6    -0.03  -0.01  -0.02    -0.00  -0.01  -0.00    -0.02   0.12   0.06
  14   6    -0.02   0.00  -0.02    -0.00  -0.00  -0.00    -0.02   0.08   0.05
  15   6    -0.01   0.01  -0.03     0.00  -0.00  -0.00    -0.07   0.05   0.11
  16   6    -0.01   0.03  -0.02     0.00   0.00   0.00    -0.05  -0.02   0.03
  17   7     0.00   0.04  -0.02     0.00   0.00   0.00    -0.09  -0.05   0.06
  18   6    -0.00   0.03  -0.01     0.00   0.01   0.03    -0.07  -0.09   0.01
  19   6    -0.01   0.02  -0.00     0.00   0.01   0.03    -0.06  -0.09  -0.01
  20   6     0.02   0.01   0.02     0.02  -0.02  -0.27    -0.01  -0.11  -0.05
  21   6     0.05   0.03   0.03     0.02  -0.02  -0.31     0.02  -0.09  -0.06
  22   6     0.04   0.05   0.01    -0.00   0.01   0.04     0.01  -0.05  -0.01
  23   6     0.16   0.15  -0.00     0.00   0.00  -0.04     0.12   0.05   0.01
  24   7     0.39   0.36  -0.01     0.01  -0.01  -0.15     0.33   0.24   0.04
  25   6     0.01   0.06  -0.01    -0.02   0.03   0.36    -0.04  -0.04   0.01
  26   6    -0.01   0.03  -0.01    -0.02   0.03   0.30    -0.06  -0.06   0.01
  27   6    -0.01   0.02  -0.02    -0.02   0.03   0.30    -0.06  -0.06   0.04
  28   6    -0.01  -0.02  -0.01    -0.02   0.03   0.37    -0.07  -0.05   0.05
  29   6     0.05  -0.04  -0.00     0.00   0.00   0.05    -0.09  -0.04   0.05
  30   6     0.10  -0.24   0.03     0.01  -0.01  -0.03    -0.09  -0.01  -0.02
  31   7     0.19  -0.63   0.09     0.02  -0.03  -0.16    -0.11   0.04  -0.12
  32   6     0.08  -0.02  -0.00     0.03  -0.03  -0.30    -0.10  -0.05   0.08
  33   6     0.07   0.03  -0.01     0.03  -0.02  -0.26    -0.09  -0.07   0.07
  34   6     0.01   0.04  -0.01     0.00   0.01   0.04    -0.06  -0.08   0.03
  35   6     0.00   0.04  -0.00     0.00   0.01   0.03    -0.05  -0.10  -0.02
  36   7    -0.01   0.04   0.02     0.00   0.01   0.02    -0.02  -0.09  -0.11
  37   6    -0.01   0.03   0.01     0.00   0.00   0.01    -0.02  -0.04  -0.09
  38   6    -0.03   0.02   0.03    -0.00   0.00   0.01     0.03  -0.01  -0.15
  39   6    -0.03   0.01   0.01    -0.00  -0.00   0.01     0.01   0.05  -0.08
  40   6    -0.03   0.01   0.01    -0.00  -0.00   0.01     0.01   0.06  -0.07
  41   6    -0.02   0.02  -0.01     0.00   0.00  -0.00    -0.05   0.01   0.01
  42   6    -0.00   0.03  -0.03     0.00   0.00  -0.01    -0.10  -0.01   0.06
  43   6     0.00   0.03  -0.03     0.00  -0.00  -0.00    -0.07   0.01   0.03
  44   7    -0.01   0.02  -0.01    -0.00  -0.01   0.00     0.00   0.07  -0.06
  45   6    -0.03   0.01   0.01    -0.00  -0.01   0.01     0.04   0.08  -0.10
  46   6    -0.03  -0.03   0.01    -0.00  -0.01  -0.00    -0.02   0.12   0.05
  47   6    -0.03  -0.03   0.02    -0.00  -0.00  -0.00    -0.01   0.08   0.07
  48   6    -0.05  -0.01  -0.00    -0.00   0.00  -0.00     0.00  -0.03   0.07
  49   6    -0.01   0.01   0.04    -0.00   0.00   0.00    -0.02  -0.07  -0.01
  50   6    -0.00   0.02   0.04    -0.00   0.00   0.00    -0.02  -0.06  -0.05
  51   6    -0.03   0.01  -0.00    -0.00   0.00  -0.00     0.00  -0.03  -0.00
  52   6    -0.02   0.02   0.00    -0.00   0.00   0.00     0.03  -0.01  -0.02
  53   6    -0.00   0.02  -0.01    -0.00   0.00   0.00     0.06  -0.03  -0.02
  54   6    -0.01   0.04   0.02    -0.00   0.00   0.00     0.01   0.03  -0.03
  55   6    -0.03   0.02   0.01    -0.00   0.00   0.00     0.05   0.01  -0.02
  56   6    -0.08  -0.01  -0.06    -0.00  -0.00  -0.00     0.02   0.00   0.06
  57   6    -0.09  -0.02  -0.06    -0.00  -0.00  -0.01     0.02  -0.00   0.09
  58   6    -0.04  -0.01  -0.01    -0.01   0.00   0.00     0.14  -0.04  -0.09
  59   6    -0.03  -0.02   0.00    -0.01   0.00   0.01     0.15  -0.04  -0.15
  60   1     0.00  -0.01  -0.00     0.00  -0.00  -0.00    -0.04   0.01   0.04
  61   1    -0.00  -0.01  -0.00    -0.00  -0.00  -0.00    -0.00   0.03   0.01
  62   1    -0.00  -0.00  -0.00     0.00   0.00  -0.00    -0.02  -0.04   0.01
  63   1     0.01  -0.00  -0.01     0.00   0.00  -0.00    -0.06  -0.02   0.03
  64   1     0.00  -0.00  -0.00    -0.00   0.00   0.00     0.01  -0.02  -0.01
  65   1     0.00   0.01   0.00     0.00   0.00   0.00    -0.02  -0.08  -0.00
  66   1    -0.00  -0.02  -0.01     0.00  -0.00  -0.00    -0.01   0.06   0.05
  67   1    -0.01  -0.03  -0.00    -0.00  -0.01   0.00     0.03   0.10  -0.00
  68   1    -0.01  -0.02  -0.00    -0.00  -0.00   0.00     0.02   0.05  -0.01
  69   1    -0.02  -0.01   0.02    -0.00  -0.00   0.00     0.04   0.01  -0.03
  70   1    -0.02  -0.01   0.01    -0.00  -0.00   0.00     0.03   0.01   0.00
  71   1    -0.01   0.01  -0.01    -0.00  -0.00  -0.00     0.01   0.03   0.02
  72   1    -0.02   0.01  -0.02    -0.00  -0.00  -0.00     0.01   0.04   0.02
  73   1     0.00   0.00  -0.02     0.00  -0.00  -0.00    -0.04   0.02   0.06
  74   1     0.01  -0.00   0.01     0.01  -0.01  -0.14    -0.00  -0.04  -0.02
  75   1     0.02   0.01   0.01     0.01  -0.01  -0.17     0.01  -0.03  -0.03
  76   1     0.00   0.02  -0.01    -0.01   0.02   0.17    -0.01  -0.00   0.01
  77   1    -0.01  -0.01  -0.00    -0.01   0.02   0.18    -0.01  -0.01   0.01
  78   1     0.03  -0.01  -0.00     0.01  -0.02  -0.17    -0.03  -0.01   0.03
  79   1     0.03   0.02  -0.00     0.01  -0.01  -0.14    -0.03  -0.02   0.02
  80   1    -0.01   0.01   0.01    -0.00   0.00   0.01     0.02  -0.01  -0.07
  81   1    -0.01   0.01  -0.00     0.00   0.00  -0.00    -0.02  -0.00   0.01
  82   1     0.00   0.01  -0.01     0.00   0.00  -0.00    -0.05  -0.01   0.04
  83   1     0.00   0.01  -0.01     0.00  -0.00  -0.00    -0.03  -0.00   0.02
  84   1    -0.01   0.00   0.01    -0.00  -0.00   0.00     0.03   0.03  -0.04
  85   1    -0.01  -0.01   0.01     0.00  -0.00   0.00    -0.01   0.04   0.01
  86   1    -0.01  -0.01   0.01    -0.00  -0.00  -0.00    -0.01   0.02   0.02
  87   1     0.00   0.01   0.02    -0.00   0.00   0.00    -0.01  -0.03  -0.01
  88   1     0.01   0.01   0.02     0.00   0.00   0.00    -0.01  -0.03  -0.03
  89   1    -0.00   0.01  -0.01    -0.00   0.00   0.00     0.03  -0.02  -0.00
  90   1     0.01   0.01  -0.01     0.00   0.00   0.00     0.01  -0.01  -0.00
  91   1     0.00   0.01   0.00    -0.00   0.00   0.00     0.03  -0.00  -0.01
  92   1    -0.01   0.02   0.01    -0.00   0.00   0.00     0.00   0.01  -0.01
  93   1     0.00   0.02   0.01     0.00   0.00   0.00     0.01   0.01  -0.02
  94   1     0.00   0.01   0.00     0.00  -0.00   0.00    -0.00   0.01  -0.01
  95   1    -0.01  -0.00  -0.00    -0.00   0.00   0.00     0.02   0.00  -0.00
  96   1    -0.00   0.01   0.00    -0.00   0.00   0.00     0.02   0.01  -0.01
  97   1    -0.02   0.01   0.01    -0.00   0.00   0.00     0.01   0.01  -0.01
  98   1    -0.03  -0.01  -0.03    -0.00  -0.00  -0.00     0.01   0.01   0.03
  99   1    -0.04  -0.01  -0.03    -0.00  -0.00  -0.00     0.01   0.01   0.04
 100   1    -0.01  -0.00  -0.01    -0.00   0.00   0.00     0.04  -0.02  -0.03
 101   1    -0.00  -0.00  -0.00    -0.00   0.00   0.00     0.05  -0.02  -0.06
                     19                     20                     21
                        a                      a                      a 
 Frequencies --    93.1923                97.4291               101.3185
 Red. masses --    10.8016                10.5998                11.0658
 Frc consts  --     0.0000                 0.0000                 0.0000
 IR Inten    --     5.6561                 0.7554                 4.7119
 Raman Activ --     0.0000                 0.0000                 0.0000
 Depolar     --     0.0000                 0.0000                 0.0000
 Atom AN      X      Y      Z        X      Y      Z        X      Y      Z
   1   6     0.04   0.02  -0.04    -0.07  -0.02  -0.04    -0.01  -0.03  -0.05
   2   6     0.03   0.03  -0.01    -0.03   0.04  -0.00    -0.05  -0.01   0.03
   3   6    -0.04  -0.01  -0.00     0.00   0.13  -0.03     0.04   0.14  -0.02
   4   6     0.05   0.08   0.04    -0.04   0.04  -0.04    -0.07  -0.17  -0.04
   5   6     0.04   0.02  -0.03     0.01   0.02   0.07    -0.10   0.00   0.14
   6   6     0.15  -0.01  -0.20     0.00   0.05   0.13    -0.10   0.01   0.14
   7   6     0.14  -0.00  -0.17     0.03   0.03   0.14    -0.05  -0.01   0.06
   8   6     0.03   0.01   0.00     0.06  -0.01   0.12    -0.01  -0.02   0.00
   9   7     0.04   0.00  -0.00     0.03  -0.00   0.17     0.04  -0.02  -0.10
  10   6     0.03  -0.01  -0.04     0.02   0.05   0.07     0.03  -0.01  -0.09
  11   6     0.00  -0.04  -0.03    -0.02   0.11  -0.04     0.06  -0.02  -0.04
  12   6    -0.00  -0.02  -0.08    -0.03   0.13  -0.11     0.06   0.04  -0.05
  13   6    -0.00   0.00  -0.12     0.02   0.07  -0.06     0.01   0.09  -0.09
  14   6    -0.01   0.01  -0.09     0.03   0.05  -0.07     0.01   0.09  -0.02
  15   6    -0.03  -0.01  -0.17     0.01   0.02  -0.17    -0.03   0.08   0.14
  16   6    -0.03  -0.01  -0.04     0.02  -0.00  -0.09    -0.02   0.03   0.17
  17   7    -0.05  -0.03  -0.09     0.00  -0.03  -0.14    -0.05   0.01   0.22
  18   6    -0.05  -0.03  -0.00     0.01  -0.04  -0.04    -0.03  -0.04   0.11
  19   6    -0.05  -0.03   0.01     0.01  -0.04   0.01    -0.03  -0.05   0.01
  20   6    -0.03  -0.04   0.04     0.01  -0.04   0.06    -0.01  -0.06  -0.08
  21   6    -0.02  -0.03   0.05     0.01  -0.03   0.09    -0.00  -0.07  -0.14
  22   6    -0.02  -0.02   0.03     0.01  -0.04   0.06    -0.01  -0.06  -0.10
  23   6     0.03   0.03  -0.00     0.04  -0.02   0.00     0.05  -0.00   0.00
  24   7     0.14   0.12  -0.05     0.09   0.00  -0.08     0.16   0.12   0.17
  25   6    -0.04  -0.01   0.00     0.01  -0.04   0.04    -0.02  -0.06  -0.08
  26   6    -0.05  -0.02  -0.00     0.01  -0.04   0.02    -0.02  -0.06  -0.04
  27   6    -0.04  -0.03  -0.03     0.02  -0.04  -0.01    -0.01  -0.06  -0.02
  28   6    -0.04  -0.03  -0.06     0.02  -0.04  -0.02    -0.01  -0.06  -0.04
  29   6    -0.05  -0.03  -0.09     0.01  -0.04  -0.03    -0.02  -0.05  -0.04
  30   6    -0.06  -0.02   0.01    -0.00   0.04  -0.00    -0.04   0.02  -0.00
  31   7    -0.07   0.00   0.15    -0.04   0.19   0.05    -0.08   0.18   0.05
  32   6    -0.05  -0.04  -0.15     0.01  -0.04  -0.06    -0.02  -0.06  -0.05
  33   6    -0.05  -0.04  -0.11     0.01  -0.05  -0.04    -0.02  -0.06  -0.02
  34   6    -0.04  -0.03  -0.02     0.02  -0.05  -0.00    -0.01  -0.06   0.01
  35   6    -0.04  -0.03   0.07     0.02  -0.04   0.03    -0.01  -0.05   0.07
  36   7    -0.04  -0.00   0.23     0.03  -0.02   0.12     0.02  -0.03   0.07
  37   6    -0.04   0.01   0.17     0.03   0.01   0.07     0.01   0.01   0.07
  38   6    -0.02   0.04   0.26     0.05   0.04   0.15     0.05   0.04  -0.03
  39   6    -0.02   0.04   0.10     0.05   0.06   0.06     0.05   0.08  -0.08
  40   6    -0.01   0.04   0.06     0.05   0.06   0.04     0.05   0.08  -0.11
  41   6     0.00   0.10  -0.04     0.02   0.10  -0.04     0.03   0.06  -0.07
  42   6    -0.02   0.07  -0.10    -0.04   0.04  -0.07    -0.06   0.02   0.03
  43   6    -0.07  -0.03  -0.02    -0.07  -0.06  -0.01    -0.12  -0.01   0.09
  44   7    -0.08  -0.09   0.07    -0.03  -0.10   0.04    -0.07   0.03   0.03
  45   6    -0.04  -0.04   0.10     0.04  -0.03   0.05     0.02   0.08  -0.08
  46   6     0.02   0.01  -0.10     0.05   0.03   0.02    -0.02   0.10  -0.14
  47   6     0.03   0.01  -0.07     0.05   0.03   0.08    -0.01   0.04  -0.13
  48   6     0.06   0.01   0.03    -0.04  -0.04   0.02     0.05  -0.01  -0.06
  49   6     0.01  -0.03  -0.05    -0.05  -0.06  -0.03     0.13   0.06   0.09
  50   6     0.01  -0.02  -0.03    -0.11  -0.09  -0.13     0.15   0.07   0.15
  51   6     0.08   0.01   0.06    -0.14  -0.09  -0.17     0.08  -0.00   0.04
  52   6     0.04  -0.02  -0.00    -0.03  -0.02  -0.03     0.05  -0.03   0.02
  53   6    -0.03   0.01   0.01     0.17  -0.16  -0.02    -0.03   0.02  -0.00
  54   6    -0.00  -0.05  -0.06     0.04   0.04   0.08     0.05  -0.07   0.01
  55   6     0.10  -0.07  -0.04    -0.15   0.15   0.06     0.06  -0.11  -0.01
  56   6     0.16   0.06   0.19    -0.18  -0.11  -0.22     0.00  -0.07  -0.11
  57   6     0.15   0.05   0.16    -0.14  -0.08  -0.12    -0.01  -0.07  -0.15
  58   6    -0.08   0.04   0.17     0.07  -0.03   0.06    -0.05  -0.01   0.06
  59   6    -0.08   0.04   0.16     0.04  -0.03   0.03    -0.10   0.00   0.13
  60   1     0.02   0.00  -0.03    -0.03   0.00  -0.02     0.02  -0.01  -0.04
  61   1     0.00  -0.01  -0.01    -0.02  -0.02  -0.01    -0.01  -0.04  -0.01
  62   1     0.01   0.02  -0.00    -0.02  -0.01  -0.01     0.00   0.02  -0.01
  63   1    -0.01  -0.00   0.01    -0.00   0.04  -0.03     0.05   0.03  -0.04
  64   1    -0.02  -0.01   0.00     0.01   0.05  -0.00    -0.01   0.03   0.01
  65   1    -0.02   0.00  -0.02     0.00   0.04  -0.00     0.01   0.09   0.00
  66   1     0.00   0.03   0.01    -0.02   0.02  -0.03    -0.01  -0.05  -0.06
  67   1     0.03   0.02   0.01    -0.02  -0.01  -0.01    -0.04  -0.10   0.00
  68   1     0.02   0.04   0.02    -0.00   0.03  -0.00    -0.02  -0.03   0.01
  69   1     0.07  -0.01  -0.10    -0.00   0.02   0.04    -0.04   0.00   0.05
  70   1     0.07  -0.00  -0.08     0.01   0.01   0.05    -0.01  -0.00   0.01
  71   1    -0.00  -0.02   0.00    -0.02   0.04  -0.02     0.03  -0.02  -0.00
  72   1    -0.00  -0.01  -0.03    -0.02   0.05  -0.06     0.03   0.01  -0.00
  73   1    -0.01  -0.01  -0.09    -0.00   0.00  -0.08    -0.02   0.03   0.06
  74   1    -0.01  -0.01   0.02     0.00  -0.01   0.02    -0.00  -0.02  -0.02
  75   1    -0.00  -0.01   0.02     0.00  -0.01   0.04     0.00  -0.02  -0.05
  76   1    -0.01  -0.00  -0.00     0.00  -0.01   0.01    -0.01  -0.01  -0.02
  77   1    -0.01  -0.01  -0.01     0.01  -0.01  -0.00    -0.00  -0.02  -0.01
  78   1    -0.01  -0.01  -0.06     0.00  -0.01  -0.03    -0.01  -0.02  -0.02
  79   1    -0.01  -0.01  -0.04     0.00  -0.02  -0.01    -0.01  -0.02  -0.01
  80   1    -0.00   0.02   0.12     0.02   0.01   0.07     0.03   0.00  -0.02
  81   1     0.01   0.05  -0.02     0.01   0.05  -0.02     0.02   0.02  -0.03
  82   1     0.00   0.03  -0.05    -0.02   0.02  -0.04    -0.03  -0.00   0.02
  83   1    -0.03  -0.02  -0.01    -0.04  -0.04  -0.00    -0.06  -0.02   0.06
  84   1    -0.01  -0.02   0.04     0.02  -0.01   0.02     0.02   0.03  -0.04
  85   1     0.01   0.00  -0.03     0.02  -0.00   0.01    -0.02   0.04  -0.05
  86   1     0.01   0.00  -0.02     0.02  -0.00   0.04    -0.01   0.01  -0.04
  87   1    -0.01  -0.02  -0.04    -0.00  -0.01   0.01     0.05   0.03   0.05
  88   1    -0.01  -0.02  -0.03    -0.03  -0.03  -0.04     0.06   0.03   0.08
  89   1     0.01  -0.00   0.02     0.03  -0.04  -0.03    -0.02   0.02  -0.00
  90   1    -0.03   0.02   0.02     0.09  -0.09  -0.03    -0.01   0.02   0.00
  91   1    -0.01   0.00  -0.02     0.08  -0.03   0.06    -0.03  -0.01  -0.01
  92   1     0.03  -0.03  -0.02    -0.03   0.04   0.02     0.02  -0.02  -0.00
  93   1    -0.02  -0.03  -0.05     0.04   0.03   0.07     0.01  -0.02   0.01
  94   1    -0.02   0.01  -0.01     0.04  -0.03   0.01     0.02  -0.03   0.00
  95   1     0.03   0.00   0.00    -0.05   0.02  -0.01     0.02  -0.04  -0.00
  96   1     0.01  -0.04  -0.02    -0.00   0.07   0.06     0.01  -0.04  -0.02
  97   1     0.06  -0.03  -0.02    -0.10   0.07   0.02     0.03  -0.04   0.01
  98   1     0.07   0.03   0.08    -0.07  -0.04  -0.09    -0.02  -0.04  -0.06
  99   1     0.06   0.02   0.07    -0.05  -0.02  -0.04    -0.02  -0.03  -0.07
 100   1    -0.05   0.02   0.09     0.03  -0.02   0.01    -0.01  -0.00   0.01
 101   1    -0.05   0.02   0.09     0.01  -0.02  -0.01    -0.03   0.00   0.05
                     22                     23                     24
                        a                      a                      a 
 Frequencies --   111.5426               115.4635               126.6281
 Red. masses --    11.6339                10.2125                11.0998
 Frc consts  --     0.0000                 0.0000                 0.0000
 IR Inten    --     8.6687                10.9338                 4.6200
 Raman Activ --     0.0000                 0.0000                 0.0000
 Depolar     --     0.0000                 0.0000                 0.0000
 Atom AN      X      Y      Z        X      Y      Z        X      Y      Z
   1   6    -0.04  -0.03  -0.00     0.02   0.03  -0.05    -0.00   0.08   0.01
   2   6     0.01  -0.01  -0.03    -0.01   0.07   0.02     0.04   0.12   0.01
   3   6    -0.05  -0.09  -0.01     0.03   0.18  -0.01     0.06   0.17  -0.00
   4   6     0.02   0.12   0.01    -0.01  -0.00  -0.00     0.04   0.17  -0.00
   5   6     0.07  -0.03  -0.07    -0.03   0.06   0.10     0.09   0.09   0.03
   6   6     0.10  -0.03  -0.08     0.05   0.04  -0.02     0.02   0.10   0.13
   7   6     0.06  -0.02   0.00     0.08   0.03  -0.06     0.04   0.09   0.12
   8   6     0.01  -0.02   0.08     0.04   0.02   0.01     0.10   0.04   0.03
   9   7    -0.04  -0.01   0.18     0.06   0.01  -0.04     0.11   0.03   0.01
  10   6    -0.04   0.03   0.01     0.05  -0.00  -0.01     0.09  -0.01   0.02
  11   6    -0.11   0.05  -0.08    -0.01   0.16  -0.23     0.07  -0.15   0.13
  12   6    -0.10   0.02  -0.16    -0.01   0.15  -0.22     0.06  -0.19   0.13
  13   6    -0.02  -0.03  -0.16    -0.00  -0.02   0.04     0.03  -0.09  -0.00
  14   6    -0.00  -0.06  -0.10    -0.00  -0.02   0.06    -0.01  -0.08  -0.03
  15   6     0.00  -0.03   0.07    -0.02  -0.01   0.13    -0.02  -0.08  -0.03
  16   6     0.00  -0.01   0.18    -0.02  -0.01   0.08    -0.04  -0.05   0.00
  17   7     0.03   0.02   0.27    -0.02   0.01   0.14    -0.04  -0.05   0.01
  18   6     0.02   0.04   0.17    -0.02   0.01   0.05    -0.05  -0.01   0.03
  19   6     0.04   0.04   0.04    -0.02   0.01   0.01    -0.04   0.01   0.01
  20   6     0.05   0.03  -0.07    -0.02   0.01  -0.02    -0.03   0.01  -0.01
  21   6     0.06   0.02  -0.17    -0.01   0.01  -0.06    -0.01   0.02  -0.03
  22   6     0.06   0.03  -0.14    -0.02   0.01  -0.06    -0.01   0.05  -0.02
  23   6    -0.00  -0.01  -0.02    -0.02   0.02  -0.01    -0.03   0.04  -0.01
  24   7    -0.14  -0.10   0.21    -0.03   0.02   0.07    -0.10  -0.01   0.01
  25   6     0.06   0.03  -0.12    -0.02   0.02  -0.05    -0.03   0.05  -0.01
  26   6     0.05   0.03  -0.03    -0.02   0.01  -0.01    -0.05   0.04   0.00
  27   6     0.03   0.04  -0.03    -0.04   0.02   0.01    -0.09   0.05  -0.01
  28   6     0.04   0.04  -0.09    -0.04   0.03   0.03    -0.10   0.08  -0.06
  29   6     0.04   0.04  -0.11    -0.05   0.03   0.04    -0.14   0.09  -0.08
  30   6     0.04   0.00  -0.01    -0.04  -0.01   0.01    -0.12  -0.01  -0.02
  31   7     0.06  -0.08   0.16    -0.02  -0.11  -0.05    -0.07  -0.28   0.09
  32   6     0.04   0.03  -0.13    -0.05   0.03   0.04    -0.15   0.08  -0.07
  33   6     0.03   0.03  -0.05    -0.05   0.02   0.01    -0.14   0.05  -0.02
  34   6     0.02   0.04   0.03    -0.04   0.02  -0.01    -0.10   0.04   0.02
  35   6     0.01   0.04   0.14    -0.03   0.00  -0.03    -0.09   0.00   0.06
  36   7    -0.01   0.02   0.17    -0.03  -0.01  -0.11    -0.10  -0.01   0.10
  37   6    -0.00  -0.01   0.12    -0.03  -0.02  -0.06    -0.08  -0.04   0.05
  38   6    -0.01  -0.04  -0.02    -0.03  -0.03  -0.11    -0.07  -0.04   0.03
  39   6     0.00  -0.07  -0.13    -0.03  -0.03  -0.03    -0.06  -0.07  -0.02
  40   6     0.02  -0.05  -0.14    -0.05  -0.04  -0.00    -0.06  -0.07  -0.02
  41   6     0.07  -0.10  -0.07    -0.03  -0.06   0.03    -0.01  -0.08   0.01
  42   6     0.07  -0.07   0.06     0.02  -0.02   0.01     0.04  -0.03   0.02
  43   6    -0.00   0.00   0.10     0.07   0.05  -0.05     0.04   0.03   0.01
  44   7    -0.04   0.06   0.02     0.03   0.05  -0.05    -0.03   0.04   0.00
  45   6    -0.03   0.03  -0.10    -0.04  -0.00  -0.01    -0.07  -0.02  -0.01
  46   6     0.03  -0.01  -0.12     0.06  -0.18   0.25     0.06   0.02  -0.08
  47   6     0.02   0.02  -0.04     0.06  -0.18   0.23     0.06   0.06  -0.07
  48   6    -0.07  -0.03   0.12     0.07   0.00  -0.04     0.10   0.03  -0.04
  49   6    -0.09  -0.06   0.05     0.01  -0.03  -0.12     0.12   0.04  -0.00
  50   6    -0.10  -0.06  -0.02    -0.02  -0.06  -0.15     0.09   0.02  -0.02
  51   6    -0.09  -0.01  -0.00     0.03  -0.06  -0.08     0.05  -0.04  -0.08
  52   6    -0.03   0.04  -0.02     0.03  -0.07  -0.02     0.03  -0.07  -0.01
  53   6     0.05  -0.00  -0.03     0.07  -0.12   0.01     0.04  -0.09   0.01
  54   6    -0.05   0.13  -0.01     0.06  -0.11   0.01     0.08  -0.13   0.03
  55   6    -0.02   0.08  -0.01    -0.03  -0.00   0.02    -0.02  -0.03   0.02
  56   6    -0.10   0.01   0.05     0.09  -0.02   0.01     0.03  -0.07  -0.14
  57   6    -0.09   0.00   0.10     0.12   0.00   0.02     0.06  -0.03  -0.11
  58   6     0.02  -0.03   0.05    -0.05   0.05   0.16     0.16   0.03  -0.06
  59   6     0.05  -0.04  -0.03    -0.10   0.07   0.22     0.16   0.04  -0.08
  60   1    -0.03  -0.00   0.01     0.02   0.01  -0.05    -0.02   0.03   0.01
  61   1    -0.01   0.00  -0.00    -0.01  -0.02  -0.01     0.01   0.03   0.00
  62   1    -0.01  -0.03  -0.00     0.01   0.04  -0.00    -0.00   0.00  -0.00
  63   1    -0.05  -0.01   0.02     0.05   0.04  -0.03    -0.00   0.06  -0.01
  64   1     0.00  -0.01  -0.01    -0.02   0.04   0.01     0.03   0.07   0.00
  65   1    -0.02  -0.06  -0.01     0.01   0.10  -0.00     0.02   0.04   0.01
  66   1    -0.01   0.04   0.03    -0.01   0.00  -0.05     0.00   0.05   0.01
  67   1     0.02   0.06  -0.01    -0.01  -0.05   0.01     0.01   0.06  -0.00
  68   1     0.01   0.03  -0.01     0.00   0.03   0.03     0.02   0.05  -0.01
  69   1     0.04  -0.01  -0.04     0.03   0.01  -0.02    -0.01   0.04   0.06
  70   1     0.02  -0.00   0.00     0.05   0.01  -0.04     0.01   0.03   0.05
  71   1    -0.05   0.02  -0.02    -0.02   0.08  -0.11     0.01  -0.06   0.06
  72   1    -0.04   0.00  -0.06    -0.01   0.09  -0.11     0.02  -0.08   0.06
  73   1     0.00  -0.01   0.03    -0.01  -0.00   0.06    -0.00  -0.02  -0.01
  74   1     0.01   0.01  -0.02    -0.01   0.00  -0.00    -0.01  -0.00  -0.00
  75   1     0.02   0.00  -0.07    -0.00   0.00  -0.02     0.00   0.00  -0.01
  76   1     0.02   0.01  -0.04    -0.01   0.00  -0.02    -0.01   0.02  -0.00
  77   1     0.01   0.01  -0.03    -0.01   0.01   0.01    -0.02   0.03  -0.02
  78   1     0.01   0.01  -0.05    -0.02   0.01   0.02    -0.05   0.02  -0.03
  79   1     0.01   0.01  -0.01    -0.01   0.00   0.00    -0.05   0.01  -0.00
  80   1    -0.00  -0.01  -0.01    -0.01  -0.01  -0.06    -0.02  -0.01   0.02
  81   1     0.03  -0.05  -0.03    -0.02  -0.03   0.02    -0.00  -0.04   0.00
  82   1     0.03  -0.03   0.04     0.01  -0.01   0.01     0.03  -0.01   0.01
  83   1    -0.01   0.01   0.06     0.04   0.03  -0.03     0.02   0.02   0.00
  84   1    -0.02   0.02  -0.05    -0.02  -0.00  -0.00    -0.04  -0.00  -0.00
  85   1     0.02  -0.01  -0.04     0.03  -0.09   0.12     0.02   0.02  -0.05
  86   1     0.02   0.01   0.00     0.02  -0.09   0.11     0.02   0.03  -0.04
  87   1    -0.03  -0.02   0.01    -0.00  -0.01  -0.04     0.04   0.02   0.01
  88   1    -0.03  -0.03  -0.02    -0.03  -0.02  -0.06     0.03   0.01   0.01
  89   1     0.02  -0.02  -0.01     0.01  -0.03  -0.01    -0.01  -0.00  -0.01
  90   1     0.01  -0.01  -0.01     0.04  -0.06  -0.01     0.04  -0.04  -0.02
  91   1     0.03   0.01  -0.01     0.03  -0.03   0.03     0.01  -0.04   0.04
  92   1    -0.03   0.05   0.00     0.02  -0.04   0.00     0.02  -0.03   0.00
  93   1    -0.00   0.05  -0.01     0.01  -0.04   0.01     0.02  -0.04   0.03
  94   1    -0.02   0.04  -0.00     0.03  -0.03  -0.00     0.04  -0.05  -0.00
  95   1    -0.00   0.01  -0.01    -0.02   0.01  -0.00    -0.01  -0.01  -0.00
  96   1     0.01   0.04  -0.00    -0.00   0.00   0.03     0.00  -0.00   0.02
  97   1    -0.02   0.03  -0.00    -0.02   0.01   0.00    -0.02  -0.00   0.01
  98   1    -0.03   0.01   0.01     0.04  -0.00   0.02    -0.00  -0.03  -0.06
  99   1    -0.03   0.01   0.04     0.05   0.01   0.02     0.02  -0.01  -0.04
 100   1    -0.00  -0.01   0.02    -0.03   0.02   0.06     0.06   0.00  -0.04
 101   1     0.01  -0.01  -0.01    -0.05   0.02   0.10     0.06   0.00  -0.05
                     25                     26                     27
                        a                      a                      a 
 Frequencies --   141.5947               147.7052               158.3706
 Red. masses --    11.7787                11.1850                10.8807
 Frc consts  --     0.0000                 0.0000                 0.0000
 IR Inten    --     6.5282                 1.9456                 2.8367
 Raman Activ --     0.0000                 0.0000                 0.0000
 Depolar     --     0.0000                 0.0000                 0.0000
 Atom AN      X      Y      Z        X      Y      Z        X      Y      Z
   1   6    -0.04  -0.05  -0.02    -0.01  -0.00  -0.01    -0.07  -0.04  -0.04
   2   6    -0.03  -0.02   0.01     0.01   0.02  -0.01     0.01   0.05   0.02
   3   6    -0.01   0.04  -0.01     0.00   0.03  -0.01     0.02   0.17  -0.02
   4   6    -0.03  -0.04  -0.01     0.01   0.06  -0.00    -0.01   0.12  -0.01
   5   6    -0.01  -0.02   0.04     0.04   0.01  -0.00     0.08   0.01   0.08
   6   6     0.02  -0.03   0.01     0.02   0.01   0.02     0.08  -0.00   0.05
   7   6     0.04  -0.03  -0.01     0.01   0.01   0.04     0.09  -0.02   0.03
   8   6     0.03  -0.03   0.00     0.02   0.00   0.03     0.08  -0.03   0.03
   9   7    -0.01  -0.01  -0.01     0.01   0.00   0.03    -0.00   0.00  -0.00
  10   6    -0.02   0.08  -0.06     0.00  -0.00  -0.03    -0.03   0.09  -0.15
  11   6    -0.00   0.12  -0.08    -0.01  -0.05  -0.01    -0.05   0.07  -0.16
  12   6    -0.01   0.15  -0.06    -0.01  -0.07  -0.03    -0.03   0.01  -0.10
  13   6    -0.02   0.13  -0.02     0.00  -0.05  -0.07    -0.02  -0.04  -0.04
  14   6    -0.00   0.07   0.06    -0.00  -0.04  -0.04    -0.01  -0.09   0.09
  15   6    -0.04   0.02   0.05     0.01  -0.03  -0.07     0.00  -0.06   0.18
  16   6    -0.02  -0.06   0.01     0.00   0.01  -0.01    -0.00  -0.00   0.10
  17   7    -0.01  -0.08  -0.03    -0.00   0.02   0.06     0.02   0.02   0.05
  18   6    -0.00  -0.09  -0.06    -0.00   0.03   0.04     0.01   0.05  -0.09
  19   6     0.07  -0.04  -0.03    -0.02   0.02   0.05    -0.02   0.04  -0.09
  20   6     0.16  -0.07   0.02    -0.05   0.03   0.12    -0.09   0.06  -0.09
  21   6     0.23  -0.00   0.07    -0.06   0.01   0.04    -0.14   0.04   0.01
  22   6     0.22   0.06   0.04    -0.04  -0.03  -0.26    -0.15   0.02   0.15
  23   6     0.12  -0.04   0.02    -0.03   0.01  -0.11    -0.11   0.05   0.07
  24   7    -0.17  -0.32  -0.02     0.01   0.10   0.27     0.03   0.15  -0.17
  25   6     0.14   0.08   0.00    -0.01  -0.04  -0.39    -0.09   0.00   0.17
  26   6     0.06   0.02  -0.02    -0.01  -0.01  -0.09    -0.03   0.02  -0.00
  27   6    -0.01   0.05  -0.01    -0.01   0.00   0.08    -0.00   0.01  -0.06
  28   6    -0.04   0.14   0.07    -0.03   0.01   0.40     0.01  -0.03  -0.08
  29   6    -0.12   0.17   0.07    -0.00  -0.00   0.30     0.04  -0.03   0.02
  30   6    -0.09   0.04   0.03     0.01  -0.00   0.12     0.04  -0.01   0.01
  31   7    -0.01  -0.33  -0.08     0.02   0.02  -0.31     0.02   0.08  -0.02
  32   6    -0.16   0.12   0.05     0.03  -0.02   0.01     0.05  -0.00   0.12
  33   6    -0.14   0.02  -0.02     0.03  -0.01  -0.12     0.05   0.02   0.03
  34   6    -0.05  -0.01  -0.06     0.01   0.00  -0.08     0.02   0.03  -0.09
  35   6    -0.02  -0.08  -0.09     0.01   0.01  -0.09     0.01   0.04  -0.12
  36   7    -0.01  -0.09  -0.09     0.00   0.01  -0.09    -0.01   0.02  -0.12
  37   6    -0.01  -0.07  -0.01    -0.00   0.01   0.00    -0.01  -0.01  -0.00
  38   6     0.04  -0.01   0.06    -0.02   0.01   0.10    -0.04  -0.04   0.03
[...]
  65   1    -0.00   0.00   0.00     0.00   0.00  -0.00     0.00   0.00  -0.00
  66   1     0.00   0.00  -0.00    -0.00  -0.00  -0.00     0.00   0.00   0.00
  67   1    -0.00  -0.00  -0.00     0.00   0.00   0.00    -0.00  -0.00  -0.00
  68   1     0.00  -0.00   0.00    -0.00   0.00  -0.00     0.00  -0.00   0.00
  69   1     0.00   0.00   0.00    -0.00  -0.00  -0.00     0.00   0.00   0.00
  70   1     0.00  -0.00   0.00    -0.00   0.00  -0.00     0.00  -0.00   0.00
  71   1     0.00   0.01   0.00    -0.00  -0.01  -0.00     0.02   0.04   0.03
  72   1    -0.01   0.01   0.01     0.00  -0.00  -0.00    -0.05   0.05   0.05
  73   1     0.03   0.09  -0.01     0.01   0.04  -0.00     0.28   0.90  -0.12
  74   1    -0.01  -0.00  -0.00     0.28   0.05   0.01    -0.02  -0.00  -0.00
  75   1     0.01   0.02  -0.00    -0.29  -0.87   0.06     0.01   0.03  -0.00
  76   1     0.00   0.00   0.00    -0.04  -0.01  -0.00     0.00   0.00   0.00
  77   1    -0.00   0.00  -0.00     0.01  -0.01   0.00     0.00  -0.00   0.00
  78   1     0.01   0.03  -0.00     0.01   0.02  -0.00    -0.00  -0.01   0.00
  79   1     0.01  -0.01   0.00     0.01  -0.01   0.00    -0.01   0.01  -0.00
  80   1     0.00   0.01  -0.00     0.00   0.00  -0.00    -0.02  -0.06   0.01
  81   1     0.15   0.03   0.16     0.00   0.00   0.00    -0.02  -0.00  -0.02
  82   1    -0.00   0.80   0.44    -0.00   0.02   0.01     0.00  -0.08  -0.04
  83   1    -0.09   0.09  -0.03    -0.00   0.00  -0.00     0.01  -0.01   0.00
  84   1    -0.00  -0.01  -0.01    -0.00  -0.00  -0.00    -0.00  -0.00  -0.00
  85   1    -0.02  -0.04  -0.03     0.00   0.00   0.00    -0.00  -0.00  -0.00
  86   1     0.02  -0.02  -0.02    -0.00   0.00   0.00     0.01  -0.01  -0.01
  87   1     0.00   0.00  -0.00     0.00   0.00  -0.00    -0.01  -0.00   0.00
  88   1     0.00   0.01  -0.00     0.00   0.00  -0.00    -0.00  -0.00   0.00
  89   1     0.00   0.00  -0.00     0.00   0.00  -0.00    -0.00  -0.00   0.00
  90   1     0.00  -0.00   0.00     0.00  -0.00   0.00     0.00   0.00   0.00
  91   1     0.00  -0.00  -0.00    -0.00   0.00   0.00     0.00  -0.00  -0.00
  92   1     0.00   0.00   0.00    -0.00  -0.00  -0.00    -0.00  -0.00  -0.00
  93   1    -0.00   0.00  -0.00    -0.00   0.00   0.00    -0.00   0.00  -0.00
  94   1     0.00  -0.00   0.00     0.00  -0.00   0.00     0.00  -0.00   0.00
  95   1     0.00   0.00  -0.00     0.00   0.00  -0.00    -0.00  -0.00   0.00
  96   1    -0.00   0.00   0.00    -0.00   0.00   0.00     0.00  -0.00  -0.00
  97   1     0.00   0.00   0.00    -0.00  -0.00  -0.00    -0.00  -0.00  -0.00
  98   1     0.00   0.00  -0.00     0.00   0.00  -0.00    -0.00  -0.00   0.00
  99   1    -0.00  -0.00   0.00    -0.00  -0.00   0.00     0.00   0.00  -0.00
 100   1    -0.00  -0.00  -0.00     0.00   0.00   0.00    -0.00  -0.00  -0.00
 101   1     0.00  -0.00   0.00    -0.00   0.00  -0.00     0.00  -0.00   0.00
                    292                    293                    294
                        a                      a                      a 
 Frequencies --  3104.6086              3111.9548              3112.7087
 Red. masses --     1.8383                 1.8650                 1.8369
 Frc consts  --     0.0000                 0.0000                 0.0000
 IR Inten    --     0.9121                13.8138                37.3850
 Raman Activ --     0.0000                 0.0000                 0.0000
 Depolar     --     0.0000                 0.0000                 0.0000
 Atom AN      X      Y      Z        X      Y      Z        X      Y      Z
   1   6    -0.00   0.00  -0.00     0.00  -0.00   0.00    -0.00  -0.00  -0.00
   2   6     0.00   0.00   0.00    -0.00   0.00  -0.00    -0.00   0.00  -0.00
   3   6    -0.00   0.00   0.00    -0.00   0.00  -0.00    -0.00   0.00   0.00
   4   6    -0.00   0.00  -0.00    -0.00   0.00  -0.00     0.00   0.00  -0.00
   5   6    -0.00  -0.00  -0.00     0.00   0.00  -0.00     0.00   0.01   0.00
   6   6     0.00  -0.00   0.00    -0.00  -0.00  -0.00     0.01  -0.00   0.01
   7   6    -0.00   0.00  -0.00    -0.00   0.00  -0.00     0.00  -0.00   0.00
   8   6    -0.00   0.00  -0.00     0.00   0.00   0.00     0.00  -0.00   0.00
   9   7     0.00   0.00   0.00    -0.00  -0.00   0.00    -0.00   0.00   0.00
  10   6     0.00  -0.00   0.00     0.00   0.00  -0.00    -0.00  -0.00  -0.00
  11   6     0.00   0.00   0.00     0.00   0.00   0.00     0.00   0.00   0.00
  12   6    -0.00   0.00   0.00    -0.00   0.00   0.00    -0.00   0.00   0.00
  13   6     0.00   0.00   0.00    -0.00  -0.00   0.00     0.00   0.00  -0.00
  14   6    -0.00   0.00  -0.00     0.00   0.00  -0.00    -0.00   0.00   0.00
  15   6    -0.00   0.00  -0.00     0.00   0.00  -0.00     0.00   0.00  -0.00
  16   6    -0.00  -0.00   0.00     0.00   0.00  -0.00    -0.00   0.00  -0.00
  17   7     0.00   0.00  -0.00     0.00  -0.00   0.00     0.00  -0.00   0.00
  18   6    -0.00  -0.00   0.00    -0.00  -0.00   0.00     0.00   0.00   0.00
  19   6     0.00   0.00  -0.00    -0.00   0.00  -0.00    -0.00   0.00  -0.00
  20   6    -0.00  -0.00  -0.00    -0.01  -0.00  -0.00    -0.00  -0.00  -0.00
  21   6     0.00   0.01  -0.00    -0.00  -0.00   0.00    -0.00  -0.00   0.00
  22   6    -0.00   0.00  -0.00     0.00  -0.00   0.00     0.00  -0.00   0.00
  23   6    -0.00   0.00  -0.00    -0.00   0.00  -0.00    -0.00   0.00  -0.00
  24   7     0.00  -0.00   0.00     0.00  -0.00   0.00     0.00  -0.00   0.00
  25   6    -0.19  -0.03  -0.01     0.01   0.00   0.00     0.00   0.00   0.00
  26   6    -0.00  -0.01   0.00     0.00   0.00   0.00     0.00   0.00   0.00
  27   6    -0.00  -0.01   0.00    -0.00   0.00  -0.00     0.00  -0.00   0.00
  28   6     0.14  -0.13   0.02     0.00  -0.00   0.00     0.00  -0.00   0.00
  29   6     0.01   0.00   0.00    -0.00   0.00  -0.00     0.00  -0.00   0.00
  30   6     0.00  -0.00   0.00     0.00  -0.00   0.00    -0.00  -0.00  -0.00
  31   7    -0.00  -0.00  -0.00     0.00   0.00  -0.00     0.00   0.00   0.00
  32   6     0.00   0.01  -0.00    -0.03  -0.08   0.01    -0.00   0.00  -0.00
  33   6     0.00  -0.00   0.00     0.19  -0.18   0.03    -0.00   0.00  -0.00
  34   6    -0.00   0.00  -0.00     0.01   0.00   0.00    -0.00  -0.00  -0.00
  35   6     0.00  -0.00   0.00     0.00  -0.00   0.00     0.00  -0.00   0.00
  36   7     0.00   0.00  -0.00     0.00   0.00  -0.00    -0.00   0.00  -0.00
  37   6    -0.00  -0.00   0.00    -0.00  -0.00  -0.00     0.00  -0.00   0.00
  38   6    -0.00  -0.00   0.00    -0.00  -0.00   0.00    -0.00  -0.00   0.00
  39   6     0.00  -0.00   0.00     0.00  -0.00   0.00     0.00  -0.00   0.00
  40   6     0.00   0.00  -0.00     0.00   0.00  -0.00     0.00  -0.00   0.00
  41   6     0.00   0.00   0.00    -0.00  -0.00  -0.00     0.00  -0.00   0.00
  42   6    -0.00   0.00   0.00    -0.00  -0.00  -0.00    -0.00   0.00   0.00
  43   6    -0.00   0.00  -0.00     0.00  -0.00   0.00    -0.00   0.00   0.00
  44   7     0.00   0.00   0.00    -0.00   0.00  -0.00    -0.00  -0.00  -0.00
  45   6    -0.00   0.00   0.00     0.00   0.00   0.00     0.00   0.00   0.00
  46   6     0.00   0.00   0.00    -0.00  -0.00  -0.00    -0.00  -0.00  -0.00
  47   6    -0.00   0.00   0.00     0.00  -0.00  -0.00     0.00  -0.00  -0.00
  48   6     0.00  -0.00   0.00    -0.00  -0.00  -0.00     0.00  -0.00  -0.00
  49   6     0.00   0.00  -0.00     0.00   0.00  -0.00     0.00   0.00  -0.00
  50   6     0.00   0.00  -0.00    -0.00  -0.00   0.00     0.00   0.00  -0.00
  51   6    -0.00   0.00  -0.00     0.00  -0.00  -0.00    -0.00   0.00   0.00
  52   6     0.00   0.00  -0.00     0.00   0.00  -0.00    -0.00  -0.00   0.00
  53   6     0.00   0.00  -0.00     0.00   0.00  -0.00     0.00   0.00   0.00
  54   6     0.00   0.00   0.00     0.00  -0.00   0.00    -0.00  -0.00   0.00
  55   6     0.00   0.00  -0.00     0.00  -0.00  -0.00    -0.00  -0.00  -0.00
  56   6     0.00   0.00  -0.00     0.00   0.00  -0.00    -0.05  -0.01   0.04
  57   6     0.00   0.00  -0.00     0.00   0.00  -0.00    -0.00  -0.01   0.01
  58   6     0.00   0.00   0.00     0.00   0.00   0.00    -0.04  -0.01  -0.03
  59   6     0.00  -0.00   0.00    -0.00   0.00  -0.00    -0.13   0.19  -0.12
  60   1    -0.00  -0.00  -0.00     0.00   0.00   0.00     0.00   0.00   0.00
  61   1     0.00   0.00   0.00     0.00  -0.00  -0.00     0.00   0.00   0.01
  62   1     0.00  -0.00  -0.00    -0.00   0.00   0.00     0.01   0.00  -0.00
  63   1    -0.00  -0.00  -0.00     0.00   0.00  -0.00    -0.00  -0.00  -0.00
  64   1    -0.00   0.00  -0.00     0.00  -0.00   0.00    -0.00   0.00  -0.00
  65   1     0.00  -0.00  -0.00    -0.00   0.00   0.00     0.00   0.00  -0.00
  66   1    -0.00  -0.00  -0.00    -0.00   0.00  -0.00    -0.00  -0.00  -0.00
  67   1     0.00   0.00   0.00    -0.00  -0.00  -0.00    -0.00   0.00   0.00
  68   1     0.00  -0.00   0.00     0.00  -0.00   0.00    -0.00   0.00  -0.00
  69   1    -0.00  -0.00  -0.00     0.00   0.00   0.00    -0.04  -0.01  -0.03
  70   1     0.00  -0.00   0.00     0.00  -0.00   0.00    -0.01   0.02  -0.01
  71   1    -0.00  -0.00  -0.00    -0.00  -0.00  -0.00    -0.00  -0.00  -0.00
  72   1     0.00  -0.00  -0.00     0.00  -0.00  -0.00     0.00  -0.00  -0.00
  73   1     0.00   0.00  -0.00    -0.00  -0.00   0.00    -0.00  -0.00   0.00
  74   1     0.02   0.00   0.00     0.04   0.01   0.00     0.02   0.00   0.00
  75   1    -0.01  -0.03   0.00     0.00   0.01  -0.00     0.00   0.00  -0.00
  76   1     0.68   0.12   0.03    -0.02  -0.00  -0.00    -0.00  -0.00  -0.00
  77   1    -0.47   0.47  -0.08    -0.01   0.01  -0.00    -0.00   0.00  -0.00
  78   1    -0.01  -0.03   0.00     0.08   0.27  -0.02    -0.00  -0.00   0.00
  79   1    -0.01   0.01  -0.00    -0.64   0.64  -0.10     0.00  -0.00   0.00
  80   1     0.00   0.00  -0.00     0.00   0.01  -0.00     0.00   0.00  -0.00
  81   1    -0.00  -0.00  -0.00     0.00   0.00   0.00    -0.00  -0.00  -0.00
  82   1    -0.00  -0.00  -0.00     0.00   0.00   0.00    -0.00  -0.00  -0.00
  83   1     0.00  -0.00   0.00    -0.00   0.00  -0.00     0.00  -0.00   0.00
  84   1     0.00  -0.00  -0.00    -0.00  -0.00  -0.00    -0.00  -0.00  -0.00
  85   1    -0.00  -0.00  -0.00     0.00   0.00   0.00     0.00   0.00   0.00
  86   1     0.00  -0.00  -0.00    -0.00   0.00   0.00    -0.00   0.00   0.00
  87   1    -0.00  -0.00   0.00    -0.00  -0.00   0.00    -0.00  -0.00   0.00
  88   1    -0.00  -0.00   0.00     0.00   0.00  -0.00    -0.00  -0.01   0.00
  89   1    -0.00  -0.00   0.00    -0.00  -0.00   0.00    -0.00  -0.00   0.00
  90   1    -0.00   0.00  -0.00    -0.00   0.00  -0.00    -0.00   0.00  -0.00
  91   1     0.00  -0.00  -0.00     0.00  -0.00  -0.00     0.00  -0.00  -0.00
  92   1    -0.00  -0.00  -0.00     0.00  -0.00   0.00     0.00   0.00   0.00
  93   1    -0.00   0.00   0.00    -0.00   0.00   0.00    -0.00   0.00  -0.00
  94   1    -0.00   0.00  -0.00     0.00  -0.00  -0.00    -0.00   0.00  -0.00
  95   1    -0.00  -0.00   0.00    -0.00  -0.00   0.00    -0.00  -0.00   0.00
  96   1    -0.00   0.00  -0.00    -0.00   0.00   0.00     0.00  -0.00  -0.00
  97   1    -0.00  -0.00  -0.00     0.00   0.00   0.00     0.00   0.00   0.00
  98   1    -0.00  -0.00   0.00    -0.00  -0.00   0.00     0.17   0.03  -0.12
  99   1    -0.00  -0.00   0.00    -0.00  -0.00   0.00     0.01   0.03  -0.02
 100   1    -0.00  -0.00  -0.00    -0.00  -0.00  -0.00     0.12   0.03   0.08
 101   1    -0.00   0.00  -0.00     0.00  -0.00   0.00     0.47  -0.68   0.42
                    295                    296                    297
                        a                      a                      a 
 Frequencies --  3113.0355              3113.1135              3114.7171
 Red. masses --     1.8372                 1.8638                 1.8047
 Frc consts  --     0.0000                 0.0000                 0.0000
 IR Inten    --    66.9379                10.9473                60.4484
 Raman Activ --     0.0000                 0.0000                 0.0000
 Depolar     --     0.0000                 0.0000                 0.0000
 Atom AN      X      Y      Z        X      Y      Z        X      Y      Z
   1   6     0.00  -0.00   0.00    -0.00   0.00  -0.00    -0.00   0.00  -0.00
   2   6     0.00  -0.00   0.00    -0.00   0.00  -0.00    -0.00   0.00  -0.00
   3   6     0.00  -0.00  -0.00    -0.00   0.00   0.00     0.00   0.00  -0.00
   4   6    -0.00  -0.00   0.00     0.00   0.00  -0.00     0.00   0.00   0.00
   5   6    -0.00  -0.00  -0.00     0.00   0.00   0.00     0.00   0.00   0.00
   6   6    -0.00  -0.00  -0.00     0.00   0.00   0.00     0.00   0.00   0.00
   7   6    -0.00   0.00  -0.00     0.00  -0.00   0.00     0.00  -0.00   0.00
   8   6    -0.00   0.00  -0.00     0.00  -0.00   0.00     0.00   0.00   0.00
   9   7    -0.00   0.00   0.00    -0.00   0.00   0.00    -0.00  -0.00   0.00
  10   6     0.00   0.00   0.00     0.00   0.00  -0.00     0.00   0.00  -0.00
  11   6    -0.00  -0.00  -0.00     0.00   0.00   0.00     0.00   0.00   0.00
  12   6     0.00  -0.00  -0.00    -0.00   0.00   0.00    -0.00   0.00   0.00
  13   6    -0.00  -0.00   0.00    -0.00  -0.00   0.00    -0.00  -0.00   0.00
  14   6     0.00  -0.00  -0.00     0.00   0.00  -0.00     0.00   0.00  -0.00
  15   6    -0.00   0.00  -0.00     0.00   0.00  -0.00     0.00   0.00  -0.00
  16   6     0.00   0.00   0.00    -0.00   0.00  -0.00     0.00   0.00   0.00
  17   7    -0.00   0.00  -0.00    -0.00  -0.00   0.00    -0.00   0.00  -0.00
  18   6    -0.00  -0.00   0.00     0.00   0.00   0.00    -0.00  -0.00   0.00
  19   6     0.00  -0.00   0.00     0.01  -0.00   0.00     0.00   0.00   0.00
  20   6     0.01   0.00   0.00     0.26   0.04   0.01     0.01   0.00   0.00
  21   6     0.00   0.00  -0.00     0.03   0.08  -0.01     0.00   0.01  -0.00
  22   6    -0.00   0.00  -0.00    -0.00   0.00  -0.00    -0.01   0.00  -0.00
  23   6     0.00  -0.00   0.00     0.00   0.00  -0.00    -0.00   0.00  -0.00
  24   7    -0.00   0.00  -0.00     0.00  -0.00   0.00     0.00  -0.00   0.00
  25   6    -0.00  -0.00  -0.00     0.01   0.00   0.00    -0.18  -0.03  -0.01
  26   6    -0.00  -0.00  -0.00    -0.00   0.00  -0.00    -0.00  -0.00   0.00
  27   6    -0.00   0.00  -0.00     0.00  -0.00   0.00    -0.00   0.01  -0.00
  28   6    -0.00   0.00  -0.00     0.01  -0.01   0.00    -0.14   0.13  -0.02
  29   6    -0.00   0.00  -0.00     0.00   0.00   0.00    -0.01   0.00  -0.00
  30   6     0.00   0.00   0.00    -0.00  -0.00  -0.00    -0.00   0.00  -0.00
  31   7    -0.00  -0.00  -0.00     0.00   0.00   0.00     0.00   0.00   0.00
  32   6    -0.00  -0.00   0.00    -0.00  -0.00   0.00    -0.00  -0.01   0.00
  33   6     0.00  -0.00   0.00     0.01  -0.01   0.00     0.00  -0.00   0.00
  34   6     0.00   0.00   0.00     0.00  -0.00   0.00     0.00  -0.00   0.00
  35   6    -0.00   0.00  -0.00     0.00   0.00  -0.00     0.00   0.00  -0.00
  36   7     0.00  -0.00   0.00     0.00   0.00   0.00    -0.00  -0.00  -0.00
  37   6    -0.00  -0.00  -0.00    -0.00  -0.00   0.00    -0.00  -0.00   0.00
  38   6     0.00   0.00  -0.00    -0.00  -0.00   0.00    -0.00  -0.00   0.00
  39   6    -0.00  -0.00  -0.00    -0.00  -0.00   0.00     0.00  -0.00   0.00
  40   6    -0.00   0.00  -0.00     0.00   0.00   0.00    -0.00   0.00  -0.00
  41   6     0.00   0.00   0.00    -0.00  -0.00  -0.00    -0.00  -0.00  -0.00
  42   6     0.00   0.00   0.00    -0.00  -0.00  -0.00    -0.00  -0.00  -0.00
  43   6    -0.00   0.00  -0.00    -0.00   0.00   0.00     0.00  -0.00   0.00
  44   7    -0.00  -0.00   0.00    -0.00   0.00  -0.00    -0.00   0.00  -0.00
  45   6     0.00   0.00   0.00     0.00   0.00   0.00     0.00   0.00   0.00
  46   6     0.00   0.00   0.00    -0.00  -0.00  -0.00    -0.00  -0.00  -0.00
  47   6    -0.00   0.00   0.00     0.00  -0.00  -0.00     0.00  -0.00  -0.00
  48   6     0.00  -0.00  -0.00    -0.00   0.00   0.00    -0.00  -0.00  -0.00
  49   6     0.01   0.00  -0.00    -0.00  -0.00   0.00    -0.00  -0.00   0.00
  50   6     0.00   0.01  -0.01    -0.00  -0.00   0.00    -0.00  -0.00   0.00
  51   6    -0.01   0.01   0.00     0.00  -0.00  -0.00     0.00  -0.00  -0.00
  52   6    -0.00  -0.00   0.00     0.00   0.00  -0.00     0.00  -0.00  -0.00
  53   6    -0.00   0.00   0.00     0.00  -0.00  -0.00     0.00  -0.00   0.00
  54   6    -0.00  -0.00   0.00     0.00   0.00  -0.00     0.00  -0.00   0.00
  55   6    -0.00   0.00  -0.00     0.00  -0.00  -0.00     0.00  -0.00  -0.00
  56   6    -0.21  -0.04   0.15     0.01   0.00  -0.01     0.00   0.00  -0.00
  57   6    -0.01  -0.04   0.02     0.00   0.00  -0.00     0.00   0.00  -0.00
  58   6     0.01   0.00   0.01    -0.00  -0.00  -0.00    -0.00  -0.00  -0.00
  59   6     0.03  -0.04   0.03    -0.00   0.01  -0.00    -0.00   0.00  -0.00
  60   1    -0.00  -0.00  -0.00    -0.00  -0.00  -0.00    -0.00  -0.00  -0.00
  61   1    -0.00  -0.00  -0.00     0.00   0.00   0.00     0.00   0.00   0.00
  62   1    -0.00  -0.00   0.00     0.00   0.00  -0.00     0.00   0.00   0.00
  63   1     0.00   0.00   0.00    -0.00  -0.00  -0.00    -0.00  -0.00  -0.00
  64   1     0.00  -0.00   0.00     0.00   0.00  -0.00     0.00  -0.00   0.00
  65   1    -0.00  -0.00   0.00     0.00   0.00  -0.00    -0.00   0.00   0.00
  66   1     0.00   0.00   0.00    -0.00  -0.00  -0.00    -0.00  -0.00  -0.00
  67   1    -0.00  -0.00  -0.00     0.00   0.00   0.00     0.00   0.00  -0.00
  68   1     0.00  -0.00   0.00    -0.00   0.00  -0.00     0.00   0.00  -0.00
  69   1     0.01   0.00   0.01    -0.00  -0.00  -0.00    -0.00  -0.00  -0.00
  70   1     0.00  -0.01   0.00    -0.00   0.00  -0.00    -0.00   0.00  -0.00
  71   1     0.00   0.00   0.00    -0.00  -0.00  -0.00    -0.00  -0.00  -0.00
  72   1    -0.00   0.00   0.00     0.00  -0.00  -0.00     0.00  -0.00  -0.00
  73   1    -0.00  -0.00   0.00    -0.00  -0.01   0.00    -0.00  -0.00   0.00
  74   1    -0.04  -0.01  -0.00    -0.90  -0.16  -0.04    -0.03  -0.01  -0.00
  75   1    -0.00  -0.01   0.00    -0.09  -0.26   0.02    -0.01  -0.03   0.00
  76   1     0.00   0.00   0.00    -0.03  -0.00  -0.00     0.66   0.12   0.03
  77   1     0.00  -0.00   0.00    -0.02   0.02  -0.00     0.48  -0.49   0.08
  78   1     0.00   0.00  -0.00     0.00   0.01  -0.00     0.01   0.02  -0.00
  79   1    -0.00   0.00  -0.00    -0.03   0.03  -0.00    -0.01   0.01  -0.00
  80   1    -0.00  -0.00   0.00     0.00   0.00  -0.00     0.00   0.00  -0.00
  81   1    -0.00  -0.00  -0.00     0.00   0.00   0.00     0.00   0.00   0.00
  82   1     0.00  -0.00  -0.00    -0.00   0.00   0.00     0.00   0.00   0.00
  83   1     0.00  -0.00   0.00     0.00  -0.00   0.00    -0.00   0.00  -0.00
  84   1     0.00  -0.00  -0.00    -0.00  -0.00  -0.00    -0.00  -0.00  -0.00
  85   1    -0.00  -0.00  -0.00     0.00   0.00   0.00     0.00   0.00   0.00
  86   1     0.00  -0.00  -0.00    -0.00   0.00   0.00    -0.00   0.00   0.00
  87   1    -0.02  -0.00   0.02     0.00   0.00  -0.00     0.00   0.00  -0.00
  88   1    -0.01  -0.04   0.03     0.00   0.00  -0.00     0.00   0.00  -0.00
  89   1    -0.00  -0.00   0.00    -0.00  -0.00   0.00    -0.00  -0.00   0.00
  90   1    -0.00   0.00  -0.00     0.00  -0.00  -0.00    -0.00   0.00  -0.00
  91   1     0.00  -0.00  -0.00    -0.00   0.00   0.00    -0.00   0.00   0.00
  92   1     0.01   0.01   0.00    -0.00  -0.00  -0.00    -0.00  -0.00  -0.00
  93   1    -0.00   0.00  -0.00     0.00  -0.00   0.00    -0.00   0.00   0.00
  94   1    -0.00   0.00  -0.01     0.00  -0.00   0.00     0.00  -0.00   0.00
  95   1    -0.00  -0.00   0.00    -0.00  -0.00   0.00    -0.00  -0.00   0.00
  96   1     0.00  -0.00  -0.00    -0.00   0.00   0.00    -0.00   0.00   0.00
  97   1     0.00   0.00   0.00    -0.00  -0.00  -0.00     0.00   0.00   0.00
  98   1     0.73   0.14  -0.54    -0.03  -0.01   0.02    -0.00  -0.00   0.00
  99   1     0.02   0.13  -0.07    -0.00  -0.00   0.00    -0.00  -0.00   0.00
 100   1    -0.03  -0.01  -0.02     0.00   0.00   0.00     0.00   0.00   0.00
 101   1    -0.11   0.15  -0.10     0.01  -0.02   0.01     0.00  -0.00   0.00
