$hessian                                                                        
        0.4673577948  -0.0020094192   0.0390946408  -0.1421423091   0.0088677861
        0.0564116806   0.0015865470   0.0004910974   0.0014538915  -0.0208772545
        0.0076347560   0.0094310720  -0.0221401109  -0.0094442621   0.0083529765
        0.0001685965  -0.0013110406   0.0009095853  -0.0003227627  -0.0006645846
       -0.0010906965  -0.0000625871   0.0003195393  -0.0001781620  -0.0000873084
       -0.0001380290   0.0000916499  -0.0000353414  -0.0000447959   0.0000474953
        0.0000050451   0.0000044415  -0.0000057612  -0.0000164664   0.0000057556
        0.0000013033  -0.0000064532  -0.0000036843   0.0000009963   0.0000271778
       -0.0000014119  -0.0000100087  -0.0000150652  -0.0000006184   0.0000016464
        0.0000189786  -0.0000003741  -0.0000106755  -0.0000083618  -0.0000018543
       -0.0000034432   0.0000050961   0.0000008777   0.0000146269  -0.0000049430
        0.0000010545  -0.0000053171   0.0000016354  -0.0000006263   0.0000075937
       -0.0000057751  -0.0000000839  -0.0000005292   0.0000086656  -0.0000005534
        0.0000012373   0.0000000399   0.0000007447   0.0000003581  -0.0000000748
        0.0000011928  -0.0000029744   0.0000036273  -0.0000002016   0.0000037968
       -0.0000053175   0.0000004985  -0.0000041946   0.0000061316   0.0000003012
        0.0000029212  -0.0000026018   0.0000009154  -0.0000005778  -0.0000077270
       -0.0000001746  -0.0000060651   0.0000075349   0.0000003218   0.0000052062
        0.0000079752   0.0000005519  -0.0000005753  -0.0000095821  -0.0000008305
        0.0000010536   0.0000053422  -0.0000004142   0.0000010728   0.0000014719
        0.0000006435   0.0000016193  -0.0000028530   0.0000002523   0.0000015580
        0.0000071827  -0.0000003416  -0.0000017970  -0.0000066438  -0.0000006683
        0.0000018962   0.0000068446  -0.0000007445   0.0000003600  -0.0000034635
        0.0000002257  -0.0000020413  -0.0000021526  -0.0000011928  -0.0000018579
        0.0000022564   0.0000017969  -0.0000049235  -0.0000014367  -0.0000007437
        0.0000011566   0.0000025987   0.0000016691  -0.0000166725   0.0000007993
       -0.0000034967   0.0000063552  -0.0000081319   0.0000001765   0.0000056468
        0.0000077828  -0.0000004634   0.0000043690  -0.0000123292   0.0000014788
       -0.0000037890   0.0000132138   0.0000022368   0.0000099489  -0.0000067476
       -0.0000068181   0.0000003030  -0.0000031822  -0.0000038353  -0.0000009230
        0.0000253273   0.0000370926   0.0000286950  -0.0000264221   0.0000687158
        0.0000355062   0.0000189227   0.0000032439  -0.0000279224  -0.0000158984
        0.0000011346   0.0000129713   0.0000002314   0.0000011281   0.0000031680
       -0.0000151481   0.0000104028   0.0000097152  -0.0000044962  -0.0000069162
       -0.0000026822  -0.0000042930  -0.0000023484  -0.0000079646   0.0000047901
        0.0000005199  -0.0000043187   0.0000037158   0.0000054734  -0.0000093963
        0.0000035112  -0.0000184738  -0.0000031438  -0.0000421277  -0.0000728945
       -0.0006533701  -0.0007384992   0.0011477006   0.0003851244  -0.1155079483
        0.1049465304  -0.0366828316  -0.1102379270  -0.1061794922  -0.0177780389
       -0.0573122395  -0.0049841764  -0.0578099898   0.0005691391  -0.0000909124
       -0.0013728317   0.0005842706   0.0001332803  -0.0006609545   0.0006219933
       -0.0001351892  -0.0007820586  -0.0022062719   0.0031196686  -0.0005136816
        0.0003501005  -0.0006133697   0.0007555380   0.0006746820  -0.0011014852
        0.0001341118  -0.0000154530  -0.0000435674   0.0003411496  -0.0000376115
       -0.0001342289  -0.0000435904  -0.0000037033  -0.0000063090  -0.0000027828
       -0.0000057382  -0.0000096007  -0.0000057543   0.0000012119   0.0000001385
       -0.0000020439   0.0000017408   0.0000006530   0.0000005618   0.0000002401
        0.0000010837  -0.0000020477   0.0000009078   0.0000001827   0.0000008018
       -0.0000010510   0.0000004110   0.0000001465   0.0000000542   0.0000002270
       -0.0000017138   0.0000014957   0.0000003590  -0.0000000639   0.0000014058
        0.0000003739  -0.0000006125  -0.0000007984  -0.0000006123  -0.0000009360
       -0.0000005712  -0.0000000672   0.0000005106   0.0000012930  -0.0000003131
        0.0000002800  -0.0000004419  -0.0000003547   0.0000017384   0.0000012003
        0.0000002565   0.0000007415  -0.0000020822  -0.0000003198   0.0000022163
        0.0000020393  -0.0000009317  -0.0000042151   0.0000037369  -0.0000073626
       -0.0000263740  -0.0000039875  -0.0000168601   0.0000140253   0.0000080460
       -0.0000082281  -0.0000083770  -0.0000003765  -0.0000011740   0.0000006256
        0.0000035983  -0.0000030810  -0.0000018680   0.0000047116   0.0000026130
        0.0000032832   0.0000040918  -0.0000052636   0.0000016917   0.0000028329
        0.0000029440  -0.0000034672   0.0000019459   0.0000022902   0.0000035496
        0.0000004725  -0.0000054748  -0.0000021223   0.0000044959   0.0000032592
       -0.0000016441   0.0000010751   0.0000000235   0.0000018209   0.0000052524
       -0.0000079926  -0.0000019211   0.0000076795  -0.0000009121  -0.0000081114
       -0.0000139502   0.0000183644   0.0000366851  -0.0001745311   0.0002527901
        0.0001351398
       -0.0020094192   0.5263584101  -0.0013513576   0.0032796694  -0.0624384456
       -0.0007389504   0.0017295952   0.0004794664  -0.0013586365   0.0223018602
       -0.0066050141  -0.0108104375  -0.0211873903  -0.0021389827   0.0103698072
       -0.0006681919  -0.0019831302   0.0005672261  -0.0001067629  -0.0008141830
       -0.0012999341   0.0000732841   0.0008176622  -0.0000925244  -0.0007950011
       -0.0007369815   0.0001034377   0.0007008469  -0.0000710463  -0.0000149266
       -0.0002024150  -0.0000959791  -0.0000053800   0.0001359619   0.0000024286
       -0.0001079861  -0.0002207511  -0.0000276653   0.0000556389   0.0002234736
        0.0000193646   0.0000238315  -0.0001723958  -0.0000223075  -0.0000404788
        0.0001344395  -0.0000154653   0.0000086059  -0.0000121776   0.0000071151
       -0.0000800173  -0.0000494943  -0.0000054056   0.0000776021   0.0000078995
        0.0000016761   0.0000008470  -0.0000097277  -0.0000003901   0.0000070258
       -0.0000041701  -0.0000020441   0.0000015456   0.0000070559   0.0000015597
        0.0000095905   0.0000021081   0.0000004267   0.0000010985  -0.0000037675
        0.0000005942  -0.0000068441   0.0000055276   0.0000004073   0.0000057726
       -0.0000049819   0.0000020690  -0.0000070458   0.0000046395   0.0000008800
        0.0000048822  -0.0000075983   0.0000004260  -0.0000014185  -0.0000133300
        0.0000034556  -0.0000231308   0.0000023576  -0.0000035543   0.0000303834
        0.0000059105   0.0000022438  -0.0000244749  -0.0000170227  -0.0000017263
        0.0000061062   0.0000007226   0.0000005290  -0.0000043099   0.0000083456
       -0.0000009304  -0.0000023610  -0.0000089341  -0.0000026638   0.0000040151
        0.0000105512   0.0000018857  -0.0000028942  -0.0000116301  -0.0000005249
        0.0000011182   0.0000093757   0.0000017030   0.0000002485  -0.0000080389
       -0.0000026097  -0.0000029772   0.0000089433   0.0000034346  -0.0000031987
       -0.0000165114  -0.0000038872   0.0000027745   0.0000465099   0.0000017773
       -0.0000081855  -0.0000800355   0.0000070970  -0.0001390405   0.0001169630
       -0.0000016791   0.0000899751  -0.0000758290  -0.0000032417   0.0000069203
        0.0000381137   0.0000048438   0.0000055209  -0.0000258353   0.0000300896
        0.0000198835  -0.0000118834   0.0000041854  -0.0000349324   0.0000022412
       -0.0000034359   0.0000196375   0.0001773720   0.0000193398   0.0000144463
       -0.0001819561   0.0001008243   0.0000998071  -0.0001997476   0.0003054171
       -0.0000320905   0.0000917252  -0.0000087102  -0.0000365893  -0.0000128186
        0.0000487897   0.0000233601  -0.0000033720  -0.0000009944  -0.0000040330
       -0.0000064516   0.0000066726   0.0000116698   0.0000093392   0.0000040077
        0.0000029982   0.0000137852  -0.0000003661  -0.0000103544   0.0000215670
        0.0000001365  -0.0000019841   0.0000060892   0.0000192477   0.0000008098
        0.0000033556  -0.0000433349  -0.0000227990   0.0002362075   0.0005581163
       -0.0004462674  -0.0004909406  -0.0010164669   0.0004256127   0.1048657924
       -0.1941459832   0.0513446102  -0.1064958257  -0.2094744933  -0.0263136405
       -0.0050844432  -0.0462180474  -0.0198993271   0.0001342096   0.0003906215
       -0.0004970556   0.0006003700   0.0002747168  -0.0003191416  -0.0005087621
        0.0003263228   0.0004651521   0.0038447234  -0.0040994127   0.0004520618
        0.0000124128   0.0005276241  -0.0007098310   0.0013420057   0.0007205438
       -0.0005462126  -0.0001797013  -0.0000385393   0.0002514645  -0.0001599852
       -0.0001587819  -0.0001061971   0.0000012027  -0.0000142108  -0.0000042126
       -0.0000194938  -0.0000068996  -0.0000091849   0.0000026910  -0.0000038142
        0.0000047108   0.0000019625   0.0000001054   0.0000044610   0.0000011007
        0.0000011290  -0.0000023249   0.0000021980  -0.0000010938   0.0000005555
       -0.0000002304   0.0000018105  -0.0000001420  -0.0000004010   0.0000012593
       -0.0000004795   0.0000010393   0.0000019421   0.0000014509   0.0000017143
        0.0000011741   0.0000008929  -0.0000010544  -0.0000001467  -0.0000007019
       -0.0000011977  -0.0000005373   0.0000006118   0.0000016815  -0.0000016273
       -0.0000001117  -0.0000012580  -0.0000018535   0.0000023739   0.0000028441
       -0.0000013441  -0.0000020400  -0.0000025724  -0.0000086177   0.0000030851
       -0.0000178883  -0.0000004743   0.0000178397   0.0000236566   0.0000068199
       -0.0000284601  -0.0000215486  -0.0000168370   0.0000243406   0.0000030597
       -0.0000077403  -0.0000086961  -0.0000034523  -0.0000002814  -0.0000003976
        0.0000047457  -0.0000118847  -0.0000071125  -0.0000086399  -0.0000037591
        0.0000005419   0.0000066170  -0.0000159435  -0.0000001880  -0.0000049687
       -0.0000002583   0.0000007301  -0.0000061900  -0.0000002938  -0.0000029862
       -0.0000009521  -0.0000163287  -0.0000076620  -0.0000066301   0.0000002446
        0.0000010100  -0.0000061057   0.0000024305  -0.0000025663  -0.0000057922
       -0.0000222878   0.0000097227  -0.0000191584  -0.0000043526   0.0000130690
       -0.0000138196  -0.0000070304   0.0000204218  -0.0010812103  -0.0007389865
        0.0005629268
        0.0390946408  -0.0013513576   0.4948999923   0.0526037457  -0.0044673904
       -0.0963430299   0.0232038397  -0.0024792508  -0.0252188476  -0.0023973882
       -0.0002597500   0.0021488264   0.0009073709   0.0026454722   0.0019469358
       -0.0006277824  -0.0007612710  -0.0006725944   0.0000971917   0.0000609453
       -0.0001939317   0.0001387684   0.0002102738   0.0000583621  -0.0002482900
       -0.0001801573   0.0000022808   0.0002782899  -0.0000128582  -0.0000101112
       -0.0000713740  -0.0000316544  -0.0000047916   0.0000558665  -0.0000021299
       -0.0000428162  -0.0000722589  -0.0000084618   0.0000225369   0.0000653288
        0.0000016534   0.0000103274  -0.0000510307  -0.0000042587  -0.0000176547
        0.0000349507  -0.0000048704   0.0000051192  -0.0000001719   0.0000005596
       -0.0000215394  -0.0000139996  -0.0000017122   0.0000123172   0.0000035607
       -0.0000080623   0.0000006247  -0.0000023300   0.0000052637  -0.0000008414
        0.0000010554  -0.0000032080  -0.0000001338  -0.0000021776  -0.0000010219
       -0.0000004755  -0.0000006681   0.0000001441   0.0000016325   0.0000011923
        0.0000029719  -0.0000010026  -0.0000000073   0.0000003323  -0.0000048215
       -0.0000025589  -0.0000012932   0.0000019298  -0.0000012759  -0.0000061724
        0.0000006017   0.0000019527   0.0000005066   0.0000002575  -0.0000023971
       -0.0000001161  -0.0000019497  -0.0000028294  -0.0000029551   0.0000040262
       -0.0000047533   0.0000023766  -0.0000060832  -0.0000014480  -0.0000028933
        0.0000040164  -0.0000025157  -0.0000000318  -0.0000043955   0.0000028497
       -0.0000028963  -0.0000013599  -0.0000017172   0.0000016102  -0.0000007289
       -0.0000002655  -0.0000002675  -0.0000009895  -0.0000016896  -0.0000009343
       -0.0000013712   0.0000006483   0.0000007280  -0.0000003498  -0.0000013649
        0.0000024148  -0.0000007376   0.0000047812   0.0000032768   0.0000007612
       -0.0000071851  -0.0000059817   0.0000010205   0.0000151402   0.0000077652
        0.0000018825  -0.0000273834   0.0000045067  -0.0000325519   0.0000347767
        0.0000016301   0.0000272984  -0.0000213085   0.0000017173   0.0000013842
        0.0000062838   0.0000012859   0.0000014319   0.0000018766   0.0000114487
        0.0000147308  -0.0000251932   0.0000025010  -0.0000339110   0.0000125110
        0.0000022408   0.0000206217   0.0000603866   0.0000107984   0.0000059534
       -0.0000828065   0.0000144715   0.0000110764  -0.0000359743   0.0000650580
       -0.0000184850   0.0000116513   0.0000072568  -0.0000128846  -0.0000066309
        0.0000312795  -0.0000034244   0.0000020675   0.0000079620   0.0000010884
        0.0000017341  -0.0000006264  -0.0000054892   0.0000030772   0.0000081552
       -0.0000050367   0.0000024157  -0.0000023146  -0.0000076298   0.0000029933
       -0.0000022425  -0.0000042660   0.0000037536   0.0000001175  -0.0000014064
        0.0000018670   0.0000079350  -0.0000143188   0.0000788900   0.0000010983
       -0.0000235981  -0.0004358046  -0.0003634911   0.0003023184  -0.0369075785
        0.0516054587  -0.0609009107  -0.0181131367  -0.0265071139  -0.0476730795
       -0.0574334593  -0.0199014647  -0.2648737814  -0.0001973177  -0.0005936613
       -0.0066773046   0.0008525365   0.0005036365   0.0008466781   0.0010315871
       -0.0003589552   0.0010488215  -0.0010800413   0.0012274260   0.0003481066
       -0.0008091582   0.0005175402   0.0008552027  -0.0001870983   0.0001538814
        0.0001015566   0.0000271360   0.0000939940   0.0001014527  -0.0000822265
       -0.0000270497   0.0000093651   0.0000025219  -0.0000019805   0.0000036943
       -0.0000045258   0.0000026952   0.0000011829   0.0000007275  -0.0000010200
        0.0000040364  -0.0000002523  -0.0000004159   0.0000014610  -0.0000001124
       -0.0000006993  -0.0000003010  -0.0000009685  -0.0000021485   0.0000007995
       -0.0000004813  -0.0000003252  -0.0000004176  -0.0000005314   0.0000004087
       -0.0000006694   0.0000002030  -0.0000006821   0.0000004757  -0.0000000828
       -0.0000007464   0.0000001053  -0.0000002722  -0.0000010710   0.0000015587
       -0.0000007836  -0.0000005743   0.0000005723  -0.0000005094  -0.0000007880
        0.0000007879  -0.0000002259  -0.0000006894   0.0000001946   0.0000024434
       -0.0000002562  -0.0000012092   0.0000006262  -0.0000023773   0.0000009724
       -0.0000094468   0.0000015367   0.0000085802   0.0000084917   0.0000093064
        0.0000025077  -0.0000062052  -0.0000323407   0.0000202531  -0.0000020427
       -0.0000059594   0.0000086937  -0.0000022870  -0.0000015787   0.0000047762
        0.0000011114  -0.0000028207   0.0000009081  -0.0000036308  -0.0000014106
        0.0000031261   0.0000020494  -0.0000023867   0.0000013227  -0.0000025972
       -0.0000009293   0.0000049670   0.0000004118   0.0000040229   0.0000023400
        0.0000001037  -0.0000031141   0.0000007044  -0.0000041032  -0.0000004149
        0.0000031824  -0.0000001110   0.0000007814   0.0000020665  -0.0000040219
       -0.0000061938   0.0000070764  -0.0000118328  -0.0000036301   0.0000141074
        0.0000218945  -0.0000183705   0.0000024854   0.0003303190   0.0002043537
       -0.0000822445
       -0.1421423091   0.0032796694   0.0526037457   0.4643156764  -0.0058727243
        0.0039465980  -0.0665997296  -0.0012273746  -0.0251838009  -0.0941007149
        0.0510040252  -0.0160435537  -0.0953376396  -0.0488090845  -0.0119835997
       -0.0178640176  -0.0206838272  -0.0060017959  -0.0025076941   0.0009177513
       -0.0038263293  -0.0011384206  -0.0002370554  -0.0006271857  -0.0001238730
        0.0001426537   0.0005601545  -0.0000005978  -0.0000956475   0.0000433476
       -0.0000355334  -0.0000041665  -0.0000180633   0.0000152844   0.0000080904
       -0.0000129498  -0.0000080859   0.0000111884   0.0000218024   0.0000428816
        0.0000007208   0.0000114109  -0.0000309896  -0.0000040043  -0.0000005294
        0.0000355731  -0.0000076312   0.0000047553  -0.0000036775   0.0000027368
       -0.0000190905  -0.0000101033  -0.0000009797   0.0000206315  -0.0000002162
        0.0000021186  -0.0000001260  -0.0000003533   0.0000003608   0.0000059309
       -0.0000017080   0.0000015720  -0.0000002152   0.0000048111  -0.0000003739
        0.0000019587   0.0000001795   0.0000026014   0.0000000510   0.0000004950
        0.0000030473  -0.0000022601   0.0000026703   0.0000020156   0.0000026124
       -0.0000022694   0.0000033553  -0.0000019504   0.0000041925   0.0000025738
        0.0000009436  -0.0000008065   0.0000030348   0.0000002108  -0.0000058586
        0.0000019404  -0.0000070669   0.0000044862  -0.0000003028   0.0000098835
        0.0000053868   0.0000012769  -0.0000060809  -0.0000078026   0.0000005880
        0.0000022159  -0.0000000091  -0.0000006398  -0.0000021570   0.0000025723
        0.0000012785   0.0000014346  -0.0000024896   0.0000015079   0.0000007548
        0.0000048572   0.0000004634  -0.0000026184  -0.0000047982   0.0000009297
        0.0000015372   0.0000054148  -0.0000001738   0.0000001625  -0.0000039805
        0.0000005385  -0.0000023622   0.0000031409  -0.0000010571   0.0000004623
       -0.0000038302   0.0000012125  -0.0000017636   0.0000127628   0.0000008795
       -0.0000023123  -0.0000216734   0.0000005291  -0.0000377008   0.0000199469
       -0.0000021340   0.0000288592  -0.0000106482  -0.0000018013  -0.0000034823
        0.0000030938  -0.0000007149   0.0000080283   0.0000003853   0.0000073225
       -0.0000091617  -0.0000057332  -0.0000070812  -0.0000034757   0.0000045015
        0.0000016282   0.0000048733  -0.0000034075  -0.0000056516  -0.0000109997
        0.0000246026   0.0000404112   0.0000061208   0.0000471312   0.0000233586
        0.0000290709   0.0000456499   0.0000292416  -0.0000412600  -0.0000097542
       -0.0000052045   0.0000014840  -0.0000050143  -0.0000126460   0.0000083544
       -0.0000153502   0.0000198929   0.0000114805  -0.0000096981  -0.0000044020
        0.0000079896  -0.0000092279   0.0000039818   0.0000012821  -0.0000023597
        0.0000044035  -0.0000025156   0.0000028047  -0.0000005542  -0.0000102016
       -0.0000092213  -0.0000328194   0.0000263056   0.0011556120   0.0033050439
       -0.0022754265   0.0068727002   0.0015482701   0.0030041612  -0.0171233220
        0.0041932048   0.0085457307  -0.0187355084  -0.0027422131   0.0099727988
        0.0038420594  -0.0001716525  -0.0005997937   0.0041111661   0.0019632314
        0.0234996103  -0.0051826049  -0.0033789741  -0.0162099620  -0.0055006593
        0.0008294723  -0.0162815152  -0.0159358834   0.0219606872  -0.0043351275
       -0.0046947013   0.0068870475  -0.0041229476   0.0070395449  -0.0134232009
        0.0037737975   0.0004280924  -0.0001129041   0.0010837164  -0.0006007813
       -0.0008924322  -0.0001549232  -0.0000050121   0.0000077631   0.0000092936
       -0.0000017972  -0.0000089403  -0.0000032395   0.0000014085  -0.0000021483
       -0.0000028403   0.0000013836   0.0000005419   0.0000004047   0.0000004117
        0.0000018232  -0.0000010671   0.0000009877   0.0000016727   0.0000005211
        0.0000000707   0.0000024721  -0.0000000396   0.0000008154   0.0000029285
       -0.0000010130   0.0000012315   0.0000020478  -0.0000002820   0.0000005902
        0.0000012627  -0.0000008768  -0.0000005581   0.0000010494  -0.0000012867
       -0.0000008211   0.0000003044  -0.0000002318   0.0000005027  -0.0000003551
        0.0000002588  -0.0000010064  -0.0000006892   0.0000011064  -0.0000001065
       -0.0000009383   0.0000009848  -0.0000029952  -0.0000049836   0.0000022471
       -0.0000103204  -0.0000024899   0.0000036686  -0.0000100763  -0.0000378491
       -0.0000290450   0.0000026970  -0.0000321410   0.0000001723   0.0000015061
       -0.0000021211  -0.0000010494   0.0000026984  -0.0000004273  -0.0000007755
        0.0000014028  -0.0000027956  -0.0000008587   0.0000037134   0.0000004853
       -0.0000014534   0.0000004160  -0.0000012135   0.0000016943   0.0000012414
       -0.0000024489  -0.0000035179   0.0000020177  -0.0000043877  -0.0000016871
       -0.0000014667  -0.0000014787  -0.0000013418   0.0000025404  -0.0000008579
       -0.0000019088   0.0000018597  -0.0000027415   0.0000003243   0.0000053169
       -0.0000035806  -0.0000054273   0.0000095416  -0.0000073021  -0.0000132208
        0.0002588817   0.0008514166  -0.0000355507  -0.0005116934   0.0007696928
        0.0006760743
        0.0088677861  -0.0624384456  -0.0044673904  -0.0058727243   0.4928374712
       -0.0048805499  -0.0001393107  -0.0627483696  -0.0040493874   0.0490523729
       -0.1470136245   0.0255392740  -0.0534515963  -0.1451652399  -0.0140299470
       -0.0075027092  -0.0003570955  -0.0028826270   0.0008995969   0.0012851664
        0.0009045049  -0.0006657605  -0.0014016891  -0.0001136023   0.0007669692
        0.0008908463   0.0000000057  -0.0005928551   0.0000402237  -0.0000141014
        0.0001522433   0.0000667663  -0.0000108147  -0.0001056197  -0.0000038854
        0.0000813868   0.0001728658   0.0000239369  -0.0000384160  -0.0001384520
       -0.0000139598  -0.0000145601   0.0001199307   0.0000065811   0.0000371822
       -0.0000740071   0.0000065271  -0.0000055379   0.0000064203  -0.0000021359
        0.0000504873   0.0000317711   0.0000020472  -0.0000421594  -0.0000059590
       -0.0000000343  -0.0000019956   0.0000074960   0.0000002982  -0.0000006443
        0.0000046557   0.0000020930   0.0000002752  -0.0000020650   0.0000047720
       -0.0000032157   0.0000012975   0.0000026168  -0.0000017966   0.0000028442
        0.0000008760   0.0000024846   0.0000001012   0.0000046717  -0.0000010250
        0.0000048717   0.0000046166   0.0000021015   0.0000010730   0.0000057130
       -0.0000005159   0.0000034308   0.0000028757   0.0000008689   0.0000069312
        0.0000014530   0.0000094910   0.0000033503   0.0000030500  -0.0000165890
        0.0000022355  -0.0000002585   0.0000171367   0.0000069718   0.0000018890
       -0.0000012287   0.0000017724   0.0000016820   0.0000036099  -0.0000046928
        0.0000005995  -0.0000005435   0.0000060011   0.0000004788  -0.0000005227
       -0.0000035044   0.0000022541   0.0000000715   0.0000052053   0.0000016522
       -0.0000022611  -0.0000040509   0.0000022123  -0.0000002981   0.0000064756
       -0.0000018666  -0.0000002752  -0.0000076538  -0.0000007419   0.0000000102
        0.0000134582  -0.0000006435  -0.0000055847  -0.0000304832  -0.0000027914
        0.0000040821   0.0000507118  -0.0000017424   0.0000807924  -0.0000754604
       -0.0000015089  -0.0000525528   0.0000509905  -0.0000001984  -0.0000037330
       -0.0000239562  -0.0000032846   0.0000014586   0.0000156572  -0.0000227483
       -0.0000219942   0.0000076816  -0.0000066561   0.0000361773  -0.0000026740
       -0.0000010435  -0.0000248049  -0.0001441071  -0.0000283794  -0.0000093800
        0.0001901950  -0.0000399912  -0.0000424380   0.0002079902  -0.0003066905
        0.0000170311  -0.0000323026   0.0000893067   0.0000202960   0.0000131149
       -0.0000382483  -0.0000137949  -0.0000058651   0.0000019850   0.0000049986
       -0.0000103503   0.0000261984   0.0000067040  -0.0000089232   0.0000128367
        0.0000089741  -0.0000136924   0.0000156351   0.0000019830  -0.0000041912
        0.0000182655   0.0000003482   0.0000073394  -0.0000155999  -0.0000182606
       -0.0000028308   0.0000277062   0.0000405369   0.0028963291  -0.0024844430
        0.0017693620  -0.0105517490  -0.0307785025  -0.0018080385   0.0203747896
       -0.0033072920  -0.0119934830  -0.0216242369  -0.0013904685   0.0130769533
        0.0020186737  -0.0001286351  -0.0013639793   0.0002318540  -0.0001988017
       -0.0015874716  -0.0075677809  -0.0046334800  -0.0245705717   0.0064909962
       -0.0003302210   0.0224133441   0.0046970062  -0.0040381567  -0.0004501604
        0.0012802043  -0.0009705775   0.0028042348   0.0096326349  -0.0271154451
        0.0057857879   0.0012566830  -0.0003045289   0.0003382968   0.0004384566
        0.0002089672   0.0001840802  -0.0000175498   0.0000201833   0.0000180577
        0.0000074828  -0.0000005917   0.0000061175  -0.0000044307   0.0000014700
       -0.0000046256  -0.0000012778   0.0000020622  -0.0000020535   0.0000002710
        0.0000027361   0.0000019892   0.0000001856   0.0000039882  -0.0000002832
        0.0000021265   0.0000049118   0.0000002087   0.0000014829   0.0000050940
        0.0000005700   0.0000000883   0.0000042081  -0.0000006184  -0.0000010384
        0.0000015541  -0.0000006827   0.0000005791   0.0000029614  -0.0000007894
        0.0000006949   0.0000004775  -0.0000006774  -0.0000009964   0.0000003580
        0.0000000663  -0.0000001788  -0.0000002239  -0.0000019375  -0.0000027545
       -0.0000010225   0.0000015574  -0.0000019027   0.0000026252  -0.0000015720
        0.0000062987  -0.0000001755  -0.0000127341  -0.0000470167  -0.0000395993
       -0.0000061533  -0.0000039988  -0.0000607479  -0.0000082471  -0.0000008421
       -0.0000166440   0.0000063570   0.0000025754  -0.0000071714  -0.0000027113
       -0.0000009071  -0.0000010483  -0.0000009172   0.0000035004  -0.0000080376
       -0.0000000818  -0.0000022483  -0.0000006455   0.0000021301   0.0000032731
       -0.0000073311  -0.0000011089   0.0000012404  -0.0000094613  -0.0000004341
       -0.0000048821   0.0000003981  -0.0000006361   0.0000012356  -0.0000073476
       -0.0000030958   0.0000016239  -0.0000068199  -0.0000026938   0.0000056494
       -0.0000012590  -0.0000124416   0.0000247042  -0.0000125030  -0.0000204698
       -0.0005288851  -0.0008677035  -0.0001262742  -0.0007839748   0.0006884589
       -0.0005238948
        0.0564116806  -0.0007389504  -0.0963430299   0.0039465980  -0.0048805499
        0.4579751600  -0.0294416876  -0.0103307232  -0.1716369103  -0.0158873769
        0.0263131728  -0.0712860634  -0.0118828345  -0.0121758199  -0.0590027349
       -0.0069579359  -0.0081556317  -0.0005999096  -0.0039578963   0.0005945173
        0.0051629968  -0.0005797256   0.0000027046   0.0001996429   0.0005722267
       -0.0000873953  -0.0012119475  -0.0000128083   0.0002245401  -0.0000627910
        0.0000529116  -0.0000088124   0.0000110838  -0.0000275357   0.0000040154
        0.0000412362  -0.0000340424  -0.0000423969  -0.0000413426   0.0000322864
       -0.0000007120  -0.0000019620  -0.0000296812  -0.0000029264  -0.0000041079
        0.0000215110  -0.0000049722   0.0000024002   0.0000040022  -0.0000003787
       -0.0000162578  -0.0000123667  -0.0000008462   0.0000128765   0.0000028958
       -0.0000079634  -0.0000014897  -0.0000011886   0.0000058928   0.0000009128
       -0.0000001475  -0.0000025327   0.0000002468   0.0000001210  -0.0000000007
       -0.0000001858  -0.0000003396   0.0000014660   0.0000021680   0.0000017572
        0.0000044174  -0.0000010317   0.0000009623   0.0000018332  -0.0000040341
       -0.0000031719   0.0000006476   0.0000007089   0.0000004412  -0.0000044943
        0.0000019258   0.0000016111   0.0000020947  -0.0000000482  -0.0000032429
        0.0000005092  -0.0000029483  -0.0000020019  -0.0000025080   0.0000033841
       -0.0000019768   0.0000027877  -0.0000029244  -0.0000038165  -0.0000028422
        0.0000035409  -0.0000008342   0.0000003871  -0.0000034104   0.0000028538
       -0.0000026835  -0.0000008833  -0.0000019971   0.0000020491  -0.0000004965
        0.0000014572   0.0000004219  -0.0000013589  -0.0000025635  -0.0000005977
       -0.0000012228   0.0000012658   0.0000008389  -0.0000005577  -0.0000007862
        0.0000024501  -0.0000012152   0.0000031793   0.0000031275  -0.0000001298
       -0.0000044438  -0.0000064007  -0.0000002164   0.0000104599   0.0000073424
        0.0000031144  -0.0000189829   0.0000055863  -0.0000261851   0.0000238113
       -0.0000004332   0.0000204171  -0.0000145803   0.0000020451   0.0000018497
        0.0000039483  -0.0000007236   0.0000013566   0.0000040727   0.0000075999
        0.0000039305  -0.0000053365   0.0000053355  -0.0000125117  -0.0000030273
       -0.0000084657   0.0000097576   0.0000697857  -0.0000060292   0.0000148472
       -0.0000530945  -0.0000292244   0.0000915273  -0.0001716432  -0.0000243284
       -0.0000940850   0.0000448329   0.0000126663   0.0000532148   0.0000290521
       -0.0000164398   0.0000026668   0.0000181987   0.0000203525  -0.0000257460
       -0.0000053065   0.0000093588  -0.0000049683   0.0000029524   0.0000119212
       -0.0000018276  -0.0000010387   0.0000073004  -0.0000074428   0.0000051011
        0.0000062795  -0.0000030950  -0.0000074292   0.0000167329   0.0000324129
        0.0000153230  -0.0000696063   0.0000055042  -0.0020668378   0.0022091010
        0.0050349393   0.0040431429   0.0028658194   0.0004271398  -0.0049923762
       -0.0002922742   0.0034041618  -0.0001689350   0.0009676427   0.0011392113
        0.0238043005  -0.0012390834  -0.0208365971  -0.0009386405  -0.0019747206
       -0.0210379902  -0.0044034666  -0.0034103893  -0.0092060586  -0.0043486660
        0.0022344416  -0.0111451869   0.0080980561  -0.0127859328   0.0030784394
       -0.0148380598   0.0242244050  -0.0111829182   0.0021058428  -0.0033260068
        0.0009972056   0.0009743040  -0.0002450063  -0.0018349983  -0.0002810215
       -0.0003729504  -0.0001834352  -0.0000039249  -0.0000019666   0.0000006032
       -0.0000011279   0.0000003790  -0.0000038368   0.0000008654  -0.0000000597
        0.0000009779   0.0000006588   0.0000002146   0.0000020466   0.0000002901
        0.0000006082  -0.0000009859  -0.0000003737  -0.0000010322   0.0000013129