94
 energy: -157.790890644665 gnorm: 0.000035131218 xtb: 6.7.1 (edcfbbe)
C            9.57872892449622        3.01270171265918       -0.04360013353849
C            8.64600401110020        3.18249589846979       -1.05335945883834
C            7.47734236564821        2.44286164682434       -1.05044413307658
C            7.23299369483808        1.51242658816681       -0.04369470620761
C            5.97801851477207        0.73930820615248       -0.03677026999715
C            4.78282588811648        1.40512880728745       -0.14770252406928
C            3.55688358195907        0.71589714719530       -0.08685546675789
N            2.40110306301373        1.39185894113729       -0.18370169508732
C            1.27732050967424        0.70016262032140       -0.11083092823955
C            0.01946091842167        1.39661148251184       -0.18157031304900
C           -0.04581255099555        2.79631874124678       -0.28669200682859
C           -1.26389575055776        3.41987108430299       -0.30875871649795
C           -2.42871300510557        2.62689913091713       -0.20484850096230
N           -3.67259888185267        3.23604696737709       -0.13825099417920
C           -4.65739966995996        2.86372893283779        0.80180909458375
C           -4.71149198434149        1.60842640640395        1.39188166767441
C           -5.66011560973868        1.32472697724385        2.36158529119719
C           -6.58095685846987        2.28101615927367        2.74458469849699
C           -6.55183565570526        3.53263838627147        2.15173581462434
C           -5.59610862712367        3.82694873512563        1.19381006479556
O           -5.61733037261291        5.09953709447112        0.66984328104060
C           -4.90267519289907        5.29536672817097       -0.48289009798724
C           -5.17104281598984        6.43541117119806       -1.22345536641351
C           -4.49563265729140        6.66672973823457       -2.41037396236486
C           -3.58010408506581        5.73811952580282       -2.87179892561477
C           -3.31201087810972        4.59671211004366       -2.13492531028991
C           -3.93883894773187        4.37814999144003       -0.91296174906774
N           -2.37498759619665        1.30876320421958       -0.13063809053568
C           -1.19517905228586        0.69259014683098       -0.11985726911362
C           -1.18574916959803       -0.75947637269977       -0.03727307628415
N           -2.35167571640771       -1.39438809646527       -0.09666793692472
C           -2.39125560219950       -2.71755714596465       -0.02134611881445
N           -3.61485404672755       -3.32435359481036       -0.13988497943800
C           -4.84671418349080       -2.64918139415516        0.04391388168484
C           -5.10229708752901       -1.36703170059025       -0.42070020158834
C           -6.32957573672438       -0.77250746457263       -0.17527828821276
C           -7.31215292775816       -1.44680605416254        0.52665132382621
C           -7.08251921573559       -2.73978908314691        0.96452955302526
C           -5.86004232500396       -3.34207203184493        0.71552370683365
O           -5.68970345083994       -4.64624789184004        1.12873577464139
C           -4.78753316488291       -5.36413902484568        0.38680256024448
C           -4.93884452020821       -6.74005384971347        0.30199008352216
C           -4.08028024069842       -7.47784039789260       -0.49421523573413
C           -3.10315493791982       -6.83785744474307       -1.23810260137386
C           -2.94473875096654       -5.46557386915522       -1.14931247564641
C           -3.75221982065430       -4.72100281908241       -0.29748980572133
C           -1.22069001116416       -3.47687632757418        0.22774121125111
C           -0.01638533895102       -2.83138184427563        0.26386954077905
C            0.03911126027422       -1.43791978713376        0.08541638409858
C            1.28572185225513       -0.72318138257999        0.05074493512779
N            2.41999760768274       -1.39580738345216        0.15370645576890
C            3.56596770147976       -0.69944992736662        0.09379336006556
C            4.80200600360981       -1.36638525628898        0.19260693353900
C            5.98806550242648       -0.67870691184763        0.12293320960376
C            7.25713345054574       -1.42622320788676        0.17939163727216
C            8.24002176973558       -1.23890537861585       -0.78933858484524
C            9.41892015191114       -1.95941020989928       -0.73805751104680
C            9.63538490991234       -2.87190310005688        0.28162481802077
C            8.65983517228497       -3.07092145909420        1.24446456784973
C            7.47567925528966       -2.35842680915322        1.19064270029172
C            8.17285725264264        1.35348557108317        0.97156088266004
C            9.33560185646174        2.10149321521074        0.97126486802874
H           10.49074083959755        3.59129784259660       -0.04574016398724
H            8.82899679882507        3.89346926952240       -1.84609273806795
H            6.75307200195272        2.56801738379139       -1.84304206563678
H            4.75492908348947        2.47909332474009       -0.25697981212293
H            0.87705831509569        3.35437793053763       -0.32564594943693
H           -1.33978794591228        4.49466989195126       -0.36175876658173
H           -4.00068733206033        0.85950855869969        1.08646688650456
H           -5.67379194668892        0.34278314979842        2.80814785550085
H           -7.32213089896780        2.06225372781894        3.49709460959639
H           -7.25289327549965        4.30507067914448        2.42637759069168
H           -5.90792207268098        7.12821240873552       -0.84908458241247
H           -4.69970069363482        7.56161275363494       -2.97677564867305
H           -3.07054311255657        5.89438619423635       -3.80990269791128
H           -2.60618680853368        3.86753062164471       -2.50305454360091
H           -4.32774407107573       -0.83147039407653       -0.94034618929891
H           -6.51040475350452        0.22879149738078       -0.53252968855751
H           -8.26126237151283       -0.97500449094847        0.72703045931493
H           -7.83354003544766       -3.29925423976273        1.49969577550526
H           -5.73201004765788       -7.20809924398725        0.86306641065283
H           -4.19204090930288       -8.54918050797008       -0.55059029408849
H           -2.45832009954821       -7.40486909757726       -1.89129060420524
H           -2.19008151812693       -4.96405903567555       -1.73583789970893
H           -1.28098039176967       -4.53725605167309        0.41061205635932
H            0.90487511517628       -3.36617183725178        0.43695578238292
H            4.78998092856213       -2.44068229779925        0.30117774969421
H            8.07165430021286       -0.53557854594534       -1.59148693381745
H           10.17233246501019       -1.80675774784625       -1.49701013431539
H           10.56006401890998       -3.42841455748880        0.32404350567537
H            8.82155838521581       -3.78315646575014        2.04070770368349
H            6.71850694170970       -2.50545113365994        1.94794512916434
H            7.98123743516043        0.65157041125137        1.76986150229526
H           10.05515287646771        1.97170115439445        1.76647082919779
