$hessian                                                                        
        0.6586679311   0.2276270040  -0.1612563802  -0.5335805081  -0.1993713584
        0.1240316421  -0.0296387331  -0.0378751095   0.0118576289   0.0052592192
       -0.0085172315  -0.0014440524   0.0017337707  -0.0020345267   0.0002762851
       -0.0030766009  -0.0003006058   0.0004642128   0.0008088441   0.0011336737
       -0.0008329454  -0.0001362365  -0.0001605206   0.0001436119   0.0002509431
        0.0001017443  -0.0001706495  -0.0001037455   0.0001067684  -0.0001646736
        0.0002046349  -0.0001707665   0.0001597220  -0.0003127698   0.0002857533
       -0.0003209085  -0.0000397731  -0.0001992508   0.0002686498   0.0000761586
        0.0002491611  -0.0002476688  -0.0000742214  -0.0001728414   0.0001918006
        0.0003720876  -0.0000570905   0.0003548112  -0.0001787902  -0.0002027972
       -0.0003773410   0.0006114403  -0.0010357748   0.0004019273   0.0000033765
        0.0037414657  -0.0002402571  -0.0009823675  -0.0021205939  -0.0001741360
       -0.0005539316   0.0009043180  -0.0002185239  -0.0000818535  -0.0002593628
        0.0001007119   0.0000076811   0.0002446803  -0.0002734741  -0.0002512368
       -0.0000268688  -0.0002193226   0.0003614702  -0.0001006431   0.0003314393
       -0.0003000602   0.0001629871  -0.0003588013   0.0003063134  -0.0002599877
        0.0003876687  -0.0002262324   0.0002602775  -0.0003115922   0.0001061634
       -0.0002053009   0.0002439590   0.0002480266   0.0001767679   0.0001865958
       -0.0001664829  -0.0001324414  -0.0000936683   0.0011852645   0.0001415381
        0.0003726326  -0.0008661098   0.0008459687   0.0005730845   0.0010659003
       -0.0015228068  -0.0002342895   0.0002184287   0.0005107959   0.0003704644
        0.0001362441  -0.0000839245  -0.0001426118   0.0000373301   0.0002068406
        0.0001641893   0.0002118121  -0.0000198569   0.0001670553  -0.0002203255
        0.0000315940  -0.0002157062   0.0002460932   0.0000737091   0.0002516458
       -0.0001627505  -0.0002194317  -0.0002666908   0.0001238856   0.0001942824
        0.0001649171  -0.0000452026  -0.0000653160  -0.0001168721  -0.0002224468
        0.0001907498  -0.0002007075   0.0002588314  -0.0000096987   0.0000000203
       -0.0010815495   0.0000460647  -0.0002770328  -0.0087322218   0.0024370337
        0.0009977552   0.0047973249   0.0025591940  -0.0023108174  -0.0001151772
        0.0006996673   0.0000936993   0.0000988462  -0.0001609946  -0.0004312627
       -0.0005441715   0.0002266402   0.0003474163   0.0004965046   0.0003610077
        0.0005185372   0.0000290259  -0.0004505739  -0.0005114888  -0.0001033758
        0.0006130473   0.0007249201   0.0004747603  -0.0008586935  -0.0007677085
        0.0002292369   0.0006108762   0.0003384110   0.0002471222  -0.0002129370
       -0.0002401903  -0.0002305895   0.0006855464  -0.0000626894  -0.0000576767
        0.0010650472  -0.0005901727   0.0000022005  -0.0013534342   0.0004388876
        0.0023169446   0.0206446435   0.0008109533  -0.0061963051  -0.0036197226
        0.0015901123  -0.0915101301  -0.0019374592   0.0243535331  -0.0014289409
       -0.0028625027  -0.0003604135   0.0009048096   0.0008401982  -0.0004136289
        0.0002828629  -0.0004718002   0.0001310298   0.0004328517  -0.0000808013
        0.0002813866  -0.0001739443   0.0000725477  -0.0003310848  -0.0004399868
       -0.0003576698  -0.0006440238  -0.0000225530  -0.0000336018   0.0000189967
       -0.0000228869  -0.0000718277   0.0000604671  -0.0000669945  -0.0000129583
        0.0000761238  -0.0001081013  -0.0000252112   0.0000037276  -0.0001235766
        0.0000339797   0.0000066986  -0.0001027017  -0.0000198680  -0.0000475846
       -0.0000500080   0.0000629476  -0.0000796544  -0.0001129230  -0.0000091554
        0.0000005837  -0.0000068627  -0.0000136368   0.0000324372   0.0000521254
       -0.0000634741   0.0000829646  -0.0000239832  -0.0000779519   0.0000428065
       -0.0000482813  -0.0000873361   0.0000048855  -0.0000668195  -0.0000849425
        0.0000044256  -0.0000744673  -0.0000304308  -0.0000255146  -0.0000830568
        0.0000088657  -0.0000612403  -0.0000206639   0.0000059387  -0.0000134158
       -0.0000889174  -0.0000302420   0.0000111435  -0.0000534047  -0.0000454325
       -0.0000341944   0.0000037706  -0.0000735642  -0.0000305959   0.0000414285
       -0.0001066474   0.0000041767   0.0000370953  -0.0000871286  -0.0000024621
        0.0000675174  -0.0000548382   0.0000472427   0.0000673555  -0.0000220744
        0.0000985903  -0.0000614956  -0.0001917020   0.0000742114  -0.0000034734
       -0.0001211183   0.0000658956  -0.0000239718  -0.0000425756  -0.0000140531
        0.0000255281  -0.0000221361  -0.0000320754   0.0000519935  -0.0000869701
        0.0000195276  -0.0000820008   0.0000190708   0.0000043478  -0.0000827032
       -0.0001920584   0.0001026765  -0.0000245127  -0.0001503241   0.0000280937
       -0.0003948829  -0.0003022211   0.0005908423   0.0001992981  -0.0002032143
        0.0003498087  -0.0001312108   0.0001464251  -0.0000070104  -0.0000104079
        0.0001286147   0.0000534766   0.0000512297   0.0001216982   0.0000309621
        0.0003136258   0.0011742033   0.0012631576
        0.2276270040   0.1704557304  -0.0604981127  -0.1965272622  -0.1545662978
        0.0517100378  -0.0447144987  -0.0255289840   0.0124858798  -0.0002529123
       -0.0077461609  -0.0001527894  -0.0001522533  -0.0017022684   0.0003882908
       -0.0023499432  -0.0004222046   0.0004384978   0.0003930825   0.0006148203
       -0.0006558978  -0.0000622018  -0.0000915258   0.0001519282   0.0001740754
        0.0000901799  -0.0001180216  -0.0001076767   0.0000609000  -0.0000841715
        0.0000767847  -0.0000605099   0.0000779823  -0.0002197403   0.0001398227
       -0.0001431332  -0.0001691197  -0.0001170439   0.0001684270   0.0000490821
        0.0001179981  -0.0000834866  -0.0000607071  -0.0000470976   0.0000608776
        0.0001897807  -0.0000073080   0.0001787848  -0.0001088402   0.0000931650
       -0.0001808336   0.0005716611  -0.0008168078   0.0004400674   0.0005896664
        0.0029660518  -0.0001812034  -0.0011793980  -0.0020199815   0.0000377593
       -0.0004988991   0.0009048779  -0.0003609910  -0.0000152926  -0.0001864254
        0.0001478635   0.0000302822   0.0002082930  -0.0001891173  -0.0001928110
       -0.0000668056  -0.0001354273   0.0002188814  -0.0000646922   0.0001920141
       -0.0002642169   0.0000476724  -0.0002698584   0.0001805870  -0.0002257507
        0.0002845480  -0.0001526544   0.0001555196  -0.0001829854   0.0000315517
       -0.0001676990   0.0001469303   0.0001978789   0.0001594062   0.0001517877
       -0.0001874593  -0.0000863907  -0.0001131614   0.0011379653   0.0000957739
        0.0003704487  -0.0009564133   0.0008788598  -0.0002329020   0.0005838211
       -0.0011288862  -0.0000952853   0.0002074949   0.0005684816   0.0004696387
        0.0000287260  -0.0001010938  -0.0001228011   0.0000105626   0.0001627066
        0.0001247003   0.0001124153  -0.0000365291   0.0000777296  -0.0001112883
        0.0000164904  -0.0000968594   0.0001751912  -0.0000330860   0.0001197058
       -0.0000632072  -0.0001688385  -0.0001514504   0.0000542229   0.0000932764
        0.0000832374  -0.0000069350  -0.0000693459  -0.0000599227  -0.0001578557
        0.0001021811  -0.0001240235   0.0001235394   0.0000516138   0.0001084127
       -0.0007857301   0.0001715352  -0.0004243221  -0.0035693702   0.0035017193
        0.0001462288   0.0034652124  -0.0005055385   0.0007271776  -0.0008034480
        0.0009264639   0.0007099981   0.0001499872   0.0000014627  -0.0000759632
       -0.0001302323   0.0000720487   0.0001328707   0.0001185465   0.0000658005
        0.0000742668  -0.0001498770  -0.0000488490  -0.0000250467   0.0002153452
        0.0001631395   0.0001561665   0.0002017257  -0.0001049437  -0.0001777358
       -0.0001294403   0.0000093515  -0.0001191684   0.0000121600   0.0000917213
        0.0000758529  -0.0000564543   0.0000519075  -0.0001727672   0.0004048527
        0.0000485143   0.0007133012  -0.0008412626  -0.0025964862  -0.0007489273
       -0.0008511096  -0.0020998596   0.0003556449   0.0036267716   0.0002270811
       -0.0007545924   0.0139790422   0.0188432630  -0.0029989627  -0.0012242280
        0.0016660599  -0.0004820136  -0.0002371251   0.0010042782  -0.0000399315
        0.0000119875   0.0000029154  -0.0001519273   0.0000722145  -0.0000029340
        0.0002236001   0.0005425140   0.0001932711  -0.0000637435   0.0005993916
       -0.0012924467  -0.0019641282  -0.0000089225  -0.0000142205  -0.0000463508
       -0.0000097440  -0.0000464784   0.0000353444  -0.0000448549  -0.0000200394
        0.0000382860  -0.0000781394  -0.0000253261   0.0000053943  -0.0000705027
        0.0000068252  -0.0000024992  -0.0000627487  -0.0000112523  -0.0000337459
       -0.0000474680   0.0000296368  -0.0000704296  -0.0000353915  -0.0001352423
       -0.0000028686  -0.0000051985   0.0000184933  -0.0000124624   0.0000357934
       -0.0000399376   0.0000534897  -0.0000141836  -0.0000566068   0.0000361028
       -0.0000316204  -0.0000757880  -0.0000000165  -0.0000514057  -0.0000635874
        0.0000039638  -0.0000523191  -0.0000352882  -0.0000299628  -0.0000615781
        0.0000006785  -0.0000582181   0.0000412876  -0.0000191925   0.0000201358
       -0.0000149003  -0.0000040044   0.0000358649  -0.0000346334  -0.0000351372
       -0.0000391411   0.0000060331  -0.0000534336  -0.0000294802   0.0000302000
       -0.0000691091  -0.0000043168   0.0000337781  -0.0000610422  -0.0000052376
        0.0000484375  -0.0000427196   0.0000245647   0.0000472951  -0.0000087671
        0.0000501344  -0.0000227505  -0.0000550341  -0.0000539108  -0.0000254884
       -0.0000236891   0.0000110970   0.0000049761  -0.0000815717  -0.0000789973
        0.0000544816  -0.0000472958  -0.0000708927   0.0001094101  -0.0000471911
       -0.0000183253   0.0000909840  -0.0000210236   0.0000293539   0.0000834499
       -0.0000224070   0.0000866242   0.0000632729   0.0000423384   0.0001375643
        0.0000269899  -0.0005421104   0.0004383010   0.0000709370  -0.0000548724
        0.0001859172   0.0000556404   0.0000183857  -0.0000137868  -0.0000015959
       -0.0001012096   0.0001271213   0.0000024501   0.0000249145  -0.0000150944
        0.0009938844  -0.0012392579  -0.0000325148
       -0.1612563802  -0.0604981127   0.0667289583   0.1246840383   0.0528092597
       -0.0858778234   0.0112407540   0.0087845076   0.0116469686  -0.0002314557
        0.0029550017   0.0017950401  -0.0004708367  -0.0000785590  -0.0006362819
        0.0006969942   0.0003074149  -0.0004316982  -0.0001427478  -0.0003499902
        0.0002016486   0.0000592230   0.0000276256  -0.0000181036  -0.0000737951
       -0.0000204487   0.0000561290   0.0000274500  -0.0000274260   0.0000316689
       -0.0000436661   0.0000310833  -0.0000096477   0.0000774769  -0.0000342838
        0.0000369732   0.0000223213   0.0000318282  -0.0000462338  -0.0000439069
       -0.0000398681   0.0000468416  -0.0000036508   0.0000197841  -0.0000180707
       -0.0000951698   0.0000300240  -0.0000755858   0.0000590869   0.0000299680
        0.0000761668  -0.0003230530   0.0002504910  -0.0002070147  -0.0002912109
       -0.0009120641   0.0000927311   0.0003338607   0.0007015911   0.0001772253
        0.0001625087  -0.0003186217   0.0001117799   0.0000109309   0.0000685493
       -0.0000225882  -0.0000132319  -0.0000793962   0.0000788380   0.0000763684
        0.0000235357   0.0000606802  -0.0000930133   0.0000246566  -0.0000831980
        0.0000993686  -0.0000499159   0.0001173661  -0.0000750261   0.0000790432
       -0.0001103630   0.0000632655  -0.0000679125   0.0000806296  -0.0000179937
        0.0000625459  -0.0000565293  -0.0000848055  -0.0000649474  -0.0000564663
        0.0000445662   0.0000624086   0.0000437959  -0.0003914781  -0.0000289606
       -0.0001405422   0.0004803879   0.0002153306  -0.0011297916  -0.0002135630
        0.0003252951   0.0001959382  -0.0000738560  -0.0001841304  -0.0001637811
       -0.0000467038   0.0000124426   0.0000480652  -0.0000022556  -0.0000524226
       -0.0000352688  -0.0000246300   0.0000014415  -0.0000146596   0.0000336118
       -0.0000220443   0.0000227774  -0.0000686777   0.0000246919  -0.0000239713
        0.0000289812   0.0000365622   0.0000609583  -0.0000194114  -0.0000317982
       -0.0000185756   0.0000034810   0.0000218016   0.0000288844   0.0000545704
       -0.0000377875   0.0000477016  -0.0000134362  -0.0000448671  -0.0000301425
        0.0002023670   0.0000094403   0.0000283875   0.0015519409  -0.0009395375
       -0.0004941764  -0.0009180158  -0.0005677065   0.0008642595  -0.0000831188
        0.0001742349   0.0000015884  -0.0000270566  -0.0001023935   0.0000873476
        0.0000044164   0.0000154380   0.0000413273   0.0000018281  -0.0000185794
        0.0000032984   0.0000358912   0.0000206973   0.0000345435  -0.0001974067
       -0.0000633695  -0.0000367330   0.0001290339  -0.0001086734   0.0000112318
       -0.0000261677   0.0000023692   0.0000951006   0.0001964135  -0.0001170778
        0.0000178633  -0.0000861754   0.0001477605   0.0002150766   0.0004456279
        0.0002540440  -0.0009913929  -0.0006929058   0.0009087981  -0.0005773619
       -0.0003584832  -0.0048878940   0.0049279863   0.0015894416   0.0007523761
       -0.0017113384   0.0240165383   0.0010138661   0.0070570429   0.0001215987
        0.0001375765  -0.0008118882  -0.0001313400  -0.0003477503   0.0004037455
        0.0000121158   0.0001897132   0.0000807126  -0.0002123349  -0.0000139658
       -0.0000640293   0.0003339315  -0.0002208022   0.0002612884  -0.0004477683
       -0.0002760334  -0.0010032453  -0.0000081022  -0.0000054600  -0.0000120355
        0.0000042265   0.0000174273  -0.0000219004   0.0000180454  -0.0000001932
       -0.0000245677   0.0000362161   0.0000101585  -0.0000071024   0.0000321990
       -0.0000066960  -0.0000021421   0.0000317396  -0.0000001575   0.0000069428
        0.0000397695  -0.0000216253   0.0000249304   0.0000835688   0.0000301465
       -0.0000610203  -0.0000030410  -0.0000106492  -0.0000172351  -0.0000155301
        0.0000090886  -0.0000270362   0.0000052281   0.0000203854  -0.0000159434
        0.0000144483   0.0000280323  -0.0000045927   0.0000218713   0.0000230958
       -0.0000051800   0.0000218756   0.0000126229   0.0000058054   0.0000325583
        0.0000031118   0.0000184361   0.0000152798   0.0000050016  -0.0000132751
        0.0000335954   0.0000186849  -0.0000144788   0.0000166687   0.0000201227
        0.0000122590  -0.0000002783   0.0000217209   0.0000082431  -0.0000073023
        0.0000299120  -0.0000047522  -0.0000110075   0.0000312318   0.0000022414
       -0.0000174431   0.0000178827  -0.0000118098  -0.0000049549  -0.0000094624
       -0.0000113890  -0.0000222403  -0.0000099046  -0.0000024844   0.0000567269
        0.0000901229  -0.0000061323   0.0000090888   0.0000300351   0.0000077295
       -0.0000025195   0.0000229587   0.0000186027  -0.0000051233   0.0000253422
       -0.0000167911  -0.0000617870   0.0000632863  -0.0000039072  -0.0000724242
        0.0000363528  -0.0000240543   0.0000161346   0.0000115341   0.0000609097
       -0.0006195951   0.0007657794  -0.0005785183   0.0000918715   0.0000275123
       -0.0000884132   0.0000890992  -0.0000689063  -0.0000031730   0.0000570776
       -0.0001076901   0.0000168472  -0.0000032158  -0.0000224507  -0.0000266765
        0.0005216135  -0.0010642116  -0.0002004001
       -0.5335805081  -0.1965272622   0.1246840383   0.8051493188   0.1818134205
       -0.1523459772  -0.0676856802  -0.0243595190   0.0010423047  -0.0277563057
       -0.0107419474   0.0056644598  -0.0086892346  -0.0012325183   0.0017444453
        0.0022736646  -0.0007163232  -0.0002499275  -0.0012631634  -0.0015042837
        0.0007472477   0.0002033437   0.0001926240  -0.0001529286  -0.0003113231
       -0.0001090365   0.0002448329   0.0001067135  -0.0001165994   0.0001833827
       -0.0002824368   0.0002416439  -0.0001838164   0.0002789336  -0.0003680080
        0.0004830814  -0.0000801821   0.0002684692  -0.0003432973  -0.0000895921
       -0.0003024682   0.0003295190   0.0001170560   0.0002346174  -0.0002608485
       -0.0004808536   0.0001467514  -0.0004623537  -0.0000603632   0.0003608639
        0.0006343741  -0.0004039810   0.0010022960  -0.0002372551  -0.0013474195
       -0.0014796648   0.0005096312   0.0004625360   0.0015830940  -0.0001125479
        0.0004213984  -0.0006364755   0.0002831554   0.0000476295   0.0001783071
       -0.0000848787  -0.0000059638  -0.0002258864   0.0002570718   0.0001600610
        0.0000239927   0.0001350144  -0.0002515314   0.0000500010  -0.0002193790
        0.0002054914  -0.0000932843   0.0002311765  -0.0002025061   0.0002335363
       -0.0002921192   0.0001122378  -0.0002054065   0.0002017818  -0.0000700408
        0.0001380485  -0.0001562431  -0.0002384407  -0.0001412755  -0.0001361904
        0.0000645340   0.0000265040   0.0001110480  -0.0008735883  -0.0001931843
       -0.0004341949   0.0005565487   0.0011096846   0.0001531620  -0.0013600663
        0.0031555382   0.0004253202  -0.0004000521  -0.0005963789  -0.0005061281
       -0.0001168347   0.0001028862   0.0002279530   0.0000085827  -0.0002998313
       -0.0002064415  -0.0002724540   0.0000845622  -0.0001853166   0.0002343848
       -0.0000048849   0.0002572430  -0.0003567179  -0.0000655776  -0.0003359404
        0.0002135900   0.0002719726   0.0003733371  -0.0001844625  -0.0002065627
       -0.0001944193   0.0000039721   0.0001377701   0.0001349300   0.0002762522
       -0.0002526372   0.0002582722  -0.0003583851  -0.0000107570  -0.0000454068
        0.0014591855   0.0000414471   0.0002681803   0.0144643688   0.0111812089
       -0.0027889746  -0.0031621382  -0.0033196018   0.0021766784  -0.0005814308
        0.0001824670   0.0004292632   0.0001120239   0.0000175544   0.0004805398
        0.0004856948  -0.0002482535  -0.0003147365  -0.0004845015  -0.0003516270
       -0.0004688507  -0.0001919834   0.0003063765   0.0004596344   0.0003749643
       -0.0004192382  -0.0004738361  -0.0005865755   0.0008194172   0.0005649515
       -0.0002970882  -0.0006200048  -0.0002590575  -0.0003944809   0.0001336380
        0.0002651373   0.0001137402  -0.0005745240  -0.0003991050  -0.0010178947
       -0.0009712861  -0.0003549712  -0.0010219492   0.0027421818  -0.0010854251
       -0.0511261166  -0.0285897367   0.0095123405   0.0022979137   0.0008467109
       -0.0003540003  -0.1304466003   0.0581343665   0.0134466131   0.0058559316
        0.0165395394  -0.0011626303  -0.0000969038  -0.0053921801   0.0008845022
       -0.0002901259   0.0010919242   0.0000384526  -0.0004687820  -0.0001415270
       -0.0003763541  -0.0004762490   0.0004864785   0.0006481656  -0.0002588431
       -0.0023057480   0.0018332662  -0.0000076627   0.0000230398  -0.0000956608
        0.0000277638   0.0000804355  -0.0001064510   0.0001018746   0.0000113309
       -0.0001120272   0.0001492187   0.0000178920   0.0000023147   0.0002054270
       -0.0000449557  -0.0000298088   0.0001790206   0.0000064943   0.0000577933
        0.0000416756  -0.0000977407   0.0000665568   0.0001703317  -0.0001180542
       -0.0001008968   0.0000313782   0.0000338287  -0.0000057543  -0.0000467434
        0.0000626045  -0.0000934374   0.0000294642   0.0000920470  -0.0000393451
        0.0000593744   0.0000943578  -0.0000135896   0.0000646211   0.0000974461
       -0.0000058955   0.0000882400   0.0000344149   0.0000133179   0.0000801308
       -0.0000102469   0.0000452856   0.0000832219  -0.0000008251   0.0000322954
        0.0000625394   0.0000312645  -0.0000170574   0.0000581159   0.0000539396
        0.0000513934  -0.0000068651   0.0000982854   0.0000399102  -0.0000467882
        0.0001495173  -0.0000063131  -0.0000553074   0.0001057155   0.0000023587
       -0.0000765677   0.0000786043  -0.0000690843  -0.0000745233   0.0000357846
       -0.0001332656   0.0001362715   0.0002318843  -0.0000696948  -0.0000895868
        0.0001182495  -0.0002017311   0.0000166966   0.0000093820  -0.0000395832
       -0.0000211375   0.0000139051  -0.0000219761  -0.0000288599   0.0000871266
       -0.0000196708   0.0001797184  -0.0000132120  -0.0000266290   0.0001782973
        0.0001518131  -0.0000378025   0.0000870605   0.0001826503   0.0000596033
        0.0005761271   0.0005334387  -0.0011507474  -0.0004936718   0.0003921531
       -0.0006697767   0.0002744483  -0.0005347818   0.0001424149   0.0000302103
       -0.0003426565  -0.0001840834  -0.0001989291  -0.0005445639  -0.0001780822
       -0.0002009063  -0.0016769629  -0.0022258361
       -0.1993713584  -0.1545662978   0.0528092597   0.1818134205   0.4870503240
       -0.0515909574  -0.0295980582  -0.1510770939   0.0094764095  -0.0337361696
       -0.0197528301   0.0068947574  -0.0004939327   0.0158080477  -0.0020535978
        0.0028829609  -0.0008415202  -0.0008603506  -0.0005856574  -0.0006748058
        0.0010640122  -0.0000295416   0.0000582834  -0.0003121884  -0.0002925446
       -0.0002247091   0.0002060866   0.0001451734  -0.0001059104   0.0001110223
       -0.0001520781  -0.0000389161  -0.0000219155   0.0002966593  -0.0001129312
        0.0001541456   0.0005404790   0.0001327321  -0.0002033354  -0.0001423315
       -0.0000707157  -0.0000852345  -0.0000240650  -0.0000899453   0.0000782879
       -0.0001915852  -0.0000729219  -0.0001889233   0.0000974440  -0.0006219972
        0.0000937394  -0.0010595165   0.0015623137  -0.0008961466  -0.0003764089
       -0.0123373194  -0.0001061464   0.0047569768   0.0076635064   0.0001194381
        0.0017618417  -0.0031361303   0.0009355931   0.0000684512   0.0006311788
       -0.0005220674  -0.0001360902  -0.0007297144   0.0006107203   0.0006670156
        0.0002146793   0.0004857313  -0.0007645851   0.0001923267  -0.0006410383
        0.0009716718  -0.0002147752   0.0010168625  -0.0006715659   0.0007078627
       -0.0010144719   0.0005799655  -0.0005256493   0.0006265673  -0.0001243975
        0.0005547990  -0.0005073655  -0.0006130440  -0.0005595868  -0.0005299648
        0.0007112575   0.0002950962   0.0003507798  -0.0038633429   0.0000850091
       -0.0007712429   0.0053524460  -0.0004946067  -0.0012734688  -0.0009557615
        0.0010173902   0.0001927967  -0.0002975050  -0.0011453433  -0.0009892994
       -0.0000480948   0.0001441994   0.0002204072  -0.0000681930  -0.0003486733
       -0.0003058034  -0.0001370985   0.0000010269  -0.0001070423   0.0002100176
       -0.0001466813   0.0001061298  -0.0002459815   0.0001064216  -0.0001689363
        0.0000080405   0.0003986689   0.0002196664   0.0000621393  -0.0002581852
       -0.0000821528   0.0000459683   0.0000270621   0.0000766194   0.0003739279
       -0.0001877491   0.0002464683  -0.0001669336  -0.0001494528  -0.0002469635
        0.0014797642  -0.0004810755   0.0011010713   0.0145461783  -0.0357644197
       -0.0011634850  -0.0126983304  -0.0000075669   0.0016440040   0.0025446456
       -0.0039850656  -0.0022578428  -0.0006146263   0.0006034999   0.0007925609
        0.0009729245  -0.0003153744  -0.0006763307  -0.0006775884  -0.0004377841
       -0.0006392729   0.0003619509   0.0006960659   0.0006427393  -0.0008257719
       -0.0010663112  -0.0012441103  -0.0004148565   0.0010539509   0.0011588368
        0.0000034103  -0.0008769678  -0.0006571816  -0.0005383738   0.0004403248
        0.0005143059   0.0010180889  -0.0001837193   0.0009244799  -0.0004924663
       -0.0006722109  -0.0007293017   0.0027074334   0.0045288665   0.0013569017
        0.0286774518   0.0353728658  -0.0069346508  -0.0206488907  -0.0020790740
        0.0048905876   0.0357554135  -0.1354922726  -0.0089840078   0.0211243584
       -0.0300305089  -0.0026993992  -0.0002264451  -0.0017289913  -0.0010198578
        0.0004513340  -0.0015621514   0.0014958028   0.0001607697   0.0002700198
        0.0000488393  -0.0007699161  -0.0008081649   0.0001642936   0.0014117711
        0.0011765499   0.0007426664   0.0000671909   0.0001150008   0.0001522837
        0.0000048123   0.0001061692  -0.0000462825   0.0000897776   0.0000747496
       -0.0000551237   0.0001571905   0.0000608651  -0.0000073441   0.0001012868
        0.0000382345   0.0000195719   0.0001030628   0.0000322838   0.0000633566
        0.0000977036   0.0000002837   0.0001285261   0.0000833132   0.0003780702
        0.0001837992  -0.0000224366  -0.0000608399  -0.0000405635  -0.0001104018
        0.0001145003  -0.0001679501   0.0000413395   0.0001689430  -0.0001367075
        0.0000851349   0.0002542252   0.0000161832   0.0001688649   0.0001931779
       -0.0000318312   0.0001461201   0.0001306900   0.0001264586   0.0001702166
       -0.0000000500   0.0002051256  -0.0001556603   0.0000936836   0.0000478278
        0.0000271944   0.0000847011  -0.0000726183   0.0000833653   0.0000888164
        0.0000937718  -0.0000186428   0.0001452823   0.0000692241  -0.0000941482
        0.0001603053   0.0000150731  -0.0000835458   0.0001719457   0.0000083386
       -0.0001440326   0.0000983852  -0.0000416319  -0.0001245794   0.0000086028
       -0.0000845347  -0.0000566642   0.0001420560   0.0001025919   0.0000397159
        0.0000147735   0.0000491150  -0.0000205953   0.0001973815   0.0002391838
       -0.0001875789   0.0000871089   0.0002223662  -0.0003150661   0.0001314958
        0.0000148261  -0.0002973356  -0.0000835199   0.0000118529  -0.0002527074
        0.0000967163  -0.0002250474  -0.0001799113  -0.0001008393  -0.0003536211
        0.0006089061   0.0006571406   0.0003840406  -0.0000362110  -0.0001981599
       -0.0002895380  -0.0002572636  -0.0000086506  -0.0001321627   0.0000499303
        0.0003820970  -0.0002228776   0.0001762161   0.0003382470   0.0001658600
       -0.0004528064  -0.0009308244  -0.0015000789
        0.1240316421   0.0517100378  -0.0858778234  -0.1523459772  -0.0515909574
        0.1970467826   0.0029972860   0.0062922963  -0.0631470468   0.0037188475
        0.0002308957  -0.0002941143   0.0028484880  -0.0001871273   0.0052204611
       -0.0010107707  -0.0001802800   0.0003075929   0.0002085911   0.0005134381
       -0.0001875753  -0.0000494140  -0.0000527811   0.0000612439   0.0001304529
        0.0000390783  -0.0001153626  -0.0000597165   0.0000400520  -0.0000637904
        0.0000483830  -0.0000675959   0.0000462024  -0.0000344853   0.0000656110
       -0.0000928394  -0.0000974940  -0.0000595044   0.0000542335   0.0000926393
        0.0000463670  -0.0000374293   0.0000026118  -0.0000318971   0.0000249694
        0.0001278937  -0.0000316867   0.0000893589  -0.0002438513  -0.0000481090
       -0.0000482484   0.0006234983  -0.0005138380   0.0004494669  -0.0003804234
        0.0013750563   0.0006120355  -0.0005680721  -0.0008005310  -0.0014002845
       -0.0000136026   0.0004330498  -0.0002129373   0.0000685374  -0.0000304059
        0.0000388863   0.0000043493   0.0000975130  -0.0000909364  -0.0000709726
       -0.0000326237  -0.0000565268   0.0000939014  -0.0000119647   0.0001008683
       -0.0001180952   0.0000987944  -0.0001717640   0.0000025677  -0.0001373627
        0.0000867884  -0.0000568019   0.0000759282  -0.0000559609   0.0000190230
       -0.0000700358   0.0000583446   0.0000951685   0.0000835002   0.0000661786
       -0.0000786345  -0.0001344528  -0.0000437747   0.0005067493  -0.0001296021
        0.0001912119   0.0006862545  -0.0014791883   0.0077891668   0.0000184136
       -0.0003148689  -0.0004309545   0.0002353853   0.0003009303   0.0001799580
        0.0000469228  -0.0000140931  -0.0000180330  -0.0000069969   0.0000108746
        0.0000225251  -0.0000198800   0.0000215396  -0.0000245621   0.0000028641
        0.0000622396   0.0000806807   0.0000757330  -0.0001075225  -0.0001022172
        0.0000254061   0.0000061201  -0.0000250275  -0.0000053369   0.0000157192
       -0.0000178417   0.0000110238   0.0000015601   0.0000003528  -0.0000608203
        0.0000454576  -0.0000659286  -0.0000312218   0.0001299419   0.0000738301
       -0.0000930389  -0.0000526665   0.0000593753  -0.0053853119   0.0001182248
       -0.0009383414   0.0016497707   0.0009114357  -0.0037136473   0.0000774020
        0.0003003065   0.0002866638   0.0001222883   0.0000105661  -0.0002333115
       -0.0001528531   0.0000395776   0.0000522224   0.0001316465   0.0000841428
        0.0000924170  -0.0000263610  -0.0001165751  -0.0001046385   0.0003097888
        0.0001568024   0.0001642866  -0.0000594660  -0.0003516780  -0.0004119696
        0.0000717141   0.0001342219   0.0000646581   0.0000068094  -0.0000031285
       -0.0000105330   0.0000711879   0.0001100649  -0.0002117230  -0.0014510019
        0.0006918225  -0.0000012574   0.0001566108  -0.0001437902   0.0004629185
        0.0095095159   0.0069089319  -0.0095213029   0.0008182048  -0.0003537101
        0.0049262912   0.0163047493  -0.0154316944  -0.0465407374  -0.0026291317
        0.0002506629  -0.0032096154   0.0002615077   0.0028126047   0.0000049924
       -0.0006113435   0.0002746028   0.0000712920   0.0001022651  -0.0002626971
        0.0000687656  -0.0002281052   0.0001136130   0.0001044467   0.0007811492
       -0.0014163570  -0.0001625824  -0.0000169687   0.0000364064  -0.0000041657
       -0.0000099855  -0.0000165358   0.0000317050  -0.0000372472   0.0000039920
        0.0000359580  -0.0000591663  -0.0000107614   0.0000078027  -0.0000487483
        0.0000209760  -0.0000010577  -0.0000339732   0.0000082531  -0.0000197950
       -0.0000562874   0.0000529942  -0.0000681307   0.0000095626  -0.0000493780
        0.0000035837  -0.0000322765  -0.0000132976  -0.0000051510   0.0000117048
       -0.0000102129   0.0000278644  -0.0000097135  -0.0000336135   0.0000145847
       -0.0000271781  -0.0000302143   0.0000046408  -0.0000352794  -0.0000290756
        0.0000036345  -0.0000273279  -0.0000109660  -0.0000111074  -0.0000476895
        0.0000018481  -0.0000295847  -0.0000026935   0.0000202701  -0.0000058846