$hessian                                                                        
        0.5251079835  -0.0062353113   0.0135724613  -0.0695732796  -0.0142563183
        0.0207320841  -0.0141201263  -0.0177619750   0.0206017286   0.0000658383
       -0.0008645657   0.0027095703   0.0037026629   0.0113472582  -0.0133374428
       -0.0009853995   0.0005061058  -0.0004851064   0.0003399911  -0.0000557432
        0.0003318370   0.0005546811  -0.0000680174   0.0000651924  -0.0005508576
        0.0006346675   0.0008486368  -0.0014920028   0.0008158766  -0.0008435920
       -0.0000889527  -0.0001179769   0.0001004033  -0.0000990589   0.0000038862
       -0.0000300340   0.0000073056  -0.0000340958  -0.0000083909  -0.0000327199
       -0.0000026225  -0.0000011645   0.0000185784   0.0000085125   0.0000086493
        0.0000069654   0.0000134777   0.0000028891   0.0000223644   0.0000086439
       -0.0000010451   0.0000051745   0.0000153858   0.0000008542   0.0000186304
       -0.0000191928  -0.0000121430  -0.0001631431  -0.0000275298  -0.0000451079
       -0.0003748658   0.0004790137  -0.0001103992   0.0003327342   0.0000355700
        0.0000474303  -0.0000803912   0.0000298372  -0.0000028070   0.0000327402
       -0.0000001267   0.0000112493  -0.0000113978  -0.0000013794  -0.0000045139
        0.0000236091   0.0000001294   0.0000042990  -0.0000175873   0.0000022080
       -0.0000020886   0.0000019866  -0.0000036106   0.0000059869  -0.0000001976
        0.0000004596   0.0000022974   0.0000036869   0.0000029051  -0.0000084837
       -0.0000159674  -0.0000065365  -0.0000049300   0.0000024900   0.0000023204
       -0.0000009738  -0.0000023912  -0.0000019070  -0.0000004645  -0.0000037916
        0.0000021451   0.0000018136  -0.0000075334  -0.0000009666   0.0000016455
        0.0000025995  -0.0000002741  -0.0000033815  -0.0000013788   0.0000002433
       -0.0000035786   0.0000040027   0.0000001490  -0.0000010231  -0.0000006316
       -0.0000003076  -0.0000012099  -0.0000019766  -0.0000025022  -0.0000003292
        0.0000104016  -0.0000001524  -0.0000023025  -0.0000103506  -0.0000031483
        0.0000020543   0.0000047159   0.0000057115   0.0000004216  -0.0000001336
       -0.0000024941   0.0000003871  -0.0000001192   0.0000009677   0.0000001101
       -0.0000001569   0.0000016107   0.0000001207   0.0000000661   0.0000007684
       -0.0000000958  -0.0000008918  -0.0000003142   0.0000005777  -0.0000008971
       -0.0000002646   0.0000003637  -0.0000000135  -0.0000004052   0.0000001080
        0.0000002455  -0.0000007824  -0.0000001218  -0.0000030060   0.0000009458
        0.0000005050  -0.0000015928  -0.0000009351   0.0000002307  -0.0000000186
        0.0000028509  -0.0000000781  -0.0000009777  -0.0000007521  -0.0000001219
        0.0000013023  -0.0000011592  -0.0000008318  -0.0000000366   0.0000005925
       -0.0000004158  -0.0000003546  -0.0000002578   0.0000002193  -0.0000005609
       -0.0000000318  -0.0000008896  -0.0000013167  -0.0000005599   0.0000000932
        0.0000005231   0.0000032007  -0.0000004361   0.0000004267  -0.0000034198
       -0.0000018020  -0.0000019781   0.0000021947   0.0000011761  -0.0000001699
        0.0000005190   0.0000026995  -0.0000017847  -0.0000013924   0.0000051758
       -0.0000016737  -0.0000005153   0.0000047886   0.0000078065   0.0000005024
       -0.0000020568   0.0000203649   0.0000000070   0.0000144068  -0.0000627572
       -0.0000397296  -0.0000154835  -0.1594711415   0.1162829836  -0.0264505883
       -0.2335930197  -0.0948799817  -0.0274758199  -0.0451464140   0.0073176343
        0.0088536312  -0.0055506491  -0.0031110354   0.0005157807   0.0005321952
       -0.0009888856   0.0010435091   0.0006129682   0.0002371513   0.0008041463
        0.0003371619   0.0000399752   0.0003540468   0.0000552699  -0.0003439933
        0.0003570820   0.0003631492   0.0001750098  -0.0008339908  -0.0006911961
        0.0007755548  -0.0010700747  -0.0000085335  -0.0000179812   0.0000080167
       -0.0000062664   0.0000308949  -0.0002364919   0.0000014588  -0.0000045595
        0.0000068775  -0.0000065290  -0.0000024659  -0.0000001582   0.0000109177
        0.0000170226  -0.0000042390  -0.0000021569  -0.0000088691   0.0000040396
        0.0000143993   0.0000166151   0.0000026186  -0.0000094878   0.0000001337
        0.0000007728  -0.0000080981   0.0000006329  -0.0000054612  -0.0000008516
       -0.0000089588  -0.0000044063   0.0000087334   0.0000178125   0.0000068985
       -0.0000044835  -0.0000025980  -0.0000033833  -0.0000032325   0.0000195459
        0.0000021165  -0.0000153685   0.0000190776  -0.0000104350   0.0000053653
       -0.0000000935  -0.0000091261  -0.0000093124   0.0000046507   0.0000022977
        0.0000015389  -0.0000003714   0.0000036454  -0.0000028579   0.0000010359
       -0.0000034332   0.0000034918   0.0000035661  -0.0000005124   0.0000014286
        0.0000008452  -0.0000020548   0.0000011065  -0.0000025847   0.0000006046
       -0.0000028996   0.0000013906   0.0000019989   0.0000001341  -0.0000008669
       -0.0000020695  -0.0000022719  -0.0000005190   0.0000021911   0.0000023728
        0.0000017460   0.0000002636  -0.0000010059   0.0000004025   0.0000021001
       -0.0000002659  -0.0000005238  -0.0000008265  -0.0000006284   0.0000001952
        0.0000001953  -0.0000003519   0.0000007061   0.0000001289   0.0000001150
       -0.0000003639   0.0000001945   0.0000001799   0.0000000907   0.0000001985
       -0.0000002047  -0.0000002168   0.0000001838   0.0000001951  -0.0000001292
        0.0000004621  -0.0000000077   0.0000000837  -0.0000001146  -0.0000000964
        0.0000000093   0.0000004493  -0.0000000034   0.0000002881   0.0000003663
        0.0000001636   0.0000000419   0.0000001054  -0.0000005783  -0.0000004360
        0.0000002491   0.0000000892   0.0000001927  -0.0000000063   0.0000001423
        0.0000000889  -0.0000001338  -0.0000002776  -0.0000003122  -0.0000001940
       -0.0000005471   0.0000003032  -0.0000003594  -0.0000001490  -0.0000002194
       -0.0000004006  -0.0000001350  -0.0000000741  -0.0000002747  -0.0000002371
       -0.0000002699  -0.0000004201  -0.0000003434   0.0000002146  -0.0000005196
       -0.0000000093  -0.0000002330  -0.0000004913  -0.0000002475   0.0000003332
       -0.0000004248  -0.0000004474  -0.0000001436  -0.0000003176  -0.0000000365
        0.0000001969  -0.0000004361   0.0000000564  -0.0000002850  -0.0000004191
       -0.0000007543  -0.0000007684  -0.0000000685  -0.0000009201   0.0000000617
       -0.0000002918   0.0000000862   0.0000004311   0.0000000773  -0.0000018385
        0.0000004855  -0.0000011687   0.0000005633   0.0000005481  -0.0000000943
       -0.0000087158  -0.0000039243  -0.0000119519   0.0000118523   0.0000023189
        0.0000062890
       -0.0062353113   0.5005582935   0.0361928176  -0.0182893827  -0.0940381289
        0.0535711298  -0.0090759731  -0.0100657568   0.0118523197   0.0029489482
        0.0064122488  -0.0116668657   0.0020948451  -0.0192521391   0.0189228097
       -0.0007281419  -0.0004134041   0.0007993042  -0.0000712446  -0.0001964010
       -0.0005629960  -0.0003697627   0.0000509317  -0.0001521367   0.0006840226
       -0.0010049042  -0.0010497874   0.0017976819  -0.0002355976   0.0010181898
        0.0001447806   0.0000854769  -0.0001152654   0.0000006405  -0.0000706287
       -0.0000053118  -0.0000100071   0.0000292509   0.0000091121   0.0000224365
        0.0000143630   0.0000060572  -0.0000070420   0.0000039163  -0.0000098973
       -0.0000009690  -0.0000043792   0.0000066194  -0.0000085588  -0.0000037493
        0.0000082668   0.0000029034  -0.0000008346  -0.0000067446  -0.0000030983
       -0.0000366675   0.0000149347   0.0000933523  -0.0000304202   0.0000900136
        0.0001430770  -0.0002742726   0.0001057093  -0.0001167255  -0.0000178315
        0.0000040085   0.0000354436  -0.0000087479  -0.0000029201  -0.0000002796
        0.0000083992   0.0000046688   0.0000052315  -0.0000016611  -0.0000008772
       -0.0000186877  -0.0000011548  -0.0000047892   0.0000044873  -0.0000011538
       -0.0000025463  -0.0000021061   0.0000016410   0.0000004029   0.0000024823
        0.0000005592  -0.0000014216  -0.0000026925  -0.0000006490   0.0000022995
        0.0000041312   0.0000019576   0.0000072320   0.0000004543   0.0000002726
        0.0000005569   0.0000014019   0.0000016064   0.0000003496   0.0000016463
       -0.0000007045   0.0000002422   0.0000036891   0.0000005346  -0.0000007360
       -0.0000025102   0.0000001222   0.0000007477   0.0000008839   0.0000003956
        0.0000015880  -0.0000011504   0.0000001660   0.0000001919   0.0000006310
        0.0000003901   0.0000006315   0.0000010458   0.0000019712   0.0000007223
       -0.0000052558   0.0000002476   0.0000013064   0.0000067476  -0.0000002434
       -0.0000015589  -0.0000022119  -0.0000030625  -0.0000002816   0.0000001769
        0.0000006793  -0.0000002333  -0.0000004941  -0.0000003689   0.0000000617
        0.0000004335  -0.0000007448  -0.0000001003  -0.0000002915  -0.0000002727
        0.0000000920   0.0000001973  -0.0000000921  -0.0000000550   0.0000002653
       -0.0000001957   0.0000000032   0.0000002768  -0.0000001032   0.0000000377
       -0.0000001692   0.0000002166   0.0000000698   0.0000007619  -0.0000007985
       -0.0000001233   0.0000010365   0.0000012621  -0.0000002357  -0.0000001162
       -0.0000007715  -0.0000000793  -0.0000000140   0.0000004741   0.0000000104
       -0.0000003914   0.0000000252   0.0000004506  -0.0000003016  -0.0000004764
        0.0000001375  -0.0000000839  -0.0000001138  -0.0000002046   0.0000000181
       -0.0000003708   0.0000002648  -0.0000008278   0.0000008132   0.0000000298
        0.0000001787  -0.0000012678  -0.0000000337  -0.0000024814   0.0000035585
        0.0000014411   0.0000007459  -0.0000013806  -0.0000009786   0.0000006319
        0.0000003587  -0.0000007022   0.0000011224   0.0000007465  -0.0000014891
       -0.0000004112   0.0000002797  -0.0000017007  -0.0000024825   0.0000002415
       -0.0000000336  -0.0000016223  -0.0000053885  -0.0000117007   0.0000256440
        0.0000274257   0.0000240269   0.1157965515  -0.1594562561   0.0248580852
       -0.0949425071  -0.0909731168  -0.0146366488   0.0073234153  -0.1307474720
       -0.1157627241  -0.0028167948  -0.0011687591   0.0001488862   0.0010372510
        0.0005484657  -0.0001663621   0.0001929524   0.0001941035   0.0007560181
        0.0003947882  -0.0011303962  -0.0036494995  -0.0000559948   0.0007325166
       -0.0007609137   0.0003399335   0.0005677627  -0.0005033932  -0.0002490280
       -0.0001772080   0.0002516389  -0.0000304566   0.0000045971   0.0000208919
       -0.0000638068   0.0000887970   0.0004105085   0.0000052777   0.0000088420
        0.0000103508   0.0000021424   0.0000031733  -0.0000059853  -0.0000046602
       -0.0000059976   0.0000016789  -0.0000017453   0.0000046475  -0.0000023024
       -0.0000036355  -0.0000045836  -0.0000009407  -0.0000005412   0.0000029545
        0.0000022780   0.0000057100   0.0000035999  -0.0000072426  -0.0000025086
        0.0000040408   0.0000006497  -0.0000024044  -0.0000071706  -0.0000036974
        0.0000007070   0.0000025134  -0.0000020829   0.0000007719  -0.0000115340
       -0.0000015145   0.0000041434  -0.0000096129   0.0000113782  -0.0000028614
       -0.0000042213   0.0000056959   0.0000051494  -0.0000044108  -0.0000036653
       -0.0000017775   0.0000016567  -0.0000009299   0.0000018356   0.0000007178
        0.0000015145  -0.0000017782  -0.0000004691  -0.0000016442  -0.0000014612
        0.0000004406   0.0000007546  -0.0000006158   0.0000010553   0.0000002805
        0.0000021860   0.0000000990  -0.0000012886  -0.0000003091  -0.0000004391
       -0.0000001494   0.0000021627   0.0000010534  -0.0000011344  -0.0000009968
        0.0000004834   0.0000009365   0.0000007087   0.0000004763  -0.0000009256
       -0.0000006491   0.0000002761   0.0000000879   0.0000003830  -0.0000003792
       -0.0000005784   0.0000000923  -0.0000001285   0.0000000340   0.0000001995
        0.0000001761  -0.0000000049   0.0000003090  -0.0000003193  -0.0000000512
        0.0000005309   0.0000000890   0.0000000820   0.0000000440   0.0000000131
       -0.0000003279   0.0000002190  -0.0000004478  -0.0000002079   0.0000006979
        0.0000002835  -0.0000001290   0.0000000718  -0.0000001276   0.0000002163
       -0.0000000587  -0.0000001239  -0.0000002352   0.0000004138  -0.0000000752
       -0.0000000027   0.0000000977  -0.0000003574   0.0000000646   0.0000003176
       -0.0000002639   0.0000000076   0.0000001511  -0.0000000034   0.0000000265
        0.0000000732  -0.0000005389   0.0000000632  -0.0000002376  -0.0000001007
        0.0000001542  -0.0000002082  -0.0000000638  -0.0000000027  -0.0000004456
       -0.0000000074   0.0000000829  -0.0000000757  -0.0000005073   0.0000001070
       -0.0000002975   0.0000000657   0.0000002271  -0.0000002707  -0.0000003566
       -0.0000000436  -0.0000002306   0.0000000864   0.0000000382  -0.0000003393
       -0.0000001325   0.0000000870  -0.0000004762  -0.0000003532   0.0000001983
       -0.0000002904   0.0000002476   0.0000001557   0.0000003786   0.0000003333
        0.0000002142  -0.0000003798  -0.0000000642  -0.0000001782   0.0000007293
        0.0000003273   0.0000001802  -0.0000004938   0.0000005298  -0.0000003112
        0.0000037481   0.0000027074   0.0000027085  -0.0000074617  -0.0000051215
       -0.0000182161
        0.0135724613   0.0361928176   0.4671051647   0.0253612577   0.0493189839
       -0.1381666883   0.0029582398   0.0022794649  -0.0011190242   0.0076737298
        0.0094882624  -0.0293947554  -0.0033124431   0.0101065317  -0.0065000447
        0.0005210534  -0.0000925917   0.0001183452   0.0000869825   0.0001587775
        0.0001822200  -0.0000311627   0.0001430267   0.0000567964  -0.0003012730
        0.0004109956   0.0002438982  -0.0001445408  -0.0009020857  -0.0007115505
       -0.0000554406  -0.0000680198   0.0000535932   0.0000530447   0.0000562684
        0.0000019429   0.0000163060  -0.0000110295   0.0000021187   0.0000002452
       -0.0000096430   0.0000028553  -0.0000009751  -0.0000079306   0.0000001613
       -0.0000027204  -0.0000140923   0.0000022660  -0.0000011499  -0.0000084591
       -0.0000033138  -0.0000086048  -0.0000104326  -0.0000004797  -0.0000075139
        0.0000429472  -0.0000077549   0.0000236401   0.0000479891  -0.0000265257
        0.0000906281  -0.0000468356  -0.0000147942  -0.0000835808   0.0000016373
       -0.0000155545   0.0000067617   0.0000037708   0.0000110771  -0.0000146863
       -0.0000065524  -0.0000091639  -0.0000000203  -0.0000002526  -0.0000012839
        0.0000045254   0.0000001702   0.0000008785   0.0000048512  -0.0000016072
        0.0000041801   0.0000023468  -0.0000001518  -0.0000036079  -0.0000016725
       -0.0000002357  -0.0000018386   0.0000019523  -0.0000005143   0.0000032750
        0.0000063512  -0.0000006342  -0.0000050607  -0.0000012488   0.0000004650
        0.0000023906   0.0000005526  -0.0000001591   0.0000006370   0.0000001213
       -0.0000009949   0.0000007918  -0.0000012880  -0.0000007471  -0.0000007213
       -0.0000022872  -0.0000007967   0.0000002713  -0.0000003181  -0.0000002372
        0.0000003831  -0.0000001438  -0.0000003088   0.0000004162   0.0000004324
       -0.0000006373  -0.0000000882   0.0000008366   0.0000006566   0.0000004042
       -0.0000030872  -0.0000002151   0.0000004790   0.0000041639  -0.0000009135
       -0.0000005984  -0.0000007918  -0.0000010470  -0.0000003379   0.0000006270
        0.0000002482  -0.0000001108  -0.0000013500  -0.0000002226   0.0000001911
        0.0000002110  -0.0000004117  -0.0000000878   0.0000002335   0.0000002087
       -0.0000003617  -0.0000001839   0.0000004522   0.0000001548  -0.0000003646
       -0.0000000165  -0.0000003131   0.0000004206  -0.0000000847  -0.0000000917
        0.0000007676  -0.0000000053  -0.0000000782  -0.0000002524  -0.0000006019
        0.0000001092   0.0000012825   0.0000003052  -0.0000001320  -0.0000000496
       -0.0000006473   0.0000001096   0.0000004935   0.0000002919   0.0000001195
       -0.0000003298   0.0000002765   0.0000005434   0.0000003944  -0.0000000410
        0.0000000389   0.0000006197   0.0000003006   0.0000000443   0.0000008511
       -0.0000003735   0.0000002312   0.0000009618  -0.0000002544   0.0000000886
       -0.0000000997  -0.0000006449   0.0000001691  -0.0000017266   0.0000030265
        0.0000007234   0.0000007062  -0.0000010075  -0.0000004237   0.0000004505
        0.0000001092   0.0000000076   0.0000012387   0.0000000533   0.0000002317
       -0.0000013953  -0.0000003659  -0.0000020053  -0.0000021430  -0.0000002268
       -0.0000003158  -0.0000199720   0.0000076133   0.0000087350   0.0000123949
       -0.0000134375  -0.0000128156  -0.0259937258   0.0243207325  -0.0487242932
       -0.0280326199  -0.0149295623  -0.0466554558   0.0090999365  -0.1151563464
       -0.1938295547  -0.0004921942  -0.0002195709   0.0005118011  -0.0005858237
       -0.0003871847   0.0002403633  -0.0008865677  -0.0005001444   0.0007119957
        0.0005815245  -0.0026279766  -0.0051390974  -0.0003051974   0.0009357079
        0.0007441494   0.0003989635   0.0010412665   0.0008398739  -0.0001254194
        0.0004054468  -0.0004134185   0.0000123989   0.0000034547  -0.0000212803
       -0.0000858140   0.0000426490  -0.0000715168  -0.0000211017   0.0000121360
        0.0000011794   0.0000006000   0.0000020086   0.0000022303  -0.0000035135
       -0.0000037695   0.0000004512   0.0000025717   0.0000011623  -0.0000003901
       -0.0000038247  -0.0000013420   0.0000006420  -0.0000008820   0.0000050057
       -0.0000047966  -0.0000001978   0.0000032603  -0.0000004186   0.0000021020
        0.0000008291   0.0000017952  -0.0000032227  -0.0000041046  -0.0000004916
        0.0000024096   0.0000033311  -0.0000055172   0.0000039158   0.0000000943
        0.0000037183   0.0000037911   0.0000000482   0.0000015851  -0.0000001169
       -0.0000028342  -0.0000043488   0.0000034266   0.0000004676   0.0000010618
        0.0000014245  -0.0000003423  -0.0000021086   0.0000001941  -0.0000000988
        0.0000011416  -0.0000004321   0.0000003986   0.0000028415  -0.0000002011
       -0.0000000136  -0.0000000755   0.0000001574  -0.0000007705   0.0000002986
        0.0000005509  -0.0000004695  -0.0000006770  -0.0000004824  -0.0000017687
       -0.0000014525   0.0000007233  -0.0000000248  -0.0000005807  -0.0000000028
        0.0000003241   0.0000005798   0.0000004063  -0.0000000399  -0.0000003323
        0.0000003287   0.0000002013   0.0000002970   0.0000001716  -0.0000001722
       -0.0000002143   0.0000004234  -0.0000001328  -0.0000002329   0.0000002035
       -0.0000002578  -0.0000001888   0.0000005682  -0.0000003278  -0.0000002217
       -0.0000001481  -0.0000000967  -0.0000000274  -0.0000000611   0.0000002737
       -0.0000003441   0.0000000027  -0.0000002999  -0.0000002954   0.0000001613
        0.0000001527   0.0000000128   0.0000003330  -0.0000001908  -0.0000000935
        0.0000000770   0.0000000500   0.0000000380   0.0000000146   0.0000001102
       -0.0000000803   0.0000000202  -0.0000000320  -0.0000001534   0.0000002205
        0.0000000718   0.0000000220   0.0000002959   0.0000000976   0.0000001153
        0.0000004061   0.0000000280   0.0000001193   0.0000002248   0.0000002012
        0.0000000754   0.0000002540  -0.0000001935   0.0000005561  -0.0000001383
       -0.0000001213   0.0000000508   0.0000006882  -0.0000003432  -0.0000000305
        0.0000003825   0.0000005351   0.0000004390   0.0000000919   0.0000001889
        0.0000000706   0.0000005804   0.0000002419  -0.0000001109   0.0000001934
       -0.0000004754   0.0000007556   0.0000002842  -0.0000001565   0.0000001951
        0.0000005018   0.0000000289   0.0000000529   0.0000002618  -0.0000000158
        0.0000000752   0.0000002648  -0.0000004721  -0.0000005575   0.0000008900
       -0.0000002208   0.0000004553   0.0000008481  -0.0000001797   0.0000004400
        0.0000015489  -0.0000012233  -0.0000005272   0.0000070280   0.0000005866
        0.0000032847
       -0.0695732796  -0.0182893827   0.0253612577   0.4947946375   0.0015129725
        0.0062405456  -0.1651452699  -0.0412565975  -0.0160784321  -0.0627196240
        0.0003642748   0.0008229728  -0.1204700812   0.0585173452  -0.0134576587
       -0.0270831606   0.0174784445  -0.0052440352  -0.0035362999  -0.0024079460
       -0.0013743865  -0.0008810746   0.0003605032  -0.0001840786   0.0008639276
       -0.0021883995  -0.0010916882   0.0046670622   0.0030704518   0.0006922158
        0.0001873483  -0.0001508485  -0.0000502102   0.0002004639   0.0000135417
        0.0000486548   0.0000417789  -0.0000102232   0.0000199786   0.0000571640
       -0.0000182801   0.0000031633  -0.0000227648  -0.0000237828  -0.0000134140
       -0.0000241481  -0.0000439822  -0.0000028087  -0.0000331460  -0.0000225869
        0.0000007916  -0.0000520945  -0.0000515811  -0.0000101158  -0.0000364543
        0.0001376294   0.0000013298   0.0001768870  -0.0001450425   0.0000544586
        0.0004590639  -0.0006093535   0.0002333723  -0.0004142636  -0.0000406224
       -0.0000702862   0.0000748798  -0.0000302000   0.0000228039  -0.0000480349
       -0.0000138585  -0.0000263255   0.0000174915   0.0000043791   0.0000117231
       -0.0000050704  -0.0000004462  -0.0000046347   0.0000241178  -0.0000077193
        0.0000047904  -0.0000040116   0.0000018810  -0.0000100188  -0.0000032447
       -0.0000008747  -0.0000030415  -0.0000023382  -0.0000035195   0.0000121115
        0.0000168473   0.0000049932   0.0000001879  -0.0000043955  -0.0000005303
        0.0000027217   0.0000023174   0.0000024006   0.0000003020   0.0000020459
       -0.0000044957  -0.0000003293   0.0000096894  -0.0000004829  -0.0000057168
       -0.0000046597  -0.0000026254   0.0000065858  -0.0000022730  -0.0000007148
        0.0000062007  -0.0000064906  -0.0000007420   0.0000020280   0.0000021870
       -0.0000008659   0.0000027958   0.0000053687   0.0000065232   0.0000021044
       -0.0000301386  -0.0000002600   0.0000055645   0.0000386930  -0.0000015006
       -0.0000070187  -0.0000118783  -0.0000168284  -0.0000022723   0.0000002114
        0.0000043938  -0.0000002295  -0.0000033603  -0.0000012747   0.0000009444
        0.0000011657  -0.0000029906  -0.0000002938  -0.0000023069   0.0000000379
       -0.0000003250  -0.0000001714   0.0000006734  -0.0000003443   0.0000000612
        0.0000002904  -0.0000002814   0.0000006119   0.0000006870  -0.0000002561
       -0.0000003327   0.0000020724   0.0000005721   0.0000044851  -0.0000058288
       -0.0000005664   0.0000046407   0.0000062142  -0.0000007627   0.0000002670
       -0.0000006932   0.0000000661   0.0000017257   0.0000036894   0.0000001819
       -0.0000002778  -0.0000001297   0.0000006140   0.0000016591   0.0000003121
        0.0000004375   0.0000012027  -0.0000002850   0.0000009289   0.0000013189
       -0.0000004737   0.0000005591  -0.0000042229   0.0000015747   0.0000011390
        0.0000011662  -0.0000044339   0.0000006910  -0.0000108840   0.0000174177
        0.0000067304   0.0000045324  -0.0000075286  -0.0000036889   0.0000006593
       -0.0000010527  -0.0000039379   0.0000028493   0.0000017432  -0.0000100999
        0.0000017097  -0.0000013754  -0.0000078893  -0.0000091284  -0.0000010814
        0.0000024989  -0.0000433193   0.0000161375   0.0000073929   0.0000786210
        0.0000204741  -0.0000326122   0.0031213622   0.0116113437  -0.0160771070
       -0.0097068494  -0.0155954731   0.0207411452  -0.0004981693  -0.0008246951
        0.0021171058  -0.0107855079  -0.0061154685   0.0016762562  -0.0249698239
       -0.0040976505  -0.0041010244  -0.0023376170  -0.0028762987  -0.0027948345
       -0.0006848391   0.0034622936   0.0065281872  -0.0029406806   0.0142755916
        0.0163367804  -0.0016696254  -0.0162949864  -0.0209074178   0.0005051114
        0.0007307903   0.0004403354  -0.0009529136   0.0007092523  -0.0002403222
       -0.0006431259  -0.0011012090   0.0003604183  -0.0000600806   0.0000111267
       -0.0000175731   0.0000087261   0.0000104901   0.0000136493  -0.0000192713
       -0.0000330901   0.0000048886   0.0000041762   0.0000135913  -0.0000084036
       -0.0000222001  -0.0000254067  -0.0000041848   0.0000150573   0.0000044380
       -0.0000170966   0.0000039870   0.0000076205   0.0000231105   0.0000009960
        0.0000147857   0.0000072221  -0.0000168258  -0.0000342292  -0.0000110411
        0.0000135695   0.0000088048  -0.0000061540   0.0000127518  -0.0000183598
        0.0000001154   0.0000262792  -0.0000246170   0.0000154685  -0.0000121741
       -0.0000007281  -0.0000014157   0.0000168249  -0.0000021671  -0.0000024029
       -0.0000002637  -0.0000001285  -0.0000043876   0.0000051537  -0.0000009172
        0.0000068546  -0.0000033482  -0.0000028660   0.0000052992  -0.0000021222
       -0.0000012961   0.0000021770  -0.0000013832  -0.0000017602   0.0000011445
        0.0000054284  -0.0000031558  -0.0000053310  -0.0000016344  -0.0000016883
        0.0000006413   0.0000051116   0.0000005290  -0.0000055177  -0.0000021960
       -0.0000023129   0.0000018179   0.0000017301  -0.0000002246  -0.0000039204
       -0.0000000707   0.0000005053   0.0000008087   0.0000017850  -0.0000011985
       -0.0000020715   0.0000010140  -0.0000011721  -0.0000006611  -0.0000003934
        0.0000007693  -0.0000004754  -0.0000003053  -0.0000004783  -0.0000007538
        0.0000008302   0.0000019352  -0.0000002796  -0.0000005035   0.0000002284
       -0.0000003158  -0.0000003968  -0.0000003126  -0.0000000238   0.0000008257
        0.0000016002  -0.0000010012  -0.0000002264  -0.0000008118  -0.0000001333
       -0.0000003075   0.0000003010  -0.0000002846   0.0000008483   0.0000013301
       -0.0000004233  -0.0000002170   0.0000001713   0.0000002884   0.0000016247
       -0.0000003707  -0.0000001925   0.0000017152   0.0000006696  -0.0000000687
        0.0000017504  -0.0000004785   0.0000005141   0.0000003470   0.0000007219
        0.0000004661   0.0000004101   0.0000003956   0.0000008442   0.0000011151
        0.0000010529   0.0000003508   0.0000018978  -0.0000007293   0.0000010009
        0.0000005229   0.0000007163   0.0000005130   0.0000019057  -0.0000010672
        0.0000003294   0.0000012266   0.0000007842   0.0000009242   0.0000006720
        0.0000001509   0.0000010121   0.0000008874  -0.0000007521   0.0000005734
        0.0000018669   0.0000007150  -0.0000000249   0.0000024588   0.0000011149
        0.0000015414  -0.0000006724  -0.0000008057  -0.0000003739   0.0000044586
       -0.0000012493   0.0000041713  -0.0000010003  -0.0000008712   0.0000016041
        0.0000105801   0.0000042310   0.0000098600  -0.0000109206   0.0000113578
        0.0000241410
       -0.0142563183  -0.0940381289   0.0493189839   0.0015129725   0.4674159942
        0.0000605510  -0.0434489364  -0.0818783103  -0.0068557269   0.0029831314
       -0.1015511183  -0.0541945886   0.0539364506  -0.1212091051   0.0116265280
        0.0043540405   0.0055078901   0.0004986900  -0.0029479172   0.0010642087
       -0.0004230946   0.0000236113  -0.0011759313   0.0000675006  -0.0019334591
       -0.0040195235  -0.0001199107   0.0171379164  -0.0256998940   0.0039212555
        0.0008574776  -0.0002977630   0.0001900928  -0.0000147214  -0.0001286962
       -0.0000036773  -0.0000927946   0.0000470213  -0.0000266950   0.0000186417
        0.0000191371   0.0000061789  -0.0000011308   0.0000142047  -0.0000059088
        0.0000014509   0.0000130430  -0.0000047176   0.0000028382   0.0000149686
        0.0000088069   0.0000752648   0.0000832588   0.0000105221   0.0000655322
       -0.0001478278   0.0000161503   0.0000825423  -0.0002089779   0.0000235511
       -0.0003421864   0.0000987784  -0.0001060049   0.0001505562   0.0000206210
        0.0000330264  -0.0000101000  -0.0000239632  -0.0000293975   0.0000191209
        0.0000126891   0.0000174739   0.0000008052  -0.0000010869   0.0000028204
       -0.0000126854   0.0000016260   0.0000003699  -0.0000151728   0.0000048328
       -0.0000061424  -0.0000020156  -0.0000012777   0.0000079497   0.0000037655
        0.0000009987   0.0000019042  -0.0000012825   0.0000008113  -0.0000085793
       -0.0000136493  -0.0000040146   0.0000010857   0.0000030946   0.0000021557
       -0.0000017545  -0.0000027611  -0.0000012480  -0.0000004388  -0.0000034645
        0.0000035867   0.0000006662  -0.0000066460  -0.0000000129   0.0000024548
        0.0000016903   0.0000009460  -0.0000045476   0.0000005050   0.0000008447
       -0.0000031636   0.0000034343   0.0000007212  -0.0000010704  -0.0000015170
        0.0000004925  -0.0000010848  -0.0000026575  -0.0000026545  -0.0000007123
        0.0000120702   0.0000004835  -0.0000023808  -0.0000154349  -0.0000023159
        0.0000027135   0.0000060176   0.0000077160   0.0000004514  -0.0000011090
       -0.0000020675   0.0000002760   0.0000007722   0.0000012906  -0.0000003382
       -0.0000003681   0.0000012934  -0.0000000175  -0.0000000240   0.0000004331
       -0.0000000810  -0.0000007073  -0.0000003632   0.0000002459  -0.0000007570
       -0.0000002753   0.0000002356  -0.0000004189  -0.0000004687   0.0000000168
       -0.0000003736  -0.0000006649  -0.0000002398  -0.0000031941   0.0000025726
        0.0000003737  -0.0000016202  -0.0000018056   0.0000001284  -0.0000007687
        0.0000011917  -0.0000000544  -0.0000018622  -0.0000011435  -0.0000000308
       -0.0000000930  -0.0000000080  -0.0000003985  -0.0000012738  -0.0000001056
       -0.0000003305  -0.0000009426  -0.0000000000  -0.0000004265  -0.0000010909
        0.0000000730  -0.0000004662   0.0000004267  -0.0000001098  -0.0000003873
       -0.0000003457   0.0000022544  -0.0000004345   0.0000015774  -0.0000051049
       -0.0000024934  -0.0000026428   0.0000032546   0.0000015934  -0.0000006154
        0.0000009335   0.0000025408  -0.0000022060  -0.0000009551   0.0000060016
       -0.0000019334   0.0000004262   0.0000039045   0.0000040951   0.0000009350