137
 energy: -184.093533543675 gnorm: 0.000136760965 xtb: 6.7.1 (edcfbbe)
C           12.60617334515878       -4.90929892743832        1.84589008414616
C           12.97556192282073       -4.03149760669940        0.64158761507419
C           14.36058839365513       -3.43120557258544        0.89844277373513
C           13.05951978068042       -4.89490798747447       -0.62521819913702
C           11.90357667212802       -2.96889762061986        0.45074738013827
C           10.58595896424484       -3.37510725956613        0.19903889173161
C            9.55000796954412       -2.48444706472338        0.00574439686514
C            9.83852638688418       -1.12862548696042        0.05504416990443
C           11.15120909414531       -0.69343060272682        0.33776620723578
C           12.17406730094405       -1.61139685254853        0.52871299733921
C           11.10270044862967        0.74292499410647        0.37977335424965
C           12.06906593600427        1.71602273735088        0.59048120745948
C           11.71759743190360        3.05628366508051        0.54313643260819
C           12.72173256593582        4.17614087043800        0.77185744689968
C           12.80253148749158        5.04629132922705       -0.49051991401729
C           14.12759878352636        3.65264220644274        1.07870756887887
C           12.26176989139384        5.02878172135179        1.96298117257051
C           10.38577167397264        3.38902782734852        0.26029723821837
C            9.40486616079108        2.44240158997236        0.04655021770528
C            9.76177735278242        1.10445733733838        0.12697492674447
N            9.00527996447585       -0.03413985657687       -0.06944827906735
C            7.63856588632844       -0.07417346943582       -0.34589328449748
C            6.73478659305986        0.68227104393509        0.40822538062630
C            5.39017994323388        0.62903273654132        0.14341364283258
C            4.86832831373088       -0.16674776415924       -0.90037958685609
C            3.46127027709724       -0.21955290967578       -1.17581481523173
C            2.97491645634596       -0.57208661213985       -2.46664602653921
C            1.64530702123233       -0.62808646284474       -2.75743231670001
C            0.69987440762204       -0.34753919442480       -1.74342739074351
C            1.17368534274277        0.00494428143274       -0.43807416513055
C            2.50057389728783        0.07725958664719       -0.16636240900040
C            0.00077423268612        0.24536433215641        0.48856030358892
C            0.00161691970221        1.68200046815968        1.02090266133180
C            0.00074746253697       -0.75421147080424        1.64998689631926
C           -1.17294509348233        0.00604454352449       -0.43736390405145
C           -2.49939883976811        0.07891775562670       -0.16458592165038
C           -3.46172947605924       -0.21580698924737       -1.17372121733734
C           -4.86797056513444       -0.16311509063078       -0.89725536049765
C           -5.38865707893463        0.62250951395938        0.15537819532557
C           -6.73277453829681        0.67473642503397        0.42176969206908
C           -7.63865057311110       -0.07189138777458       -0.33990772641017
N           -9.00487459471119       -0.03287689152587       -0.06205284407615
C           -9.84065169050940       -1.12722818657744        0.04632354503140
C           -9.55550854076500       -2.48287618868206       -0.02364738451424
C          -10.59362585448475       -3.37388325771829        0.15591088503512
C          -11.91022997057110       -2.96841859092199        0.41399481386153
C          -12.98486759528582       -4.03124526384747        0.58778938613282
C          -13.07090205252920       -4.87392346699822       -0.69277934132095
C          -12.61772071967128       -4.92927039695724        1.77777457962857
C          -14.36839649460650       -3.43170733893189        0.85426085047720
C          -12.17723361928703       -1.61161861036956        0.51352665517491
C          -11.15214664334776       -0.69334443521295        0.33658660872287
C          -11.10015509210195        0.74206712875729        0.40102800930353
C          -12.06400563393177        1.71393649336251        0.62820462133677
C          -11.70949035609351        3.05398594577468        0.60156508916898
C          -12.71050905130016        4.17244119822645        0.84987554155210
C          -14.11715111628360        3.64749145609469        1.15060348212514
C          -12.79120568738163        5.06305641458762       -0.39814712709808
C          -12.24645481664431        5.00461814238631        2.05383124480128
C          -10.37736364549527        3.38804122382260        0.32174322491290
C           -9.39895643574748        2.44261894809349        0.09184588469092
C           -9.75862056258248        1.10434657841407        0.15245221452012
C           -7.14638395356826       -0.86122784577208       -1.38545517998813
C           -5.80350403442013       -0.89771670313385       -1.65978692560445
C           -2.97576825902456       -0.56654156522610       -2.46572843114133
C           -1.64656302839293       -0.62426732871917       -2.75704495557579
C           -0.70003986702864       -0.34638559419985       -1.74318464137235
C            5.80139361082930       -0.91106408444890       -1.65565332765183
C            7.14468100355279       -0.87421803952606       -1.38226555628109
H           13.37381414241179       -5.66278038260244        2.00994671804114
H           11.65865111175314       -5.41772813823085        1.69136301367743
H           12.52292305187582       -4.29961440964918        2.74328188318003
H           14.67880466132201       -2.81060929231197        0.06390458167019
H           15.08668786587969       -4.23315150214444        1.01655101248068
H           14.36707047184969       -2.83690002433759        1.80922673902434
H           13.30392481980173       -4.27567833899193       -1.48591310660225
H           13.83375761949967       -5.65109704304837       -0.51275217162448
H           12.11867041787759       -5.39970182316316       -0.82550197895968
H           10.35635488860044       -4.42886391146281        0.15703924938028
H            8.54494574439976       -2.83973463047263       -0.16378284758174
H           13.16411462527176       -1.24397853878506        0.74130056353528
H           13.08213428674627        1.40407042304737        0.78215433374242
H           13.10356633759261        4.44234120635877       -1.34407944943337
H           13.53468056379078        5.83933302818530       -0.35283928822038
H           11.84445091053260        5.50445473184873       -0.71936069033546
H           14.79922755628236        4.49301874589943        1.24298342576432
H           14.12952130013915        3.04079556266112        1.97787289829393
H           14.51823041198689        3.06935631874999        0.24808386515113
H           11.29358636466385        5.48441253638496        1.77545194930076
H           12.97993192444676        5.82338332988968        2.15469326905385
H           12.18128723110673        4.41297191856953        2.85645973610550
H           10.10215374672924        4.42858749295291        0.19883911554538
H            8.39518080354220        2.74173880917549       -0.19025237874649
H            7.10495698532394        1.29109310054622        1.22016939667307
H            4.72175366577675        1.23596536834646        0.73430471050256
H            3.68928445252173       -0.75762250285744       -3.25474429908972
H            1.30684625605607       -0.87593796410633       -3.75278659827201
H            2.83800731501808        0.31396227369324        0.83153712781993
H            0.88536234263772        1.85974099962026        1.62956003012327
H            0.00179987466558        2.38858757596808        0.19344947250055
H           -0.88168160904427        1.86065283468681        1.62993117314178
H            0.00021362168467       -1.77287642412626        1.26777243239484
H           -0.88288964795459       -0.61566207112454        2.26891840556295
H            0.88487872441823       -0.61636677269119        2.26836858802327
H           -2.83535556051445        0.31488296162604        0.83389904920524
H           -4.71939740434346        1.22213605631721        0.75263214462735
H           -7.10112801289852        1.27474291450628        1.24105532249309
H           -8.55136582146308       -2.83818177377039       -0.19840884463156
H          -10.36658876373473       -4.42740967321768        0.09751653980822
H          -12.13135825572431       -5.37791739042397       -0.90105615241996
H          -13.84714987981166       -5.62977442319882       -0.59258388993820
H          -13.31354324528029       -4.24028727324717       -1.54343020811129
H          -12.53316741990219       -4.33438589155575        2.68492421982593
H          -13.38715324786347       -5.68349976851053        1.92952553902690
H          -11.67138214142648       -5.43736938385120        1.61514732701394
H          -14.68504148452146       -2.79701837295940        0.02978945927146
H          -15.09649198041739       -4.23363797462671        0.95949558144397
H          -14.37342846646958       -2.85208171505074        1.77446577934569
H          -13.16628705730640       -1.24512728656885        0.73226391136303
H          -13.07755558320700        1.40135363186291        0.81627832727334
H          -14.78647181731582        4.48674901261289        1.32938852583767
H          -14.51052366093522        3.07850938831447        0.31139715966744
H          -14.11912607556974        3.02135872558549        2.03987512073854
H          -11.83238581118936        5.52255198254238       -0.62113143219481
H          -13.52118337629235        5.85554038579728       -0.24645460947722
H          -13.09509184822131        4.47371539600299       -1.26085776575242
H          -12.96243362683791        5.79764653687001        2.25968827546299
H          -11.27755222516464        5.46101382640762        1.87194648570744
H          -12.16580820260043        4.37424123741556        2.93707917248514
H          -10.09145156390190        4.42777306952835        0.27590290882062
H           -8.38910709836611        2.74351338672494       -0.14220711517085
H           -7.83989315177870       -1.42506790679878       -1.99205603801112
H           -5.45668357701018       -1.52930450293265       -2.46282219093738
H           -3.69030209866778       -0.74966310239754       -3.25413192193027
H           -1.30895271811722       -0.87124586813039       -3.75290190745035
H            5.45241559419060       -1.55055360436837       -2.45155730693598
H            7.83696876153451       -1.44639988770655       -1.98243747353416
