$hessian                                                                        
        0.4586500780  -0.0401335907  -0.0117992678  -0.1380458532  -0.0525462501
       -0.0144614611  -0.0000636553  -0.0026103397  -0.0006007067  -0.0203725669
       -0.0030740802  -0.0134907858  -0.0010395924  -0.0006569698   0.0016081979
       -0.0003883640   0.0008760686  -0.0002404903   0.0002100886   0.0000469790
       -0.0000032186  -0.0002073352   0.0008716792  -0.0000559349   0.0003614667
       -0.0007541897  -0.0021740897  -0.0004114721   0.0001507127  -0.0001430187
        0.0002399719  -0.0000647598   0.0000075644  -0.0000073434   0.0000084881
        0.0000039926  -0.0000134554  -0.0000350697   0.0000025836   0.0000494763
        0.0001150802   0.0000076482  -0.0000171213  -0.0000812253  -0.0000105684
       -0.0000249597   0.0000344948  -0.0000032097  -0.0000174305   0.0000540960
        0.0000049348   0.0000100234  -0.0000376219  -0.0000011335  -0.0000428624
       -0.0000025228   0.0000027440   0.0000347062   0.0000382298   0.0000049712
       -0.0000238006  -0.0000114216  -0.0000510372  -0.0000195416  -0.0000241459
        0.0000314484  -0.0000305342  -0.0000240879  -0.0000068414   0.0000113129
        0.0000091327   0.0000008988   0.0000125217   0.0000113675   0.0000007570
        0.0000281872   0.0000257969  -0.0000083266  -0.0000147517  -0.0000080524
        0.0000003898   0.0000045245  -0.0000043450  -0.0000003460  -0.0000038627
        0.0000026512   0.0000007917   0.0000297485   0.0000216744   0.0000089810
        0.0000109975   0.0000103431   0.0000007378   0.0000108422   0.0000109370
        0.0000008712  -0.0000285113  -0.0000261234   0.0000062341  -0.0000248159
       -0.0000122095  -0.0000323231  -0.0000113128  -0.0000255004   0.0000439833
        0.0000040603   0.0000108257  -0.0000001619  -0.0000162890   0.0000092542
       -0.0000002589   0.0000328907  -0.0000586231  -0.0000026307  -0.0000354666
        0.0001906280   0.0000184527  -0.0000340416  -0.0003259483  -0.0000269964
        0.0000541637   0.0002654432   0.0000241686  -0.0000007329  -0.0000185246
       -0.0000023938  -0.0000145598  -0.0000175571  -0.0000013619  -0.0000684995
        0.0000033939   0.0000016186   0.0000496879  -0.0000048301  -0.0000820917
        0.0000315572  -0.0000116489   0.0000489839   0.0000535394  -0.0000149526
       -0.0000177281  -0.0000250289   0.0000075882  -0.0000045501  -0.0000187307
        0.0000059957  -0.0000000180  -0.0000657594   0.0000184872  -0.0000212574
        0.0000338612  -0.0000095620  -0.0000016531  -0.0000008508  -0.0000083051
       -0.0000009126   0.0000033693   0.0000081435   0.0000001422  -0.0000649360
        0.0000147991   0.0000265854  -0.0000187629   0.0000048729  -0.0000001991
       -0.0000249355   0.0000066957   0.0000062702   0.0000548275  -0.0000151503
        0.0000122974   0.0000298426  -0.0000046306  -0.0000517788   0.0000531663
       -0.0000167284   0.0000780654  -0.0000155822   0.0000129802   0.0000011743
       -0.0000235657  -0.0000284571  -0.0000038206   0.0000029201   0.0000156484
        0.0000012061  -0.0000038297   0.0000345614   0.0000027210   0.0001097689
       -0.0002550176  -0.0000215220  -0.0000853366   0.0003904952   0.0000317965
        0.0000062618  -0.0002405241  -0.0000238111   0.0001638566  -0.0016934109
        0.0021858414  -0.0002213097   0.0009168491   0.0003675653   0.0001637057
        0.0000524292   0.0000431502  -0.0003650020   0.0008150444   0.0004161514
       -0.0008777955  -0.0000740262  -0.0016902702  -0.0242153912  -0.0084016275
        0.0092545997  -0.0527698381   0.0479409706   0.0092023597  -0.1000523839
        0.0471116918  -0.0934154149  -0.1216621563   0.0098486464   0.1145959205
        0.0006160184   0.0006678846   0.0001282152   0.0005133687   0.0005972075
        0.0001604218   0.0005478386   0.0008422432   0.0001581084  -0.0001403747
       -0.0002253305   0.0002864020  -0.0000156883  -0.0000577191   0.0000074955
       -0.0000308793  -0.0001160799  -0.0000288226  -0.0000704529  -0.0000081631
       -0.0001227083   0.0000213217   0.0000464471   0.0000046841  -0.0000230679
       -0.0000045488  -0.0000016401  -0.0000140811  -0.0000151030  -0.0000023998
       -0.0000098040  -0.0000129516  -0.0000017780   0.0000085014   0.0000034327
        0.0000023359   0.0000042997   0.0000037802  -0.0000049116   0.0000012160
        0.0000013329  -0.0000008895   0.0000000218   0.0000023547   0.0000001034
       -0.0000014918  -0.0000008739  -0.0000023336   0.0000000737   0.0000026038
        0.0000006173   0.0000007133   0.0000006648   0.0000000375   0.0000003340
        0.0000010404  -0.0000022074  -0.0000003731  -0.0000012027   0.0000011548
        0.0000044691  -0.0000001885  -0.0000002321   0.0000007672   0.0000013084
        0.0000001975  -0.0000000071   0.0000004391   0.0000026757   0.0000065498
        0.0000014862   0.0000051605   0.0000080918   0.0000032356  -0.0000011081
       -0.0000055102   0.0000047779   0.0000018557  -0.0000056167   0.0000139139
        0.0000017679   0.0000066673  -0.0000055717  -0.0000016382  -0.0000058384
        0.0000015671   0.0000040984  -0.0000034306   0.0000007374  -0.0000049442
        0.0000002263   0.0000000378  -0.0000034371   0.0000031061  -0.0000003129
       -0.0000016473  -0.0000025643  -0.0000002678  -0.0000000825   0.0000020822
        0.0000004691   0.0000017010   0.0000019057   0.0000010379  -0.0000023494
        0.0000001136  -0.0000014798  -0.0000025836   0.0000003033  -0.0000029451
        0.0000014125  -0.0000016688   0.0000008673  -0.0000000272   0.0000035072
       -0.0000008448   0.0000004523   0.0000007241  -0.0000005883   0.0000030354
       -0.0000031256   0.0000000497   0.0000048706  -0.0000058020   0.0000021865
       -0.0000026439   0.0000028662   0.0000164446   0.0000033639  -0.0001004553
       -0.0000383166   0.0001232121  -0.0000555666  -0.0001320008  -0.0000181599
       -0.0000159197  -0.0000477642  -0.0000292192  -0.0002648665  -0.0001864423
       -0.0002728252
       -0.0401335907   0.4955180418  -0.0087089211  -0.0445789598  -0.0851752410
       -0.0070243411  -0.0238844559  -0.0230122171  -0.0060594988   0.0060106461
        0.0050410829   0.0003155644   0.0005090595   0.0003018743   0.0007141284
       -0.0003124559  -0.0000746617  -0.0002763569   0.0001542784  -0.0000423067
       -0.0000028544   0.0001160710  -0.0004122107  -0.0001645863   0.0006986708
       -0.0009522526   0.0015507222  -0.0002228583   0.0000462483  -0.0004328199
        0.0000188070   0.0001266814   0.0000198767   0.0000191346  -0.0000336717
       -0.0000063432  -0.0000199565   0.0000033055   0.0000019714   0.0000266870
        0.0000358546   0.0000030564  -0.0000105452  -0.0000141992  -0.0000013274
       -0.0000782281   0.0000282174  -0.0000062049  -0.0000118170   0.0000237969
        0.0000011045  -0.0000046092  -0.0000157994  -0.0000042798  -0.0000319265
       -0.0000158400   0.0000032270  -0.0000039353   0.0000535240   0.0000123707
       -0.0000006582  -0.0000272102  -0.0000235665  -0.0000284480  -0.0000153666
        0.0000340873  -0.0000354304  -0.0000278639  -0.0000015174   0.0000158979
        0.0000163558   0.0000018300   0.0000156955   0.0000174510   0.0000063143
        0.0000348693   0.0000305508  -0.0000182798  -0.0000275818  -0.0000013487
        0.0000020600  -0.0000015000   0.0000195667  -0.0000013924  -0.0000091803
        0.0000267278   0.0000037925   0.0000378968   0.0000242999   0.0000227318
        0.0000175545   0.0000211611  -0.0000065593   0.0000146678   0.0000167075
       -0.0000027281  -0.0000336136  -0.0000284035  -0.0000035846  -0.0000337450
       -0.0000098666  -0.0000340465   0.0000049899  -0.0000305658   0.0000149581
       -0.0000119404   0.0000175643   0.0000000579  -0.0000106090   0.0000047816
        0.0000004759   0.0000191890  -0.0000237129  -0.0000013877  -0.0000369303
        0.0001265741   0.0000128719   0.0000280946  -0.0001979446  -0.0000177213
       -0.0000133554   0.0001460802   0.0000191899   0.0000213440   0.0000120316
        0.0000001517  -0.0000218306  -0.0000167805  -0.0000010971  -0.0001052614
       -0.0000039118   0.0000013688   0.0000835326  -0.0000056624  -0.0001216754
        0.0000538797  -0.0000213359   0.0000840600   0.0000946788  -0.0000254630
       -0.0000282070  -0.0000459468   0.0000151331  -0.0000075329  -0.0000369964
        0.0000102109   0.0000046952  -0.0001176438   0.0000317306  -0.0000440691
        0.0000586157  -0.0000156897  -0.0000023046  -0.0000056912  -0.0000166768
       -0.0000012059   0.0000039803   0.0000179336   0.0000003163  -0.0001163238
        0.0000243706   0.0000544193  -0.0000375393   0.0000100979  -0.0000015463
       -0.0000457229   0.0000122592   0.0000122168   0.0000961948  -0.0000254287
        0.0000192459   0.0000509012  -0.0000078062  -0.0000884444   0.0000888697
       -0.0000235654   0.0001167964   0.0000360139   0.0000284086   0.0000022452
       -0.0000981173  -0.0001003030  -0.0000125547   0.0000547072   0.0000638153
        0.0000034669  -0.0000292726   0.0000153343   0.0000020547   0.0000517156
       -0.0001432279  -0.0000191351  -0.0000469220   0.0002412673   0.0000212388
        0.0000230330  -0.0001472949  -0.0000136666   0.0006980978  -0.0008145751
       -0.0003030332   0.0000455465  -0.0000367067   0.0000710039   0.0000383195
       -0.0000132988   0.0000515763  -0.0001785063   0.0000678082  -0.0000595166
        0.0003763272   0.0003170564  -0.0000648969  -0.0026188466   0.0012165514
        0.0023821609   0.0477183942  -0.2639177697  -0.0417134790   0.0474936441
       -0.0794611391   0.0735095780   0.0102488576  -0.0442365730  -0.0130882311
       -0.0007306570   0.0010180288   0.0004699294  -0.0008983884   0.0010113576
       -0.0002505705  -0.0001958142  -0.0064906251  -0.0013533975   0.0000057175
        0.0001040454   0.0000135755  -0.0000239644  -0.0000252135   0.0000059303
        0.0000325044   0.0000485869   0.0000305579   0.0001020611  -0.0000186613
        0.0000980293   0.0000165091   0.0000243929   0.0000041972   0.0000121369
       -0.0000081421  -0.0000012651   0.0000419288  -0.0000282316   0.0000061237
        0.0000128468  -0.0000193287   0.0000022273   0.0000145314   0.0000020941
        0.0000002301   0.0000085781   0.0000070634  -0.0000121499  -0.0000037220
       -0.0000061289  -0.0000130048  -0.0000066339  -0.0000049214  -0.0000061404
        0.0000132242  -0.0000163498   0.0000020742  -0.0000038829  -0.0000106054
       -0.0000075612  -0.0000008130  -0.0000066734   0.0000011857  -0.0000008064
       -0.0000076892  -0.0000130640  -0.0000008362  -0.0000141416   0.0000032798
        0.0000091825  -0.0000069763  -0.0000009119  -0.0000028428  -0.0000064343
        0.0000064362  -0.0000049445  -0.0000066282   0.0000126329   0.0000127419
        0.0000018161   0.0000119351   0.0000142348   0.0000029621   0.0000028868
        0.0000058572  -0.0000033333   0.0000040820   0.0000071896   0.0000077610
        0.0000042331   0.0000129623  -0.0000088779  -0.0000010439  -0.0000091766
        0.0000017534   0.0000058273  -0.0000057996   0.0000019642  -0.0000108586
        0.0000040233   0.0000006601  -0.0000087758   0.0000112048   0.0000003458
       -0.0000046688  -0.0000038678   0.0000016775   0.0000001218   0.0000079115
        0.0000024592   0.0000070439   0.0000077555   0.0000036961  -0.0000067633
        0.0000033628  -0.0000039181  -0.0000071700   0.0000035611  -0.0000061283
        0.0000063678  -0.0000041099   0.0000015042   0.0000010601   0.0000116542
       -0.0000032205   0.0000015057   0.0000042891  -0.0000004330   0.0000090992
       -0.0000063332   0.0000009801   0.0000115313  -0.0000095296   0.0000033554
       -0.0000036105   0.0000012881   0.0000209787   0.0000064872   0.0000488206
        0.0000175375  -0.0000133555  -0.0000195795   0.0000104669  -0.0000118221
       -0.0000266334  -0.0000136375  -0.0000143869  -0.0005056536  -0.0001657537
        0.0003038570
       -0.0117992678  -0.0087089211   0.5261628636  -0.0129281515  -0.0074160546
       -0.0639563923  -0.0046774266  -0.0048548979  -0.0000295240  -0.0224576511
       -0.0072232186  -0.0068675367  -0.0003508846  -0.0001316519  -0.0012172039
        0.0002479488   0.0003526098   0.0008487131  -0.0002739747   0.0001310793
       -0.0001190574  -0.0001530663   0.0010553836   0.0002090242   0.0001144203
       -0.0000315729  -0.0038687253  -0.0001408206  -0.0004342126   0.0022069237
        0.0000024045   0.0000321246   0.0000208183   0.0000133237   0.0000012860
        0.0000127867  -0.0000138253   0.0000063283  -0.0000096916   0.0000110483
        0.0000073462   0.0000077152  -0.0000015986  -0.0000113863  -0.0000094693
       -0.0000089382   0.0000023170   0.0000439091  -0.0000037945   0.0000088006
        0.0000033105   0.0000048859  -0.0000086975   0.0000054542  -0.0000105914
       -0.0000046000   0.0000003873   0.0000031937   0.0000112074   0.0000306290
       -0.0000119000  -0.0000126087  -0.0000283004  -0.0000055434  -0.0000070298
        0.0000110319  -0.0000083881  -0.0000062367  -0.0000032975   0.0000055113
        0.0000032756   0.0000028813   0.0000030087   0.0000037287  -0.0000016725
        0.0000147314   0.0000132634  -0.0000052415  -0.0000036544  -0.0000021601
       -0.0000018562   0.0000014571  -0.0000006744  -0.0000034540  -0.0000032441
        0.0000057330   0.0000007231   0.0000082080   0.0000041981   0.0000096032
        0.0000079624   0.0000088019  -0.0000031516   0.0000054808   0.0000061327
        0.0000018100  -0.0000133090  -0.0000089303  -0.0000019235  -0.0000117606
       -0.0000042158  -0.0000065591   0.0000074552   0.0000010952  -0.0000121952
       -0.0000016584   0.0000051809   0.0000002539  -0.0000037530  -0.0000001280
        0.0000040877   0.0000075785  -0.0000071172  -0.0000056089  -0.0000119826
        0.0000372612   0.0000027587   0.0000034100  -0.0000670082  -0.0000009878
        0.0000031775   0.0000498231   0.0000031574   0.0000029179  -0.0000006797
        0.0000043464  -0.0000041397  -0.0000045256  -0.0000002562  -0.0000228960
       -0.0000008160   0.0000046407   0.0000193311  -0.0000012885  -0.0000295982
        0.0000133280  -0.0000057055   0.0000169835   0.0000198146  -0.0000069343
       -0.0000063005  -0.0000097796   0.0000029159  -0.0000008595  -0.0000082867
        0.0000020661  -0.0000006457  -0.0000260447   0.0000075251  -0.0000097694
        0.0000127549  -0.0000031187  -0.0000004492  -0.0000009061  -0.0000037848
       -0.0000001180   0.0000022569   0.0000044978   0.0000011658  -0.0000246458
        0.0000045911   0.0000135347  -0.0000103127   0.0000003511   0.0000001908
       -0.0000090118   0.0000058006   0.0000004407   0.0000224482  -0.0000048422
        0.0000040893   0.0000122409  -0.0000015257  -0.0000189359   0.0000165544
       -0.0000050638   0.0000217645   0.0000050353   0.0000055130   0.0000024536
       -0.0000202310  -0.0000188971  -0.0000048479   0.0000102855   0.0000127967
        0.0000018847  -0.0000058390   0.0000050085   0.0000026899   0.0000190815
       -0.0000440089  -0.0000205976  -0.0000154863   0.0000751828   0.0000238821
        0.0000025031  -0.0000453814  -0.0000078377   0.0005180766   0.0010896181
       -0.0037777232   0.0001319159  -0.0010643211  -0.0001408004   0.0003673919
       -0.0001106099  -0.0000935262  -0.0005013345  -0.0005448267   0.0007402258
        0.0005914087   0.0007194533  -0.0014310351   0.0211348462   0.0090064504
        0.0005870753   0.0091652931  -0.0416613813  -0.0524706037  -0.0933344932
        0.0732275351  -0.1908600249   0.1146408973  -0.0128089216  -0.2045692981
       -0.0006654643  -0.0000890037   0.0002493337   0.0003979263   0.0004420608
        0.0002449306  -0.0000487536  -0.0013218039   0.0002776758  -0.0012919814
       -0.0003766674  -0.0010866012  -0.0000162085   0.0000034325   0.0000024580
       -0.0001418167  -0.0001039774  -0.0000433031  -0.0001396839   0.0000862784
       -0.0001715790  -0.0000002764   0.0000061056  -0.0000155797  -0.0000001561
       -0.0000022538  -0.0000006701   0.0000074408  -0.0000110787  -0.0000195424
        0.0000007806  -0.0000059816  -0.0000075697   0.0000019268   0.0000007742
        0.0000005388   0.0000014270   0.0000022707   0.0000024332  -0.0000006178
       -0.0000021518  -0.0000003678  -0.0000022979  -0.0000017687   0.0000017850
        0.0000019932  -0.0000015079  -0.0000004531   0.0000004454  -0.0000004552
        0.0000008953  -0.0000027792  -0.0000024916   0.0000034219   0.0000000446
        0.0000004116  -0.0000018950  -0.0000005173  -0.0000055574   0.0000025207
        0.0000016011  -0.0000003251   0.0000015801   0.0000003885  -0.0000014836
        0.0000031647  -0.0000009472  -0.0000017089   0.0000045430   0.0000037100
       -0.0000007539   0.0000051563   0.0000047979   0.0000008697  -0.0000008041
        0.0000002059   0.0000006544   0.0000007455   0.0000007159   0.0000019953
        0.0000013143   0.0000030588  -0.0000020141  -0.0000009682  -0.0000021676
        0.0000019976   0.0000026109  -0.0000020375   0.0000002834  -0.0000022757
        0.0000015985   0.0000002718  -0.0000026726   0.0000023368  -0.0000003345
       -0.0000001497  -0.0000008078   0.0000005162  -0.0000010050   0.0000020675
        0.0000007058   0.0000015913   0.0000013462   0.0000006421  -0.0000016804
       -0.0000007524   0.0000001827  -0.0000015727   0.0000011715  -0.0000011736
        0.0000015031  -0.0000003465  -0.0000000112  -0.0000006922   0.0000023106
       -0.0000005611   0.0000000813   0.0000013542   0.0000001092   0.0000019103
       -0.0000011410   0.0000000715   0.0000030166  -0.0000014554   0.0000009882
       -0.0000013398   0.0000004447   0.0000054986  -0.0000007815   0.0001775447
       -0.0000352506  -0.0001784519   0.0001436080   0.0001033369   0.0000047779
        0.0000023819  -0.0000159156  -0.0000035462   0.0012725846   0.0006864463
       -0.0006936206
       -0.1380458532  -0.0445789598  -0.0129281515   0.4481456929  -0.0119287107
       -0.0048460940  -0.0595230684   0.0147410960   0.0029561944  -0.0878243563
        0.0246900741  -0.0417589969   0.0078735067  -0.0045671375   0.0035147074
        0.0007990287   0.0018998029   0.0039090778  -0.0007406308   0.0003408247
       -0.0005299145  -0.0030314510   0.0037203040   0.0018315750  -0.0163306892
        0.0127009640  -0.0192401160   0.0034420999  -0.0031506880  -0.0003010181
       -0.0006335500   0.0001709023   0.0000492181   0.0002045596  -0.0001480262
       -0.0000173231   0.0000498595  -0.0000071390  -0.0000061748  -0.0001364886
       -0.0001169570  -0.0000017549   0.0000193385   0.0002071749  -0.0000033313
        0.0003650514  -0.0002610657  -0.0000102098   0.0000605369  -0.0001651806
       -0.0000315660  -0.0000270851   0.0001127741   0.0000036265   0.0000796813
       -0.0000146849  -0.0000917303  -0.0001156798  -0.0001917728  -0.0000126141
        0.0001262958   0.0001118554   0.0002522411   0.0001223283   0.0001032665
       -0.0001841775   0.0001756633   0.0001460959   0.0000300011  -0.0000987652
       -0.0000828635   0.0000055789  -0.0000874560  -0.0000682749  -0.0000015871
       -0.0002066671  -0.0001963660   0.0000979744   0.0000790924   0.0000743035
       -0.0000101715  -0.0000364441  -0.0000290167   0.0000042285   0.0000507505
       -0.0000534325  -0.0000142993  -0.0002291775  -0.0001673517  -0.0001180210
       -0.0000873241  -0.0000756491  -0.0000110849  -0.0000964002  -0.0000854268
       -0.0000163874   0.0001670528   0.0001540553  -0.0000221212   0.0001274264
        0.0000580535   0.0001847383   0.0000855315   0.0001862128  -0.0002538823
        0.0000010599  -0.0000491558  -0.0000004551   0.0000149173  -0.0000362482
       -0.0000033753  -0.0000434378   0.0001347600   0.0000048449  -0.0000375884
       -0.0003217749  -0.0000519631   0.0001097658   0.0006373980   0.0000500454
       -0.0000927892  -0.0004742965  -0.0001834043   0.0000140464  -0.0000267773
        0.0000189501  -0.0000004421   0.0000709415   0.0000077363   0.0001497981
       -0.0000151255  -0.0000027265  -0.0001115620   0.0000169321   0.0001314565
       -0.0001326360   0.0000424205  -0.0001314014  -0.0001607242   0.0000501561
        0.0001151015  -0.0000451767  -0.0000371797  -0.0000017513   0.0001029360
       -0.0000314732  -0.0000290829   0.0001964049   0.0000934798   0.0000889211
       -0.0000733716   0.0000079867   0.0000051770   0.0000158931   0.0000180557
        0.0000032698  -0.0000058923  -0.0000510033   0.0000265877   0.0001932859
        0.0000963501  -0.0001047336   0.0001026562  -0.0000320321   0.0000034500
       -0.0000604624  -0.0000377731  -0.0000063775  -0.0001649332  -0.0000048556
       -0.0000657172  -0.0001296253   0.0000168333   0.0001416360  -0.0001176260
        0.0000330721  -0.0001251105   0.0000132933  -0.0000765933  -0.0000142964
        0.0001326060   0.0001611708   0.0001108515  -0.0000968264  -0.0001053219
        0.0000088983  -0.0000121908  -0.0000542055  -0.0000059401  -0.0000975562
        0.0004424499   0.0001751728   0.0001173709  -0.0007251583  -0.0000636595
       -0.0000947205   0.0004100579   0.0000600387  -0.0191440085   0.0056530671
        0.0206249104  -0.0027043488   0.0041699867  -0.0007626096  -0.0008557136
        0.0001850062   0.0005332028   0.0015426567   0.0028981091  -0.0026478487
        0.0069945732  -0.0033411198  -0.0005906400  -0.0990570993   0.0091509746
        0.0545123460   0.0021339069  -0.0008769960  -0.0000510363  -0.0168334690
       -0.0067969968  -0.0055011424  -0.0192559051  -0.0091978338   0.0005022013
       -0.0044472162   0.0164963796   0.0050258876  -0.0035403933   0.0142009701
        0.0007608387   0.0031856405  -0.0234324835  -0.0043674999  -0.0007215678
       -0.0011096300   0.0004050410   0.0003605226  -0.0002377694   0.0010287281
       -0.0000881750  -0.0006369641   0.0000033067  -0.0004988573   0.0002916415
       -0.0009141585  -0.0001109852  -0.0000084754   0.0000247314  -0.0000140865
        0.0000635607   0.0000067408   0.0000388504   0.0000602573  -0.0000208918
        0.0000189298   0.0000512098  -0.0000064206  -0.0000365842  -0.0000073930
       -0.0000061449  -0.0000509353  -0.0000722534  -0.0000261155   0.0000109145
        0.0000472337   0.0000356309   0.0000307913  -0.0000653838   0.0000561938
       -0.0000189794  -0.0000061922  -0.0000054544   0.0000636868   0.0000735943
        0.0000555190   0.0000022468   0.0000244477   0.0000518935  -0.0000097165
       -0.0000030498   0.0001319180   0.0000333090   0.0001087886   0.0000286712
       -0.0000191482   0.0000014189  -0.0000009374  -0.0000579869  -0.0000477981
       -0.0000368476   0.0000957946   0.0000055825  -0.0000367119  -0.0001066895
       -0.0000139540   0.0000241083  -0.0000359000  -0.0000125372  -0.0000057250
       -0.0000358237  -0.0000960577  -0.0000905331  -0.0000162604   0.0000148554
       -0.0000788157  -0.0000605331   0.0000451295   0.0000004266   0.0000286463
        0.0000113228  -0.0000034101   0.0000229415   0.0000019705   0.0000363891
       -0.0000160341  -0.0000117669   0.0000328827  -0.0000458696  -0.0000303541
        0.0000425864  -0.0000263534  -0.0000104054   0.0000030617  -0.0000609641
        0.0000010562  -0.0000201470  -0.0000601410  -0.0000068180   0.0000216963
       -0.0000174119   0.0000076266   0.0000205293  -0.0000186928   0.0000365523
       -0.0000204690   0.0000181372   0.0000083040  -0.0000005750  -0.0000465461
        0.0000380543   0.0000149395  -0.0000187637  -0.0000055022  -0.0000318113
        0.0000350862   0.0000024449  -0.0000383014   0.0000288227   0.0000065805
       -0.0000135150  -0.0000057253  -0.0000673210  -0.0001031789  -0.0005517917
        0.0000316240   0.0008616002  -0.0000994434  -0.0005006278  -0.0002452079
        0.0003873155   0.0000753449  -0.0009206161  -0.0007535348  -0.0008495579
       -0.0008897933
       -0.0525462501  -0.0851752410  -0.0074160546  -0.0119287107   0.4271339282
       -0.0136082925   0.0227591074  -0.1624460716  -0.0180222497   0.0257483916
       -0.0735446573   0.0385043062  -0.0020171104  -0.0005694394   0.0049293239
        0.0018139623   0.0058470745   0.0000955312   0.0003456101  -0.0004339261
        0.0002086894   0.0037151122   0.0043273244   0.0002584137   0.0099678120
       -0.0038733163   0.0087722983  -0.0030395409  -0.0019979066  -0.0001174537
        0.0001018239  -0.0004843674  -0.0000671560  -0.0001959618   0.0001836059
        0.0000186542  -0.0000824287  -0.0000490443   0.0000011384   0.0000753195
        0.0000590170  -0.0000055343  -0.0000248072  -0.0001678013  -0.0000067892
       -0.0000007708   0.0001086812   0.0000072643  -0.0000096194   0.0000880576
        0.0000188029   0.0000101328  -0.0000535217  -0.0000036295  -0.0000421633
       -0.0000069116   0.0000375082   0.0000167866   0.0000776956   0.0000090932
       -0.0000202758  -0.0000427708  -0.0000645001  -0.0000512273  -0.0000312033
        0.0000563733  -0.0000613219  -0.0000502304  -0.0000054107   0.0000310568
        0.0000268708   0.0000026071   0.0000298105   0.0000257241   0.0000022206
        0.0000631834   0.0000573701  -0.0000316565  -0.0000313771  -0.0000152069
        0.0000065496   0.0000047521   0.0000296097  -0.0000010149  -0.0000221427
        0.0000312511   0.0000065142   0.0000706836   0.0000482209   0.0000376048
        0.0000317688   0.0000304462   0.0000026616   0.0000293712   0.0000300360
        0.0000006131  -0.0000572633  -0.0000502974   0.0000024483  -0.0000494838
       -0.0000178494  -0.0000552989  -0.0000093872  -0.0000617062   0.0000648597
       -0.0000092369   0.0000190075   0.0000009248   0.0000018169   0.0000044285
       -0.0000025823   0.0000204347  -0.0000874186  -0.0000013114  -0.0000196760
        0.0002137441   0.0000314953  -0.0000142675  -0.0003730835  -0.0000296001
        0.0000508390   0.0002572269   0.0000837240  -0.0000063989   0.0000030585
       -0.0000104949  -0.0000155391  -0.0000249290  -0.0000025881  -0.0001066753
        0.0000027373   0.0000012771   0.0000846921  -0.0000083973  -0.0001187863
        0.0000623358  -0.0000228734   0.0000821100   0.0000900270  -0.0000263386
       -0.0000644351   0.0000114894   0.0000178683  -0.0000035003  -0.0000455086
        0.0000131770   0.0000080336  -0.0001161925  -0.0000316882  -0.0000443864
        0.0000529691  -0.0000104933  -0.0000030118  -0.0000068802  -0.0000106371
       -0.0000016665   0.0000031361   0.0000219146  -0.0000112414  -0.0001151953
       -0.0000338529   0.0000539616  -0.0000454648   0.0000131169   0.0000028855
        0.0000174180   0.0000161769   0.0000081924   0.0000923335  -0.0000041219
        0.0000412023   0.0000597105  -0.0000080369  -0.0000869790   0.0000908008
       -0.0000241097   0.0001148100  -0.0000067404   0.0000339637   0.0000057918
       -0.0000582078  -0.0000655330  -0.0000486748   0.0000428031   0.0000443722
       -0.0000041844  -0.0000021004   0.0000300225   0.0000033051   0.0000595313
       -0.0002262503  -0.0000757807  -0.0000500460   0.0003911259   0.0000292204
       -0.0000080294  -0.0002364214  -0.0000342553   0.0082936949   0.0006218508
       -0.0089713755   0.0041552306   0.0038768456   0.0014127079   0.0001772260
       -0.0002642928  -0.0002614978   0.0029848077   0.0047182715   0.0030307822
       -0.0058015672   0.0007516765   0.0069291787   0.0080670736  -0.0561877411
       -0.0044499674  -0.0245446590  -0.0176867790  -0.0048321916   0.0073218039
        0.0045899452   0.0013502465  -0.0010416766   0.0000481833   0.0007081722
        0.0032854393  -0.0067070463  -0.0034521596   0.0049640171  -0.0165724728
        0.0001793750   0.0001590822  -0.0188328047  -0.0036325063  -0.0007191910
       -0.0023032629  -0.0009213610  -0.0000140943   0.0001347005  -0.0002450885
       -0.0006013331  -0.0011364111  -0.0003296735   0.0000823516  -0.0002764956
        0.0003408400  -0.0000143515  -0.0000044874  -0.0000185830  -0.0000052547
       -0.0000202191  -0.0000008982   0.0000127348  -0.0000720588   0.0000007198
        0.0000020229  -0.0000286242   0.0000022469   0.0000228201   0.0000052401
        0.0000005478   0.0000262949   0.0000329945   0.0000082626  -0.0000031134
       -0.0000212505  -0.0000173136  -0.0000110314   0.0000285245  -0.0000248270
        0.0000132089  -0.0000070054   0.0000019294  -0.0000237000  -0.0000357771
       -0.0000230834   0.0000027676  -0.0000134983  -0.0000250875   0.0000042035
       -0.0000002564  -0.0000584342  -0.0000142239  -0.0000491927  -0.0000125085
        0.0000120835  -0.0000064503  -0.0000005257   0.0000265297   0.0000206430
        0.0000173804  -0.0000410115  -0.0000028509   0.0000183456   0.0000497196
        0.0000070531  -0.0000082940   0.0000221167   0.0000058431   0.0000052083
        0.0000191475   0.0000410857   0.0000409344   0.0000040333  -0.0000101063
        0.0000341064   0.0000290969  -0.0000198103  -0.0000007091  -0.0000120067
       -0.0000048873   0.0000017154  -0.0000096681  -0.0000008481  -0.0000150713
        0.0000067941   0.0000051965  -0.0000133986   0.0000195003   0.0000142404
       -0.0000181881   0.0000112764   0.0000051510  -0.0000013548   0.0000269871
        0.0000004107   0.0000086886   0.0000268180   0.0000036293  -0.0000092803
        0.0000075538  -0.0000038468  -0.0000087682   0.0000079412  -0.0000161922
        0.0000086649  -0.0000075315  -0.0000029929   0.0000011105   0.0000201345
       -0.0000152737  -0.0000066069   0.0000078286   0.0000031473   0.0000133713
       -0.0000151045  -0.0000000833   0.0000157495  -0.0000118725  -0.0000020690
        0.0000056770   0.0000017109   0.0000316926   0.0000459257   0.0002279918
       -0.0002144871  -0.0004593277  -0.0006045569  -0.0011936299  -0.0002249780
       -0.0002406750   0.0000875408   0.0006350075  -0.0011044413  -0.0022418614
       -0.0003357255
       -0.0144614611  -0.0070243411  -0.0639563923  -0.0048460940  -0.0136082925
        0.4954176570   0.0045064552  -0.0185318169  -0.0650435467  -0.0457570782
        0.0401250974  -0.1423763734  -0.0082981338   0.0102894874  -0.0309187769