      -----------------------------------------------------------      
     |                   =====================                   |     
     |                           x T B                           |     
     |                   =====================                   |     
     |                         S. Grimme                         |     
     |          Mulliken Center for Theoretical Chemistry        |     
     |                    University of Bonn                     |     
      -----------------------------------------------------------      

   * xtb version 6.7.1 (edcfbbe) compiled by 'albert@albert-system' on 2024-07-22

   xtb is free software: you can redistribute it and/or modify it under
   the terms of the GNU Lesser General Public License as published by
   the Free Software Foundation, either version 3 of the License, or
   (at your option) any later version.
   
   xtb is distributed in the hope that it will be useful,
   but WITHOUT ANY WARRANTY; without even the implied warranty of
   MERCHANTABILITY or FITNESS FOR A PARTICULAR PURPOSE.  See the
   GNU Lesser General Public License for more details.
   
   Cite this work as:
   * C. Bannwarth, E. Caldeweyher, S. Ehlert, A. Hansen, P. Pracht,
     J. Seibert, S. Spicher, S. Grimme, WIREs Comput. Mol. Sci., 2020, 11,
     e01493. DOI: 10.1002/wcms.1493
   
   for GFN2-xTB:
   * C. Bannwarth, S. Ehlert and S. Grimme., J. Chem. Theory Comput., 2019,
     15, 1652-1671. DOI: 10.1021/acs.jctc.8b01176
   for GFN1-xTB:
   * S. Grimme, C. Bannwarth, P. Shushkov, J. Chem. Theory Comput., 2017,
     13, 1989-2009. DOI: 10.1021/acs.jctc.7b00118
   for GFN0-xTB:
   * P. Pracht, E. Caldeweyher, S. Ehlert, S. Grimme, ChemRxiv, 2019, preprint.
     DOI: 10.26434/chemrxiv.8326202.v1
   for GFN-FF:
   * S. Spicher and S. Grimme, Angew. Chem. Int. Ed., 2020, 59, 15665-15673.
     DOI: 10.1002/anie.202004239
   
   for ALPB and GBSA implicit solvation:
   * S. Ehlert, M. Stahn, S. Spicher, S. Grimme, J. Chem. Theory Comput.,
     2021, 17, 4250-4261. DOI: 10.1021/acs.jctc.1c00471
   
   for ddCOSMO and CPCM-X implicit solvation:
   * M. Stahn, S. Ehlert, S. Grimme, J. Phys. Chem. A,
     2023, XX, XXXX-XXXX. DOI: 10.1021/acs.jpca.3c04382
   
   for DFT-D4:
   * E. Caldeweyher, C. Bannwarth and S. Grimme, J. Chem. Phys., 2017,
     147, 034112. DOI: 10.1063/1.4993215
   * E. Caldeweyher, S. Ehlert, A. Hansen, H. Neugebauer, S. Spicher,
     C. Bannwarth and S. Grimme, J. Chem. Phys., 2019, 150, 154122.
     DOI: 10.1063/1.5090222
   * E. Caldeweyher, J.-M. Mewes, S. Ehlert and S. Grimme, Phys. Chem. Chem. Phys.
     2020, 22, 8499-8512. DOI: 10.1039/D0CP00502A
   
   for sTDA-xTB:
   * S. Grimme and C. Bannwarth, J. Chem. Phys., 2016, 145, 054103.
     DOI: 10.1063/1.4959605
   
   in the mass-spec context:
   * V. Asgeirsson, C. Bauer and S. Grimme, Chem. Sci., 2017, 8, 4879.
     DOI: 10.1039/c7sc00601b
   * J. Koopman and S. Grimme, ACS Omega 2019, 4, 12, 15120-15133.
     DOI: 10.1021/acsomega.9b02011
   
   for metadynamics refer to:
   * S. Grimme, J. Chem. Theory Comput., 2019, 155, 2847-2862
     DOI: 10.1021/acs.jctc.9b00143
   
   for SPH calculations refer to:
   * S. Spicher and S. Grimme, J. Chem. Theory Comput., 2021, 17, 1701-1714
     DOI: 10.1021/acs.jctc.0c01306
   
   for ONIOM refer to:
   * C. Plett, A. Katbashev, S. Ehlert, S. Grimme, M. Bursch,
     Phys. Chem. Chem. Phys., 2023, 25, 17860-17868. DOI: 10.1039/D3CP02178E
   
   for DIPRO refer to:
   * J. Kohn, N. Gildemeister, S. Grimme, D. Fazzi, A. Hansen,
     J. Chem. Phys., 2023, just accepted.
   
   for PTB refer to:
   * S. Grimme, M. Mueller, A. Hansen, J. Chem. Phys., 2023, 158, 124111.
     DOI: 10.1063/5.0137838
   
   with help from (in alphabetical order)
   P. Atkinson, C. Bannwarth, F. Bohle, G. Brandenburg, E. Caldeweyher
   M. Checinski, S. Dohm, S. Ehlert, S. Ehrlich, I. Gerasimov, C. Hölzer
   A. Katbashev, J. Kohn, J. Koopman, C. Lavigne, S. Lehtola, F. März, M. Müller,
   F. Musil, H. Neugebauer, J. Pisarek, C. Plett, P. Pracht, F. Pultar,
   J. Seibert, P. Shushkov, S. Spicher, M. Stahn, M. Steiner, T. Strunk,
   J. Stückrath, T. Rose, and J. Unsleber
   
 * started run on 2025/08/30 at 20:00:14.038     
   ID    Z sym.   atoms
    1    7 N      1, 5, 20, 35
    2    6 C      2-4, 6-19, 21-34, 36-47
    3    1 H      48-73

           -------------------------------------------------
          |                Calculation Setup                |
           -------------------------------------------------

          program call               : xtb data2507/gas/3CzBN/3CzBN_gas_T1_crest.xyz --gfn 2 --spinpol --tblite --uhf 2 --ohess vtight --parallel 40 --molden --ceasefiles --namespace data2507/gas/3CzBN/3CzBN_gas_T1_finalOpt
          calculation namespace      : data2507/gas/3CzBN/3CzBN_gas_T1_finalOpt
          coordinate file            : data2507/gas/3CzBN/3CzBN_gas_T1_crest.xyz
          omp threads                :                    40

repulsion energy          2.2228210479979E+00 Eh
dispersion energy         7.5997112427063E-04 Eh
interaction energy        0.0000000000000E+00 Eh
number of electrons       2.1800000000000E+02 e
integral cutoff           1.7347787504999E+01 bohr

------------------------------------------------------------
  cycle        total energy    energy error   density error
------------------------------------------------------------
      1     -116.8301297188  -1.1905371E+02   9.5313773E-02
      2     -116.8830233208  -5.2893602E-02   5.9588208E-02
      3     -116.5915477441   2.9147558E-01   4.8526196E-02
      4     -116.8476201495  -2.5607241E-01   2.5700807E-02
      5     -116.9487092931  -1.0108914E-01   1.8655621E-02
      6     -116.9704419261  -2.1732633E-02   1.4049394E-02
      7     -117.0056550167  -3.5213091E-02   9.6377707E-03
      8     -117.0053141466   3.4087017E-04   7.7792339E-03
      9     -117.0088276543  -3.5135077E-03   7.2976765E-03
     10     -117.0100181484  -1.1904941E-03   5.0786587E-03
     11     -117.0111207709  -1.1026225E-03   2.9902192E-03
     12     -117.0113666215  -2.4585057E-04   2.4651612E-03
     13     -117.0115357984  -1.6917695E-04   2.0243154E-03
     14     -117.0119905677  -4.5476930E-04   7.3731686E-04
     15     -117.0120775182  -8.6950538E-05   3.8006608E-04
     16     -117.0120893219  -1.1803677E-05   2.6621832E-04
     17     -117.0120968426  -7.5206585E-06   7.7222052E-05
     18     -117.0120971614  -3.1885433E-07   5.3581853E-05
     19     -117.0120971434   1.8045782E-08   4.9996304E-05
     20     -117.0120973662  -2.2283882E-07   2.3034534E-05
     21     -117.0120974312  -6.4993557E-08   5.3251243E-06
------------------------------------------------------------

electronic energy        -1.1923567845035E+02 Eh
total energy             -1.1701209743122E+02 Eh

 total:                                   0.344 sec
 - repulsion                              0.000 sec (  0%)
 - dispersion                             0.017 sec (  5%)
 - coulomb                                0.006 sec (  1%)
 - hamiltonian                            0.012 sec (  3%)
 - scc                                    0.308 sec ( 89%)

      ----------------------------------------------------------- 
     |                   =====================                   |
     |                        A N C O P T                        |
     |                   =====================                   |
     |               Approximate Normal Coordinate               |
     |                Rational Function Optimizer                |
      ----------------------------------------------------------- 

Optimization log is written to '/dev/null'
      ----------------------------------------------------------- 
     |                   =====================                   |
     |                        A N C O P T                        |
     |                   =====================                   |
     |               Approximate Normal Coordinate               |
     |                Rational Function Optimizer                |
      ----------------------------------------------------------- 

          ...................................................
          :                      SETUP                      :
          :.................................................:
          :   optimization level         verytight          :
          :   max. optcycles                  1460          :
          :   ANC micro-cycles                  20          :
          :   degrees of freedom               213          :
          :.................................................:
          :   RF solver                   davidson          :
          :   write xtbopt.log                true          :
          :   linear?                        false          :
          :   energy convergence         0.1000000E-06 Eh   :
          :   grad. convergence          0.2000000E-03 Eh/α :
          :   maxmium RF displ.          1.0000000          :
          :   Hlow (freq-cutoff)         0.1000000E-01      :
          :   Hmax (freq-cutoff)         5.0000000          :
          :   S6 in model hess.         20.0000000          :
          ...................................................

generating ANC from exact Hessian ...
Using Lindh-Hessian (1995)
 Shifting diagonal of input Hessian by   9.854934099646060E-003
 Lowest  eigenvalues of input Hessian
    0.000000    0.000000    0.000000    0.000000    0.000000    0.000000
    0.010000    0.010052    0.010152    0.010208    0.010349    0.010381
    0.010823    0.011694    0.012036    0.012159    0.012524    0.012586
 Highest eigenvalues
    2.180998    2.186190    2.188395    2.213921    2.237774    2.623281
 

........................................................................
.............................. CYCLE    1 ..............................
........................................................................
------------------------------------------------------------
  cycle        total energy    energy error   density error
------------------------------------------------------------
      1     -117.0120971171  -1.1923568E+02   3.8271638E-05
      2     -117.0120931388   3.9782360E-06   1.4147906E-04
      3     -117.0120974323  -4.2934532E-06   3.5152942E-06
      4     -117.0120974346  -2.2541116E-09   8.9510793E-07
------------------------------------------------------------

 total:                                   0.067 sec
 * total energy  :  -117.0120974 Eh     change       -0.3328012E-08 Eh
   gradient norm :     0.0099229 Eh/α   predicted     0.0000000E+00 (-100.00%)
   displ. norm   :     0.0173898 α      lambda       -0.5126339E-04
   maximum displ.:     0.0056564 α      in ANC's #17, #9, #61, ...

........................................................................
.............................. CYCLE    2 ..............................
........................................................................
------------------------------------------------------------
  cycle        total energy    energy error   density error
------------------------------------------------------------
      1     -117.0121456664  -1.1923585E+02   3.0915719E-04
      2     -117.0121304762   1.5190276E-05   3.2225660E-04
      3     -117.0121295018   9.7431889E-07   3.2194190E-04
      4     -117.0121468719  -1.7370096E-05   1.0210262E-04
      5     -117.0121478034  -9.3146748E-07   5.9915785E-05
      6     -117.0121482474  -4.4403781E-07   3.9206320E-05
      7     -117.0121484617  -2.1422238E-07   1.9000232E-05
------------------------------------------------------------

 total:                                   0.099 sec
 * total energy  :  -117.0121485 Eh     change       -0.5102711E-04 Eh
   gradient norm :     0.0047856 Eh/α   predicted    -0.3572775E-04 ( -29.98%)
   displ. norm   :     0.0207973 α      lambda       -0.2938970E-04
   maximum displ.:     0.0096351 α      in ANC's #9, #17, #8, ...

........................................................................
.............................. CYCLE    3 ..............................
........................................................................
------------------------------------------------------------
  cycle        total energy    energy error   density error
------------------------------------------------------------
      1     -117.0121632918  -1.1923610E+02   2.9700318E-04
      2     -117.0121523147   1.0977067E-05   2.8290778E-04
      3     -117.0121427343   9.5803879E-06   3.4144947E-04
      4     -117.0121634931  -2.0758808E-05   1.1624717E-04
      5     -117.0121638763  -3.8321438E-07   8.5816869E-05
      6     -117.0121651454  -1.2690550E-06   3.3926540E-05
      7     -117.0121652942  -1.4879804E-07   1.7862264E-05
------------------------------------------------------------

 total:                                   0.099 sec
 * total energy  :  -117.0121653 Eh     change       -0.1683254E-04 Eh
   gradient norm :     0.0007595 Eh/α   predicted    -0.1596150E-04 (  -5.17%)
   displ. norm   :     0.0174083 α      lambda       -0.2228522E-05
   maximum displ.:     0.0080952 α      in ANC's #9, #20, #7, ...

........................................................................
.............................. CYCLE    4 ..............................
........................................................................
------------------------------------------------------------
  cycle        total energy    energy error   density error
------------------------------------------------------------
      1     -117.0121634165  -1.1923593E+02   3.1127863E-04
      2     -117.0121536741   9.7423939E-06   2.7264630E-04
      3     -117.0121368482   1.6825870E-05   3.8485809E-04
      4     -117.0121630289  -2.6180724E-05   9.4772842E-05
      5     -117.0121647554  -1.7264409E-06   5.1083505E-05
      6     -117.0121652473  -4.9193891E-07   2.0972514E-05
      7     -117.0121653009  -5.3585012E-08   7.9876067E-06
------------------------------------------------------------

 total:                                   0.099 sec
 * total energy  :  -117.0121653 Eh     change       -0.6708021E-08 Eh
   gradient norm :     0.0006886 Eh/α   predicted    -0.1206332E-05 (*******%)
   displ. norm   :     0.0156184 α      lambda       -0.2902947E-05
   maximum displ.:     0.0086705 α      in ANC's #7, #9, #8, ...

........................................................................
.............................. CYCLE    5 ..............................
........................................................................
------------------------------------------------------------
  cycle        total energy    energy error   density error
------------------------------------------------------------
      1     -117.0121665756  -1.1923581E+02   2.6598979E-04
      2     -117.0121622492   4.3264307E-06   1.9955706E-04
      3     -117.0121387492   2.3499983E-05   3.6950524E-04
      4     -117.0121669788  -2.8229595E-05   4.9952537E-05
      5     -117.0121671403  -1.6156737E-07   4.1178920E-05
      6     -117.0121674408  -3.0041822E-07   1.3559051E-05
------------------------------------------------------------

 total:                                   0.086 sec
 * total energy  :  -117.0121674 Eh     change       -0.2139848E-05 Eh
   gradient norm :     0.0005907 Eh/α   predicted    -0.1466439E-05 ( -31.47%)
   displ. norm   :     0.0080289 α      lambda       -0.6515002E-06
   maximum displ.:     0.0041297 α      in ANC's #9, #8, #1, ...

........................................................................
.............................. CYCLE    6 ..............................
........................................................................
------------------------------------------------------------
  cycle        total energy    energy error   density error
------------------------------------------------------------
      1     -117.0121657894  -1.1923587E+02   1.1529333E-04
      2     -117.0121441828   2.1606543E-05   3.2829169E-04
      3     -117.0121680531  -2.3870282E-05   3.6025710E-05
      4     -117.0121677526   3.0048952E-07   4.0646801E-05
      5     -117.0121678646  -1.1197538E-07   3.5803693E-05
      6     -117.0121681412  -2.7662780E-07   3.1239583E-06
------------------------------------------------------------

 total:                                   0.086 sec
 * total energy  :  -117.0121681 Eh     change       -0.7004506E-06 Eh
   gradient norm :     0.0001889 Eh/α   predicted    -0.3262161E-06 ( -53.43%)
   displ. norm   :     0.0204422 α      lambda       -0.6905266E-06
   maximum displ.:     0.0107037 α      in ANC's #9, #8, #1, ...

........................................................................
.............................. CYCLE    7 ..............................
........................................................................
------------------------------------------------------------
  cycle        total energy    energy error   density error
------------------------------------------------------------
      1     -117.0121688298  -1.1923591E+02   1.1059448E-04
      2     -117.0121681435   6.8635094E-07   8.6288199E-05
      3     -117.0121642969   3.8466307E-06   1.5341640E-04
      4     -117.0121687980  -4.5011605E-06   2.2575325E-05
      5     -117.0121688515  -5.3456930E-08   1.7858073E-05
------------------------------------------------------------

 total:                                   0.073 sec
 * total energy  :  -117.0121689 Eh     change       -0.7102659E-06 Eh
   gradient norm :     0.0002557 Eh/α   predicted    -0.3459219E-06 ( -51.30%)
   displ. norm   :     0.0269011 α      lambda       -0.6051641E-06
   maximum displ.:     0.0133531 α      in ANC's #8, #9, #1, ...

........................................................................
.............................. CYCLE    8 ..............................
........................................................................
------------------------------------------------------------
  cycle        total energy    energy error   density error
------------------------------------------------------------
      1     -117.0121629072  -1.1923585E+02   2.2039940E-04
      2     -117.0120980694   6.4837844E-05   5.5880570E-04
      3     -117.0121691012  -7.1031874E-05   8.5194626E-05
      4     -117.0121670583   2.0429151E-06   1.1316329E-04
      5     -117.0121694493  -2.3909427E-06   2.3292885E-05
      6     -117.0121695781  -1.2885071E-07   4.1951221E-06
------------------------------------------------------------

 total:                                   0.088 sec
 * total energy  :  -117.0121696 Eh     change       -0.7266412E-06 Eh
   gradient norm :     0.0002209 Eh/α   predicted    -0.3040976E-06 ( -58.15%)
   displ. norm   :     0.0235810 α      lambda       -0.3977428E-06
   maximum displ.:     0.0117444 α      in ANC's #8, #1, #9, ...

........................................................................
.............................. CYCLE    9 ..............................
........................................................................
------------------------------------------------------------
  cycle        total energy    energy error   density error
------------------------------------------------------------
      1     -117.0121699139  -1.1923587E+02   1.1396667E-04
      2     -117.0121691953   7.1861602E-07   9.0379073E-05
      3     -117.0121655376   3.6576798E-06   1.5060132E-04
      4     -117.0121696488  -4.1111988E-06   3.9861858E-05
      5     -117.0121700170  -3.6816962E-07   8.5248489E-06
------------------------------------------------------------

 total:                                   0.080 sec
 * total energy  :  -117.0121700 Eh     change       -0.4388958E-06 Eh
   gradient norm :     0.0001252 Eh/α   predicted    -0.2026097E-06 ( -53.84%)
   displ. norm   :     0.0207811 α      lambda       -0.3145606E-06
   maximum displ.:     0.0113726 α      in ANC's #1, #8, #6, ...

........................................................................
.............................. CYCLE   10 ..............................
........................................................................
------------------------------------------------------------
  cycle        total energy    energy error   density error
------------------------------------------------------------
      1     -117.0121693381  -1.1923587E+02   1.0900742E-04
      2     -117.0121596770   9.6611176E-06   2.1937146E-04
      3     -117.0121702882  -1.0611268E-05   5.1955257E-05
      4     -117.0121701147   1.7353054E-07   3.4507180E-05
      5     -117.0121703458  -2.3105598E-07   1.8151718E-05
------------------------------------------------------------

 total:                                   0.080 sec
 * total energy  :  -117.0121703 Eh     change       -0.3287523E-06 Eh
   gradient norm :     0.0001176 Eh/α   predicted    -0.1602571E-06 ( -51.25%)
   displ. norm   :     0.0247953 α      lambda       -0.3782599E-06
   maximum displ.:     0.0141814 α      in ANC's #1, #6, #8, ...

........................................................................
.............................. CYCLE   11 ..............................
........................................................................
------------------------------------------------------------
  cycle        total energy    energy error   density error
------------------------------------------------------------
      1     -117.0121646441  -1.1923590E+02   1.9698596E-04
      2     -117.0120961152   6.8528931E-05   5.9360763E-04
      3     -117.0121707129  -7.4597732E-05   5.8450642E-05
      4     -117.0121686347   2.0781927E-06   9.6536034E-05
      5     -117.0121707227  -2.0879344E-06   2.3664465E-05
      6     -117.0121708477  -1.2501575E-07   3.7310271E-06
------------------------------------------------------------

 total:                                   0.093 sec
 * total energy  :  -117.0121708 Eh     change       -0.5019069E-06 Eh
   gradient norm :     0.0001473 Eh/α   predicted    -0.1896028E-06 ( -62.22%)
   displ. norm   :     0.0251404 α      lambda       -0.3076679E-06
   maximum displ.:     0.0150202 α      in ANC's #1, #6, #8, ...

........................................................................
.............................. CYCLE   12 ..............................
........................................................................
------------------------------------------------------------
  cycle        total energy    energy error   density error
------------------------------------------------------------
      1     -117.0121710911  -1.1923593E+02   1.0154335E-04
      2     -117.0121699690   1.1221739E-06   9.5560803E-05
      3     -117.0121686006   1.3683735E-06   1.2049692E-04
      4     -117.0121709886  -2.3880378E-06   3.0303662E-05
      5     -117.0121712103  -2.2169013E-07   7.6726533E-06
------------------------------------------------------------

 total:                                   0.077 sec
 * total energy  :  -117.0121712 Eh     change       -0.3626416E-06 Eh
   gradient norm :     0.0001318 Eh/α   predicted    -0.1584102E-06 ( -56.32%)
   displ. norm   :     0.0196718 α      lambda       -0.2286152E-06
   maximum displ.:     0.0122249 α      in ANC's #1, #6, #5, ...

........................................................................
.............................. CYCLE   13 ..............................
........................................................................
------------------------------------------------------------
  cycle        total energy    energy error   density error
------------------------------------------------------------
      1     -117.0121702842  -1.1923594E+02   1.0430699E-04
      2     -117.0121587028   1.1581410E-05   2.3610147E-04
      3     -117.0121713701  -1.2667244E-05   4.6421062E-05
      4     -117.0121714873  -1.1722253E-07   1.2369257E-05
------------------------------------------------------------

 total:                                   0.062 sec
 * total energy  :  -117.0121715 Eh     change       -0.2769611E-06 Eh
   gradient norm :     0.0001014 Eh/α   predicted    -0.1154914E-06 ( -58.30%)
   displ. norm   :     0.0227147 α      lambda       -0.2808259E-06
   maximum displ.:     0.0143574 α      in ANC's #1, #6, #5, ...

........................................................................
.............................. CYCLE   14 ..............................
........................................................................
------------------------------------------------------------
  cycle        total energy    energy error   density error
------------------------------------------------------------
      1     -117.0121692201  -1.1923594E+02   1.3871726E-04
      2     -117.0121394497   2.9770449E-05   3.9358869E-04
      3     -117.0121717818  -3.2332088E-05   4.8427334E-05
      4     -117.0121714130   3.6879563E-07   4.5891479E-05
      5     -117.0121718010  -3.8804400E-07   1.7072601E-05
------------------------------------------------------------

 total:                                   0.074 sec
 * total energy  :  -117.0121718 Eh     change       -0.3137475E-06 Eh
   gradient norm :     0.0000955 Eh/α   predicted    -0.1423487E-06 ( -54.63%)
   displ. norm   :     0.0261923 α      lambda       -0.3017552E-06
   maximum displ.:     0.0166324 α      in ANC's #1, #6, #5, ...

........................................................................
.............................. CYCLE   15 ..............................
........................................................................
------------------------------------------------------------
  cycle        total energy    energy error   density error
------------------------------------------------------------
      1     -117.0121670654  -1.1923590E+02   1.7301095E-04
      2     -117.0121197435   4.7321897E-05   4.7105916E-04
      3     -117.0121720880  -5.2344556E-05   5.4789782E-05
      4     -117.0121718463   2.4170379E-07   4.3279605E-05
      5     -117.0121722259  -3.7951311E-07   6.9072510E-06
------------------------------------------------------------

 total:                                   0.074 sec
 * total energy  :  -117.0121722 Eh     change       -0.4248375E-06 Eh
   gradient norm :     0.0001342 Eh/α   predicted    -0.1546074E-06 ( -63.61%)
   displ. norm   :     0.0248607 α      lambda       -0.2420173E-06
   maximum displ.:     0.0159709 α      in ANC's #1, #6, #5, ...

........................................................................
.............................. CYCLE   16 ..............................
........................................................................
------------------------------------------------------------
  cycle        total energy    energy error   density error
------------------------------------------------------------
      1     -117.0121720809  -1.1923590E+02   9.6660671E-05
      2     -117.0121688938   3.1871422E-06   1.3262732E-04
      3     -117.0121714954  -2.6015912E-06   8.0601640E-05
      4     -117.0121720541  -5.5868470E-07   4.5889755E-05
      5     -117.0121723251  -2.7101458E-07   3.1208984E-05
      6     -117.0121725282  -2.0315089E-07   4.3484434E-06
------------------------------------------------------------

 total:                                   0.085 sec
 * total energy  :  -117.0121725 Eh     change       -0.3023622E-06 Eh
   gradient norm :     0.0001180 Eh/α   predicted    -0.1217252E-06 ( -59.74%)
   displ. norm   :     0.0196426 α      lambda       -0.1726149E-06
   maximum displ.:     0.0129374 α      in ANC's #1, #6, #5, ...

........................................................................
.............................. CYCLE   17 ..............................
........................................................................
------------------------------------------------------------
  cycle        total energy    energy error   density error
------------------------------------------------------------
      1     -117.0121725917  -1.1923587E+02   7.6534644E-05
      2     -117.0121713100   1.2816881E-06   9.1891418E-05
      3     -117.0121719608  -6.5073641E-07   7.0292290E-05
      4     -117.0121724990  -5.3825933E-07   3.4271633E-05
      5     -117.0121726821  -1.8309576E-07   1.7031300E-05
------------------------------------------------------------

 total:                                   0.074 sec
 * total energy  :  -117.0121727 Eh     change       -0.1538893E-06 Eh
   gradient norm :     0.0000864 Eh/α   predicted    -0.8701456E-07 ( -43.46%)
   displ. norm   :     0.0163821 α      lambda       -0.1427136E-06
   maximum displ.:     0.0111423 α      in ANC's #1, #6, #2, ...

........................................................................
.............................. CYCLE   18 ..............................
........................................................................
------------------------------------------------------------
  cycle        total energy    energy error   density error
------------------------------------------------------------
      1     -117.0121672048  -1.1923588E+02   1.6712846E-04
      2     -117.0121069701   6.0234673E-05   5.3420722E-04
      3     -117.0121727646  -6.5794474E-05   4.2780056E-05
      4     -117.0121716907   1.0738926E-06   7.7427440E-05
      5     -117.0121728628  -1.1721003E-06   1.8773201E-05
      6     -117.0121729382  -7.5385927E-08   2.8647220E-06
------------------------------------------------------------

 total:                                   0.086 sec
 * total energy  :  -117.0121729 Eh     change       -0.2560750E-06 Eh
   gradient norm :     0.0000758 Eh/α   predicted    -0.7615082E-07 ( -70.26%)
   displ. norm   :     0.0146200 α      lambda       -0.1371042E-06
   maximum displ.:     0.0100256 α      in ANC's #1, #6, #2, ...

........................................................................
.............................. CYCLE   19 ..............................
........................................................................
------------------------------------------------------------
  cycle        total energy    energy error   density error
------------------------------------------------------------
      1     -117.0121730526  -1.1923588E+02   5.8420817E-05
      2     -117.0121725510   5.0161684E-07   6.0933113E-05
      3     -117.0121724744   7.6573031E-08   6.0464837E-05
      4     -117.0121729768  -5.0242608E-07   2.4534790E-05
      5     -117.0121731156  -1.3880108E-07   6.9086639E-06
------------------------------------------------------------

 total:                                   0.074 sec
 * total energy  :  -117.0121731 Eh     change       -0.1774357E-06 Eh
   gradient norm :     0.0000722 Eh/α   predicted    -0.7012975E-07 ( -60.48%)
   displ. norm   :     0.0171768 α      lambda       -0.1554501E-06
   maximum displ.:     0.0118895 α      in ANC's #1, #2, #6, ...

........................................................................
.............................. CYCLE   20 ..............................
........................................................................
------------------------------------------------------------
  cycle        total energy    energy error   density error
------------------------------------------------------------
      1     -117.0121725407  -1.1923589E+02   8.7298608E-05
      2     -117.0121653019   7.2388303E-06   1.9113432E-04
      3     -117.0121732361  -7.9342840E-06   3.9912020E-05
      4     -117.0121729546   2.8152775E-07   4.0249802E-05
      5     -117.0121733000  -3.4541448E-07   1.0527033E-05
------------------------------------------------------------

 total:                                   0.080 sec
 * total energy  :  -117.0121733 Eh     change       -0.1844128E-06 Eh
   gradient norm :     0.0000837 Eh/α   predicted    -0.7953295E-07 ( -56.87%)
   displ. norm   :     0.0167085 α      lambda       -0.1331899E-06
   maximum displ.:     0.0118669 α      in ANC's #1, #2, #6, ...
 * RMSD in coord.:     0.0364656 α      energy gain  -0.7586881E-04 Eh

generating ANC from exact Hessian ...
Using Lindh-Hessian (1995)
 Shifting diagonal of input Hessian by   9.856638185599852E-003
 Lowest  eigenvalues of input Hessian
    0.000000    0.000000    0.000000    0.000000    0.000000    0.000000
    0.010000    0.010054    0.010153    0.010209    0.010350    0.010383
    0.010619    0.011684    0.012023    0.012199    0.012516    0.012586
 Highest eigenvalues
    2.181792    2.185689    2.187890    2.212949    2.237655    2.622825
 

........................................................................
.............................. CYCLE   21 ..............................
........................................................................
------------------------------------------------------------
  cycle        total energy    energy error   density error
------------------------------------------------------------
      1     -117.0121716710  -1.1923589E+02   1.1121028E-04
      2     -117.0121524219   1.9249190E-05   3.1630919E-04
      3     -117.0121733930  -2.0971108E-05   3.9323828E-05
      4     -117.0121732534   1.3956934E-07   3.3230333E-05
      5     -117.0121734514  -1.9802236E-07   1.2676219E-05
------------------------------------------------------------

 total:                                   0.074 sec
 * total energy  :  -117.0121735 Eh     change       -0.1513849E-06 Eh
   gradient norm :     0.0000553 Eh/α   predicted     0.0000000E+00 (-100.00%)
   displ. norm   :     0.0000830 α      lambda        0.0000000E+00
   maximum displ.:     0.0000239 α      in ANC's #178, #206, #1, ...

........................................................................
.............................. CYCLE   22 ..............................
........................................................................
------------------------------------------------------------
  cycle        total energy    energy error   density error
------------------------------------------------------------
      1     -117.0121701462  -1.1923590E+02   1.1643170E-04
      2     -117.0121390554   3.1090780E-05   3.7938950E-04
      3     -117.0121734775  -3.4422118E-05   8.2501872E-06
      4     -117.0121734936  -1.6097815E-08   1.7269883E-06
------------------------------------------------------------

 total:                                   0.061 sec
 * total energy  :  -117.0121735 Eh     change       -0.4217100E-07 Eh
   gradient norm :     0.0000506 Eh/α   predicted    -0.1373950E-08 ( -96.74%)
   displ. norm   :     0.0000830 α      lambda        0.0000000E+00
   maximum displ.:     0.0000239 α      in ANC's #178, #206, #1, ...

   *** GEOMETRY OPTIMIZATION CONVERGED AFTER 22 ITERATIONS ***

------------------------------------------------------------------------
 total energy gain   :        -0.0000761 Eh       -0.0477 kcal/mol
 total RMSD          :         0.0364662 a0        0.0193 Å
 total power (kW/mol):        -0.0090774 (step)   -0.1074 (real)
------------------------------------------------------------------------

 ANCopt (total)                0 d,  0 h,  0 min,  1.859 sec
 optimizer setup                ...        0 min,  0.000 sec (  0.015%)
 model hessian                  ...        0 min,  0.056 sec (  3.027%)
 ANC generation                 ...        0 min,  0.009 sec (  0.477%)
 coordinate transformation      ...        0 min,  0.002 sec (  0.117%)
 single point calculation       ...        0 min,  1.778 sec ( 95.657%)
 optimization log               ...        0 min,  0.005 sec (  0.244%)
 hessian update                 ...        0 min,  0.003 sec (  0.159%)
 rational function              ...        0 min,  0.003 sec (  0.158%)

================
 final structure:
================
73
 xtb: 6.7.1 (edcfbbe)
N            1.46299305242955       -3.54528242339268       -0.05905689404573
C            1.01938548295717       -2.46911496285560       -0.04252065874397
C            0.49601502657842       -1.19992540406454       -0.02289565003148
C           -0.91632651016714       -0.95806102255765        0.22535004100654
N           -1.74454641853668       -2.06541746713391        0.44190728762168
C           -2.84920932060998       -2.40664728351519       -0.30780184852599
C           -3.37805798383995       -1.78514630223946       -1.42970353499228
C           -4.49710447841190       -2.34820153117427       -2.01363642585220
C           -5.07567659147071       -3.50591889667424       -1.49999169024354
C           -4.53867772611714       -4.14342635141536       -0.39508387400664
C           -3.41614865599808       -3.59707606068463        0.20663923628194
C           -2.60066283732517       -3.98246791252947        1.32791439993172
C           -2.65235199128403       -5.03043130540347        2.23298240595652
C           -1.69723918998598       -5.08728773032161        3.23286080801469
C           -0.71290106935041       -4.10859194328396        3.34471495423636
C           -0.64398766225270       -3.05174919576578        2.45755197080794
C           -1.58130990044072       -3.00716591275484        1.43461108835472
C           -1.42922590518638        0.30379475367164        0.19942282504838
C           -0.59264722882653        1.43004197846905       -0.00107052657183
N           -1.12517929707536        2.71385436497257        0.00666337703917
C           -2.25622767796091        3.12533769728066       -0.67119091005474
C           -3.07644214283207        2.41522603018911       -1.53756342236605
C           -4.14846155316172        3.07559700335180       -2.10650352198340
C           -4.40091490065676        4.41877788393209       -1.83204496597530
C           -3.57127745164947        5.14247869446163       -0.99536876121000
C           -2.48758914463985        4.50060351130093       -0.41495691310878
C           -1.43208123336561        4.93430384047417        0.45561365220769
C           -1.12195002201130        6.14901323303572        1.04849872627599
C           -0.01943577537594        6.21913921395525        1.88011948387962
C            0.75838701144942        5.09125208620598        2.13699343758032
C            0.46959387706665        3.87156267856664        1.55558125656188
C           -0.61713014597664        3.79872468331345        0.69451178478243
C            0.79513393620111        1.22789441721674       -0.20603867908669
C            1.32404498087677       -0.02667977955682       -0.25025195591040
N            2.69469684443929       -0.22009843113679       -0.46031140398269
C            3.25544506877882       -0.97580255408084       -1.46666217859386
C            2.63479865739587       -1.64272101700545       -2.51399899467580
C            3.44007300202476       -2.31823952431878       -3.41060539766143
C            4.82687320315336       -2.31833137666969       -3.28358134956395
C            5.45158794142562       -1.63040781505227       -2.25803500999308
C            4.66465824244674       -0.94940125202080       -1.34314317244044
C            4.95686852909455       -0.13162675674048       -0.19562669880091
C            6.13006490204773        0.25665707582332        0.43171915706423
C            6.04657760651325        1.05582055297949        1.55866640779127
C            4.81329809930637        1.45327004349628        2.06852618397138
C            3.63053951300445        1.07909112481222        1.45913657654970
C            3.70886844587304        0.29706717280858        0.31595282820882
H           -2.92034152922600       -0.89905890010483       -1.84222831647517
H           -4.92930352094927       -1.88289059729823       -2.88694625057872
H           -5.95180206106877       -3.91519140868845       -1.98015097057888
H           -4.97977835274594       -5.05049477715344       -0.01090238135647
H           -3.42248351007383       -5.78309666596358        2.15813015330577
H           -1.71720416128184       -5.89891929157031        3.94461361642480
H            0.01019145596453       -4.17501023591648        4.14339682547262
H            0.11503543645622       -2.29147676825128        2.55700546700454
H           -2.47914672139641        0.45670160953174        0.40100211443081
H           -2.87672659559649        1.38267161043173       -1.77558001997083
H           -4.80035153667976        2.54184490284712       -2.78159298848353
H           -5.25068147693978        4.90052669756105       -2.29180080490599
H           -3.75686450535642        6.18771473780691       -0.79982251918428
H           -1.73467853096043        7.01880714205616        0.86623003232455
H            0.23910604896596        7.15639868423527        2.34943485436446
H            1.60034880541595        5.17073096267669        2.80809709113102
H            1.06449991941821        3.00069935713392        1.77998331194710
H            1.43028632587276        2.08088408622530       -0.39379063381325
H            1.56155891554421       -1.63867435466987       -2.62422085580023
H            2.98424078514959       -2.85502559987829       -4.22867705118985
H            5.42231204964548       -2.85956662753625       -4.00348734961346
H            6.52749070407290       -1.62136303343551       -2.17099153546997
H            7.08757044597109       -0.06373504327208        0.05030754009755
H            6.95000829326052        1.37031886684461        2.05923357076806
H            4.78019128919379        2.06296988764511        2.95912677279578
H            2.67550548148824        1.37194359647388        1.86803210480275
 
 Bond Distances (Angstroems)
 ---------------------------
N1-C2=1.1641         C2-N1=1.1641         C2-C3=1.3730         C3-C2=1.3730         C3-C4=1.4542         C3-C34=1.4539        
C4-C3=1.4542         C4-N5=1.3997         C4-C18=1.3624        N5-C4=1.3997         N5-C6=1.3780         N5-C17=1.3780        
C6-N5=1.3780         C6-C7=1.3873         C6-C11=1.4153        C7-C6=1.3873         C7-C8=1.3821         C7-H48=1.0793        
C8-C7=1.3821         C8-C9=1.3924         C8-H49=1.0798        C9-C8=1.3924         C9-C10=1.3841        C9-H50=1.0797        
C10-C9=1.3841        C10-C11=1.3859       C10-H51=1.0793       C11-C6=1.4153        C11-C10=1.3859       C11-C12=1.4390       
C12-C11=1.4390       C12-C13=1.3857       C12-C17=1.4148       C13-C12=1.3857       C13-C14=1.3839       C13-H52=1.0794       
C14-C13=1.3839       C14-C15=1.3926       C14-H53=1.0797       C15-C14=1.3926       C15-C16=1.3816       C15-H54=1.0794       
C16-C15=1.3816       C16-C17=1.3882       C16-H55=1.0789       C17-N5=1.3780        C17-C12=1.4148       C17-C16=1.3882       
C18-C4=1.3624        C18-C19=1.4172       C18-H56=1.0800       C19-C18=1.4172       C19-N20=1.3899       C19-C33=1.4173       
N20-C19=1.3899       N20-C21=1.3813       N20-C32=1.3814       C21-N20=1.3813       C21-C22=1.3884       C21-C26=1.4179       
C22-C21=1.3884       C22-C23=1.3817       C22-H57=1.0783       C23-C22=1.3817       C23-C24=1.3940       C23-H58=1.0796       
C24-C23=1.3940       C24-C25=1.3828       C24-H59=1.0796       C25-C24=1.3828       C25-C26=1.3868       C25-H60=1.0794       
C26-C21=1.4179       C26-C25=1.3868       C26-C27=1.4353       C27-C26=1.4353       C27-C28=1.3868       C27-C32=1.4180       
C28-C27=1.3868       C28-C29=1.3828       C28-H61=1.0794       C29-C28=1.3828       C29-C30=1.3940       C29-H62=1.0796       
C30-C29=1.3940       C30-C31=1.3817       C30-H63=1.0796       C31-C30=1.3817       C31-C32=1.3884       C31-H64=1.0783       
C32-N20=1.3814       C32-C27=1.4180       C32-C31=1.3884       C33-C19=1.4173       C33-C34=1.3622       C33-H65=1.0799       
C34-C3=1.4539        C34-C33=1.3622       C34-N35=1.4001       N35-C34=1.4001       N35-C36=1.3778       N35-C47=1.3779       
C36-N35=1.3778       C36-C37=1.3881       C36-C41=1.4149       C37-C36=1.3881       C37-C38=1.3816       C37-H66=1.0789       
C38-C37=1.3816       C38-C39=1.3926       C38-H67=1.0794       C39-C38=1.3926       C39-C40=1.3839       C39-H68=1.0797       
C40-C39=1.3839       C40-C41=1.3857       C40-H69=1.0795       C41-C36=1.4149       C41-C40=1.3857       C41-C42=1.4391       
C42-C41=1.4391       C42-C43=1.3859       C42-C47=1.4153       C43-C42=1.3859       C43-C44=1.3841       C43-H70=1.0793       
C44-C43=1.3841       C44-C45=1.3924       C44-H71=1.0797       C45-C44=1.3924       C45-C46=1.3821       C45-H72=1.0798       
C46-C45=1.3821       C46-C47=1.3873       C46-H73=1.0794       C47-N35=1.3779       C47-C42=1.4153       C47-C46=1.3873       
H48-C7=1.0793        H49-C8=1.0798        H50-C9=1.0797        H51-C10=1.0793       H52-C13=1.0794       H53-C14=1.0797       
H54-C15=1.0794       H55-C16=1.0789       H56-C18=1.0800       H57-C22=1.0783       H58-C23=1.0796       H59-C24=1.0796       
H60-C25=1.0794       H61-C28=1.0794       H62-C29=1.0796       H63-C30=1.0796       H64-C31=1.0783       H65-C33=1.0799       
H66-C37=1.0789       H67-C38=1.0794       H68-C39=1.0797       H69-C40=1.0795       H70-C43=1.0793       H71-C44=1.0797       
H72-C45=1.0798       H73-C46=1.0794       
 C  H  Rav=1.0794 sigma=0.0004  Rmin=1.0783  Rmax=1.0800    26
 C  C  Rav=1.3966 sigma=0.0215  Rmin=1.3622  Rmax=1.4542    46
 N  C  Rav=1.3628 sigma=0.0668  Rmin=1.1641  Rmax=1.4001    10
 
 selected bond angles (degree)
 --------------------
C3-C2-N1=179.99                C4-C3-C2=121.76                C34-C3-C2=121.78               C34-C3-C4=116.46               
N5-C4-C3=118.00                C18-C4-C3=121.09               C18-C4-N5=120.86               C6-N5-C4=125.88                
C17-N5-C4=125.59               C17-N5-C6=108.52               C7-C6-N5=129.39                C11-C6-N5=109.37               
C11-C6-C7=121.20               C8-C7-C6=117.89                H48-C7-C6=121.01               H48-C7-C8=121.09               
C9-C8-C7=121.28                H49-C8-C7=119.35               H49-C8-C9=119.36               C10-C9-C8=121.08               
H50-C9-C8=119.23               H50-C9-C10=119.69              C11-C10-C9=118.64              H51-C10-C9=120.84              
H51-C10-C11=120.52             
 
 selected dihedral angles (degree)
 ---------------------------------
C4-C3-C2-N1=337.33            C34-C3-C2-N1=157.38           N5-C4-C3-C2=359.74            N5-C4-C3-C34=179.69           
C18-C4-C3-C2=182.12           C18-C4-C3-C34=  2.07          C6-N5-C4-C3=238.92            C6-N5-C4-C18= 56.54           
C17-N5-C4-C3= 58.14           C17-N5-C4-C18=235.76          C7-C6-N5-C4=  1.46            C7-C6-N5-C17=182.13           
C11-C6-N5-C4=179.25           C11-C6-N5-C17=359.91          C8-C7-C6-N5=179.01            C8-C7-C6-C11=  1.45           
H48-C7-C6-N5=359.97           H48-C7-C6-C11=182.41          C9-C8-C7-C6=359.71            C9-C8-C7-H48=178.75           
H49-C8-C7-C6=179.89           H49-C8-C7-H48=358.94          C10-C9-C8-C7=359.16           C10-C9-C8-H49=178.97          
H50-C9-C8-C7=179.76           H50-C9-C8-H49=359.57          C11-C10-C9-C8=  0.79          C11-C10-C9-H50=180.19         
H51-C10-C9-C8=181.11          H51-C10-C9-H50=  0.51         
           -------------------------------------------------
          |                Final Singlepoint                |
           -------------------------------------------------
repulsion energy          2.2229672050943E+00 Eh
dispersion energy         7.5935923922057E-04 Eh
interaction energy        0.0000000000000E+00 Eh
number of electrons       2.1800000000000E+02 e
integral cutoff           1.7347787504999E+01 bohr

------------------------------------------------------------
  cycle        total energy    energy error   density error
------------------------------------------------------------
      1     -117.0121734792  -1.1923590E+02   7.3979417E-06
      2     -117.0121734502   2.8988438E-08   1.2393316E-05
------------------------------------------------------------

electronic energy        -1.1923590001451E+02 Eh
total energy             -1.1701217345017E+02 Eh

 total:                                   0.037 sec
 - repulsion                              0.000 sec (  0%)
 - dispersion                             0.002 sec (  5%)
 - coulomb                                0.004 sec (  9%)
 - hamiltonian                            0.006 sec ( 17%)
 - scc                                    0.025 sec ( 67%)

           ------------------------------------------------- 
          |                Numerical Hessian                |
           ------------------------------------------------- 
step length          :   0.00500
SCC accuracy         :   0.30000
Hessian scale factor :   1.00000
frozen atoms in %    :   0.00000    0
RMS gradient         :   0.00005
estimated CPU  time     39.23 min
estimated wall time      0.98 min

writing file <hessian>.

 projected vibrational frequencies (cm⁻¹)
eigval :       -0.00    -0.00    -0.00     0.00     0.00     0.00
eigval :       10.68    19.18    23.21    24.25    25.88    30.19
eigval :       48.27    54.06    69.38    80.91    96.70    98.38
eigval :      106.16   124.38   130.89   136.19   145.42   147.24
eigval :      148.30   148.82   199.08   202.47   219.79   250.55
eigval :      253.25   268.89   269.44   270.31   275.23   281.90
eigval :      284.12   326.34   354.32   367.17   377.63   387.82
eigval :      392.12   394.37   414.78   418.94   419.08   424.64
eigval :      432.17   435.14   435.30   469.23   470.31   514.54
eigval :      515.13   515.46   531.77   532.49   533.34   536.16
eigval :      536.32   536.91   552.56   575.48   580.33   584.60
eigval :      587.25   592.78   612.84   618.10   619.93   645.90
eigval :      663.70   669.18   672.40   672.88   695.66   704.78
eigval :      708.23   708.72   747.29   751.81   754.74   761.86
eigval :      764.10   765.22   767.04   771.12   774.60   775.27
eigval :      783.74   847.44   858.28   861.21   862.62   864.99
eigval :      865.14   874.68   879.98   887.53   891.95   895.49
eigval :      897.11   898.80   899.04   901.18   901.30   903.73
eigval :      904.42   915.18   916.05   918.32   918.45   919.46
eigval :      919.67   990.32  1008.24  1010.77  1013.47  1017.35
eigval :     1063.27  1064.10  1067.70  1068.08  1069.63  1071.11
eigval :     1082.58  1108.94  1114.12  1137.52  1140.90  1143.12
eigval :     1158.71  1161.65  1174.46  1175.67  1175.80  1178.51
eigval :     1178.86  1178.89  1193.13  1220.62  1225.34  1226.16
eigval :     1229.78  1230.43  1236.48  1237.99  1265.77  1271.74
eigval :     1282.19  1286.16  1287.80  1290.15  1296.90  1303.34
eigval :     1325.30  1341.85  1342.24  1342.36  1352.01  1355.64
eigval :     1364.85  1364.99  1366.57  1388.93  1407.89  1411.68
eigval :     1411.92  1421.87  1426.11  1442.50  1459.89  1462.55
eigval :     1462.99  1482.47  1482.83  1483.38  1506.15  1558.05
eigval :     1560.80  1566.13  1566.66  1572.09  1578.50  1579.58
eigval :     1581.18  1581.48  1587.26  1590.09  1600.37  1601.88
eigval :     2171.58  3080.07  3080.42  3081.65  3082.30  3082.38
eigval :     3082.43  3085.13  3085.60  3087.27  3088.30  3088.50
eigval :     3088.79  3089.12  3089.88  3092.17  3092.57  3095.10
eigval :     3095.19  3096.33  3097.67  3098.71  3099.04  3101.27
eigval :     3101.48  3104.72  3105.36
           -------------------------------------------------
          |                Property Printout                |
           -------------------------------------------------
           -------------------------------------------------
          |                Geometry Summary                 |
           -------------------------------------------------

      molecular mass/u    :      598.6949160
   center of mass at/Å    :        0.0002448       0.0004079      -0.0000103
  moments of inertia/u·Å² :        0.7574491E+04   0.7601748E+04   0.1205526E+05
rotational constants/cm⁻¹ :        0.2225580E-02   0.2217599E-02   0.1398363E-02

 * 80 selected distances

     #   Z          #   Z                                           value/Å
     1   7 N        2   6 C                                       1.1641296
     2   6 C        3   6 C                                       1.3730056
     4   6 C        5   7 N                                       1.3996728
     5   7 N        6   6 C                                       1.3779630
     6   6 C        7   6 C                                       1.3873025
     7   6 C        8   6 C                                       1.3821267
     8   6 C        9   6 C                                       1.3924390
     9   6 C       10   6 C                                       1.3840539
     6   6 C       11   6 C                                       1.4153413
    10   6 C       11   6 C                                       1.3858720
    11   6 C       12   6 C                                       1.4390283
    12   6 C       13   6 C                                       1.3856578
    13   6 C       14   6 C                                       1.3839185
    14   6 C       15   6 C                                       1.3925799
    15   6 C       16   6 C                                       1.3815658
     5   7 N       17   6 C                                       1.3780412
    12   6 C       17   6 C                                       1.4148070
    16   6 C       17   6 C                                       1.3881531
     4   6 C       18   6 C                                       1.3623576
    18   6 C       19   6 C                                       1.4172137
    19   6 C       20   7 N                                       1.3899010
    20   7 N       21   6 C                                       1.3813312
    21   6 C       22   6 C                                       1.3883847
    22   6 C       23   6 C                                       1.3816688
    23   6 C       24   6 C                                       1.3939854
    24   6 C       25   6 C                                       1.3827757
    21   6 C       26   6 C                                       1.4179353
    25   6 C       26   6 C                                       1.3868174
    26   6 C       27   6 C                                       1.4353001
    27   6 C       28   6 C                                       1.3867997
    28   6 C       29   6 C                                       1.3827685
    29   6 C       30   6 C                                       1.3939592
    30   6 C       31   6 C                                       1.3816961
    20   7 N       32   6 C                                       1.3813737
    27   6 C       32   6 C                                       1.4180120
    31   6 C       32   6 C                                       1.3884219
    19   6 C       33   6 C                                       1.4173258
    33   6 C       34   6 C                                       1.3622256
    34   6 C       35   7 N                                       1.4000795
    35   7 N       36   6 C                                       1.3777770
    36   6 C       37   6 C                                       1.3881271
    37   6 C       38   6 C                                       1.3815554
    38   6 C       39   6 C                                       1.3926056
    39   6 C       40   6 C                                       1.3839267
    36   6 C       41   6 C                                       1.4148626
    40   6 C       41   6 C                                       1.3856608
    41   6 C       42   6 C                                       1.4390748 (max)
    42   6 C       43   6 C                                       1.3858994
    43   6 C       44   6 C                                       1.3840675
    44   6 C       45   6 C                                       1.3924445
    45   6 C       46   6 C                                       1.3821302
    35   7 N       47   6 C                                       1.3778936
    42   6 C       47   6 C                                       1.4152727
    46   6 C       47   6 C                                       1.3872874
     7   6 C       48   1 H                                       1.0792739
     8   6 C       49   1 H                                       1.0798058
     9   6 C       50   1 H                                       1.0796541
    10   6 C       51   1 H                                       1.0793232
    13   6 C       52   1 H                                       1.0794493
    14   6 C       53   1 H                                       1.0796929
    15   6 C       54   1 H                                       1.0794291
    16   6 C       55   1 H                                       1.0788983
    18   6 C       56   1 H                                       1.0799762
    22   6 C       57   1 H                                       1.0782889
    23   6 C       58   1 H                                       1.0796286
    24   6 C       59   1 H                                       1.0796114
    25   6 C       60   1 H                                       1.0794441
    28   6 C       61   1 H                                       1.0794442
    29   6 C       62   1 H                                       1.0796093
    30   6 C       63   1 H                                       1.0796281
    31   6 C       64   1 H                                       1.0782730 (min)
    33   6 C       65   1 H                                       1.0799356
    37   6 C       66   1 H                                       1.0788925
    38   6 C       67   1 H                                       1.0794275
    39   6 C       68   1 H                                       1.0796981
    40   6 C       69   1 H                                       1.0794560
    43   6 C       70   1 H                                       1.0793253
    44   6 C       71   1 H                                       1.0796592
    45   6 C       72   1 H                                       1.0798146
    46   6 C       73   1 H                                       1.0793741

 * 3 distinct bonds (by element types)

   Z      Z             #   av. dist./Å        max./Å        min./Å
   1 H    6 C          26     1.0794236     1.0799762     1.0782730
   6 C    6 C          44     1.3940094     1.4390748     1.3622256
   6 C    7 N          10     1.3628163     1.4000795     1.1641296

           -------------------------------------------------
          |               Frequency Printout                |
           -------------------------------------------------
 projected vibrational frequencies (cm⁻¹)
eigval :       -0.00    -0.00    -0.00     0.00     0.00     0.00
eigval :       10.68    19.18    23.21    24.25    25.88    30.19
eigval :       48.27    54.06    69.38    80.91    96.70    98.38
eigval :      106.16   124.38   130.89   136.19   145.42   147.24
eigval :      148.30   148.82   199.08   202.47   219.79   250.55
eigval :      253.25   268.89   269.44   270.31   275.23   281.90
eigval :      284.12   326.34   354.32   367.17   377.63   387.82
eigval :      392.12   394.37   414.78   418.94   419.08   424.64
eigval :      432.17   435.14   435.30   469.23   470.31   514.54
eigval :      515.13   515.46   531.77   532.49   533.34   536.16
eigval :      536.32   536.91   552.56   575.48   580.33   584.60
eigval :      587.25   592.78   612.84   618.10   619.93   645.90
eigval :      663.70   669.18   672.40   672.88   695.66   704.78
eigval :      708.23   708.72   747.29   751.81   754.74   761.86
eigval :      764.10   765.22   767.04   771.12   774.60   775.27
eigval :      783.74   847.44   858.28   861.21   862.62   864.99
eigval :      865.14   874.68   879.98   887.53   891.95   895.49
eigval :      897.11   898.80   899.04   901.18   901.30   903.73
eigval :      904.42   915.18   916.05   918.32   918.45   919.46
eigval :      919.67   990.32  1008.24  1010.77  1013.47  1017.35
eigval :     1063.27  1064.10  1067.70  1068.08  1069.63  1071.11
eigval :     1082.58  1108.94  1114.12  1137.52  1140.90  1143.12
eigval :     1158.71  1161.65  1174.46  1175.67  1175.80  1178.51
eigval :     1178.86  1178.89  1193.13  1220.62  1225.34  1226.16
eigval :     1229.78  1230.43  1236.48  1237.99  1265.77  1271.74
eigval :     1282.19  1286.16  1287.80  1290.15  1296.90  1303.34
eigval :     1325.30  1341.85  1342.24  1342.36  1352.01  1355.64
eigval :     1364.85  1364.99  1366.57  1388.93  1407.89  1411.68
eigval :     1411.92  1421.87  1426.11  1442.50  1459.89  1462.55
eigval :     1462.99  1482.47  1482.83  1483.38  1506.15  1558.05
eigval :     1560.80  1566.13  1566.66  1572.09  1578.50  1579.58
eigval :     1581.18  1581.48  1587.26  1590.09  1600.37  1601.88
eigval :     2171.58  3080.07  3080.42  3081.65  3082.30  3082.38
eigval :     3082.43  3085.13  3085.60  3087.27  3088.30  3088.50
eigval :     3088.79  3089.12  3089.88  3092.17  3092.57  3095.10
eigval :     3095.19  3096.33  3097.67  3098.71  3099.04  3101.27
eigval :     3101.48  3104.72  3105.36
 reduced masses (amu)
   1: 11.37   2: 11.67   3: 11.53   4: 11.37   5: 11.64   6: 11.50   7: 11.19   8: 10.86
   9: 10.97  10: 10.97  11: 10.86  12: 11.03  13: 12.12  14: 11.21  15: 11.22  16: 11.84
  17: 10.32  18: 10.12  19: 10.62  20: 12.12  21: 10.72  22:  9.90  23: 10.01  24: 11.08
  25: 10.90  26: 10.94  27: 10.99  28: 11.04  29: 11.57  30: 11.18  31: 10.43  32: 10.31
  33: 10.27  34: 10.41  35: 11.49  36: 10.79  37: 11.38  38: 11.35  39: 11.75  40: 11.42
  41: 11.95  42:  9.32  43:  9.48  44:  9.72  45:  9.66  46:  9.65  47:  9.65  48: 11.26
  49: 10.92  50: 10.97  51: 10.94  52: 11.26  53: 11.26  54: 11.02  55: 10.92  56: 11.02
  57: 11.18  58: 10.47  59: 10.66  60: 10.29  61:  9.93  62: 10.93  63: 11.70  64: 11.90
  65: 11.49  66: 11.42  67: 11.36  68: 11.58  69: 11.48  70: 11.72  71: 11.57  72: 11.28
  73: 11.45  74: 11.40  75: 11.37  76: 11.38  77: 11.39  78: 11.51  79: 11.47  80: 11.47
  81: 10.92  82: 10.82  83: 10.70  84:  3.63  85:  8.84  86:  3.72  87:  5.96  88:  3.91
  89:  3.88  90:  3.87  91: 11.40  92:  3.35  93:  3.53  94:  3.43  95:  3.57  96:  3.38
  97:  3.38  98:  3.47  99:  6.69 100:  9.32 101: 11.63 102: 10.43 103: 10.90 104:  4.29
 105:  4.33 106:  4.01 107:  4.00 108:  4.21 109:  4.12 110:  3.24 111:  3.20 112:  3.24
 113:  3.26 114:  3.16 115:  3.13 116:  9.85 117: 10.84 118: 10.84 119: 10.72 120: 11.10
 121:  5.85 122:  6.15 123:  5.90 124:  6.45 125:  6.30 126:  6.32 127:  8.35 128:  8.65
 129:  7.96 130:  4.54 131:  4.33 132:  4.61 133:  4.94 134:  5.71 135:  2.27 136:  2.53
 137:  2.16 138:  2.04 139:  2.08 140:  2.44 141:  4.99 142:  6.93 143:  5.79 144:  6.18
 145:  6.01 146:  5.98 147:  7.18 148:  5.59 149:  8.05 150:  7.48 151:  8.15 152:  8.04
 153:  7.10 154:  7.24 155:  8.15 156:  9.55 157: 10.04 158: 11.83 159: 11.85 160: 11.81
 161: 11.70 162: 11.97 163: 10.03 164: 10.05 165: 10.69 166:  9.82 167:  8.68 168:  8.73
 169:  8.72 170: 10.74 171: 11.05 172: 11.81 173: 10.02 174: 10.05 175: 10.05 176: 10.40
 177: 10.35 178: 10.41 179: 11.87 180: 11.52 181: 11.57 182: 11.55 183: 11.55 184: 11.62
 185: 11.63 186: 11.64 187: 11.59 188: 11.59 189: 11.65 190: 11.69 191: 11.67 192: 11.68
 193: 12.75 194:  1.75 195:  1.75 196:  1.76 197:  1.75 198:  1.76 199:  1.76 200:  1.80
 201:  1.80 202:  1.81 203:  1.81 204:  1.81 205:  1.81 206:  1.82 207:  1.82 208:  1.86
 209:  1.86 210:  1.87 211:  1.87 212:  1.88 213:  1.89 214:  1.91 215:  1.90 216:  1.91
 217:  1.91 218:  1.87 219:  1.88
 IR intensities (km·mol⁻¹)
   1:  6.18   2:  1.43   3:  0.64   4:  0.10   5:  1.05   6:  0.97   7:  2.07   8:  0.88
   9:  0.18  10:  1.20  11:  1.21  12:  0.23  13:  3.03  14:  4.66  15:  0.23  16:  1.95
  17:  0.46  18:  0.94  19:  1.58  20:  0.86  21:  0.02  22:  1.38  23: 37.71  24:  1.54
  25:  1.05  26:  7.39  27:  4.49  28:  0.91  29:  2.30  30:  1.58  31: 24.12  32:  0.35
  33:  0.56  34:  2.35  35:  1.39  36:  1.90  37:  3.56  38:  8.96  39:  0.11  40:  3.61
  41:  9.60  42:  2.71  43: 18.76  44:  1.18  45:  1.53  46:  9.76  47:  3.22  48:  7.68
  49: 24.38  50:  1.34  51:  3.15  52:  0.22  53:  9.49  54:  0.14  55:  6.97  56: 11.20
  57:  4.02  58:  9.58  59:  2.01  60:  3.31  61: 34.60  62:  5.44  63: 11.51  64: 14.48
  65:  0.29  66:  8.48  67:  6.42  68:  0.80  69:  9.58  70:  3.69  71:  7.46  72: 14.26
  73:  1.01  74:  1.36  75:  2.74  76:  4.27  77:  7.50  78:  0.54  79:  3.46  80:  2.29
  81: 35.91  82: 20.85  83: 21.49  84: 15.18  85: 38.13  86: 12.65  87: 59.38  88: 21.08
  89:  4.42  90:  5.64  91: 11.89  92:  8.61  93: 24.36  94:  0.04  95: 10.59  96:  5.89
  97: 10.86  98:  5.32  99:  7.07 100: 14.95 101:  3.88 102:  3.98 103:  2.74 104:  1.13
 105:  0.52 106:  0.20 107: 17.45 108:  2.38 109:  3.88 110: 12.97 111:  0.06 112: 51.79
 113: 37.23 114:  0.77 115: 32.32 116: 49.16 117:  7.79 118:  3.13 119:  1.21 120: 26.42
 121:  8.81 122: 18.92 123:  1.32 124:136.27 125: 48.79 126:  2.56 127: 15.20 128: 90.18
 129:  1.42 130:  0.44 131:  6.71 132: 18.18 133:  1.12 134: 25.16 135:  6.28 136:  0.85
 137:  7.89 138: 10.02 139:  2.06 140: 14.04 141:  0.13 142: 37.23 143:  0.78 144: 10.50
 145: 16.74 146: 20.23 147:  2.18 148: 30.99 149:  7.47 150:  7.04 151: 26.37 152: 27.13
 153: 33.51 154:  3.75 155: 54.50 156:  4.30 157:  5.84 158:  2.22 159:  5.86 160:  1.25
 161:117.74 162:115.16 163:125.21 164: 82.12 165:127.50 166: 21.04 167:  2.19 168:  0.96
 169: 12.63 170:189.49 171:153.47 172:105.43 173:  6.67 174: 25.40 175:  0.21 176: 64.42
 177: 21.97 178:  7.12 179: 17.44 180: 10.45 181:376.72 182:  5.73 183:  3.79 184:  4.67
 185:  0.73 186: 20.31 187: 73.24 188: 77.47 189: 22.81 190: 47.58 191:215.97 192: 57.78
 193:313.15 194: 18.86 195: 11.01 196:  6.49 197: 67.14 198: 31.86 199: 25.61 200: 16.27
 201: 36.24 202: 36.96 203:125.92 204: 19.87 205: 99.29 206:150.50 207: 14.64 208: 13.39
 209: 26.53 210: 64.95 211: 25.63 212: 27.27 213:  1.50 214: 54.59 215:304.52 216:117.90
 217:189.01 218: 83.45 219:  2.82
 Raman intensities (Ä⁴*amu⁻¹)
   1:  0.00   2:  0.00   3:  0.00   4:  0.00   5:  0.00   6:  0.00   7:  0.00   8:  0.00
   9:  0.00  10:  0.00  11:  0.00  12:  0.00  13:  0.00  14:  0.00  15:  0.00  16:  0.00
  17:  0.00  18:  0.00  19:  0.00  20:  0.00  21:  0.00  22:  0.00  23:  0.00  24:  0.00
  25:  0.00  26:  0.00  27:  0.00  28:  0.00  29:  0.00  30:  0.00  31:  0.00  32:  0.00
  33:  0.00  34:  0.00  35:  0.00  36:  0.00  37:  0.00  38:  0.00  39:  0.00  40:  0.00
  41:  0.00  42:  0.00  43:  0.00  44:  0.00  45:  0.00  46:  0.00  47:  0.00  48:  0.00
  49:  0.00  50:  0.00  51:  0.00  52:  0.00  53:  0.00  54:  0.00  55:  0.00  56:  0.00
  57:  0.00  58:  0.00  59:  0.00  60:  0.00  61:  0.00  62:  0.00  63:  0.00  64:  0.00
  65:  0.00  66:  0.00  67:  0.00  68:  0.00  69:  0.00  70:  0.00  71:  0.00  72:  0.00
  73:  0.00  74:  0.00  75:  0.00  76:  0.00  77:  0.00  78:  0.00  79:  0.00  80:  0.00
  81:  0.00  82:  0.00  83:  0.00  84:  0.00  85:  0.00  86:  0.00  87:  0.00  88:  0.00
  89:  0.00  90:  0.00  91:  0.00  92:  0.00  93:  0.00  94:  0.00  95:  0.00  96:  0.00
  97:  0.00  98:  0.00  99:  0.00 100:  0.00 101:  0.00 102:  0.00 103:  0.00 104:  0.00
 105:  0.00 106:  0.00 107:  0.00 108:  0.00 109:  0.00 110:  0.00 111:  0.00 112:  0.00
 113:  0.00 114:  0.00 115:  0.00 116:  0.00 117:  0.00 118:  0.00 119:  0.00 120:  0.00
 121:  0.00 122:  0.00 123:  0.00 124:  0.00 125:  0.00 126:  0.00 127:  0.00 128:  0.00
 129:  0.00 130:  0.00 131:  0.00 132:  0.00 133:  0.00 134:  0.00 135:  0.00 136:  0.00
 137:  0.00 138:  0.00 139:  0.00 140:  0.00 141:  0.00 142:  0.00 143:  0.00 144:  0.00
 145:  0.00 146:  0.00 147:  0.00 148:  0.00 149:  0.00 150:  0.00 151:  0.00 152:  0.00
 153:  0.00 154:  0.00 155:  0.00 156:  0.00 157:  0.00 158:  0.00 159:  0.00 160:  0.00
 161:  0.00 162:  0.00 163:  0.00 164:  0.00 165:  0.00 166:  0.00 167:  0.00 168:  0.00
 169:  0.00 170:  0.00 171:  0.00 172:  0.00 173:  0.00 174:  0.00 175:  0.00 176:  0.00
 177:  0.00 178:  0.00 179:  0.00 180:  0.00 181:  0.00 182:  0.00 183:  0.00 184:  0.00
 185:  0.00 186:  0.00 187:  0.00 188:  0.00 189:  0.00 190:  0.00 191:  0.00 192:  0.00
 193:  0.00 194:  0.00 195:  0.00 196:  0.00 197:  0.00 198:  0.00 199:  0.00 200:  0.00
 201:  0.00 202:  0.00 203:  0.00 204:  0.00 205:  0.00 206:  0.00 207:  0.00 208:  0.00
 209:  0.00 210:  0.00 211:  0.00 212:  0.00 213:  0.00 214:  0.00 215:  0.00 216:  0.00
 217:  0.00 218:  0.00 219:  0.00
 output can be read by thermo (or use thermo option).
 writing <g98.out> molden fake output.
 recommended (thermochemical) frequency scaling factor: 1.0
           -------------------------------------------------
          |             Thermodynamic Functions             |
           -------------------------------------------------

Molecule has no symmetry elements
It seems to be the C1 point group
c1  symmetry found (for desy threshold:  0.10E+00) used in thermo

          ...................................................
          :                      SETUP                      :
          :.................................................:
          :  # frequencies                         213      :
          :  # imaginary freq.                       0      :
          :  linear?                             false      :
          :  only rotor calc.                    false      :
          :  symmetry                               c1      :
          :  rotational number                       1      :
          :  scaling factor                  1.0000000      :
          :  rotor cutoff                   50.0000000 cm⁻¹ :
          :  imag. cutoff                  -20.0000000 cm⁻¹ :
          :.................................................:

    mode    ω/cm⁻¹     T·S(HO)/kcal·mol⁻¹    T·S(FR)/kcal·mol⁻¹   T·S(vib)
   ------------------------------------------------------------------------
       1     10.68    -2.34957 (  0.21%)    -1.51382 ( 99.79%)    -1.51555
       2     19.18    -2.00266 (  2.12%)    -1.34031 ( 97.88%)    -1.35436
       3     23.21    -1.88996 (  4.43%)    -1.28392 ( 95.57%)    -1.31079
       4     24.25    -1.86401 (  5.24%)    -1.27093 ( 94.76%)    -1.30201
       5     25.88    -1.82548 (  6.70%)    -1.25164 ( 93.30%)    -1.29006
       6     30.19    -1.73436 ( 11.73%)    -1.20602 ( 88.27%)    -1.26798
       7     48.27    -1.45703 ( 46.49%)    -1.06695 ( 53.51%)    -1.24830
       8     54.06    -1.39033 ( 57.74%)    -1.03343 ( 42.26%)    -1.23950
       9     69.38    -1.24351 ( 78.76%)    -0.95948 ( 21.24%)    -1.18318
      10     80.91    -1.15342 ( 87.27%)    -0.91395 ( 12.73%)    -1.12295
      11     96.70    -1.04939 ( 93.33%)    -0.86113 (  6.67%)    -1.03684
      12     98.38    -1.03940 ( 93.75%)    -0.85604 (  6.25%)    -1.02793
      13    106.16    -0.99522 ( 95.31%)    -0.83350 (  4.69%)    -0.98764
      14    124.38    -0.90375 ( 97.45%)    -0.78658 (  2.55%)    -0.90077
      15    130.89    -0.87447 ( 97.91%)    -0.77147 (  2.09%)    -0.87232
      16    136.19    -0.85171 ( 98.22%)    -0.75970 (  1.78%)    -0.85007
      17    145.42    -0.81435 ( 98.62%)    -0.74028 (  1.38%)    -0.81333
      18    147.24    -0.80725 ( 98.69%)    -0.73658 (  1.31%)    -0.80632
      19    148.30    -0.80319 ( 98.72%)    -0.73447 (  1.28%)    -0.80231
      20    148.82    -0.80120 ( 98.74%)    -0.73343 (  1.26%)    -0.80035
      21    199.08    -0.63852 ( 99.60%)    -0.64724 (  0.40%)    -0.63856
      22    202.47    -0.62926 ( 99.63%)    -0.64224 (  0.37%)    -0.62931
      23    219.79    -0.58461 ( 99.73%)    -0.61791 (  0.27%)    -0.58470
      24    250.55    -0.51482 ( 99.84%)    -0.57911 (  0.16%)    -0.51492
      25    253.25    -0.50920 ( 99.85%)    -0.57594 (  0.15%)    -0.50930
      26    268.89    -0.47803 ( 99.88%)    -0.55818 (  0.12%)    -0.47812
      27    269.44    -0.47698 ( 99.88%)    -0.55758 (  0.12%)    -0.47708
      28    270.31    -0.47532 ( 99.88%)    -0.55663 (  0.12%)    -0.47541
      29    275.23    -0.46604 ( 99.89%)    -0.55128 (  0.11%)    -0.46614
      30    281.90    -0.45382 ( 99.90%)    -0.54419 (  0.10%)    -0.45391
      31    284.12    -0.44984 ( 99.90%)    -0.54187 (  0.10%)    -0.44992
   ------------------------------------------------------------------------

   temp. (K)  partition function   enthalpy   heat capacity  entropy
                                   cal/mol     cal/K/mol   cal/K/mol   J/K/mol
 298.15  VIB  0.482E+16            20970.044    135.376    128.294
         ROT  0.636E+08              888.752      2.981     38.690
         INT  0.307E+24            21858.796    138.357    166.983
         TR   0.142E+29             1481.254      4.968     45.032
         TOT                       23340.0498   143.3253   212.0154   887.0723

       T/K    H(0)-H(T)+PV         H(T)/Eh          T*S/Eh         G(T)/Eh
   ------------------------------------------------------------------------
    298.15    0.371947E-01    0.584208E+00    0.100735E+00    0.483472E+00
   ------------------------------------------------------------------------

         :::::::::::::::::::::::::::::::::::::::::::::::::::::
         ::                  THERMODYNAMIC                  ::
         :::::::::::::::::::::::::::::::::::::::::::::::::::::
         :: total free energy        -116.528701206517 Eh   ::
         ::.................................................::
         :: total energy             -117.012173493757 Eh   ::
         :: zero point energy           0.547012898543 Eh   ::
         :: G(RRHO) w/o ZPVE           -0.063540611303 Eh   ::
         :: G(RRHO) contrib.            0.483472287240 Eh   ::
         :::::::::::::::::::::::::::::::::::::::::::::::::::::

optimized geometry written to: xtbopt.xyz


           -------------------------------------------------
          | TOTAL ENERGY             -117.012173493757 Eh   |
          | TOTAL ENTHALPY           -116.427965858339 Eh   |
          | TOTAL FREE ENERGY        -116.528701206517 Eh   |
          | GRADIENT NORM               0.000050784027 Eh/α |
           -------------------------------------------------

------------------------------------------------------------------------
 * finished run on 2025/08/30 at 20:00:21.164     
------------------------------------------------------------------------
 total:
 * wall-time:     0 d,  0 h,  0 min,  7.125 sec
 *  cpu-time:     0 d,  0 h,  4 min, 13.022 sec
 * ratio c/w:    35.512 speedup
 SCF:
 * wall-time:     0 d,  0 h,  0 min,  0.346 sec
 *  cpu-time:     0 d,  0 h,  0 min, 13.353 sec
 * ratio c/w:    38.610 speedup
 ANC optimizer:
 * wall-time:     0 d,  0 h,  0 min,  1.898 sec
 *  cpu-time:     0 d,  0 h,  1 min, 15.898 sec
 * ratio c/w:    39.993 speedup
 analytical hessian:
 * wall-time:     0 d,  0 h,  0 min,  4.666 sec
 *  cpu-time:     0 d,  0 h,  2 min, 38.942 sec
 * ratio c/w:    34.067 speedup

