$hessian                                                                        
        0.5006061758   0.0144620044   0.0136983215  -0.0641550664   0.0140650097
       -0.0145307878   0.0023727168  -0.0114348338   0.0056506113   0.0038284336
       -0.0035814929  -0.0039435639  -0.0000731356  -0.0004323980   0.0004345601
       -0.0000671590  -0.0001126184   0.0001166541  -0.0008369554   0.0003266861
        0.0007682628  -0.0000574956  -0.0002212008   0.0001603459  -0.0000254059
       -0.0000110999   0.0000433256   0.0000007381   0.0000312007  -0.0000168517
        0.0000040294   0.0000068495  -0.0000206596  -0.0000109090   0.0000016139
        0.0000034289   0.0000086957  -0.0000017776  -0.0000085239  -0.0000050299
        0.0000025149   0.0000135710  -0.0000023087   0.0000031947  -0.0000057831
       -0.0000034493   0.0000037754  -0.0000072943   0.0000021788  -0.0000034206
        0.0000004044  -0.0000081343   0.0000099473  -0.0000087834   0.0024117485
       -0.0013694155  -0.0050116761  -0.0001205117   0.0002758440  -0.0002493836
        0.0000238026   0.0000160949  -0.0000266407  -0.0000112833   0.0000194468
        0.0000184840  -0.0000090459   0.0000039152   0.0000088384   0.0000166109
        0.0000014489  -0.0000027147  -0.0000036189  -0.0000043137   0.0000076800
       -0.0000132742   0.0000020626   0.0000113174  -0.0000005823   0.0000076748
        0.0000014746   0.0000172400  -0.0000133943   0.0000231850   0.0000236717
        0.0000133143  -0.0000190077   0.0000140746  -0.0000020330   0.0000184552
        0.0000246513  -0.0000660737   0.0000251691  -0.0000002177   0.0000079266
       -0.0000054386  -0.0000045441   0.0000047131  -0.0000005581   0.0000028896
       -0.0000015964   0.0000072400  -0.0000046509   0.0000155458   0.0000049928
        0.0000188707  -0.0000403620   0.0000201308  -0.0000108120   0.0000356134
       -0.0000180440  -0.0000011765  -0.0000049393  -0.0000031686   0.0000013110
        0.0000011842   0.0000064311  -0.0000087804   0.0000051294  -0.0000131733
        0.0000018135  -0.0000070735  -0.0000030701   0.0000002962  -0.0001164272
       -0.0001484563  -0.0000598420   0.0000165859  -0.0000261030  -0.0000161904
       -0.0000114887   0.0000162779  -0.0000174977  -0.0000051618   0.0000262018
        0.0000072224   0.0000022868  -0.0000152217  -0.0000036243   0.0000153587
       -0.0000179017   0.0000224887   0.0000106765   0.0000018382  -0.0000016923
        0.0000020596  -0.0000043459   0.0000358660  -0.0000123243   0.0000310594
       -0.0000163635  -0.0000097360   0.0000063135   0.0000154331   0.0000060567
        0.0000127153   0.0000045496   0.0000048235  -0.0000025214  -0.0000027055
       -0.0000009220  -0.0000018162  -0.0000050576  -0.0000008290   0.0000040844
        0.0000008570  -0.0000031153  -0.0000059944   0.0000137661   0.0000117593
        0.0000080892  -0.0000084933  -0.0000135945  -0.0000051258   0.0000017694
        0.0000011237  -0.0000000622  -0.0000028220   0.0000024236   0.0000071960
       -0.0000108151  -0.0000017305   0.0000013046   0.0000002877   0.0000024796
        0.0000018563  -0.0029418447   0.0116199124  -0.0119392730  -0.0025906171
        0.0011415511   0.0010435856  -0.0872866019   0.0801770362   0.0475106227
       -0.2283951701  -0.0671112272   0.0708499182  -0.1215072441  -0.0379385019
       -0.1047082198  -0.0011410056  -0.0003619638   0.0022653172  -0.0000333338
       -0.0000957567  -0.0000191118   0.0000056211  -0.0000920604  -0.0000242351
        0.0000436051   0.0000604644   0.0000763146  -0.0000016138  -0.0000001372
       -0.0000181883   0.0000050210   0.0001384641  -0.0000878969   0.0000074606
       -0.0000052218   0.0000067100   0.0000027076  -0.0000038011   0.0000061320
        0.0000007141  -0.0000005678   0.0000002533  -0.0000011753  -0.0000007953
        0.0000027795   0.0000013247  -0.0000012485   0.0000008783  -0.0000020020
       -0.0000004637   0.0000023909   0.0000021716   0.0000003159   0.0000030518
        0.0000016341  -0.0000043507   0.0000010507   0.0000034782  -0.0000022631
        0.0000014797   0.0000058308  -0.0000020012   0.0000047330  -0.0000033325
        0.0000068873   0.0000074102   0.0000053518   0.0000012429  -0.0000149676
        0.0000039467  -0.0000027065  -0.0000016463  -0.0000002073  -0.0000031363
       -0.0000084246  -0.0000086274  -0.0000037246  -0.0000063517   0.0000025744
       -0.0000013207  -0.0000041269  -0.0000096569  -0.0000033602  -0.0000096551
       -0.0000062759   0.0000076739  -0.0000128194  -0.0000125586   0.0000025300
       -0.0000032612  -0.0000051374   0.0000024709  -0.0000020993  -0.0000039313
        0.0000199143  -0.0000290150   0.0000018746  -0.0000205051  -0.0000089259
        0.0000010300  -0.0000004115  -0.0000020750  -0.0000011751   0.0000013359
       -0.0000061880   0.0000010456   0.0000005071   0.0000004218  -0.0000018244
        0.0000003738   0.0000011716  -0.0000009859   0.0000024558  -0.0000011595
       -0.0000009592   0.0000025204  -0.0000018459   0.0000011563  -0.0000011813
       -0.0000026500  -0.0000032412  -0.0000015354  -0.0000018678  -0.0000010050
        0.0000061828   0.0000002790  -0.0000005837   0.0000022893  -0.0000009712
       -0.0000431886   0.0000417069   0.0000114770   0.0000190051  -0.0000124416
       -0.0000212786   0.0000156108   0.0000142864  -0.0000043291   0.0000064572
       -0.0000007689  -0.0000022072   0.0000026814  -0.0000025892  -0.0000010527
        0.0000077319  -0.0000002415   0.0000001517   0.0000044924  -0.0000017355
       -0.0000073755   0.0000010000   0.0000010997  -0.0000059881   0.0000011294
       -0.0000011067   0.0000009695   0.0000000680   0.0000009888  -0.0000003512
        0.0000079416  -0.0000115214  -0.0000041294  -0.0000002058   0.0000055680
       -0.0000083730   0.0000030280  -0.0000010907  -0.0000036465  -0.0000019518
       -0.0000002922  -0.0000008001  -0.0000010104   0.0000017668  -0.0000006278
       -0.0000017478  -0.0000009861  -0.0000018246   0.0000015070  -0.0000001457
       -0.0000003469   0.0000017795  -0.0000007947  -0.0000006247  -0.0000016888
       -0.0000019697  -0.0000019126   0.0000012559   0.0000011965  -0.0000037232
        0.0000018437  -0.0000017026  -0.0000044329   0.0000041052   0.0000002362
       -0.0000011376  -0.0004028695  -0.0002206477  -0.0017627298   0.0000401092
        0.0002982184  -0.0001908271   0.0002929407   0.0004421084   0.0001084465
        0.0144620044   0.4810453812   0.0232037753   0.0105744810  -0.1513821119
        0.0686991222  -0.0014572831  -0.0316000249   0.0174840371  -0.0043580926
       -0.0014425877  -0.0014192523   0.0000929538  -0.0010760054   0.0006918902
        0.0003970511  -0.0002731132   0.0006369033   0.0004668642  -0.0000649872
       -0.0002101605  -0.0000145317   0.0000139632  -0.0000048506  -0.0000899704
       -0.0000231507   0.0001012660   0.0000604495   0.0000112769  -0.0000460082
       -0.0000046691   0.0000284546  -0.0000658612  -0.0000564969   0.0000107857
       -0.0000086776   0.0001465766   0.0000014638  -0.0001127868  -0.0001268219
        0.0000200895   0.0001111690   0.0000139755  -0.0000172298   0.0000133259
       -0.0000106660   0.0000032632  -0.0000219769   0.0000041835  -0.0000184234
        0.0000546728   0.0000516104  -0.0000104312   0.0000073696  -0.0021142456
        0.0014759048  -0.0000822109  -0.0000958563  -0.0000474655  -0.0001415101
       -0.0000185734   0.0000319555   0.0000294500   0.0000225526  -0.0000039802
       -0.0000460337  -0.0000123865  -0.0000045902  -0.0000001033   0.0000037658
       -0.0000082907  -0.0000117998   0.0000084630  -0.0000029021   0.0000049680
        0.0000033868   0.0000088311  -0.0000010910  -0.0000098635   0.0000086444
        0.0000175807  -0.0000014253   0.0000004921  -0.0000064291  -0.0000111136
       -0.0000380007  -0.0000380863  -0.0000759718   0.0000215583  -0.0000284647
       -0.0000067803   0.0000208860  -0.0000028053   0.0000264545  -0.0000193449
        0.0000187911  -0.0000102475   0.0000170238  -0.0000101919  -0.0000074092
        0.0000050296  -0.0000259366   0.0000074798  -0.0000279082  -0.0000106438
       -0.0000318628   0.0000693540  -0.0000299218   0.0000206884  -0.0000590690
        0.0000301921   0.0000004335   0.0000075807   0.0000077597  -0.0000054607
       -0.0000047332  -0.0000153571   0.0000135464   0.0000005983   0.0000225715
       -0.0000004510   0.0000161704   0.0000018786   0.0000408743  -0.0000403622
        0.0000275743  -0.0000151624   0.0000167600  -0.0000296148  -0.0000049706
        0.0000033639  -0.0000526872   0.0000323687  -0.0000100411  -0.0000000248
        0.0000046966  -0.0000095382  -0.0000079500   0.0000049225   0.0000135739
       -0.0000143290  -0.0000152869   0.0000095100   0.0000017656  -0.0000005017
        0.0000005517  -0.0000012663  -0.0000227870   0.0000028624   0.0000253030
        0.0000180586   0.0000118488  -0.0000062314  -0.0000142904  -0.0000095202
       -0.0000086428   0.0000202420   0.0000069745   0.0000153163  -0.0000075502
       -0.0000036307  -0.0000040990  -0.0000099722  -0.0000028687   0.0000045446
       -0.0000001476   0.0000095058   0.0000144861  -0.0000450271  -0.0000329044
       -0.0000229403   0.0000379651   0.0000380898   0.0000182522  -0.0000017297
       -0.0000044432   0.0000058468   0.0000045762  -0.0000049788  -0.0000038158
        0.0000184439   0.0000042453  -0.0000030653   0.0000005902  -0.0000090664
       -0.0000121016   0.0041795587   0.0006955280   0.0062545018  -0.0001625794
       -0.0022664530  -0.0011452408   0.0794232866  -0.1740024661  -0.0840064069
       -0.0634075636  -0.0604232990   0.0238140779  -0.0378956280  -0.0616752321
       -0.0523329280   0.0017714095   0.0004790770   0.0010096467  -0.0000912298
       -0.0002590859  -0.0000676795  -0.0001180153  -0.0001237112   0.0000270817
        0.0001242125   0.0000762344   0.0000940021   0.0000208055  -0.0000757623
        0.0000430646  -0.0000098091  -0.0000368034   0.0000596509   0.0000175316
       -0.0000024021   0.0000069061  -0.0000046406  -0.0000062787   0.0000241885
       -0.0000023849  -0.0000027813  -0.0000102520  -0.0000042519  -0.0000018062
        0.0000074085   0.0000043165   0.0000035209  -0.0000032446  -0.0000073586
       -0.0000004826   0.0000039845   0.0000071775   0.0000007669   0.0000001347
        0.0000060360  -0.0000107942   0.0000061507  -0.0000214392   0.0000014189
        0.0000016943   0.0000180467  -0.0000080508  -0.0000069079  -0.0000021288
       -0.0000166469  -0.0000021029  -0.0000074262   0.0000032207  -0.0000043642
        0.0000019137   0.0000190782   0.0000134538   0.0000015095   0.0000031451
       -0.0000002315   0.0000059616   0.0000045750   0.0000060077  -0.0000030675
        0.0000141559   0.0000068208   0.0000163833   0.0000089209   0.0000095517
       -0.0000052301  -0.0000039274   0.0000021140   0.0000124106   0.0000016370
        0.0000059225  -0.0000055099   0.0000071566   0.0000044532   0.0000027992
       -0.0000017540   0.0000175848  -0.0000177339  -0.0000104183   0.0000383186
       -0.0000013721   0.0000055709   0.0000058589   0.0000032928  -0.0000016188
        0.0000117155  -0.0000024248   0.0000023803  -0.0000019593   0.0000029667
        0.0000015136  -0.0000076858   0.0000018700  -0.0000025959   0.0000032428
        0.0000019340  -0.0000056153   0.0000005350  -0.0000026428   0.0000030812
        0.0000025670   0.0000051971   0.0000076481   0.0000010382  -0.0000002647
       -0.0000079800  -0.0000016579  -0.0000045677   0.0000028976   0.0000029990
       -0.0000008282  -0.0000411005   0.0000182762  -0.0000206925   0.0000246811
        0.0000502625   0.0000358287  -0.0000208542   0.0000148811  -0.0000061107
       -0.0000020442   0.0000084147  -0.0000022212   0.0000152151   0.0000047169
        0.0000071238  -0.0000092630   0.0000009905  -0.0000031336  -0.0000081893
        0.0000188828  -0.0000024738  -0.0000038317   0.0000102614   0.0000075505
       -0.0000003844   0.0000052605   0.0000003986  -0.0000027753  -0.0000010090
       -0.0000174441  -0.0000066492   0.0000090846  -0.0000024101   0.0000070678
       -0.0000062276  -0.0000024437   0.0000001933   0.0000003195   0.0000049319
        0.0000010453  -0.0000004806   0.0000005679  -0.0000012692  -0.0000014369
        0.0000011840   0.0000003378   0.0000030205  -0.0000013997   0.0000000278
       -0.0000008895  -0.0000028670  -0.0000003872  -0.0000006742   0.0000022293
       -0.0000000898   0.0000012044  -0.0000017333  -0.0000011976   0.0000023709
        0.0000007532   0.0000020202   0.0000057993  -0.0000025197  -0.0000001432
        0.0000005118  -0.0000709737   0.0004582800  -0.0013066222  -0.0001188319
       -0.0000889186  -0.0002052627  -0.0015578889   0.0005983783  -0.0012685540
        0.0136983215   0.0232037753   0.4948879003  -0.0128807470   0.0748216120
       -0.1233715437   0.0001237975   0.0025060403   0.0014559516  -0.0031897844
       -0.0000098605   0.0026801391   0.0000096706  -0.0002160025  -0.0000003526
       -0.0001815657  -0.0001216568  -0.0001644304   0.0005390626  -0.0001497888
       -0.0002892769   0.0000802760   0.0001390957  -0.0001324111   0.0000731986
        0.0000365066  -0.0000810204  -0.0000344993  -0.0000243676   0.0000413647
       -0.0000062617  -0.0000169002   0.0000470661   0.0000278822  -0.0000059127
        0.0000130162  -0.0000894449  -0.0000018801   0.0000715213   0.0000769726
       -0.0000158614  -0.0000688413  -0.0000115616   0.0000075437  -0.0000095074
        0.0000050958  -0.0000063245   0.0000160743  -0.0000019317   0.0000111360
       -0.0000266082  -0.0000393567   0.0000071728  -0.0000081681  -0.0053294110
        0.0002502258  -0.0015048865   0.0000437623   0.0006131374  -0.0004141585
        0.0000209833   0.0000013608  -0.0000147105  -0.0000049637   0.0000026081
        0.0000324773   0.0000311163  -0.0000056156   0.0000276289   0.0000089988
        0.0000209178   0.0000208396  -0.0000006966  -0.0000074024   0.0000026571
        0.0000065923  -0.0000088385  -0.0000035485   0.0000421819  -0.0000088055
       -0.0000289438  -0.0000122385   0.0000011506   0.0000040393   0.0000386840
        0.0000019821  -0.0000353058   0.0000547578   0.0000057034   0.0000346064
        0.0000123663  -0.0000277930   0.0000085261  -0.0000260855   0.0000248385
       -0.0000072238   0.0000087038  -0.0000137865   0.0000097906   0.0000034641
       -0.0000035687   0.0000124999  -0.0000022049   0.0000153420   0.0000105485
        0.0000247080  -0.0000562064   0.0000251909  -0.0000134874   0.0000498609
       -0.0000225884  -0.0000019233  -0.0000082983  -0.0000092834   0.0000026645
        0.0000018370   0.0000097287  -0.0000115941   0.0000056155  -0.0000165007
        0.0000003420  -0.0000199836  -0.0000134754  -0.0000902561  -0.0001514422
       -0.0001398665   0.0000362823  -0.0000472573   0.0000091639  -0.0000194880
       -0.0000850237   0.0001195120  -0.0000376461   0.0000402237   0.0000188874
        0.0000013801  -0.0000049576   0.0000113776  -0.0000011778  -0.0000033724
        0.0000065183   0.0000377181   0.0000002045   0.0000161147   0.0000002757
        0.0000041000  -0.0000019527   0.0000686162  -0.0000146239  -0.0000158624
       -0.0000221398  -0.0000027269   0.0000057173   0.0000040352   0.0000089618
        0.0000155766  -0.0000238323  -0.0000042118  -0.0000142965   0.0000109001
        0.0000062140   0.0000042903   0.0000142913   0.0000024373  -0.0000072225
       -0.0000012012  -0.0000098421  -0.0000196408   0.0000512710   0.0000364829
        0.0000273163  -0.0000433051  -0.0000415141  -0.0000160874   0.0000066014
       -0.0000007742  -0.0000077458  -0.0000036299   0.0000052656   0.0000043545
       -0.0000226606  -0.0000026540   0.0000044440  -0.0000003828   0.0000067943
        0.0000127305  -0.0071724821   0.0179274699  -0.0212190982   0.0018168558
        0.0010345622  -0.0013648994   0.0485129338  -0.0888145273  -0.0943490390
        0.0684335130   0.0232595607  -0.0689741607  -0.1047425048  -0.0527200669
       -0.1869402088   0.0009199319  -0.0022603704   0.0004552206  -0.0000538408
       -0.0000501909   0.0000304721   0.0000108438  -0.0000169214  -0.0000067943
        0.0000276070   0.0000030816   0.0000126823   0.0000616207  -0.0000393406
        0.0000604507   0.0000029723  -0.0000546748   0.0000075529  -0.0000108360
        0.0000003083  -0.0000053882   0.0000018461   0.0000057329  -0.0000169250
        0.0000044090   0.0000037272   0.0000064300   0.0000039961   0.0000015736
       -0.0000047000  -0.0000024233  -0.0000011551   0.0000008061   0.0000055347
        0.0000009534  -0.0000054929  -0.0000056299   0.0000001412  -0.0000015119
       -0.0000051718   0.0000099329  -0.0000030352   0.0000142507  -0.0000007976
       -0.0000033096   0.0000021563   0.0000038589  -0.0000001500  -0.0000264291
        0.0000326249   0.0000174197  -0.0000051445   0.0000054042  -0.0000043913
       -0.0000130707   0.0000049728  -0.0000041254  -0.0000022724   0.0000004742
       -0.0000051821  -0.0000174718  -0.0000060593  -0.0000092029  -0.0000001023
       -0.0000023367  -0.0000039450  -0.0000308833  -0.0000037413  -0.0000028380
       -0.0000043426   0.0000024323   0.0000094963  -0.0000165870   0.0000013291
        0.0000047173  -0.0000048835   0.0000011457   0.0000011440  -0.0000359304
        0.0000053210  -0.0000091816   0.0000246563  -0.0000656631  -0.0000922264
        0.0000031317  -0.0000023119   0.0000009522  -0.0000019015   0.0000021757
       -0.0000046790   0.0000022415  -0.0000007820   0.0000021014  -0.0000029748
        0.0000000581   0.0000078340  -0.0000005584   0.0000028048  -0.0000007582
       -0.0000011586   0.0000033815   0.0000000627   0.0000012126  -0.0000024950
        0.0000003307  -0.0000032100  -0.0000046132  -0.0000002894  -0.0000003316
        0.0000083225   0.0000032554   0.0000025466   0.0000014451   0.0000040888
       -0.0000852286   0.0001064207  -0.0000051657   0.0000105502   0.0000048767
       -0.0000607680  -0.0000114703   0.0000296499  -0.0000308275   0.0000115930
        0.0000041333  -0.0000158115  -0.0000004852  -0.0000072261  -0.0000083330
       -0.0000016422   0.0000083482  -0.0000029019  -0.0000014072   0.0000076305
       -0.0000378670   0.0000003663   0.0000063723  -0.0000165534  -0.0000101273
        0.0000009250  -0.0000070402  -0.0000042260   0.0000126507  -0.0000011411
        0.0000198572  -0.0000181604  -0.0000059116  -0.0000043652   0.0000031380
       -0.0000061762   0.0000015671   0.0000003953   0.0000032795  -0.0000083105
       -0.0000006758   0.0000023745  -0.0000030157   0.0000047270   0.0000019007
       -0.0000032938  -0.0000019139  -0.0000020311   0.0000014680   0.0000016013
        0.0000032034   0.0000016056   0.0000015458   0.0000003388  -0.0000048569
       -0.0000012894  -0.0000010540   0.0000011865   0.0000023315  -0.0000041606
       -0.0000016601  -0.0000033704  -0.0000060432   0.0000024242   0.0000021036
        0.0000013200   0.0001254670   0.0002731583   0.0001970188   0.0000374610
        0.0005455781  -0.0001372136  -0.0008270716  -0.0000005903  -0.0006760312
       -0.0641550664   0.0105744810  -0.0128807470   0.3252684213   0.1337041926
        0.2020919832  -0.1130434100  -0.0837549391  -0.0519740170   0.0147623090
       -0.0248490993   0.0399982614   0.0049126635  -0.0002551336  -0.0037330447
       -0.0250055293  -0.0188354356  -0.0214872329  -0.0003486069   0.0001133123
       -0.0002844002   0.0001765051  -0.0000884659   0.0001363954   0.0000243794
       -0.0000017418   0.0000586203   0.0000083142   0.0000237260  -0.0000456494
       -0.0000217986   0.0000135465  -0.0000328196  -0.0000435679   0.0000078025
       -0.0000029287   0.0000849729   0.0000009032  -0.0000652701  -0.0000743697
        0.0000148357   0.0000644079   0.0000032153  -0.0000118230   0.0000058969
       -0.0000086773  -0.0000027404  -0.0000104768  -0.0000074785  -0.0000129444
        0.0000353157   0.0000139917  -0.0000124595   0.0000344630   0.0041025893
        0.0418458350  -0.0242156796   0.0038436632  -0.0004047606  -0.0018158919
       -0.0002501663   0.0001500153   0.0006819773   0.0001485994   0.0001064894
       -0.0001301137   0.0000176086   0.0000131733   0.0000084045   0.0000291991
        0.0000901841   0.0000137671   0.0000292022   0.0000069776   0.0000057882
       -0.0000258554   0.0000101943   0.0000095269  -0.0000436971   0.0000176200
       -0.0000639778   0.0000106487   0.0000099204  -0.0000090381  -0.0000344922
       -0.0001026016  -0.0001084568  -0.0001212113  -0.0000895960   0.0000912340
       -0.0000078324  -0.0000063953   0.0000092181   0.0000049297  -0.0000151632
        0.0000190304   0.0000009775   0.0000049634  -0.0000037187  -0.0000036566
       -0.0000020833  -0.0000227872   0.0000051730  -0.0000158996  -0.0000018571
       -0.0000163442   0.0000313298  -0.0000124041   0.0000140354  -0.0000260752
        0.0000175427   0.0000028174   0.0000008413   0.0000020841   0.0000004229
       -0.0000027074  -0.0000060544   0.0000064851   0.0000012153   0.0000091378
        0.0000017270   0.0000081775   0.0000015045  -0.0007310509   0.0002853207
       -0.0007239806  -0.0001022804   0.0000195726   0.0001067659  -0.0001113692
        0.0001633142   0.0001690187   0.0000839490   0.0000116786   0.0000977405
        0.0000027116  -0.0000048083   0.0000095035  -0.0000251603   0.0000149580
        0.0000108569  -0.0000253770   0.0000969926  -0.0000397515   0.0000125275
        0.0000095709  -0.0000225529   0.0000296249   0.0000033946  -0.0001583913
        0.0000117840  -0.0000117098   0.0000117542   0.0000144517   0.0000045162
       -0.0000140491   0.0000031220   0.0000042240   0.0000010677  -0.0000044075
       -0.0000016195   0.0000020224  -0.0000003122   0.0000005047  -0.0000009166
       -0.0000007832   0.0000020729  -0.0000007610  -0.0000010226  -0.0000031625
        0.0000018639   0.0000015847   0.0000085541   0.0000019557   0.0000036193
       -0.0000016368  -0.0000007478   0.0000011355  -0.0000005911   0.0000018419
        0.0000030060   0.0000040615   0.0000011302   0.0000049290  -0.0000017023
       -0.0000064159  -0.1288524953  -0.0362125128  -0.0976246636  -0.0107960133
       -0.0084915601  -0.0132503821  -0.0008976435   0.0111170037  -0.0081619268
        0.0032057389  -0.0202814639   0.0163303008  -0.0034559917   0.0123529415
       -0.0128624282  -0.0091470740  -0.0151213690  -0.0072983234   0.0005941308
        0.0008461439   0.0000107672  -0.0004200965  -0.0015954559  -0.0001457657
        0.0000396062   0.0000891090  -0.0000168026   0.0002476317   0.0002721002
        0.0000281242  -0.0000754495  -0.0001486561  -0.0000067172   0.0000132852
       -0.0000017754   0.0000015300   0.0000003986  -0.0000041689   0.0000099564
       -0.0000001754  -0.0000029165  -0.0000059972   0.0000002541  -0.0000020692
        0.0000028807   0.0000020394   0.0000012354  -0.0000028131  -0.0000036558
       -0.0000000179  -0.0000003706   0.0000047200  -0.0000004072  -0.0000002428
        0.0000046060  -0.0000055954   0.0000000142  -0.0000121326   0.0000002198
        0.0000007012   0.0000128958  -0.0000050795  -0.0000047731  -0.0000588896
       -0.0000226512  -0.0000272032  -0.0000002078   0.0000038055   0.0000242893
       -0.0000058270   0.0000166813   0.0000230402   0.0000039683   0.0000031855
        0.0000088479   0.0000052314   0.0000055287   0.0000106996   0.0000010402
        0.0000121876   0.0000089881   0.0000173804  -0.0000043670   0.0000220759
       -0.0000124841  -0.0000104382   0.0000163332   0.0000113145   0.0000006605
        0.0000079456  -0.0000052334   0.0000102279   0.0000013506  -0.0000365577
        0.0000074545   0.0000537596   0.0001339471   0.0000379071  -0.0000882899
       -0.0000009904   0.0000061068   0.0000046949   0.0000019322  -0.0000013981
        0.0000057052   0.0000001970   0.0000017616  -0.0000003570   0.0000008142
        0.0000012606  -0.0000023590   0.0000008852  -0.0000001383   0.0000020675
        0.0000005276  -0.0000007436   0.0000001193  -0.0000002021   0.0000014351
        0.0000009171   0.0000007766   0.0000031953   0.0000003325   0.0000002205
       -0.0000014890   0.0000009135  -0.0000022103   0.0000038124   0.0000053696
        0.0000023008  -0.0000650682  -0.0000438827  -0.0001093494  -0.0000216336
        0.0001637486   0.0000035828  -0.0000260253  -0.0000183091  -0.0000012676
       -0.0000112608   0.0000088607  -0.0000002606   0.0000130398  -0.0000018284
       -0.0000014726  -0.0000069661  -0.0000092924  -0.0000146258  -0.0000294068
        0.0000060901  -0.0000091686   0.0000031940  -0.0000016109   0.0000106689
        0.0000005692   0.0000038291  -0.0000003616  -0.0000081436  -0.0000021937
        0.0000234178  -0.0000022162  -0.0000148718  -0.0000010186  -0.0000179918
        0.0000015234  -0.0000029904  -0.0000018442   0.0000009856  -0.0000012067
       -0.0000005274   0.0000020689  -0.0000006473   0.0000012334   0.0000006508
       -0.0000011719   0.0000003829   0.0000018794  -0.0000011887  -0.0000001536
        0.0000009927  -0.0000016966  -0.0000002783   0.0000016620  -0.0000001756
       -0.0000006250   0.0000003969  -0.0000012247   0.0000009152   0.0000010358
       -0.0000009524  -0.0000001105   0.0000027168  -0.0000057448  -0.0000014354
        0.0000036840   0.0002666121   0.0001363802  -0.0012296421  -0.0004313650
       -0.0024169709  -0.0013193935   0.0003273225   0.0007120756  -0.0004773573
        0.0140650097  -0.1513821119   0.0748216120   0.1337041926   0.6040878290
       -0.0586350626  -0.1260764469  -0.2641231254  -0.0652986257   0.0050001461
       -0.0595270833   0.0413939462  -0.0011640195  -0.0008253205   0.0034251889
       -0.0192431243  -0.0155980553  -0.0248387101  -0.0003492682  -0.0001640805
       -0.0000543647  -0.0000055604  -0.0000776640   0.0001461329   0.0000674184
        0.0000055443   0.0000362206   0.0000298020   0.0000101182  -0.0000381248
        0.0000126077   0.0000038825  -0.0000074495   0.0000334293  -0.0000049273
       -0.0000049611  -0.0000330199  -0.0000021946   0.0000201987   0.0000330904
       -0.0000096839  -0.0000297778  -0.0000028551   0.0000021375  -0.0000025325
        0.0000066629  -0.0000029247   0.0000051362   0.0000020804   0.0000144551
       -0.0000352455   0.0000209287   0.0000010886   0.0000073189   0.0170455887
        0.0283124699   0.0093167297  -0.0003973214  -0.0012747745   0.0043353627
       -0.0003679627  -0.0004188776  -0.0003843474  -0.0000732408   0.0000564639
        0.0001045780  -0.0000358030   0.0000468434  -0.0001040465   0.0000589659
        0.0000061554   0.0000006733  -0.0000352179  -0.0000251185  -0.0000363480
       -0.0000189853   0.0000163280   0.0000164491   0.0000296870  -0.0000576531
       -0.0000739916  -0.0000219282   0.0000055379   0.0000240647   0.0000951658
        0.0000521955  -0.0001156287  -0.0002675827   0.0001045545   0.0000404506
        0.0000410548  -0.0001999126   0.0000740986  -0.0000118674   0.0000106441
        0.0000019276  -0.0000020070   0.0000092519  -0.0000067555  -0.0000007843
        0.0000129112   0.0000071912  -0.0000087544   0.0000379155   0.0000092671
        0.0000394136  -0.0000754020   0.0000405935  -0.0000247686   0.0000842871
       -0.0000464365  -0.0000055161  -0.0000049900  -0.0000056362  -0.0000037759
        0.0000047361   0.0000069615  -0.0000257027   0.0000175103  -0.0000374742
       -0.0000049840  -0.0000064796  -0.0000096514   0.0002834588   0.0007055245
        0.0002816631  -0.0001664969  -0.0000731209   0.0002193219   0.0000438432
        0.0000816263  -0.0000473356  -0.0000127314  -0.0000584850  -0.0000112547
        0.0000271947  -0.0000072111  -0.0000109375  -0.0000037335   0.0000008258
       -0.0000120262  -0.0000400444  -0.0000488334  -0.0000452920  -0.0000069846
        0.0000126995  -0.0000243428   0.0000196788  -0.0000565674   0.0001608863
       -0.0000168869  -0.0000206289  -0.0000252076   0.0000274930   0.0000159131
        0.0000203411   0.0000224050   0.0000141381   0.0000076062  -0.0000107320
       -0.0000061372  -0.0000084277  -0.0000067306   0.0000019876   0.0000001719
       -0.0000050594  -0.0000054345  -0.0000181307   0.0000201785   0.0000080119
        0.0000112689  -0.0000183202  -0.0000132409  -0.0000098011  -0.0000017515
       -0.0000021430  -0.0000051110  -0.0000045169   0.0000012518  -0.0000012367
       -0.0000181843   0.0000004424   0.0000020114  -0.0000063853   0.0000000579
       -0.0000022998   0.0015582254  -0.0856882428   0.0206491127  -0.0172206097
       -0.0077777771  -0.0217480526   0.0039825301  -0.0267313069   0.0132758521
       -0.0041315577  -0.0136201850   0.0087667491   0.0007430764   0.0048964326
       -0.0016685467  -0.0028721056  -0.0036160526  -0.0024157803  -0.0003455611
       -0.0013843697  -0.0002430398  -0.0001423684  -0.0002371132   0.0001198520
        0.0001281806   0.0002345295   0.0000812481   0.0000788767   0.0003281959
       -0.0001121367  -0.0000935704   0.0001016996  -0.0000248470  -0.0000064593
        0.0000017860   0.0000001647  -0.0000060282   0.0000016636   0.0000004611
        0.0000004578   0.0000009570   0.0000048301  -0.0000011658   0.0000006195
       -0.0000028423  -0.0000043397  -0.0000015419   0.0000023923   0.0000018315
       -0.0000018056   0.0000009430  -0.0000037734  -0.0000005145   0.0000005696
       -0.0000038161   0.0000028261   0.0000011858  -0.0000058181  -0.0000035519
        0.0000063483  -0.0000211236  -0.0000155534   0.0000177716  -0.0000339225
       -0.0000394199   0.0000474536  -0.0000122677   0.0000103785  -0.0000462244
        0.0000189599  -0.0000086930   0.0000366585  -0.0000018694   0.0000010256
       -0.0000138935  -0.0000177642   0.0000008146   0.0000004505   0.0000129275
       -0.0000055653   0.0000093406  -0.0000184559  -0.0000264063  -0.0000036593
       -0.0000026669   0.0000047490   0.0000013659  -0.0000150217  -0.0000091344
       -0.0000116674   0.0000011871   0.0000035420   0.0000014964  -0.0000314986
        0.0000261336   0.0000020588   0.0002185270  -0.0001316196   0.0000663052