$hessian                                                                        
        0.0737401543  -0.0861824141   0.0685780172  -0.0820321741   0.0780510546
       -0.0614151811   0.0124660540  -0.0090245995   0.0070274541   0.0067230916
       -0.0047030199   0.0034162322   0.0001949486  -0.0005888784   0.0003658213
       -0.0006091232   0.0002564625  -0.0002922404   0.0000026562  -0.0000060577
        0.0000463364  -0.0006164776   0.0001411183  -0.0006317597  -0.0002513969
       -0.0006432433  -0.0001261203  -0.0008119952   0.0195630273  -0.0138136763
       -0.0076897552   0.0004582554   0.0006472222  -0.0012080080   0.0004945175
       -0.0014686003   0.0020077939  -0.0001539224  -0.0001571685  -0.0016950851
        0.0003441753   0.0001288489   0.0002911703  -0.0010285693  -0.0001948835
        0.0000680523   0.0002070258   0.0001384564  -0.0000441675  -0.0001262473
       -0.0000626225  -0.0000368154   0.0000549894   0.0000243955   0.0000165415
       -0.0000773532  -0.0000691694  -0.0001539545   0.0001940329   0.0000890836
       -0.0000506001   0.0000050037  -0.0000049552  -0.0001793329  -0.0001374220
       -0.0000830188   0.0000457231   0.0000608320   0.0000701725  -0.0000507828
       -0.0000386992  -0.0000201015  -0.0000078586   0.0001343888   0.0000622188
        0.0000322418  -0.0002304195  -0.0001209743   0.0005518207   0.0008995580
        0.0001540022   0.0000409082   0.0000138997  -0.0000572782  -0.0000069998
        0.0000063446  -0.0000077452  -0.0000619179   0.0000060893   0.0000087624
        0.0000181937  -0.0000049831   0.0000081460  -0.0000036021   0.0000156753
       -0.0000281310   0.0000306187  -0.0000360602   0.0000987538  -0.0000947097
        0.0000187192  -0.0000099182   0.0000923290  -0.0000129353   0.0000001808
       -0.0000289441   0.0000001464  -0.0000175504   0.0000030700   0.0000022162
        0.0000007196  -0.0000243798   0.0000000440   0.0000015019   0.0001112799
       -0.0000174962  -0.0000005201  -0.0000386800   0.0000050769  -0.0000113554
       -0.0000360712   0.0000154194   0.0000026043  -0.0000148574   0.0000028690
       -0.0000003132  -0.0000033872   0.0000013513   0.0000002643  -0.0000022073
       -0.0000029784  -0.0000031529  -0.0000004647   0.0000027776  -0.0000022981
        0.0000019054   0.0000004523   0.0000029740  -0.0000028853  -0.0000045926
        0.0000025736   0.0000034899  -0.0000053543   0.0000008680  -0.0000302565
        0.0000068727   0.0000158899   0.0000303482   0.0000227229  -0.0000884358
       -0.0000076091  -0.0000156688   0.0000275918   0.0000146502  -0.0000013841
       -0.0000045897  -0.0000643208   0.0000123357  -0.0000099628  -0.0000136037
       -0.0000087297   0.0000132010   0.0000385239  -0.0000251403   0.0000623044
        0.0005104096   0.0006093345  -0.0011589719  -0.0005660956   0.0012159211
       -0.0007248208   0.0001204420  -0.0003001838  -0.0002465981  -0.0000324585
       -0.0000307436  -0.0000395037   0.0001384760  -0.0000723995   0.0000495895
       -0.0000116602   0.0000062434   0.0000093023   0.0000991157  -0.0000977874
        0.0001309860  -0.0000374152  -0.0000322141   0.0003413635  -0.0007381795
        0.0001120500  -0.0000951804   0.0000164355  -0.0001638419  -0.0001208643
        0.0000173776   0.0000273530   0.0000118304  -0.0000337752   0.0000338742
        0.0000178379  -0.0000569350   0.0000242118   0.0000047153  -0.0000625289
       -0.0000052374  -0.0000064172  -0.0000345769  -0.0000261281  -0.0000196381
        0.0000162387  -0.0000292268  -0.0000091920   0.0000427245   0.0001410446
        0.0000983382   0.0000305426   0.0000089261  -0.0000359407   0.0000175682
       -0.0000023958   0.0000012598  -0.0000070177  -0.0000034000   0.0000079659
       -0.0000162059  -0.0000002027   0.0000004880   0.0000164254   0.0000049600
        0.0000070535   0.0000014801  -0.0000053870  -0.0000032089   0.0000046269
       -0.0000001090  -0.0000049198   0.0000038722   0.0000015410  -0.0000006421
        0.0000020604  -0.0000010655   0.0000007758   0.0000018256  -0.0000016494
       -0.0000017006   0.0000045059   0.0000016825  -0.0000007934   0.0000024482
        0.0000037005   0.0000003304   0.0000140980  -0.0000099832  -0.0000089688
       -0.0000140757   0.0000051245  -0.0000034379  -0.0000024641   0.0000049071
       -0.0000098343   0.0000221607  -0.0000043339  -0.0000022860   0.0000399826
       -0.0000163343   0.0000344937  -0.0000298973  -0.0000340500   0.0000507738
       -0.0001326722   0.0007145139  -0.0005670595
       -0.0861824141   0.2989385217  -0.2234775353   0.0810042560  -0.2871811013
        0.1949402725  -0.0028262712   0.0098097789   0.0085342405   0.0085057713
       -0.0130243045   0.0166623322  -0.0012328972  -0.0014902546   0.0018018448
       -0.0013797305   0.0011745742  -0.0003506084   0.0002250802   0.0004587780
        0.0003334987  -0.0024290801   0.0001685581  -0.0002263418   0.0003754212
       -0.0050583961  -0.0036286430  -0.0003152224  -0.0027539103   0.0066492905
        0.0032163046   0.0008035440  -0.0006773815   0.0003400286  -0.0003746408
        0.0003748399  -0.0015819472   0.0001665174  -0.0001431435   0.0011788797
        0.0001960994  -0.0001422041  -0.0001268374   0.0004966305   0.0000931185
       -0.0000359583  -0.0000388030  -0.0001046454   0.0000146944   0.0000882167
        0.0000206930   0.0000476977   0.0000029271  -0.0000078297  -0.0000159758
        0.0000657322   0.0000430426   0.0000641065  -0.0001005600  -0.0000487578
        0.0000319331   0.0000193401   0.0000173058   0.0001736331   0.0001115295
        0.0000750371  -0.0000454377  -0.0000489233  -0.0000613174  -0.0000237665
        0.0000742206   0.0000304193  -0.0000026669  -0.0000967623  -0.0000630232
        0.0000525970   0.0002158459   0.0000164305  -0.0004542547  -0.0007683196
       -0.0000953220  -0.0000487864   0.0000044982   0.0000462011   0.0000434401
        0.0000118712   0.0000151560   0.0000300049   0.0000092671   0.0000044016
       -0.0000128973   0.0000106290  -0.0000011682   0.0000032021   0.0000077781
        0.0000029930   0.0000012382  -0.0000161056  -0.0000264289   0.0000477197
        0.0000511303  -0.0000497745  -0.0000422988  -0.0000055244  -0.0000046352
        0.0000135051  -0.0000013770   0.0000041792  -0.0000050784  -0.0000000361
       -0.0000020157   0.0000066920   0.0000066255   0.0000008297  -0.0000491187
       -0.0000327764   0.0000024765   0.0000142841   0.0000041321  -0.0000009744
        0.0000131278   0.0000085733  -0.0000041493   0.0000092602  -0.0000022164
        0.0000006760   0.0000002505  -0.0000026347  -0.0000019340   0.0000033390
        0.0000029599   0.0000022474  -0.0000033134   0.0000036697   0.0000066039
       -0.0000011987   0.0000004694   0.0000022360   0.0000009581   0.0000032057
        0.0000028098   0.0000023688   0.0000034249  -0.0000009970   0.0000126356
       -0.0000002306  -0.0000115867  -0.0000457621  -0.0000481601   0.0000798217
        0.0000023161   0.0000213786  -0.0000316163  -0.0000130471   0.0000008566
        0.0000006607   0.0000310757  -0.0000018256   0.0000100435   0.0000152662
        0.0000201898  -0.0000083303  -0.0000108024   0.0000245999  -0.0000446833
        0.0001931494  -0.0001648030  -0.0002447952  -0.0012118321  -0.0005232764
        0.0014606445   0.0005927844  -0.0002110933   0.0003765241  -0.0000533276
       -0.0003183763  -0.0003164488   0.0003576747  -0.0004298067   0.0000939633
       -0.0004019838  -0.0006646140  -0.0002332576   0.0009835653  -0.0001327014
       -0.0000728850  -0.0003700550   0.0005993070  -0.0007249598   0.0004013107
       -0.0000583737  -0.0000432180  -0.0000724849  -0.0000078139   0.0000725474
       -0.0000485643   0.0000053073   0.0000022867   0.0000096413  -0.0000191480
       -0.0000150403   0.0000408814  -0.0000215241  -0.0000029364   0.0000303056
       -0.0000040928   0.0000079000   0.0000259080   0.0000085079   0.0000237852
        0.0000302485   0.0000423131   0.0000421074   0.0000140897  -0.0001614678
        0.0000048440  -0.0000191303  -0.0000256469   0.0000252937  -0.0000003972
        0.0000027693  -0.0000131115   0.0000037965   0.0000029426  -0.0000026968
        0.0000039953  -0.0000023783   0.0000000457  -0.0000078735  -0.0000101589
       -0.0000014710  -0.0000013936  -0.0000039954   0.0000020552  -0.0000014551
       -0.0000001217   0.0000032864  -0.0000009863  -0.0000005970   0.0000024317
        0.0000025924  -0.0000009876   0.0000043969  -0.0000001374  -0.0000027917
        0.0000046560  -0.0000025242  -0.0000071296  -0.0000001557  -0.0000059915
       -0.0000033091  -0.0000029433  -0.0000097866   0.0000020052   0.0000027366
        0.0000045421  -0.0000113761  -0.0000010319  -0.0000063595  -0.0000085318
       -0.0000024379  -0.0000185356  -0.0000066777  -0.0000095853  -0.0000317483
       -0.0000154990  -0.0000105488   0.0002727371   0.0000260151  -0.0000839740
        0.0007010207   0.0001879135  -0.0009066623
        0.0685780172  -0.2234775353   0.2479072546  -0.0620766446   0.1905556054
       -0.2222068640  -0.0054627652   0.0293103749  -0.0305197276   0.0016778311
       -0.0025583750   0.0035576479   0.0011244463  -0.0002586907  -0.0014987258
       -0.0001633315   0.0001679576   0.0005354400  -0.0002685662  -0.0002966171
        0.0000912709  -0.0001250624  -0.0000247982  -0.0000192299  -0.0006778815
        0.0001273647   0.0009235272   0.0010434662   0.0070535609  -0.0016099366
       -0.0026880083  -0.0001275471   0.0017732976  -0.0006191468  -0.0001766189
       -0.0005888630   0.0016874458  -0.0002385341  -0.0000736499  -0.0012186008
        0.0001445378   0.0003708689   0.0002221774  -0.0007237670  -0.0001633928
       -0.0000362068   0.0000991409   0.0001527835  -0.0000357452  -0.0000802247
       -0.0000327212   0.0000058730   0.0000273293   0.0000262504   0.0000335000
       -0.0000806826  -0.0000556173  -0.0001293032   0.0001466495   0.0000648799
       -0.0000246448   0.0000041029  -0.0000099890  -0.0001203926  -0.0000883900
       -0.0000584342   0.0000426045   0.0000400823   0.0000632391   0.0000006037
       -0.0000264022  -0.0000013328  -0.0000055550   0.0000551512   0.0000609479
       -0.0000202937  -0.0001515169   0.0000243412   0.0003273028   0.0005972117
       -0.0000487866   0.0000543478   0.0000078240  -0.0000328902  -0.0000532458
        0.0000084223  -0.0000011095  -0.0000263905   0.0000048008   0.0000009625
        0.0000075455   0.0000063557   0.0000052980  -0.0000006708  -0.0000008821
        0.0000134235  -0.0000133098   0.0000007045  -0.0000109663  -0.0000198473
       -0.0000273945   0.0000764820   0.0000190907  -0.0000038432  -0.0000021323
       -0.0000065155  -0.0000047594  -0.0000023354  -0.0000011712   0.0000009330
        0.0000034107  -0.0000004039  -0.0000007814   0.0000026750   0.0000187636
        0.0000056599  -0.0000334720  -0.0000025874  -0.0000024602   0.0000197657
       -0.0000075540   0.0000016295   0.0000023302  -0.0000015497   0.0000024189
        0.0000007403  -0.0000006016  -0.0000014413   0.0000034267  -0.0000007216
       -0.0000013028  -0.0000036333  -0.0000001394   0.0000031117   0.0000002473
        0.0000010258  -0.0000018532   0.0000060118  -0.0000018431  -0.0000010116
       -0.0000016079  -0.0000021690  -0.0000043494  -0.0000027224  -0.0000108447
       -0.0000033557   0.0000023628   0.0000380519   0.0000279958  -0.0000847265
        0.0000005849  -0.0000171981   0.0000299473   0.0000055153  -0.0000061411
        0.0000079056  -0.0000310232   0.0000065916  -0.0000104760  -0.0000251312
       -0.0000068440   0.0000136036   0.0000095648  -0.0000125217   0.0000354506
       -0.0003535743  -0.0001111213  -0.0000586105   0.0015361463   0.0011376355
       -0.0007923518  -0.0008844363   0.0003197185   0.0007633932   0.0000634342
        0.0002227722   0.0002339442  -0.0000638044   0.0000621993   0.0000624036
        0.0000358312   0.0001249465   0.0000388054  -0.0005178801  -0.0006062063
        0.0002351955   0.0004685774  -0.0004324655   0.0005802396  -0.0003831808
       -0.0000371381  -0.0000682771   0.0000315229  -0.0000356343  -0.0001252471
        0.0000218932   0.0000401016   0.0000013184  -0.0000087306   0.0000224233
        0.0000015870  -0.0000270037   0.0000152506   0.0000033887  -0.0000375584
        0.0000038751  -0.0000052903  -0.0000140698  -0.0000096953  -0.0000143796
        0.0000155511  -0.0000122244  -0.0000166618   0.0000351113   0.0000738412
       -0.0000308612   0.0000178416   0.0000110204  -0.0000368611  -0.0000030706
       -0.0000021813   0.0000121564   0.0000000591  -0.0000006728   0.0000010310
       -0.0000001893   0.0000029953  -0.0000011528   0.0000090918   0.0000026740
        0.0000022428   0.0000041469  -0.0000027007  -0.0000021171   0.0000012604
        0.0000028391  -0.0000049301   0.0000006064   0.0000047903  -0.0000000849
       -0.0000012031   0.0000021805   0.0000012456   0.0000010965   0.0000018572
        0.0000001922   0.0000028610   0.0000003169   0.0000009917   0.0000023024
        0.0000028723  -0.0000028383   0.0000071105  -0.0000020087  -0.0000082083
       -0.0000039519   0.0000019686  -0.0000046272   0.0000106605  -0.0000043485
       -0.0000043428   0.0000213103  -0.0000090875   0.0000037794   0.0000433254
       -0.0000078648  -0.0000032737  -0.0002710464  -0.0000127762   0.0000939414
       -0.0007799308  -0.0007698301   0.0004418095
       -0.0820321741   0.0810042560  -0.0620766446   0.4084158788  -0.0655282320
       -0.0583226042  -0.1078678845   0.0189328092   0.1340105370  -0.0553943792
       -0.0275242495  -0.0113681202   0.0015162781   0.0051274126  -0.0020945561
        0.0048751572  -0.0004469667   0.0030275207  -0.0006996989  -0.0004677755
        0.0003847020   0.0026188498  -0.0037550670   0.0045509399  -0.0048564502
       -0.0105953924  -0.0030182110  -0.1384033979  -0.0017020615  -0.0059376374
       -0.0130565290   0.0093992303  -0.0085250416   0.0048589958   0.0035769596
       -0.0011820522  -0.0093201002   0.0007361909   0.0005111551   0.0072866730
       -0.0011918787  -0.0001985326  -0.0011600384   0.0042419224   0.0003940721
       -0.0001254251  -0.0007975001  -0.0004062923   0.0000903521   0.0004941170
        0.0002407277   0.0000212082  -0.0002263362  -0.0001191432  -0.0001145253
        0.0003913402   0.0003650266   0.0006149772  -0.0007870906  -0.0003931136
        0.0002115420  -0.0000223604   0.0000117259   0.0007355351   0.0005870387
        0.0003792839  -0.0002395023  -0.0003299496  -0.0003577401   0.0000863254
        0.0001944975   0.0001084334  -0.0000324324  -0.0005265806  -0.0002324705
        0.0000089811   0.0008034509   0.0004051512  -0.0021970271  -0.0037106615
       -0.0003965425  -0.0001896037  -0.0000587000   0.0002557394   0.0000954011
       -0.0000435843   0.0000624160   0.0002058191  -0.0000210947  -0.0000262615
       -0.0000929681   0.0000247907  -0.0000330116  -0.0000106949  -0.0000651332
        0.0001241161  -0.0001110826   0.0001538149  -0.0003980007   0.0003535892
       -0.0000672228   0.0000207288  -0.0003283936   0.0000525216  -0.0000012863
        0.0001114463  -0.0000081653   0.0000568488  -0.0000142060  -0.0000157370
       -0.0000124099   0.0000708006   0.0000010489  -0.0000060148  -0.0003624205
        0.0000723217  -0.0000143826   0.0001207607  -0.0000171682   0.0000342747
        0.0001119478  -0.0000522909  -0.0000112034   0.0000492321  -0.0000090858
       -0.0000010494   0.0000112353  -0.0000018019  -0.0000012334   0.0000075928
        0.0000114519   0.0000061059  -0.0000022949  -0.0000030423   0.0000077472
       -0.0000074925   0.0000003439  -0.0000106151   0.0000066163   0.0000156719
       -0.0000121205  -0.0000063672   0.0000270395   0.0000035221   0.0001133972
       -0.0000246604  -0.0000526899  -0.0001367977  -0.0001015802   0.0003771591
        0.0000099876   0.0000644210  -0.0001196115  -0.0000926789   0.0000054750
        0.0000271897   0.0002071949  -0.0000431965   0.0000249723   0.0001157883
        0.0000172128  -0.0000659884  -0.0001671328   0.0001043794  -0.0002699950
        0.0023763530  -0.0029449575   0.0028999462  -0.0180775405  -0.0052520273
        0.0077034932  -0.0014863134   0.0009667532   0.0006969198   0.0001596816
        0.0003837859   0.0005390170  -0.0010852543   0.0007165470  -0.0003463640
       -0.0000820896  -0.0006113127  -0.0002319308  -0.0015743878   0.0000673015
       -0.0006845897   0.0011636847  -0.0015294464   0.0005716918   0.0005990233
       -0.0002442585   0.0003153105  -0.0000185325   0.0004088963   0.0002833696
       -0.0000601322  -0.0001242274  -0.0000575558   0.0001299125  -0.0001361207
       -0.0000796233   0.0002325376  -0.0000946716  -0.0000206096   0.0002531057
        0.0000223725   0.0000247231   0.0001343525   0.0001070802   0.0000808136
       -0.0000477175   0.0001259409   0.0000467912  -0.0000921762  -0.0003593359
       -0.0002745249  -0.0001037110  -0.0000242488   0.0001081823  -0.0000554201
        0.0000163192  -0.0000177465   0.0000208878   0.0000177736  -0.0000305313
        0.0000614870   0.0000043417  -0.0000050912  -0.0000550623  -0.0000146047
       -0.0000243494  -0.0000087269   0.0000170372   0.0000063196  -0.0000151691
        0.0000036732   0.0000115167  -0.0000142919  -0.0000018624   0.0000015874
       -0.0000081777   0.0000031998  -0.0000030455  -0.0000082897   0.0000049113
        0.0000014177  -0.0000143352  -0.0000044086  -0.0000033365  -0.0000124148
       -0.0000093634  -0.0000053205  -0.0000491546   0.0000332096   0.0000235201
        0.0000566675  -0.0000218399   0.0000087080   0.0000154320  -0.0000207967
        0.0000332376  -0.0000567937   0.0000030413   0.0000229609  -0.0000991425
        0.0000594428  -0.0001145228   0.0003860554   0.0001328914  -0.0002528096
        0.0015257875   0.0004038109  -0.0009530945
        0.0780510546  -0.2871811013   0.1905556054  -0.0655282320   0.5282027448
       -0.1170685502   0.0197600718  -0.0660819163  -0.0425479187  -0.0332296525
       -0.1126455193  -0.0308798685   0.0030002761  -0.0074266628  -0.0124398818
       -0.0000726304   0.0033752737  -0.0016407917  -0.0008712493  -0.0017743802
       -0.0000868288  -0.0033023858   0.0005489550   0.0018665065  -0.0095436291
       -0.0165070219   0.0021005930   0.0060972697  -0.0413186601  -0.0002656214
        0.0123233350  -0.0031608716   0.0000972633   0.0015094714   0.0013949818
        0.0045246573   0.0013780219  -0.0001884674   0.0008561339  -0.0012380968
       -0.0014738172  -0.0009273735   0.0000762273  -0.0000560896   0.0000773213
        0.0001593836  -0.0000538362   0.0000746791   0.0000099068  -0.0001043604
       -0.0000075286  -0.0000847073  -0.0000700632  -0.0000170862   0.0000310327
       -0.0000309275  -0.0000116548   0.0000639557  -0.0000201049   0.0000114845
       -0.0000436065  -0.0000466394  -0.0000195322  -0.0003134976  -0.0001922015
       -0.0001110007   0.0000682485   0.0001042162   0.0000897185   0.0000956499
       -0.0001411721  -0.0000560663   0.0000199032   0.0001171806   0.0000835164
       -0.0001749006  -0.0002396873  -0.0000241880   0.0004942160   0.0010819648
        0.0002649336   0.0000633073  -0.0000252901  -0.0000637797  -0.0000619805
       -0.0000253683  -0.0000351677  -0.0000298158  -0.0000253068  -0.0000153849
        0.0000188369  -0.0000152165  -0.0000013628   0.0000029252  -0.0000194113
       -0.0000055891  -0.0000158271   0.0000494201   0.0000173203  -0.0000771630
       -0.0001062605   0.0000907368   0.0000633871   0.0000164688   0.0000128416
       -0.0000163892   0.0000026067   0.0000010714   0.0000106762  -0.0000008076
       -0.0000009393  -0.0000078920  -0.0000148032  -0.0000021715   0.0000635729
        0.0000888043   0.0000029410  -0.0000154641  -0.0000199543  -0.0000025225
       -0.0000148216  -0.0000348785  -0.0000012759  -0.0000068324  -0.0000065851
       -0.0000047842  -0.0000005072  -0.0000014346  -0.0000014810  -0.0000007295
       -0.0000121862  -0.0000091751  -0.0000023872   0.0000030820  -0.0000112640
        0.0000030068   0.0000008855  -0.0000022048  -0.0000046153  -0.0000059163
       -0.0000037807  -0.0000027256  -0.0000074753   0.0000023593  -0.0000166433
       -0.0000035041   0.0000168041   0.0000881745   0.0000838383  -0.0001171953
        0.0000042154  -0.0000337559   0.0000448700   0.0000351860  -0.0000017541
       -0.0000062113  -0.0000155402  -0.0000149230  -0.0000079355  -0.0000144970
       -0.0000352511  -0.0000039454  -0.0000079639  -0.0000467632   0.0000369148
       -0.0014673993   0.0017542066   0.0049383447  -0.0071085809   0.0018296122
       -0.0025460369  -0.0000839549   0.0007321322   0.0020721427  -0.0000478991
        0.0006720055   0.0007688976   0.0005378764   0.0002871828   0.0004196923
        0.0003075545   0.0003620835  -0.0002168161   0.0011930657   0.0008525689
       -0.0000598816   0.0003747671  -0.0014097720  -0.0000838411   0.0005478103
       -0.0000454451   0.0001809559   0.0000624947   0.0001696306  -0.0000049540
        0.0000824878  -0.0000654974  -0.0000256374  -0.0000163530   0.0000221785
        0.0000202519  -0.0000586126   0.0000165067   0.0000031811  -0.0000226551
       -0.0000012208  -0.0000119556  -0.0000270607  -0.0000118188  -0.0000317254
       -0.0000727786  -0.0001018165  -0.0000747389  -0.0000335855   0.0001978358
        0.0000038515   0.0000231333   0.0000391661  -0.0000087529  -0.0000003317
       -0.0000014559   0.0000265928  -0.0000082168  -0.0000028874   0.0000079047
       -0.0000078940   0.0000049269   0.0000037495   0.0000064272   0.0000103883
       -0.0000041576  -0.0000019625   0.0000059136  -0.0000042128   0.0000020162
       -0.0000008208  -0.0000051370  -0.0000004318   0.0000000198  -0.0000039313
       -0.0000019431  -0.0000020620  -0.0000063826  -0.0000023016   0.0000034554
       -0.0000102191   0.0000038559   0.0000101797  -0.0000032356   0.0000090762
        0.0000032525   0.0000037422   0.0000109791   0.0000010465  -0.0000031244
       -0.0000083526   0.0000168834   0.0000068567   0.0000042972   0.0000171073
        0.0000051946   0.0000147897   0.0000180757   0.0000182259   0.0000096129
        0.0000429602   0.0000117435  -0.0009631979   0.0001512921   0.0001936298
       -0.0020336622  -0.0014778908  -0.0000084268
       -0.0614151811   0.1949402725  -0.2222068640  -0.0583226042  -0.1170685502
        0.7516445010   0.1395726825  -0.0423359679  -0.4199868540  -0.0171589716
       -0.0323095679  -0.0541017872  -0.0045573201  -0.0155812978  -0.0104156462
        0.0038210631  -0.0012930512  -0.0031868444  -0.0000042104  -0.0004155615
       -0.0006841021   0.0037792449   0.0009098835   0.0000815991  -0.0007473171
        0.0036841880   0.0064991883  -0.0059804739  -0.0022979101  -0.0418004156
       -0.0111243224  -0.0007244372  -0.0006132417  -0.0012806110   0.0050851454
        0.0003435640   0.0000865597   0.0006345601   0.0001052034   0.0000120801
       -0.0007477542  -0.0013802826   0.0000082939   0.0002392385   0.0002066258
        0.0001152076  -0.0000021987  -0.0001563111   0.0000283816  -0.0000089892
       -0.0000395079  -0.0000584254  -0.0000324841  -0.0000329784   0.0000030970
        0.0000264644   0.0000112768   0.0001040913  -0.0000953179  -0.0000326250
       -0.0000102496  -0.0000316831   0.0000089612  -0.0000930851  -0.0000645031
       -0.0000307979  -0.0000032555   0.0000482944  -0.0000007091   0.0000565057
       -0.0000575816  -0.0000503451   0.0000259402   0.0000312926  -0.0000282851
       -0.0000797434   0.0000543435  -0.0001717332   0.0000268077   0.0002145442
        0.0002647954  -0.0000690916  -0.0000045421  -0.0000057802   0.0000508011
       -0.0000297960  -0.0000127440   0.0000022420  -0.0000190429   0.0000007488
        0.0000109105  -0.0000084272   0.0000052957   0.0000070269   0.0000220283
       -0.0000655549   0.0000852449  -0.0000721000   0.0001588349  -0.0000024094
        0.0000784369  -0.0002543321   0.0000147501   0.0000110270   0.0000041415
       -0.0000006631   0.0000115129  -0.0000004118   0.0000064853  -0.0000023006
       -0.0000059355  -0.0000015712  -0.0000014273  -0.0000150511   0.0000052524
        0.0000008824   0.0000963420  -0.0000045279   0.0000048959  -0.0000476986
       -0.0000000100  -0.0000051148  -0.0000284698   0.0000017175  -0.0000006000
       -0.0000102202   0.0000007481   0.0000023648  -0.0000069118  -0.0000022920
       -0.0000050022   0.0000000818  -0.0000035368  -0.0000029016  -0.0000073795
        0.0000010649   0.0000033064  -0.0000078593  -0.0000006478  -0.0000026750
       -0.0000032284   0.0000004109  -0.0000002410  -0.0000004551   0.0000005475
        0.0000061130  -0.0000011994  -0.0000923234  -0.0000328298   0.0001417559
        0.0000034439   0.0000246200  -0.0000554577   0.0000014757   0.0000022955
        0.0000031785   0.0000053665  -0.0000146531   0.0000178532  -0.0000536094
       -0.0000091554  -0.0000057918   0.0000636101  -0.0000245364  -0.0000034822
        0.0023283797   0.0044333891   0.0010471139   0.0095067390  -0.0015468656
        0.0008254701  -0.0001866631  -0.0001540593  -0.0012305205  -0.0001238805
       -0.0006841983  -0.0002959181  -0.0003422590   0.0005185297  -0.0003398171
        0.0005526349   0.0010870891   0.0000822667   0.0012915458   0.0028251908
       -0.0012417338  -0.0012494362   0.0003701252  -0.0015185775  -0.0008810230
        0.0003628321  -0.0000460837  -0.0000107349   0.0000192467   0.0001875844
        0.0000232914  -0.0000531592   0.0000264903  -0.0000068043  -0.0000020693
        0.0000213167  -0.0000139450  -0.0000024328   0.0000175152   0.0000034264
       -0.0000059962   0.0000058711  -0.0000064019  -0.0000024639   0.0000080784
       -0.0000484880  -0.0000550970   0.0000121591  -0.0000275028  -0.0000204831
        0.0001776121  -0.0000101142  -0.0000059894   0.0000602285   0.0000170305
        0.0000113021  -0.0000234491   0.0000040479  -0.0000044707  -0.0000012698
       -0.0000117351   0.0000030110   0.0000030490  -0.0000039828  -0.0000023019
        0.0000024533  -0.0000059713   0.0000029622   0.0000014757   0.0000000220
       -0.0000053199   0.0000042895   0.0000008178  -0.0000028440  -0.0000051324
       -0.0000004213  -0.0000008921  -0.0000043950  -0.0000020904  -0.0000004120
       -0.0000054015  -0.0000014753   0.0000023481  -0.0000042225   0.0000037063
       -0.0000024467   0.0000053317   0.0000002511  -0.0000057456   0.0000080738
        0.0000067166   0.0000072501   0.0000040742  -0.0000076421   0.0000115209
        0.0000006184  -0.0000181904   0.0000308057  -0.0000235854  -0.0000081925
        0.0000029722   0.0000569167   0.0007564636   0.0000730372  -0.0001155283
        0.0016372807   0.0000621261  -0.0018390075
        0.0124660540  -0.0028262712  -0.0054627652  -0.1078678845   0.0197600718
        0.1395726825   0.0999325595  -0.0179628884  -0.1528261792   0.0055633109
       -0.0017971483  -0.0030755056   0.0004457715  -0.0012458893  -0.0004500719
       -0.0003051895  -0.0000095640  -0.0004260540   0.0000687414  -0.0000425646
       -0.0001892534   0.0000393838   0.0004414448  -0.0005765743  -0.0000354774
       -0.0010957170   0.0002132831  -0.0034382994   0.0050161892   0.0238811573
       -0.0006740433  -0.0005651818   0.0016291692  -0.0001758805  -0.0017931596
       -0.0006972098   0.0023673546  -0.0005041224   0.0000852284  -0.0018826484
        0.0005805958   0.0002675160   0.0002739210  -0.0011830893  -0.0001295815
        0.0000738982   0.0002324404   0.0001059088  -0.0000466326  -0.0001261252
       -0.0000719919  -0.0000338856   0.0000630935   0.0000295791   0.0000139549
       -0.0000908404  -0.0000913175  -0.0001735172   0.0002296675   0.0001094015
       -0.0000572021   0.0000046369  -0.0000027729  -0.0001789312  -0.0001437184
       -0.0000928993   0.0000532021   0.0000702595   0.0000764134  -0.0000586824
       -0.0000445440  -0.0000272539  -0.0000006385   0.0001618039   0.0000658281
        0.0000233855  -0.0002480054  -0.0001543872   0.0006569731   0.0009811559
        0.0001753164   0.0000490867   0.0000154985  -0.0000664983  -0.0000099544
        0.0000086081  -0.0000151977  -0.0000702654   0.0000050649   0.0000085925
        0.0000175479  -0.0000060599   0.0000076826  -0.0000031779   0.0000182467
       -0.0000344059   0.0000310033  -0.0000399084   0.0001092942  -0.0001068255
        0.0000191316  -0.0000075923   0.0001009100  -0.0000148791   0.0000024944
       -0.0000324379   0.0000021253  -0.0000186771   0.0000035620   0.0000026215
        0.0000014302  -0.0000266544  -0.0000002605   0.0000022069   0.0001205146
       -0.0000180415   0.0000086105  -0.0000424360   0.0000065022  -0.0000115060
       -0.0000392318   0.0000150809   0.0000023460  -0.0000162645   0.0000025878
        0.0000003057  -0.0000036625   0.0000006397   0.0000010049  -0.0000024901
       -0.0000040632  -0.0000022064  -0.0000005160   0.0000017709  -0.0000023593
        0.0000020242   0.0000009602   0.0000033932  -0.0000032525  -0.0000052570
        0.0000043912   0.0000030490  -0.0000057847   0.0000020625  -0.0000332133
        0.0000084638   0.0000178900   0.0000387683   0.0000264049  -0.0001011784
       -0.0000091190  -0.0000148763   0.0000292962   0.0000206719   0.0000004298
       -0.0000070745  -0.0000676844   0.0000137296  -0.0000070137  -0.0000156317
       -0.0000048832   0.0000122724   0.0000426042  -0.0000265696   0.0000690840
       -0.0016157714  -0.0014658548  -0.0006526341  -0.0051212618   0.0023849652
       -0.0006374232   0.0001990452  -0.0001335365  -0.0005027493  -0.0000475524
       -0.0000007401  -0.0001001016   0.0000970836  -0.0000399567  -0.0000486742
        0.0000751787   0.0001426042   0.0000215153   0.0002589632   0.0005443493
       -0.0008337660   0.0000210281   0.0000447027   0.0006315253  -0.0001910767
        0.0000504802  -0.0000547147   0.0000236065  -0.0001854644  -0.0000920945
        0.0000193226   0.0000258335   0.0000165190  -0.0000366067   0.0000351915
        0.0000242712  -0.0000643461   0.0000281087   0.0000097886  -0.0000704419