$hessian                                                                        
        0.5276920820  -0.0016655739  -0.0018097346  -0.0662078260   0.0001794251
       -0.0000514333  -0.0022429545   0.0220987709   0.0134819731  -0.0012576004
        0.0010981848   0.0011017697   0.0009266311  -0.0001724796   0.0005252929
       -0.0003938231  -0.0003923548  -0.0000795752   0.0001229406   0.0001730591
       -0.0000593701   0.0002534848   0.0004049925   0.0001043717  -0.0009218816
        0.0002577574   0.0012115686  -0.0005351228  -0.0002131515  -0.0000799509
        0.0004005898   0.0003666706   0.0000227453  -0.0000297257  -0.0001356826
        0.0000483608  -0.0000307173   0.0000870373  -0.0000550085   0.0000705203
       -0.0000335739   0.0000478963  -0.0000402214   0.0000289212  -0.0000302034
        0.0001289004   0.0000618070   0.0000306806  -0.0001166345  -0.0001191052
       -0.0000135925  -0.0041921792   0.0014764179   0.0004001972   0.0001479008
        0.0000129786  -0.0000071412  -0.0041123859  -0.0016643921  -0.0009167937
       -0.0005425281  -0.0197864449  -0.0121564089  -0.0008753942  -0.0010314630
       -0.0006937184   0.0006068809   0.0002021565  -0.0003524239  -0.0000615352
       -0.0003486461   0.0001087347  -0.0001108273   0.0006630023   0.0000575333
        0.0004231752  -0.0009325837  -0.0001969488  -0.0023143910   0.0007399785
       -0.0019319179  -0.0001964968   0.0001314341  -0.0000400461   0.0001046099
       -0.0000202388  -0.0000179831   0.0000856631  -0.0001733584   0.0000051578
       -0.0001325617   0.0000339132   0.0000295777   0.0000462092   0.0000076155
       -0.0000149139  -0.0000416168   0.0000072062   0.0000044606   0.0001925622
        0.0001059741  -0.0000255263   0.0000527451  -0.0001903011  -0.0000456044
       -0.0401585702  -0.0108869518   0.0065459810  -0.2116917185   0.0008728743
        0.1091009491  -0.1924841728   0.0088066141  -0.1140713197  -0.0000208407
        0.0000344183   0.0000162911  -0.0000168658   0.0000207992   0.0000038446
       -0.0006909290   0.0002112962   0.0000377111  -0.0000073523   0.0000037252
       -0.0000054415  -0.0000066340  -0.0000073195  -0.0000014351  -0.0000013744
       -0.0000025636   0.0000006111  -0.0000118849  -0.0000173647   0.0000052086
       -0.0002147586   0.0012394168   0.0007391618   0.0001235987  -0.0000062859
        0.0000299237  -0.0001268059  -0.0012536881  -0.0006599566  -0.0000203862
       -0.0000511646  -0.0000200408  -0.0000121014  -0.0000201092   0.0000363648
       -0.0015229960  -0.0002287749  -0.0003593308  -0.0000076989  -0.0000025032
       -0.0000026905  -0.0000050300   0.0000081697  -0.0000056312  -0.0000048603
        0.0000037640   0.0000026149  -0.0000170905   0.0000176944   0.0000051595
       -0.0016655739   0.4712095680  -0.0131480366   0.0012262860  -0.1502129217
       -0.0687219063   0.0094378637  -0.0177913741  -0.0135872519  -0.0007512388
       -0.0011166964   0.0013785701  -0.0001736331   0.0000755329   0.0000527625
        0.0001677030   0.0001356754  -0.0001865113  -0.0002336724  -0.0002272261
       -0.0000418688   0.0001664736  -0.0005297901  -0.0001368404   0.0002749942
       -0.0003449651   0.0002633009  -0.0003560727   0.0002990780  -0.0001402769
        0.0004946355   0.0002213942   0.0000863412  -0.0000402307  -0.0001444794
        0.0000622313   0.0001679338   0.0000182556   0.0000637294  -0.0001032502
        0.0000977076  -0.0000759840  -0.0001097627  -0.0000773887  -0.0000157662
       -0.0000543486   0.0001320211  -0.0000807084   0.0001754226   0.0000506138
        0.0001508020   0.0033281905   0.0047211017  -0.0023654281  -0.0017500700
       -0.0009239341  -0.0003570112  -0.0017278190   0.0012881139  -0.0031033667
       -0.0098399818  -0.0139705916  -0.0113492105   0.0029789561  -0.0018081716
        0.0001032364  -0.0006669088  -0.0003185770  -0.0001183733   0.0003725962
       -0.0003538261  -0.0000329271  -0.0001790052   0.0002023522   0.0001397246
        0.0006305843  -0.0006322846  -0.0002603778  -0.0010800472   0.0005569746
        0.0009446254   0.0004983590   0.0004218792  -0.0001501678  -0.0009897225
        0.0001894639   0.0001829903   0.0000056840  -0.0002757990   0.0000305730
       -0.0004388043  -0.0000909572   0.0001256820   0.0003107636   0.0002792430
       -0.0001125821   0.0001856194  -0.0001834365  -0.0000141758   0.0003943360
        0.0006143594  -0.0001062284   0.0000591479  -0.0003058453  -0.0001060734
       -0.0109468959  -0.2098277654   0.1035106721  -0.0004827381  -0.0403375067
       -0.0004045256   0.0099937234  -0.0408366658   0.0071586579  -0.0000243270
        0.0001594565  -0.0000946883   0.0000418277   0.0000538901  -0.0000264992
       -0.0002726995   0.0002942581  -0.0000127559  -0.0000039630   0.0000103359
       -0.0000188502  -0.0000007700  -0.0000091861  -0.0000013100  -0.0000094235
        0.0000029391  -0.0000055879  -0.0000177046  -0.0000075624  -0.0000033924
       -0.0000072993  -0.0005894448  -0.0002170585  -0.0000208102  -0.0002707860
        0.0007113134   0.0001200594  -0.0005994746  -0.0001224081   0.0000619227
        0.0001503209  -0.0000145325  -0.0000136995   0.0000315522   0.0000246138
        0.0008434250   0.0005223166   0.0001624126   0.0000144978   0.0000141942
       -0.0000296797   0.0000146334   0.0000185934  -0.0000083767   0.0000042512
        0.0000077587   0.0000045578  -0.0000094175   0.0000077060   0.0000139410
       -0.0018097346  -0.0131480366   0.4761415162   0.0000955361  -0.0781740675
       -0.1158585990   0.0037269414  -0.0125096949  -0.0068494618  -0.0001098027
        0.0009693979  -0.0018661186  -0.0007141959   0.0000063063  -0.0002759293
        0.0000835755   0.0002131380   0.0000721886   0.0000484827  -0.0000645367
        0.0000441337  -0.0000434920  -0.0002218665  -0.0001394602   0.0004144687
        0.0001501533  -0.0000789517   0.0000758267   0.0001919382   0.0000658620
       -0.0000569881  -0.0000174693  -0.0000265331   0.0000010264   0.0000103320
        0.0000072016  -0.0000336539   0.0000011370  -0.0000197024   0.0000106951
        0.0000075769   0.0000028962  -0.0000155031  -0.0000113059  -0.0000030340
        0.0000236509   0.0000586124  -0.0000318037  -0.0000681165  -0.0000951000
        0.0000380458   0.0012756880  -0.0020425485   0.0051013542  -0.0001194849
       -0.0003001408  -0.0005017168  -0.0014744521  -0.0016902630   0.0041346724
       -0.0021923152  -0.0111105173  -0.0068750194   0.0003705530   0.0014021702
       -0.0012267901   0.0004835775  -0.0000942880   0.0000617987  -0.0002220232
        0.0003917810  -0.0000145000  -0.0003722053  -0.0005131648   0.0002245193
       -0.0001897994   0.0001015791  -0.0001003245   0.0001356761   0.0000158825
       -0.0005558111  -0.0001483979   0.0000701081   0.0001206938   0.0006728709
        0.0001152560  -0.0001994811  -0.0000811694   0.0001748200  -0.0000386493
        0.0004684785   0.0001716201  -0.0001290031  -0.0003915338  -0.0002857668
        0.0001220786  -0.0001203031   0.0002224913  -0.0000066362  -0.0004575679
       -0.0004581524   0.0001942998   0.0000777224   0.0000681356  -0.0000151075
        0.0066079090   0.1096527793  -0.1034902902   0.1088827285   0.0000796207
       -0.1141479609  -0.1138825316   0.0076406655  -0.1314907880   0.0000278019
       -0.0000493064   0.0000003580   0.0000100672  -0.0000077601   0.0000138946
        0.0006536640  -0.0001887579  -0.0001636901   0.0000153438   0.0000015303
       -0.0000099684   0.0000088814   0.0000025159  -0.0000057139   0.0000060341
        0.0000001303  -0.0000036208   0.0000050068  -0.0000005685  -0.0000011019
       -0.0000375437  -0.0004729155  -0.0002542233   0.0000044042   0.0005776944
       -0.0009764519   0.0000218223  -0.0004760023  -0.0003149010  -0.0000114102
       -0.0000290230   0.0000377192  -0.0000276344  -0.0000145777  -0.0000105217
       -0.0016054579  -0.0003320991  -0.0006862632  -0.0000229399   0.0000048288
       -0.0000113615  -0.0000025976   0.0000034571   0.0000011533  -0.0000020550
       -0.0000033692  -0.0000035244   0.0000044761   0.0000056408  -0.0000013718
       -0.0662078260   0.0012262860   0.0000955361   0.5956225668  -0.0242899747
       -0.0043561822  -0.2417753191   0.0523598483   0.0313260780  -0.0435414120
        0.0053526832  -0.0027650874   0.0062534148  -0.0046351694   0.0034052033
       -0.0038753373  -0.0046359913  -0.0011731013   0.0074980466   0.0004372774
        0.0030768786  -0.0059174500   0.0034756942  -0.0047105490   0.0016743440
        0.0058274539   0.0009589685   0.0017942796  -0.0003684481   0.0006027723
       -0.0053099020   0.0001756021  -0.0023275682   0.0006929444   0.0010750604
       -0.0001395609  -0.0035736945   0.0008733340  -0.0018424114   0.0029455277
       -0.0026589819   0.0023807361   0.0012508049   0.0021315713  -0.0003626536
        0.0029704861  -0.0041341598   0.0030833240  -0.0026788295   0.0015927135
       -0.0017095830   0.0089069176   0.0590124314   0.0382514258  -0.0368434499
        0.0001892126  -0.0004394607   0.0171339028  -0.0363977461  -0.0305440667
       -0.1769183281  -0.0575398951  -0.0379352335  -0.0637503846   0.0124650575
        0.0039540183   0.0063178015   0.0045929498   0.0016039485  -0.0039799192
        0.0033130998   0.0010285081  -0.0010248763  -0.0045315288   0.0007671196
       -0.0093842722   0.0091894204   0.0000998022   0.0128613840  -0.0209709081
       -0.0046642779  -0.0011068918  -0.0037304744   0.0015616018   0.0107018314
        0.0031705545  -0.0026112316  -0.0011755049   0.0017039128  -0.0002245843
        0.0078924223   0.0027313454  -0.0022351097  -0.0067271351  -0.0056508892
        0.0023299225  -0.0016418699   0.0035526948  -0.0002190693  -0.0080737323
       -0.0087590266   0.0034141785   0.0012314932   0.0034140028  -0.0008875044
        0.0012703390  -0.0013775388  -0.0006696412  -0.0020440032   0.0205148107
        0.0164519016  -0.0015803197  -0.0192367571  -0.0160040875  -0.0000423478
        0.0001740474   0.0003325294  -0.0002983528  -0.0000566764  -0.0000009966
       -0.0000022365   0.0000525127   0.0003622241   0.0000208400   0.0000130664
       -0.0000082470   0.0000127274  -0.0000359231  -0.0000145157  -0.0000021347
       -0.0000333878  -0.0000000721  -0.0000271128   0.0000579637  -0.0000226334
        0.0007323765  -0.0003132815  -0.0002871834  -0.0005733575  -0.0004497016
        0.0008867572   0.0006623276   0.0007327132   0.0008773070  -0.0000736305
       -0.0001087305  -0.0000753562  -0.0003651352  -0.0000106582  -0.0003432414
        0.0001837453   0.0003005579  -0.0003519808   0.0000019620   0.0000834905
       -0.0000450592   0.0000591877   0.0000694546   0.0000105017  -0.0000666368
       -0.0000045504   0.0000489911  -0.0001102712   0.0000695755   0.0000600152
        0.0001794251  -0.1502129217  -0.0781740675  -0.0242899747   0.4469568793
        0.2073744496   0.1032820197  -0.1106993298  -0.0369584987  -0.0045779528
        0.0079514473   0.0047904941  -0.0015259676  -0.0008041382  -0.0005568160
       -0.0001833379  -0.0003643843  -0.0003893207   0.0013069036   0.0000776098
        0.0006099827  -0.0001607490   0.0008906772  -0.0011191863  -0.0011821697
       -0.0012067380  -0.0018884275   0.0002384286  -0.0007908451   0.0003846285
       -0.0009161877  -0.0000937738  -0.0002451823   0.0001009804   0.0003345425
       -0.0001261216  -0.0006068117   0.0000960814  -0.0002884507   0.0005077904
       -0.0004548217   0.0004070786   0.0003605590   0.0003416264  -0.0000008898
        0.0003753777  -0.0006640776   0.0004704121  -0.0008040627   0.0001783963
       -0.0003606590   0.0170128845  -0.0309567461  -0.0190667161   0.0088735611
        0.0032261598   0.0042309115  -0.0234184750  -0.0191390752  -0.0137003345
       -0.0744705218  -0.1120862176  -0.0381712472  -0.0056973232   0.0134590263
        0.0063791711   0.0043182113   0.0001355831  -0.0007583585  -0.0006917898
        0.0010364132  -0.0000717564  -0.0004983603  -0.0008322382   0.0003443398
       -0.0030694774   0.0027940816  -0.0003948017   0.0042203795  -0.0056048329
       -0.0030381128  -0.0009823486  -0.0014930599   0.0004238920   0.0038371779
        0.0004681234  -0.0006954216  -0.0002959046   0.0009530187  -0.0000750653
        0.0024169913   0.0007306154  -0.0006729664  -0.0019833536  -0.0017901478
        0.0007203094  -0.0008449859   0.0012402645  -0.0000350846  -0.0023798334
       -0.0034205361   0.0011212722   0.0004396474   0.0016649739  -0.0004355537
        0.0001109369  -0.0278641798  -0.0152887333   0.0052836179  -0.0042891479
       -0.0033197410  -0.0048167530  -0.0037041943  -0.0034085416   0.0000829843
       -0.0000752094   0.0002518860  -0.0002497360  -0.0000203731  -0.0000651008
       -0.0004271203  -0.0001682523   0.0005290443   0.0000088808  -0.0000256031
        0.0000355440  -0.0000102402  -0.0000330183   0.0000200591  -0.0000266587
       -0.0000242436   0.0000121114  -0.0000343920   0.0000242227  -0.0000168995
        0.0003629423  -0.0025531821  -0.0052184815   0.0000457212   0.0004146754
        0.0007989031  -0.0001364975  -0.0027971823  -0.0050473765  -0.0000939181
       -0.0001370627  -0.0000223422   0.0002496295  -0.0000416927  -0.0000488617
        0.0007057818  -0.0005988194   0.0006947101  -0.0000145195  -0.0000153333
        0.0000279668   0.0000213445  -0.0000317948   0.0000048851   0.0000219557
       -0.0000232019   0.0000227643   0.0000252900   0.0000419569   0.0000043012
       -0.0000514333  -0.0687219063  -0.1158585990  -0.0043561822   0.2073744496
        0.2806707614   0.0658580692  -0.0330568129  -0.0660895593  -0.0098612563
        0.0008428144   0.0020823242   0.0002248741  -0.0012073527   0.0000988266
       -0.0011929795  -0.0015471912  -0.0003513464   0.0014021898   0.0006934584
        0.0004150347  -0.0016589987   0.0001013281  -0.0007749275   0.0009574261
        0.0021208227  -0.0006549624   0.0005471616  -0.0000054764   0.0000979747
       -0.0008490244  -0.0003721648  -0.0001869066   0.0000768537   0.0003164986
       -0.0001109616  -0.0003210220   0.0000001872  -0.0001304845   0.0002305002
       -0.0003044192   0.0002316306   0.0003438529   0.0003565086  -0.0000032565
        0.0001380846  -0.0006958384   0.0003991333  -0.0005264021   0.0003629143
       -0.0004298045   0.0117444231  -0.0221514817  -0.0124187696   0.0030525137
        0.0050921025  -0.0006486653  -0.0119904590  -0.0183729588  -0.0114445211
       -0.0607658598  -0.0331798816  -0.0694348318   0.0033853598   0.0001356598
        0.0029444393   0.0037998227   0.0003502271   0.0013378087  -0.0001622449
        0.0004608260   0.0000647610   0.0021961175   0.0008906489  -0.0007467733
       -0.0009295488  -0.0021628949   0.0003027468  -0.0009238440   0.0013794566
       -0.0014320960   0.0002850937   0.0003430727  -0.0001075906  -0.0017978595
       -0.0005791905   0.0005651659   0.0003145812  -0.0002551943   0.0000505999
       -0.0014503216  -0.0004586621   0.0003873387   0.0012015619   0.0010508193
       -0.0004126288   0.0002296382  -0.0007194236   0.0000886884   0.0014478902
        0.0015283227  -0.0007171619  -0.0008591049  -0.0004214718   0.0004058105
       -0.0000349912   0.0055417519   0.0097378820   0.0043992756  -0.0160319532
       -0.0118494879  -0.0042777854  -0.0179718907  -0.0137943845   0.0000300054
       -0.0000259278   0.0001369197  -0.0001919414  -0.0000269816  -0.0000053538
       -0.0000654276  -0.0000022312   0.0003417180   0.0000006606  -0.0000247923
        0.0000247581  -0.0000086473  -0.0000198859   0.0000087389  -0.0000162224
       -0.0000131056   0.0000009220  -0.0000186153   0.0000163292  -0.0000118235
        0.0002197073  -0.0054095425   0.0033665681   0.0000081313   0.0002284593
        0.0005076242  -0.0000091428  -0.0051140189   0.0033877060  -0.0000835385
       -0.0000795164  -0.0001146501   0.0001298146  -0.0000209434  -0.0002634632
        0.0001176362  -0.0001534193   0.0003424806  -0.0000078010  -0.0000436081
        0.0000191913   0.0000045846  -0.0000323612  -0.0000112801   0.0000286589
       -0.0000124666  -0.0000055098   0.0000361653   0.0000083077  -0.0000077540
       -0.0022429545   0.0094378637   0.0037269414  -0.2417753191   0.1032820197
        0.0658580692   0.6113587190  -0.0138781229   0.0023109845  -0.1790346276
       -0.0555990236  -0.0308464993  -0.0368787145   0.0003214533  -0.0123809623
        0.0031094480   0.0057023182  -0.0035886017  -0.0071382951  -0.0005444421
       -0.0028311845   0.0089015632  -0.0046289208   0.0012910767  -0.0124665802
       -0.0203647914  -0.0036332766  -0.0010127432   0.0010074535  -0.0004026631
        0.0032650633  -0.0002260748   0.0016866140  -0.0004642142  -0.0006588006
        0.0000318422   0.0024347923  -0.0006186008   0.0012376781  -0.0020084408
        0.0018684966  -0.0016496359  -0.0008809061  -0.0015724748   0.0002445505
       -0.0020136942   0.0029748989  -0.0021247932   0.0024378475  -0.0007575843
        0.0019073123  -0.0825303345  -0.0186736642  -0.0190992971   0.0205118039
       -0.0204526837  -0.0122498061  -0.0097559114   0.0143197944   0.0105088090
       -0.0701653860  -0.0133871627  -0.0099666734   0.0085530812  -0.0076212486
       -0.0038955109  -0.0064427146  -0.0010437264   0.0002939856   0.0019099406
       -0.0029888507  -0.0001144183  -0.0029251489   0.0012637676   0.0006489654
        0.0049487010  -0.0000999491  -0.0005419678  -0.0034973093   0.0056474388
        0.0014594790  -0.0005299921   0.0001740235  -0.0001483758  -0.0006371710
       -0.0007653904   0.0001498036   0.0000855311   0.0000831467   0.0000144661
       -0.0007372648  -0.0003762688   0.0002523576   0.0007228854   0.0003544257
       -0.0002126464  -0.0001328608   0.0000499106   0.0000334785   0.0008950722
        0.0000442793  -0.0002532998   0.0012615117   0.0000516982  -0.0002964095
       -0.0003498314  -0.0008328745   0.0000717277   0.0004146104  -0.0004888811
       -0.0001703031  -0.0002038541  -0.0012649050  -0.0009087763   0.0003376237
       -0.0003902585   0.0011654258  -0.0005491201  -0.0002653002  -0.0002844438
        0.0001679721   0.0014213606   0.0010270982  -0.0000001675  -0.0000087268
        0.0000101825  -0.0000063775   0.0000056987   0.0000226989  -0.0000175622
        0.0000093066   0.0000062139  -0.0000118864  -0.0000335680   0.0000023334
       -0.0032922178   0.0220440919   0.0130703795  -0.0039740970  -0.0034049353
       -0.0014149212   0.0003997933   0.0005230873   0.0000888365   0.0000855934
        0.0001750380  -0.0001258844  -0.0000574886   0.0000307404   0.0001280013
       -0.0001160992   0.0001767896  -0.0001022605  -0.0000019825  -0.0000016859
        0.0000110775  -0.0000049050  -0.0000145924  -0.0000032508   0.0000138396
        0.0000018792  -0.0000036485   0.0000407792  -0.0000074723  -0.0000108785
        0.0220987709  -0.0177913741  -0.0125096949   0.0523598483  -0.1106993298
       -0.0330568129  -0.0138781229   0.4858305415   0.1946471816  -0.0501382314
       -0.0851222476  -0.0185937182   0.0037192212   0.0093345020   0.0016086017
        0.0041207479   0.0025303282   0.0036501910  -0.0020516407  -0.0020846521
       -0.0000285218   0.0014552139  -0.0025394572   0.0042518094  -0.0281151064
       -0.0211293610  -0.0062175975  -0.0019639665  -0.0011527948  -0.0002558160
        0.0006268225   0.0003912959   0.0001282724  -0.0001543799  -0.0004043209
        0.0001065695  -0.0000041436   0.0001520296  -0.0000473775   0.0001233197
        0.0001211630  -0.0000126068  -0.0003715633  -0.0002936147  -0.0000284400
        0.0002673464   0.0006243573  -0.0001944702   0.0007973910  -0.0005434194
        0.0002871564   0.0359671198  -0.2207319808  -0.1001672390  -0.0651473982
       -0.0296522786  -0.0174160470   0.0246416938  -0.0137658487  -0.0078671769
        0.0214893874   0.0164002479   0.0098679154  -0.0089409408   0.0110261902
       -0.0038579663  -0.0026614895  -0.0012403828   0.0028704582   0.0012070795
       -0.0017179646  -0.0001851189  -0.0091173603  -0.0030875426   0.0026822064
        0.0020654281   0.0096485418  -0.0021281872   0.0044050578  -0.0070776355
       -0.0012284575  -0.0024020341  -0.0028575195   0.0012414088   0.0104580662
        0.0020688234  -0.0026181674  -0.0012941385   0.0020026747  -0.0001997101
        0.0072982068   0.0022629608  -0.0019992263  -0.0060491303  -0.0055304761
        0.0021619211  -0.0019415701   0.0039806668  -0.0002192573  -0.0072725250
       -0.0093538630   0.0033570851   0.0041627893   0.0036341455  -0.0015355394
        0.0007544118  -0.0003800399  -0.0006969192  -0.0007742849  -0.0029226690
       -0.0027662908   0.0013762161   0.0001966714   0.0003083347   0.0013677668
        0.0001203698  -0.0005828423   0.0009697104   0.0002466791  -0.0000194158
       -0.0001709178   0.0004081478  -0.0013240727  -0.0000082372   0.0000401117
       -0.0000182674   0.0000072585   0.0000003963  -0.0000091402   0.0000127304
        0.0000060019   0.0000091681  -0.0000558050  -0.0000215644   0.0000077926
        0.0031311661  -0.0121164452  -0.0077530098  -0.0024771764   0.0015898854
       -0.0037170188   0.0005094006  -0.0001740294   0.0001804065  -0.0001859826
       -0.0001628246   0.0001792537  -0.0000950696  -0.0001241964  -0.0002250504
        0.0000122753  -0.0001269975  -0.0001438608   0.0000125622   0.0000743171
       -0.0000264314   0.0000266211   0.0000601482   0.0000313747  -0.0000641503
       -0.0000002158   0.0000305524  -0.0001082644   0.0000538490   0.0000418088
        0.0134819731  -0.0135872519  -0.0068494618   0.0313260780  -0.0369584987
       -0.0660895593   0.0023109845   0.1946471816   0.2501943973  -0.0331728579
       -0.0136256471  -0.0656944510  -0.0196100081  -0.0030159216  -0.0040088701
       -0.0020647010   0.0053347777   0.0035215951  -0.0011545161  -0.0012725620
       -0.0001322570  -0.0005920244   0.0034461131   0.0051670641   0.0044174932
       -0.0018234738   0.0022954419   0.0001087742   0.0002928906  -0.0000667900
        0.0003214663   0.0003636810  -0.0001028461   0.0000572879  -0.0001141805
        0.0001045325  -0.0000071556   0.0000818346  -0.0000323165   0.0000398524
        0.0000979684  -0.0000231589  -0.0002820059  -0.0002204711   0.0000069987
        0.0002267565   0.0003634594  -0.0001280992   0.0008372579  -0.0004424343
       -0.0004293943   0.0175451882  -0.1019891784  -0.1054603393  -0.0371391639
       -0.0177078563  -0.0096480849   0.0138604833  -0.0062329290  -0.0088864915
        0.0106306056   0.0106716438   0.0066026958  -0.0045168622   0.0017135618
        0.0026866011  -0.0025583993  -0.0004742935   0.0015826494   0.0007661324
       -0.0014658366   0.0001155667  -0.0048125613  -0.0012161455   0.0014699744
        0.0016704925   0.0043810110  -0.0014037395   0.0018897034  -0.0031704821
       -0.0010440718  -0.0011071896  -0.0013318042   0.0003817311   0.0049619771
        0.0010350563  -0.0011562922  -0.0005933536   0.0009247562  -0.0000382942
        0.0034638360   0.0010902221  -0.0009731051  -0.0028885283  -0.0026666424
        0.0010353674  -0.0009618339   0.0019525151  -0.0001365970  -0.0034637305
       -0.0045207847   0.0015932446   0.0021762421   0.0017318844  -0.0008524178
        0.0012055882  -0.0000605088  -0.0003909654   0.0006025442  -0.0031357772
       -0.0022024135   0.0015623216  -0.0003715404   0.0006291947   0.0006435923
       -0.0013080103  -0.0013118037  -0.0004772509  -0.0002375794  -0.0003644792
        0.0012552037  -0.0006720339  -0.0015225321  -0.0000036966  -0.0000000608
       -0.0000175068   0.0000178903   0.0000076315  -0.0000352461   0.0000175988
        0.0000044819  -0.0000150529  -0.0000123738  -0.0000110932   0.0000086767
        0.0016040942  -0.0072480447  -0.0033882021  -0.0016444937  -0.0032891431
        0.0049656809   0.0002768729  -0.0000156077   0.0000474145  -0.0001175798
       -0.0000465730   0.0000716519  -0.0001046868  -0.0000372415  -0.0000705346
        0.0000684412   0.0000304428   0.0000232296   0.0000049869   0.0000383329
       -0.0000285063   0.0000136401   0.0000240778  -0.0000244315  -0.0000289527
        0.0000016954   0.0000051885  -0.0000514332   0.0000343885   0.0000194150
       -0.0012576004  -0.0007512388  -0.0001098027  -0.0435414120  -0.0045779528
       -0.0098612563  -0.1790346276  -0.0501382314  -0.0331728579   0.5425133414
        0.0593543644   0.1487004785  -0.1654582449   0.0998835747  -0.0948800788
       -0.0578158648  -0.0157481153  -0.0195139909   0.0114502930   0.0177166614
       -0.0004356126  -0.0111229315  -0.0223391173   0.0067390132  -0.0907525535
       -0.0747747259   0.0157701514  -0.0005484536  -0.0015858998  -0.0024461828
       -0.0088884525  -0.0028149311  -0.0034550605   0.0007499076   0.0019780141
       -0.0003924994  -0.0047870853   0.0008434165  -0.0022015090   0.0038315052
       -0.0032656569   0.0030244116   0.0017053219   0.0026614690  -0.0002896926
        0.0043096267  -0.0056581354   0.0042252316  -0.0054784450   0.0013671220
       -0.0031095931  -0.0067815538  -0.0226571977  -0.0073727413   0.0061206812
        0.0012346429   0.0012214281  -0.0027668723  -0.0007159593  -0.0015353418
        0.0059623181   0.0056329185   0.0034612329  -0.0112109641  -0.0037403992
        0.0036162461   0.0106967665   0.0038876231  -0.0021483209  -0.0044118569
        0.0062007990   0.0003296241   0.0144988234   0.0009198264  -0.0039180272
       -0.0102621257  -0.0093691352   0.0033460671   0.0015035598  -0.0017616434
       -0.0004562580   0.0031032982   0.0024235910  -0.0008592220  -0.0091630160
       -0.0009665793   0.0022581652   0.0011616328  -0.0020873335   0.0001653404
       -0.0060400074  -0.0016170471   0.0015901665   0.0049054132   0.0048342090
       -0.0018129635   0.0020750486  -0.0038491781   0.0001791361   0.0057413060
        0.0086740669  -0.0028265255  -0.0066051355  -0.0030665549   0.0020982785
        0.0001390331  -0.0004233915   0.0000208478  -0.0001819386  -0.0000809722
       -0.0002283039  -0.0000622849   0.0004643482   0.0009095897   0.0038230106
       -0.0018972196   0.0026133869  -0.0036290114  -0.0032041006  -0.0033303193
        0.0041766867   0.0171540923  -0.0062200687  -0.0000142330  -0.0000142974
       -0.0000309351  -0.0000223360  -0.0000468380  -0.0000186803   0.0000051787
       -0.0000417147  -0.0000235143   0.0000626654   0.0001041555  -0.0000172417
        0.0007630773   0.0014784964   0.0003935217   0.0002985201   0.0003154595
        0.0001426429   0.0001619364   0.0001236086   0.0000776783   0.0000605263
        0.0000627357  -0.0001076275  -0.0000624974   0.0000575363  -0.0000443173
        0.0000077190  -0.0000535599  -0.0000138005  -0.0000114819  -0.0000498008
       -0.0000051616  -0.0000086379  -0.0000242928  -0.0000207609   0.0000375818
        0.0000038123  -0.0000146934   0.0000548446  -0.0000553236  -0.0000096775
        0.0010981848  -0.0011166964   0.0009693979   0.0053526832   0.0079514473
        0.0008428144  -0.0555990236  -0.0851222476  -0.0136256471   0.0593543644
        0.5801158160  -0.1311789685   0.0437776110  -0.1477643152   0.0548684307
        0.0392063915   0.0452370209  -0.0017467636   0.0142197607  -0.0386721778
        0.0203185856  -0.0744129089  -0.0281957652  -0.0225267716  -0.0224139826
       -0.2765408966   0.0893326412  -0.0002024572   0.0047804347   0.0001756163
        0.0021384102  -0.0019544818   0.0024148430  -0.0001392326  -0.0003318297
        0.0000022540   0.0021145693  -0.0009564675   0.0011923901  -0.0019750735
        0.0004400054  -0.0010057830   0.0004717167   0.0007431904  -0.0001641049
       -0.0032849042   0.0009674394  -0.0017003611  -0.0015819949   0.0000014808
       -0.0006679709  -0.0242385725  -0.0228748146  -0.0130040931   0.0002765556
       -0.0021192292  -0.0049179778   0.0002027318  -0.0034818842  -0.0014370864
        0.0011352543   0.0050401029  -0.0014553935   0.0047212273   0.0005963781
       -0.0003390667  -0.0036241701  -0.0014132809   0.0004848584   0.0014380880
       -0.0023481877  -0.0001499490  -0.0048311352   0.0001867815   0.0011945024
        0.0035138557   0.0031171434  -0.0011624931  -0.0006021778   0.0012758556
        0.0002000417  -0.0014667351  -0.0009821597   0.0004247849   0.0027224212
       -0.0003043395  -0.0005848739  -0.0002899033   0.0009276090  -0.0001207015
        0.0015332874   0.0002155683  -0.0003741406  -0.0011360419  -0.0012244126
        0.0004306714  -0.0007374843   0.0010060325  -0.0000069259  -0.0012387671
       -0.0025700243   0.0006977882   0.0023665322   0.0010075523  -0.0006966455
        0.0002332042  -0.0006411981  -0.0000464416   0.0000911850  -0.0000481365
        0.0001015162   0.0014488170   0.0002329126  -0.0008590298   0.0171063274
       -0.0178409855   0.0148069448  -0.0036927621   0.0009738807   0.0015706849
       -0.0011843876  -0.0167130144   0.0061757468  -0.0000536669  -0.0000480644
        0.0000258269  -0.0000220237   0.0000219015  -0.0000001727   0.0000100880
        0.0000300067   0.0000009257  -0.0000105768  -0.0000329230   0.0000101081
       -0.0010901561  -0.0005846411   0.0011512625  -0.0009411000  -0.0006514315
       -0.0003642443   0.0000979135  -0.0003281435   0.0006777199   0.0000003360
        0.0000277125   0.0000186473   0.0000937243   0.0000077334   0.0000304743
       -0.0000027185  -0.0000225723   0.0000310623  -0.0000170460  -0.0000004822
       -0.0000036711   0.0000219094  -0.0000438511  -0.0000107665   0.0000238406
       -0.0000199882   0.0000031334   0.0000180118   0.0000446363  -0.0000036295
        0.0011017697   0.0013785701  -0.0018661186  -0.0027650874   0.0047904941
        0.0020823242  -0.0308464993  -0.0185937182  -0.0656944510   0.1487004785
       -0.1311789685   0.2565645689  -0.0681259065   0.0806403831  -0.1112470808
       -0.0415376408  -0.0236761307  -0.0067798834   0.0002269816   0.0216168509
       -0.0129367140   0.0278676374   0.0010691917   0.0094262671  -0.0114436401
        0.0624539508  -0.0726414380  -0.0024694374  -0.0006701001   0.0043120142