$hessian                                                                        
        0.5296024130  -0.0000024622  -0.0000021659  -0.0661569409   0.0000004614
        0.0000014153  -0.0016466976   0.0083529327   0.0233830773  -0.0008417567
        0.0006253566   0.0013316460  -0.0009115607   0.0009540049   0.0003578911
        0.0004814518   0.0001967298   0.0002775277   0.0000857160  -0.0002936844
        0.0004045030  -0.0001139271   0.0003782091  -0.0005532258   0.0007054533
        0.0004373427  -0.0000231615  -0.0003568555  -0.0003296830   0.0001331977
        0.0001890758   0.0000621508   0.0001233302  -0.0000133729   0.0000015982
       -0.0000240468  -0.0000062701   0.0000026605  -0.0000093940   0.0000014342
       -0.0000044253   0.0000094562   0.0000282767  -0.0000084115   0.0000285044
        0.0000119408   0.0000938498  -0.0001130830  -0.0002730431  -0.0001146985
       -0.0000660354  -0.0041233777   0.0003428727   0.0017257922   0.0002538203
       -0.0000000294  -0.0000001240  -0.0041232773  -0.0003433457  -0.0017252750
       -0.0016466354  -0.0083530288  -0.0233827267  -0.0008420461  -0.0006251916
       -0.0013318072  -0.0009118288  -0.0009540165  -0.0003580336   0.0004816153
       -0.0001968264  -0.0002775305   0.0000856550   0.0002937317  -0.0004046298
       -0.0001140049  -0.0003782172   0.0005532912   0.0007055085  -0.0004373458
        0.0000231625  -0.0003568534   0.0003296857  -0.0001331745   0.0001890649
       -0.0000621582  -0.0001233368  -0.0000133704  -0.0000015925   0.0000240641
       -0.0000062725  -0.0000026586   0.0000094143   0.0000014346   0.0000044209
       -0.0000094417   0.0000282797   0.0000083960  -0.0000284952   0.0000119449
       -0.0000938483   0.0001130874  -0.0002730678   0.0001146875   0.0000660624
       -0.2042556357  -0.1103146977  -0.0246159338  -0.2043045639   0.1102952160
        0.0246366300  -0.0400815625   0.0000219803  -0.0000206503  -0.0005399215
       -0.0000326637   0.0001608033  -0.0000300843   0.0000261392   0.0000211877
       -0.0000283703  -0.0000036648   0.0000510780  -0.0000026404  -0.0000058929
        0.0000122432  -0.0000105847  -0.0000115950   0.0000041642  -0.0000122303
       -0.0000093662   0.0000008628  -0.0000055630  -0.0000003853  -0.0000032363
       -0.0001820736   0.0004865297   0.0013067326   0.0001324740   0.0000000653
       -0.0000000249  -0.0001820520  -0.0004864982  -0.0013066859  -0.0005396531
        0.0000326489  -0.0001606767  -0.0000300913  -0.0000261754  -0.0000212030
       -0.0000283573   0.0000036541  -0.0000510655  -0.0000026403   0.0000059042
       -0.0000122250  -0.0000105830   0.0000116038  -0.0000041364  -0.0000122303
        0.0000093598  -0.0000008436  -0.0000055624   0.0000003709   0.0000032438
       -0.0000024622   0.4880228845  -0.0072093510  -0.0000001595  -0.0847092646
       -0.0605451247   0.0018486186  -0.0019594134  -0.0085375379  -0.0001056867
       -0.0020057735   0.0006389769   0.0003985074  -0.0002084637   0.0002766355
       -0.0001665218  -0.0001591269  -0.0000827835  -0.0000013423   0.0000515061
       -0.0000693904  -0.0000708024  -0.0001283614   0.0002830608  -0.0005557209
       -0.0002872325  -0.0000888474   0.0001210646   0.0001759180  -0.0001095505
       -0.0000296108  -0.0000130742   0.0000004770   0.0000138454   0.0000127248
        0.0000068242   0.0000034228   0.0000012512   0.0000076940   0.0000032888
        0.0000021896   0.0000023058   0.0000030921   0.0000128124  -0.0000049170
        0.0000191361  -0.0000232591   0.0000354854  -0.0000131155   0.0000597482
       -0.0000610539   0.0009744957   0.0059395017  -0.0023185924  -0.0000000237
       -0.0002314105  -0.0000623414  -0.0009749723   0.0059396280  -0.0023188893
       -0.0018485853  -0.0019593908  -0.0085383934   0.0001055803  -0.0020058071
        0.0006389006  -0.0003987571  -0.0002087051   0.0002765851   0.0001666337
       -0.0001592358  -0.0000828416   0.0000013488   0.0000515336  -0.0000694877
        0.0000707387  -0.0001284556   0.0002831477   0.0005558397  -0.0002872474
       -0.0000888280  -0.0001211321   0.0001759211  -0.0001095980   0.0000296203
       -0.0000131368   0.0000004461  -0.0000138597   0.0000126720   0.0000068104
       -0.0000034619   0.0000011610   0.0000076580  -0.0000033122   0.0000021227
        0.0000022753  -0.0000031055   0.0000127508  -0.0000049397  -0.0000191434
       -0.0000233280   0.0000354788   0.0000130975   0.0000596980  -0.0000610510
       -0.1105153555  -0.1195178050  -0.0171845960   0.1104962821  -0.1194586257
       -0.0171884624   0.0000224825  -0.1653803306   0.1230692992   0.0006092350
       -0.0000550100  -0.0002797142   0.0000667853   0.0000479607   0.0000343400
        0.0000322792   0.0000498113  -0.0000859702   0.0000000680  -0.0000000257
       -0.0000003428  -0.0000008052  -0.0000013800  -0.0000005594  -0.0000016912
        0.0000031801  -0.0000015360  -0.0000038490   0.0000001007  -0.0000042530
       -0.0000349556  -0.0001844103  -0.0003447315   0.0000000639  -0.0013866690
        0.0005302393   0.0000349877  -0.0001844778  -0.0003447787  -0.0006092373
       -0.0000549938  -0.0002797443  -0.0000667685   0.0000479223   0.0000343173
       -0.0000322816   0.0000497978  -0.0000859988  -0.0000000854  -0.0000000766
       -0.0000003615   0.0000007870  -0.0000014306  -0.0000005645   0.0000016663
        0.0000030993  -0.0000015522   0.0000038371   0.0000000255  -0.0000042734
       -0.0000021659  -0.0072093510   0.4664887662  -0.0000002254  -0.0534901663
       -0.1873742678   0.0077732518  -0.0090370956  -0.0197838974  -0.0011372095
        0.0009823602  -0.0006080407   0.0002037410   0.0002858288  -0.0001796929
       -0.0000223254  -0.0001977337  -0.0000548369   0.0000465881   0.0000652288
       -0.0000917592   0.0000403002  -0.0001390925  -0.0001700613   0.0000439093
        0.0000445397   0.0001235214   0.0000970423   0.0000361331   0.0001203338
       -0.0000933916  -0.0000582108  -0.0000631247   0.0000252992   0.0000251552
       -0.0000004969  -0.0000142955  -0.0000037570   0.0000001033  -0.0000007812
        0.0000039128  -0.0000042162  -0.0000099209  -0.0000012087   0.0000053965
        0.0000320593   0.0000490896  -0.0000093603   0.0000346952   0.0000014214
        0.0001062966   0.0025176278  -0.0024873636   0.0017260143  -0.0000002788
       -0.0003677138  -0.0010442189  -0.0025171107  -0.0024876960   0.0017255607
       -0.0077727911  -0.0090371311  -0.0197822732   0.0011372929   0.0009821369
       -0.0006082182  -0.0002035258   0.0002860371  -0.0001796459   0.0000222110
       -0.0001976495  -0.0000547935  -0.0000465298   0.0000651089  -0.0000916721
       -0.0000402018  -0.0001391119  -0.0001701577  -0.0000440515   0.0000444836
        0.0001235113  -0.0000970305   0.0000361353   0.0001203551   0.0000933942
       -0.0000582288  -0.0000631241  -0.0000253046   0.0000251530  -0.0000004948
        0.0000142850  -0.0000037804   0.0000000930   0.0000007775   0.0000039039
       -0.0000042162   0.0000099145  -0.0000012119   0.0000053978  -0.0000320565
        0.0000490778  -0.0000093482  -0.0000346875   0.0000014111   0.0001062822
       -0.0238494919  -0.0178647395  -0.0441464883   0.0238712230  -0.0178691006
       -0.0441531142  -0.0000202197   0.1178306897  -0.1511182705  -0.0000745816
       -0.0001495392   0.0001611614   0.0000774943  -0.0000271392   0.0000566256
       -0.0000305340  -0.0001133979   0.0001142651  -0.0000022605  -0.0000097484
        0.0000051949   0.0000050185   0.0000033071   0.0000015298   0.0000065985
        0.0000005854   0.0000053553   0.0000081979  -0.0000023077   0.0000078331
       -0.0000334676  -0.0001245663  -0.0007449304  -0.0000000210   0.0006782160
       -0.0000999859   0.0000334932  -0.0001245446  -0.0007449151   0.0000745491
       -0.0001496226   0.0001611450  -0.0000774924  -0.0000271295   0.0000566617
        0.0000305423  -0.0001133884   0.0001142782   0.0000022589  -0.0000097552
        0.0000051985  -0.0000050160   0.0000033092   0.0000015418  -0.0000065995
        0.0000005751   0.0000053626  -0.0000081969  -0.0000023179   0.0000078361
       -0.0661569409  -0.0000001595  -0.0000002254   0.6255797483   0.0000130209
       -0.0000009426  -0.2357718821   0.0207445138   0.0539476329  -0.0367788253
        0.0009982191   0.0048522183   0.0003529857  -0.0004915704   0.0034006444
       -0.0005327213  -0.0009759100  -0.0007019062   0.0007784847   0.0001580174
        0.0002604137  -0.0006354556  -0.0013549563  -0.0007273393  -0.0005045002
        0.0013152928  -0.0020909387  -0.0000444648   0.0000330470  -0.0001342869
       -0.0001056023  -0.0000147260   0.0000184447  -0.0000059126   0.0000024629
       -0.0000154193  -0.0000074994  -0.0000043277  -0.0000070949   0.0000166736
        0.0000013766   0.0000188742   0.0000098620  -0.0000167161   0.0000008825
        0.0000216316   0.0000265944   0.0000049721  -0.0001927513   0.0001108730
        0.0000541972   0.0270432604   0.0288383948   0.0743158717  -0.0649872591
       -0.0000016743   0.0000002092   0.0270443968  -0.0288366647  -0.0743157219
       -0.2357702280  -0.0207547196  -0.0539450875  -0.0367793775  -0.0010000970
       -0.0048518511   0.0003530148   0.0004914607  -0.0034007946  -0.0005327534
        0.0009759411   0.0007018592   0.0007785103  -0.0001580158  -0.0002604731
       -0.0006355290   0.0013549595   0.0007273737  -0.0005042575  -0.0013153334
        0.0020910127  -0.0000444643  -0.0000330069   0.0001342971  -0.0001056066
        0.0000147250  -0.0000184219  -0.0000059126  -0.0000024495   0.0000154522
       -0.0000074967   0.0000043368   0.0000071353   0.0000166689  -0.0000013886
       -0.0000188415   0.0000098617   0.0000167005  -0.0000008609   0.0000216379
       -0.0000266120  -0.0000049599  -0.0001927703  -0.0001109013  -0.0000542093
       -0.0017969690  -0.0107200240  -0.0233647599  -0.0017974755   0.0107210629
        0.0233662764   0.0011183917  -0.0000013653  -0.0000038200  -0.0000405871
        0.0003864997   0.0000286607   0.0000480912  -0.0000987000  -0.0000044738
       -0.0001361858   0.0002256739   0.0003340898  -0.0000053474  -0.0000012911
        0.0000052024  -0.0000038804   0.0000012708   0.0000064389  -0.0000050771
        0.0000027524   0.0000037276   0.0000089553   0.0000074306   0.0000069922
        0.0008350089  -0.0003619608  -0.0004344178  -0.0006504730  -0.0000000311
       -0.0000000062   0.0008349766   0.0003616592   0.0004345678  -0.0000405133
       -0.0003865358  -0.0000287243   0.0000480972   0.0000986709   0.0000044323
       -0.0001361899  -0.0002256567  -0.0003340892  -0.0000053480   0.0000013190
       -0.0000051656  -0.0000038790  -0.0000012514  -0.0000063829  -0.0000050767
       -0.0000027667  -0.0000036854   0.0000089556  -0.0000074632  -0.0000069793
        0.0000004614  -0.0847092646  -0.0534901663   0.0000130209   0.2077839522
        0.1588753633   0.0468584115  -0.0598438700  -0.0285347755  -0.0054479216
        0.0014499569   0.0007702830   0.0003434164  -0.0004048124   0.0008558649
       -0.0005246102  -0.0002297478  -0.0002528948   0.0003048029   0.0001858125
        0.0000214480  -0.0002175453  -0.0002415671  -0.0002731234  -0.0011190849
       -0.0001685966  -0.0008597788  -0.0001685262  -0.0001012150   0.0000344169
       -0.0000077900   0.0000063906   0.0000226889  -0.0000128296  -0.0000143658
       -0.0000153163  -0.0000038387  -0.0000050143  -0.0000092318   0.0000005134
        0.0000020312  -0.0000042833   0.0000055579  -0.0000042493   0.0000025828
        0.0000078533   0.0000249268  -0.0000324428  -0.0001156298  -0.0000157857
       -0.0000054955   0.0086412758  -0.0039336079  -0.0121875634  -0.0000016640
       -0.0036101631   0.0031994332  -0.0086397217  -0.0039359098  -0.0121916267
       -0.0468685256  -0.0598471419  -0.0285378548   0.0054459361   0.0014500912
        0.0007700142  -0.0003434528  -0.0004048561   0.0008557009   0.0005246414
       -0.0002297288  -0.0002528628  -0.0003047715   0.0001858330   0.0000214147
        0.0002175051  -0.0002414909  -0.0002730432   0.0011189996  -0.0001686480
       -0.0008596681   0.0001685271  -0.0001012173   0.0000344315   0.0000077837
        0.0000063955   0.0000226995   0.0000128282  -0.0000143673  -0.0000153011
        0.0000038389  -0.0000050071  -0.0000092110  -0.0000005093   0.0000020364
       -0.0000042671  -0.0000055511  -0.0000042471   0.0000025994  -0.0000078522
        0.0000249310  -0.0000324288   0.0001156150  -0.0000157863  -0.0000054844
       -0.0027017541  -0.0075152204  -0.0179100794   0.0027012746  -0.0075121673
       -0.0179063848  -0.0000003059   0.0095709805   0.0160683282   0.0000386195
        0.0001615242   0.0001381615  -0.0000622242  -0.0000180260  -0.0000541651
       -0.0000033300   0.0000943427   0.0000203180   0.0000013618   0.0000006778
        0.0000026019  -0.0000017493  -0.0000018510  -0.0000013795  -0.0000025371
        0.0000002749  -0.0000018353  -0.0000011716   0.0000040362  -0.0000027939
        0.0000072557   0.0060146738  -0.0042064310  -0.0000000250   0.0000735303
        0.0003170091  -0.0000076288   0.0060145777  -0.0042064253  -0.0000386007
        0.0001614874   0.0001381591   0.0000622248  -0.0000180241  -0.0000541590
        0.0000033280   0.0000943347   0.0000202971  -0.0000013646   0.0000006811
        0.0000026156   0.0000017469  -0.0000018499  -0.0000013648   0.0000025396
        0.0000002795  -0.0000018173   0.0000011758   0.0000040407  -0.0000027763
        0.0000014153  -0.0605451247  -0.1873742678  -0.0000009426   0.1588753633
        0.5469078397   0.1145975033  -0.0291775549  -0.1307152656  -0.0044118104
        0.0030332543   0.0090749339  -0.0010453693  -0.0017509239  -0.0015920258
        0.0003210538  -0.0002381302  -0.0005630788   0.0003152870   0.0001418823
        0.0001142573   0.0005589435  -0.0000634738  -0.0000897988  -0.0030172318
       -0.0008301395  -0.0009095933  -0.0007644488  -0.0005382491   0.0000916522
        0.0002688150   0.0001028351   0.0001914920  -0.0000786618  -0.0000513505
       -0.0000391507   0.0000144268   0.0000063120   0.0000075184   0.0000053451
        0.0000199070  -0.0000183483  -0.0000074634  -0.0000405558   0.0000368058
        0.0000367850   0.0001738452  -0.0001882944  -0.0004094524  -0.0001375632
       -0.0000123027   0.0233138191  -0.0114459728  -0.0301589716   0.0000005289
        0.0031756644   0.0041593586  -0.0233139539  -0.0114469079  -0.0301574337
       -0.1145950769  -0.0291843823  -0.1307148698   0.0044114867   0.0030338403
        0.0090749582   0.0010450737  -0.0017510407  -0.0015919886  -0.0003208115
       -0.0002383285  -0.0005631384  -0.0003153730   0.0001420439   0.0001140828
       -0.0005591055  -0.0000634689  -0.0000896449   0.0030175360  -0.0008300740
       -0.0009096150   0.0007644823  -0.0005382394   0.0000916256  -0.0002688115
        0.0001028836   0.0001914978   0.0000786800  -0.0000513320  -0.0000391748
       -0.0000144339   0.0000063241   0.0000074832  -0.0000053365   0.0000199566
       -0.0000183886   0.0000074766  -0.0000405284   0.0000367837  -0.0000367944
        0.0001738807  -0.0001883272   0.0004094572  -0.0001375355  -0.0000123267
       -0.0054944765  -0.0039800835  -0.0091340830   0.0054925276  -0.0039814772
       -0.0091296024  -0.0000012952  -0.0059841410  -0.0282797233  -0.0003525529
        0.0005481417  -0.0000249574  -0.0001751902   0.0000950523  -0.0000726493
        0.0000988249   0.0003658814   0.0000007041   0.0000083470   0.0000105866
        0.0000167233  -0.0000093188  -0.0000104938   0.0000093087  -0.0000140614
       -0.0000055401  -0.0000006709  -0.0000078829   0.0000066501  -0.0000148007
        0.0002067851  -0.0041819286  -0.0041083192  -0.0000000031   0.0003816965
        0.0007785674  -0.0002065941  -0.0041819618  -0.0041082999   0.0003525520
        0.0005481980  -0.0000249508   0.0001751675   0.0000950535  -0.0000726838
       -0.0000988363   0.0003658892   0.0000006735  -0.0000083291   0.0000106180
        0.0000167048   0.0000093484  -0.0000104401   0.0000092984   0.0000140721
       -0.0000055040  -0.0000006960   0.0000078781   0.0000066861  -0.0000148272
       -0.0016466976   0.0018486186   0.0077732518  -0.2357718821   0.0468584115
        0.1145975033   0.6124863516   0.0031292209  -0.0089579703  -0.1853713939
       -0.0218714700  -0.0600326991  -0.0116393404   0.0005529982  -0.0177722561
        0.0039015982  -0.0006278891  -0.0017869343  -0.0021413864  -0.0004328983
       -0.0009128539   0.0008210459  -0.0044992012   0.0019245809  -0.0310535836
       -0.0108935719  -0.0028002854   0.0000276392   0.0004562869  -0.0006522208
       -0.0004315661  -0.0001661713  -0.0000627267  -0.0000147326  -0.0000675193
       -0.0000207657   0.0000435547  -0.0000202803   0.0000316784   0.0000218721
        0.0000806452  -0.0000914400  -0.0000673052  -0.0000192759  -0.0000616313
        0.0000781284   0.0000515184   0.0001381050   0.0006606067   0.0003087364
        0.0006736004  -0.0881685808  -0.0152291122  -0.0273985350   0.0254520124
       -0.0090739028  -0.0239123152  -0.0121326941   0.0100243185   0.0269771318
       -0.0658480223  -0.0099079674  -0.0253409929  -0.0019746349  -0.0012430481
       -0.0035569437   0.0000237339   0.0002167748   0.0005678987   0.0002808393
        0.0000389964   0.0001029835  -0.0001047863  -0.0000070347   0.0000791739
        0.0000588484   0.0003853724  -0.0000619849  -0.0012326305   0.0003856701
        0.0002156496   0.0000200323  -0.0000723006   0.0000665506  -0.0000261150
       -0.0000061546  -0.0000035040  -0.0000014260   0.0000044878   0.0000013719
        0.0000043040   0.0000013190  -0.0000128545  -0.0000031886  -0.0000060348
        0.0000039897   0.0000007755  -0.0000079117   0.0000105876   0.0000007346
       -0.0000051196  -0.0000129146   0.0000680083  -0.0000200723  -0.0000559934
       -0.0000875805  -0.0006466089  -0.0013953089   0.0001979348  -0.0001659362
       -0.0005014314  -0.0002499023   0.0001926385  -0.0010405177   0.0002847075
        0.0004866970   0.0016279454  -0.0001156514   0.0001431551   0.0002195800
       -0.0000370833   0.0015002114   0.0000255865  -0.0000021399   0.0000219775
       -0.0000235221  -0.0000013323   0.0000250122  -0.0000023721   0.0000084745
        0.0000170808  -0.0000007822  -0.0000146452  -0.0000090294  -0.0000013422
       -0.0024923227   0.0091421069   0.0239998027  -0.0041061383  -0.0007555080
       -0.0032716968   0.0004547885   0.0002280045   0.0005483886  -0.0001349873
       -0.0001458905   0.0000973683   0.0000075948  -0.0000127207  -0.0000203750
       -0.0000210998  -0.0001767211   0.0001057261  -0.0000047265  -0.0000075463
       -0.0000016086  -0.0000034757  -0.0000069093  -0.0000070836   0.0000005736
       -0.0000022553  -0.0000083152  -0.0000031076   0.0000058027  -0.0000062770
        0.0083529327  -0.0019594134  -0.0090370956   0.0207445138  -0.0598438700
       -0.0291775549   0.0031292209   0.1947326548   0.1478488714  -0.0236600614
       -0.0597574997  -0.0090601591   0.0109392295   0.0031294448   0.0041373918
       -0.0008181276   0.0024147787   0.0050862948  -0.0003182057  -0.0001536035
       -0.0001975632  -0.0030834936   0.0022024044   0.0047392468  -0.0203671316
       -0.0038919180  -0.0059148792  -0.0007784356  -0.0002848013  -0.0004238008
       -0.0000537629  -0.0001274056   0.0000970260  -0.0000900931   0.0000132229
       -0.0000092634  -0.0000331454  -0.0000158974  -0.0000209591  -0.0000109642
       -0.0000172478   0.0000428303   0.0000327473   0.0000362002   0.0000117341
       -0.0000511903  -0.0000766328  -0.0000529031   0.0003071781  -0.0005716065
       -0.0004523613   0.0105113223  -0.0779468078  -0.0836303351  -0.0278351278
       -0.0035355871  -0.0121671727   0.0103399563  -0.0100623136  -0.0131644039
        0.0099040496   0.0060787905   0.0180916234  -0.0013602266   0.0063200099
       -0.0023920279   0.0006682355  -0.0001968424  -0.0006276188  -0.0000101416
       -0.0001236049  -0.0003264378  -0.0000009879   0.0000528064  -0.0000726603
       -0.0002558209  -0.0000131630  -0.0002317263  -0.0010254419   0.0001420551
        0.0005947076  -0.0001359824   0.0000694408   0.0000371631   0.0000006556
        0.0000010463  -0.0000283562  -0.0000121968   0.0000056394   0.0000041450
       -0.0000002729   0.0000031367   0.0000011137  -0.0000018196   0.0000087342
       -0.0000033780   0.0000088488  -0.0000066484   0.0000002293  -0.0000108256
        0.0000207531  -0.0000012312   0.0000149960   0.0000198799   0.0000305582
        0.0009124439   0.0005155258  -0.0000737877   0.0006304638  -0.0008937658
       -0.0026665985   0.0009415878  -0.0002257701  -0.0000819724   0.0011541545
       -0.0008221274  -0.0008763362   0.0006911020   0.0000293824   0.0003549488
        0.0004486313  -0.0009777910  -0.0017507126   0.0000045266   0.0000117571
       -0.0000092798   0.0000013571  -0.0000209306  -0.0000081831  -0.0000037696
       -0.0000092620  -0.0000017406  -0.0000101330  -0.0000033907  -0.0000045042
        0.0010046864  -0.0010673471  -0.0059000847  -0.0011334498   0.0067993490
       -0.0026918162   0.0001663151  -0.0000589996  -0.0000702204   0.0001110674
        0.0000067172   0.0000061493   0.0000453787  -0.0000057490  -0.0000138619
       -0.0000092201   0.0000511141   0.0000585389   0.0000017193  -0.0000011113
       -0.0000009539   0.0000020887   0.0000041023   0.0000007182   0.0000011213
        0.0000010822  -0.0000010799  -0.0000005025   0.0000010795  -0.0000002704
        0.0233830773  -0.0085375379  -0.0197838974   0.0539476329  -0.0285347755
       -0.1307152656  -0.0089579703   0.1478488714   0.5795663782  -0.0601366305
       -0.0108897911  -0.0923091119  -0.0244527673  -0.0016219613  -0.0170501871
       -0.0015565502   0.0051367070  -0.0013611177  -0.0007474410   0.0001670370
       -0.0007807777   0.0010417261   0.0041151295   0.0025374429   0.0037041225
       -0.0006282799   0.0077322921   0.0011187122   0.0004457214  -0.0000003844
        0.0000320005  -0.0000552536  -0.0001762575   0.0000933309   0.0000801715
        0.0000603629  -0.0000082038   0.0000158764   0.0000125150  -0.0000049918
        0.0000223503  -0.0000071173  -0.0000546510  -0.0000180625   0.0000274247
        0.0000201898  -0.0000174963  -0.0000106870   0.0005860092  -0.0003194883
       -0.0002094556   0.0351767600  -0.0841240171  -0.2799726316  -0.0785905108
       -0.0108664153  -0.0323041327   0.0295130918  -0.0137866162  -0.0416680423
        0.0253405661   0.0180931414   0.0474633576  -0.0036252479  -0.0028612572
        0.0005339351  -0.0003770728   0.0002112722  -0.0004077531  -0.0001872542
        0.0002035642   0.0002292318   0.0002615267  -0.0000444269  -0.0001289278
        0.0001271226   0.0001191576   0.0003862586   0.0006306658  -0.0002690441
        0.0002223080  -0.0001002566   0.0001159441  -0.0000943936   0.0000162699
       -0.0000228574  -0.0000130245  -0.0000074229  -0.0000004847   0.0000099735
       -0.0000026138  -0.0000000176   0.0000053557  -0.0000022676  -0.0000068805
        0.0000003746  -0.0000052561   0.0000099009  -0.0000067014   0.0000107303
       -0.0000391686   0.0000448500  -0.0001744806  -0.0000004594  -0.0000006709
        0.0010929868   0.0002964213   0.0004658341   0.0000382382  -0.0020693667
       -0.0040840276   0.0010691431  -0.0007161225  -0.0012843820   0.0000812645
       -0.0014556392  -0.0002281109  -0.0009748437  -0.0000766985  -0.0005317377
        0.0017492964  -0.0010116126  -0.0004716806  -0.0000020896  -0.0000086284
        0.0000026409   0.0000144671  -0.0000010455  -0.0000075783   0.0000044258
       -0.0000032460  -0.0000017142   0.0000046215  -0.0000021270   0.0000046845
        0.0032148392  -0.0059630232  -0.0156161528  -0.0027064474  -0.0027230045
        0.0004664539   0.0005620140  -0.0001376814  -0.0002091547  -0.0000126588
       -0.0000128213  -0.0002077670  -0.0000681086  -0.0000020870   0.0000619975
       -0.0000807223  -0.0000246974  -0.0001843270  -0.0000005036  -0.0000042053
       -0.0000040230  -0.0000010491  -0.0000088916  -0.0000001919   0.0000000951
       -0.0000062014  -0.0000005466   0.0000030863  -0.0000098753  -0.0000017405
       -0.0008417567  -0.0001056867  -0.0011372095  -0.0367788253  -0.0054479216
       -0.0044118104  -0.1853713939  -0.0236600614  -0.0601366305   0.5539775429
        0.1372263342   0.0936488997  -0.0959698626   0.0366173850  -0.0768223645
       -0.0093445673   0.0148630970  -0.0271836063   0.0038275907  -0.0061297112
        0.0138824063  -0.0491984052  -0.0168734243  -0.0079924512  -0.1735679123
       -0.1254277259   0.0783409359  -0.0004466181  -0.0003630686  -0.0038252917
       -0.0028810054  -0.0021846898  -0.0002007002   0.0004210468   0.0005113453
       -0.0002132466  -0.0006418896  -0.0002549947  -0.0003515974   0.0000715402
       -0.0004285953   0.0005749267   0.0004836855   0.0003196404  -0.0001323111
        0.0000743698  -0.0004189930   0.0003612040  -0.0028759803   0.0002626545
       -0.0017198951  -0.0056116330  -0.0019649204  -0.0176140526   0.0027419167
        0.0004280625   0.0007266155  -0.0012639410  -0.0001133613  -0.0003515810
       -0.0019747282   0.0013598374   0.0036254365  -0.0009931898  -0.0000779584
       -0.0003923210   0.0001216744  -0.0000218256  -0.0000292511   0.0000087885
        0.0000039534  -0.0000119291  -0.0000961268   0.0000129848   0.0000544732
       -0.0000809700   0.0002078202  -0.0000484362  -0.0000380994  -0.0000117786
       -0.0000485112   0.0001143785  -0.0001013281   0.0000543269  -0.0000574070
        0.0000237313   0.0000257214   0.0000230819  -0.0000128989  -0.0000014923
       -0.0000009869   0.0000107723  -0.0000012917  -0.0000044242   0.0000090260
        0.0000033362   0.0000102732  -0.0000154320   0.0000106064   0.0000044443
        0.0000326356  -0.0000385210   0.0000754331  -0.0000329159  -0.0000195643
        0.0000982752   0.0007511379   0.0006627422  -0.0002616261  -0.0002695858
       -0.0002746372   0.0000422819   0.0001044055  -0.0001091495   0.0043242348
       -0.0097001956   0.0147623102  -0.0036705682  -0.0028025196  -0.0042630130
        0.0043130223   0.0036234831  -0.0014843070  -0.0000450034  -0.0000263102
       -0.0000247551  -0.0000226666  -0.0000018468  -0.0000161614  -0.0000039371
        0.0000130392   0.0000180193   0.0000404639   0.0000151648   0.0000180701
        0.0008236505   0.0001068017   0.0015511108   0.0002664616  -0.0001132102
        0.0003905612   0.0002330200   0.0000335549   0.0001518953  -0.0000324542
        0.0000172233  -0.0000291559   0.0000244571   0.0000026954  -0.0000174560
       -0.0000412696  -0.0000164210   0.0000260455  -0.0000062833   0.0000080675
        0.0000043310   0.0000010064   0.0000010439   0.0000053031   0.0000045220
        0.0000028143   0.0000016373  -0.0000036307   0.0000086696   0.0000017860
        0.0006253566  -0.0020057735   0.0009823602   0.0009982191   0.0014499569
        0.0030332543  -0.0218714700  -0.0597574997  -0.0108897911   0.1372263342
        0.3456493657  -0.1946448386  -0.0035986076  -0.1180481112   0.0946099831
        0.0470560250   0.0209745490   0.0058698600  -0.0054085151  -0.0286418337
        0.0298899652  -0.0485233339  -0.0005903990  -0.0352135650  -0.0867201029
       -0.1543780460   0.0916252155   0.0000558822   0.0030275093   0.0030938922
       -0.0020701230   0.0002811116   0.0001176406   0.0011647012   0.0008357344
       -0.0000907197  -0.0009624812  -0.0002576229  -0.0009945706  -0.0000396486
       -0.0010316380   0.0011098952   0.0012895122   0.0008700218  -0.0002852610
       -0.0007756097  -0.0011887520   0.0005931366  -0.0018171036   0.0009776997
       -0.0021951884  -0.0098980122  -0.0006862632  -0.0085937191   0.0005241772
        0.0058275718  -0.0039229790  -0.0001654582  -0.0003082154  -0.0000785343
        0.0012424745   0.0063201238  -0.0028610201   0.0000779000   0.0000284586
        0.0003288231   0.0000519461  -0.0000178970  -0.0000872926  -0.0000469403
        0.0000108494  -0.0000014793  -0.0000216331  -0.0000151184   0.0000402164
       -0.0000375170   0.0000286538  -0.0000217772   0.0000796157  -0.0000047170
       -0.0000530500   0.0000585292  -0.0000499525   0.0000136736  -0.0000242743
        0.0000074322   0.0000099951   0.0000040865  -0.0000087184  -0.0000070644
       -0.0000010174  -0.0000023973  -0.0000057058  -0.0000011778  -0.0000012778
       -0.0000036209   0.0000019374  -0.0000041753  -0.0000000166  -0.0000010266
        0.0000093045  -0.0000148298   0.0000261529  -0.0000052061  -0.0000081501
        0.0005910824  -0.0003044035  -0.0003988936   0.0001128549  -0.0000575091
       -0.0002188121  -0.0000559641   0.0002156615   0.0005602631   0.0032116705
       -0.0103514780   0.0168568124  -0.0026906107   0.0045490667   0.0021559607
       -0.0086509702  -0.0097665543   0.0082916770  -0.0000402529   0.0000075403
        0.0000097644  -0.0000293906   0.0000386741   0.0000131222  -0.0000521827
        0.0000596882   0.0000460908   0.0000037026   0.0000220342  -0.0000071181
       -0.0004779368  -0.0021484252   0.0010431979  -0.0004186978  -0.0001193519
       -0.0002559262   0.0000036262  -0.0014513722   0.0005384496   0.0000035306
       -0.0000010427   0.0000337300   0.0000125243   0.0000105643  -0.0000047153
       -0.0000170632   0.0000087568   0.0000114897  -0.0000027790  -0.0000045650
       -0.0000031369  -0.0000007165  -0.0000048256  -0.0000065054   0.0000001369
       -0.0000011489  -0.0000063994  -0.0000013613   0.0000039626  -0.0000037884
        0.0013316460   0.0006389769  -0.0006080407   0.0048522183   0.0007702830
        0.0090749339  -0.0600326991  -0.0090601591  -0.0923091119   0.0936488997
       -0.1946448386   0.5030322405  -0.0287878054   0.1231834733  -0.2304364483
       -0.0700476584  -0.0166387663  -0.0251048328   0.0119910050   0.0286467380
       -0.0351101148   0.0349930330  -0.0150340075   0.0393939215   0.0302198365
        0.0665141991  -0.1188947709  -0.0058967084   0.0014947208  -0.0006928771