$hessian                                                                        
        0.4640335934  -0.0096137224  -0.0140490671  -0.1923889366  -0.0195099972
       -0.0296509726  -0.0204903103   0.0043308639  -0.0049874078  -0.0012265675
        0.0027247702  -0.0003539254  -0.0007129349  -0.0000606364  -0.0002557428
       -0.0001427896   0.0001862034  -0.0000156115   0.0000196921  -0.0000097879
       -0.0000085906   0.0000080537  -0.0000107396   0.0000036483   0.0000039694
        0.0000120445   0.0000264823   0.0000475914   0.0000049416  -0.0000115319
       -0.0000456868  -0.0000054974   0.0000087363   0.0000461872  -0.0000053901
       -0.0000020318  -0.0000378572  -0.0000224122   0.0000042175   0.0000226601
        0.0000159743  -0.0000020354  -0.0000056118   0.0000091188  -0.0000011032
        0.0000057691   0.0000048648  -0.0000001698  -0.0000278163   0.0000015503
        0.0000012066   0.0000207304   0.0000114098  -0.0000021702  -0.0000136918
        0.0000039724   0.0000012187   0.0000065301   0.0000173379  -0.0000021233
       -0.0000221928  -0.0000122265   0.0000036669   0.0000051662  -0.0000073685
        0.0000020014   0.0000026720  -0.0000057101   0.0000012340  -0.0000267853
       -0.0000071194   0.0000051279   0.0000113580  -0.0000067023   0.0000024752
       -0.0000073992   0.0000299669  -0.0000051792   0.0000058883   0.0000073678
       -0.0000028986   0.0000158986   0.0000010807  -0.0000007023   0.0000045884
        0.0000106013  -0.0000019784  -0.0000186852  -0.0000441269   0.0000108388
       -0.0000160711  -0.0000062674   0.0000027487   0.0000364300  -0.0000203605
        0.0000019134   0.0000830606   0.0000977985  -0.0000106085  -0.0000074118
       -0.0002034309   0.0000332387   0.0002436352   0.0005604611  -0.0000976896
       -0.0001792237  -0.0000219601   0.0000374326   0.0000469932  -0.0000942243
        0.0000149903   0.0000099240  -0.0000167076   0.0000028842  -0.0000528977
        0.0000418793  -0.0000070827   0.0000266947  -0.0000056503   0.0000052196
       -0.0000312928  -0.0000353839  -0.0000026366  -0.0869337965   0.0935154344
       -0.0100221713  -0.0916701449  -0.0542165893   0.0798163284  -0.0440725237
       -0.0089208077  -0.0146783873  -0.0203093565  -0.0045065192  -0.0014262287
       -0.0073777422  -0.0022653880  -0.0044370322   0.0005720927  -0.0008643238
       -0.0000741730   0.0008843706  -0.0009150036   0.0002355788   0.0001445920
        0.0001243858  -0.0001795507  -0.0000040358   0.0001655854   0.0002133325
       -0.0000568003  -0.0000508679   0.0000187758   0.0000567469   0.0000421628
       -0.0000048359  -0.0000523918  -0.0000159945  -0.0000575627   0.0000079042
        0.0000143454   0.0000072645  -0.0000192469  -0.0000137238   0.0000136728
       -0.0000155920   0.0000231152   0.0000295048   0.0000335885   0.0000166585
       -0.0000276195  -0.0000498118   0.0000033148  -0.0000315163   0.0000105489
        0.0000046778  -0.0000064675   0.0000021965   0.0000023022  -0.0000006728
       -0.0000033797   0.0000011095  -0.0000000419   0.0000043759   0.0000015337
       -0.0000005954  -0.0000023680   0.0000020916  -0.0000005741   0.0000019229
       -0.0000082269   0.0000008180  -0.0000001526  -0.0000108926   0.0000019315
       -0.0000046260  -0.0000098203   0.0000015989  -0.0000116253  -0.0000069266
        0.0000010040  -0.0000137174  -0.0000143488   0.0000020153  -0.0000158330
        0.0000016932  -0.0000021476   0.0000266127  -0.0000512818   0.0000097208
       -0.0003901967  -0.0003554693  -0.0000805251   0.0000183434  -0.0000577116
       -0.0000124169  -0.0000128780   0.0000186995  -0.0000070490
       -0.0096137224   0.5236709734  -0.0026037866  -0.0188671012  -0.0672121938
       -0.0045729532   0.0250121763  -0.0002296242   0.0059638031   0.0025870940
       -0.0040088991   0.0005842764   0.0012924531   0.0001598291   0.0003010193
        0.0001865738  -0.0003087825   0.0000418557   0.0000253294  -0.0000050731
       -0.0000000977   0.0000053402   0.0000597310   0.0000938121   0.0000165857
       -0.0000860146  -0.0000288628  -0.0001364131   0.0000374153   0.0000136890
        0.0000748802  -0.0000004605  -0.0000178789  -0.0000471482   0.0000298969
       -0.0000016427   0.0000254385   0.0000170099  -0.0000005585  -0.0000146766
       -0.0000140145  -0.0000009860   0.0000027784  -0.0000229345   0.0000030649
       -0.0000026590   0.0000013343  -0.0000015581   0.0000086164  -0.0000354010
        0.0000071604   0.0000100355  -0.0000249107   0.0000045323   0.0000076125
        0.0000032333  -0.0000030678  -0.0000172110  -0.0000077063   0.0000008550
        0.0000337707   0.0000256505  -0.0000038681  -0.0000027859  -0.0000001493
        0.0000003843   0.0000189105   0.0000059671  -0.0000026290  -0.0000223892
       -0.0000261508   0.0000079125   0.0000049135   0.0000065651  -0.0000014025
       -0.0000052176  -0.0000030282   0.0000014737  -0.0000041474   0.0000128136
       -0.0000030975   0.0000091351  -0.0000039217  -0.0000017961   0.0000142373
        0.0000060005  -0.0000013019  -0.0000041869  -0.0000280967   0.0000069275
       -0.0000069775   0.0000024505   0.0000003448  -0.0000106367   0.0000117676
       -0.0000029991   0.0000137761   0.0000243404  -0.0000040794   0.0000217058
       -0.0001404286   0.0000164842   0.0000043492   0.0003148221  -0.0000609075
        0.0000474243  -0.0000027675   0.0000121960   0.0000426223   0.0000399480
       -0.0000155518  -0.0000258005  -0.0000149564   0.0000042935  -0.0000640431
       -0.0000152054   0.0000083397  -0.0000610123  -0.0000067457  -0.0000167176
        0.0000744089   0.0000852967  -0.0000026262   0.0935150770  -0.2369043863
        0.0224054550  -0.0545288861  -0.1059074099   0.0876404336  -0.0091995491
       -0.1057840417  -0.1025912158  -0.0164098427  -0.0023455526  -0.0022414072
       -0.0155267743  -0.0023306087  -0.0054293434   0.0007186196   0.0006563456
        0.0006329315   0.0009315158   0.0007147655  -0.0002457651   0.0000940942
       -0.0000256589  -0.0000365172   0.0000177594  -0.0000545918   0.0000474360
       -0.0000287839   0.0001105330  -0.0000302105  -0.0000176566  -0.0000123766
       -0.0000014254   0.0001123381  -0.0000124253   0.0000733076   0.0000097789
        0.0000086104   0.0000094090  -0.0000098602   0.0000028050  -0.0000148484
        0.0000032838  -0.0000196097  -0.0000208418  -0.0000147861  -0.0000085769
        0.0000240511  -0.0000023028   0.0000241609   0.0000451844  -0.0000112346
       -0.0000102616   0.0000095601   0.0000002869  -0.0000006897   0.0000014239
        0.0000024434  -0.0000017755   0.0000015274  -0.0000002475  -0.0000016687
        0.0000016406   0.0000025489  -0.0000057272   0.0000024165  -0.0000030689
       -0.0000018798   0.0000005303  -0.0000007154   0.0000009803  -0.0000001618
       -0.0000024403  -0.0000015982   0.0000004090  -0.0000044616  -0.0000010059
        0.0000002692   0.0000040484   0.0000012843  -0.0000008060   0.0000047380
       -0.0000052513   0.0000015122  -0.0000165469   0.0000233423  -0.0000031517
       -0.0002816551  -0.0004329247  -0.0000207392  -0.0000338996   0.0000115687
       -0.0000007386   0.0000421399  -0.0000039551   0.0000156195
       -0.0140490671  -0.0026037866   0.5197219130  -0.0296103797  -0.0047143551
       -0.0751914434  -0.0049517112   0.0010556936  -0.0007311477  -0.0004222554
        0.0006470572   0.0001999140  -0.0002203484  -0.0000039408   0.0001216595
       -0.0000235408   0.0000208995  -0.0000054060   0.0000052292  -0.0000088639
       -0.0000057363   0.0000062557   0.0000226961   0.0000310390  -0.0000159506
        0.0000261376  -0.0000101860   0.0000481277  -0.0000029596   0.0000033543
       -0.0000324226  -0.0000027789  -0.0000002265   0.0000313649  -0.0000081871
       -0.0000003274  -0.0000288177  -0.0000158724   0.0000073373   0.0000170559
        0.0000100652  -0.0000057848  -0.0000044482   0.0000062534  -0.0000017542
        0.0000041520   0.0000018517  -0.0000017852  -0.0000117950   0.0000085958
       -0.0000008166   0.0000049801   0.0000098746  -0.0000017764  -0.0000057239
       -0.0000009060  -0.0000009096   0.0000053040   0.0000094099  -0.0000051659
       -0.0000188207  -0.0000081258   0.0000042791  -0.0000028652  -0.0000039650
       -0.0000032780  -0.0000016978  -0.0000026430   0.0000015862  -0.0000047410
        0.0000014093  -0.0000077273   0.0000063573  -0.0000026567  -0.0000014866
       -0.0000026873   0.0000098406  -0.0000056466   0.0000055968   0.0000027895
       -0.0000018301  -0.0000038756   0.0000016826  -0.0000030053  -0.0000057868
       -0.0000054898  -0.0000038273  -0.0000026891  -0.0000067491   0.0000046527
       -0.0000031179  -0.0000052707  -0.0000043399   0.0000097802  -0.0000039456
        0.0000026122   0.0000166616  -0.0000023489  -0.0000677964   0.0000125841
       -0.0000451386   0.0000444123   0.0000384411   0.0000094141  -0.0003967213
       -0.0000586016  -0.0000020156  -0.0000851001   0.0000139718  -0.0000074219
        0.0000342317   0.0000016829  -0.0000048733   0.0000019602  -0.0000130382
        0.0000119400   0.0000135979   0.0000259494  -0.0000157744  -0.0000397988
       -0.0000225647  -0.0000200192   0.0000198211  -0.0099897060   0.0223292410
       -0.0476580382   0.0797682101   0.0876381092  -0.1729339900  -0.0146418297
       -0.1023038825  -0.2198266202   0.0210278632   0.0038906411   0.0041876831
       -0.0269155907  -0.0055259617  -0.0088060171   0.0008496250  -0.0002881978
        0.0004652141  -0.0006510428  -0.0001511096   0.0001875654  -0.0001010816
        0.0000395964  -0.0000540598   0.0001086764   0.0000516425   0.0001158087
       -0.0000113134  -0.0000267378   0.0000098333   0.0000154637   0.0000177916
       -0.0000156297  -0.0000087020  -0.0000038794  -0.0000079672  -0.0000009896
        0.0000122405   0.0000060098  -0.0000107203   0.0000054529   0.0000033965
        0.0000068990  -0.0000088594   0.0000178615   0.0000027218   0.0000130240
       -0.0000054524  -0.0000041725   0.0000019965  -0.0000124468   0.0000016632
        0.0000052578  -0.0000000588   0.0000015165  -0.0000001800   0.0000017196
       -0.0000009788  -0.0000004685   0.0000022640   0.0000015306   0.0000007104
        0.0000027731  -0.0000011947   0.0000022457   0.0000034875   0.0000008031
       -0.0000028900   0.0000051246  -0.0000004143  -0.0000027606   0.0000040025
       -0.0000016408  -0.0000010663   0.0000043729  -0.0000023828  -0.0000016484
        0.0000032100  -0.0000043023  -0.0000023121   0.0000044297  -0.0000069879
        0.0000028223   0.0000053604   0.0000079394  -0.0000120968   0.0000383738
       -0.0001600711  -0.0000301470   0.0005089845  -0.0000098649  -0.0000107119
        0.0000730765  -0.0000064738   0.0000046152   0.0000403820
       -0.1923889366  -0.0188671012  -0.0296103797   0.4720495803   0.0205812597
       -0.0162213753  -0.0851934243   0.0500620988  -0.0035286986  -0.0196239769
        0.0238626496  -0.0050860373  -0.0047523903  -0.0005655386  -0.0012942316
       -0.0007338692   0.0011673338  -0.0001854468   0.0000322838  -0.0000135198
        0.0000381445  -0.0000814709   0.0000758810  -0.0002073034   0.0000119767
        0.0000490435   0.0001125894   0.0000125303  -0.0000165109  -0.0000083626
        0.0000147620   0.0000099048   0.0000188292  -0.0000276456  -0.0000073212
        0.0000025687   0.0000583617   0.0000331208  -0.0000164545  -0.0000355529
       -0.0000208952   0.0000128998   0.0000086171   0.0000050871  -0.0000003939
       -0.0000050537  -0.0000058843   0.0000018519   0.0000102460  -0.0000028614
       -0.0000039400  -0.0000094931   0.0000009229   0.0000011385   0.0000021421
       -0.0000036823   0.0000012906  -0.0000027037  -0.0000055344   0.0000031041
        0.0000224112   0.0000021134  -0.0000006006  -0.0000003142   0.0000032302
       -0.0000000618   0.0000104926   0.0000074119  -0.0000029651  -0.0000173455
       -0.0000105788   0.0000022790  -0.0000000926  -0.0000037860   0.0000023596
       -0.0000061283  -0.0000079120   0.0000024549   0.0000039437   0.0000020463
       -0.0000018360   0.0000049962  -0.0000103370   0.0000015827   0.0000057157
        0.0000114424  -0.0000032143  -0.0000122019  -0.0000140759   0.0000041061
       -0.0000243404   0.0000014091   0.0000007717  -0.0000025564  -0.0000213139
        0.0000034863   0.0000093524   0.0000334686  -0.0000065739  -0.0000038324
       -0.0000418022   0.0000098781   0.0000109634   0.0000468882  -0.0000273578
       -0.0000176063  -0.0000105739   0.0000072766   0.0000324642  -0.0000164090
        0.0000028018  -0.0000017778  -0.0000022150  -0.0000002116  -0.0000028744
        0.0000180297  -0.0000013222  -0.0000288462   0.0000017246  -0.0000284347
       -0.0000434705  -0.0000593206   0.0000045283  -0.0179581024   0.0008920101
       -0.0043520619  -0.0202105806  -0.0051824898  -0.0005409549  -0.0066233580
       -0.0029585087  -0.0051559215  -0.0870353330  -0.0533938063   0.0752534897
       -0.0428868054  -0.0092218584  -0.0113573829  -0.0000824232   0.0018174258
        0.0008253303   0.0049264078  -0.0098832595   0.0011942096   0.0004101873
        0.0007852248  -0.0002133020   0.0006280667   0.0007820925   0.0005214968
       -0.0001217448  -0.0001206951   0.0000021189   0.0000490995   0.0000540084
        0.0000230867  -0.0003488455  -0.0000229399  -0.0002429450   0.0000300322
        0.0000042204  -0.0000090573  -0.0000309167  -0.0000124245   0.0000194445
       -0.0000269669   0.0000064682  -0.0000103741  -0.0000079257   0.0000369582
       -0.0000419342   0.0000132052   0.0000866546   0.0000515201   0.0000088864
        0.0000024302  -0.0000145470  -0.0000033353   0.0000036285  -0.0000012096
       -0.0000028406   0.0000044630  -0.0000015070   0.0000016684   0.0000023102
       -0.0000014632   0.0000021121   0.0000006938  -0.0000006385  -0.0000029257
        0.0000028541  -0.0000007769   0.0000031296   0.0000006684  -0.0000007286
        0.0000017040   0.0000009889  -0.0000002160   0.0000002839  -0.0000023271
       -0.0000003587   0.0000032038  -0.0000047877   0.0000002324   0.0000023538
       -0.0000057191  -0.0000002520   0.0000256376   0.0000021181   0.0000014506
       -0.0000720039   0.0000395878   0.0000029060   0.0000067906  -0.0000391833
        0.0000103895   0.0000164033   0.0000553006   0.0000412163
       -0.0195099972  -0.0672121938  -0.0047143551   0.0205812597   0.4875827431
        0.0051130660   0.0490090334  -0.1692617982   0.0115923744   0.0042355474
       -0.0001865505   0.0011574249  -0.0008113380   0.0003441264  -0.0001802144
        0.0000486137   0.0002086071  -0.0000603947  -0.0000896260   0.0000306769
        0.0000046836   0.0001016607  -0.0000827150  -0.0002620788  -0.0000984633
        0.0001370776   0.0000580272   0.0001792585  -0.0000783680   0.0000098910
       -0.0000532116  -0.0000048150   0.0000151020  -0.0000019869  -0.0000500167
        0.0000070975   0.0000842792   0.0000381231  -0.0000156222  -0.0000498679
       -0.0000298335   0.0000113024   0.0000224686   0.0000332893  -0.0000063524
       -0.0000140112  -0.0000242236   0.0000041330   0.0000603253   0.0000611925
       -0.0000172201  -0.0000545790   0.0000451416  -0.0000070303   0.0000164515
       -0.0000237166   0.0000042402  -0.0000209693  -0.0000139614   0.0000056632
        0.0000420497  -0.0000546790   0.0000054760  -0.0000242905   0.0000122750
        0.0000026403   0.0000205841  -0.0000068346  -0.0000019026  -0.0000053284
       -0.0000091279   0.0000018700  -0.0000012392  -0.0000148936   0.0000039323
       -0.0000078144  -0.0000034483   0.0000009121   0.0000034116   0.0000005516
       -0.0000008121   0.0000043283  -0.0000136146   0.0000021286  -0.0000124689
        0.0000029393  -0.0000002806  -0.0000017822  -0.0000061907   0.0000015199
       -0.0000148797  -0.0000031540   0.0000010084  -0.0000128783   0.0000144492
       -0.0000032575   0.0000085797   0.0000164776  -0.0000054815  -0.0000090695
       -0.0000437348   0.0000093269  -0.0000097902   0.0000300513  -0.0000358404
       -0.0000712676  -0.0000122315   0.0000226965   0.0000154759  -0.0000207566
        0.0000064745   0.0000051893   0.0000043720  -0.0000023512  -0.0000030178
        0.0000016025   0.0000023927  -0.0000228963   0.0000064779   0.0000018586
       -0.0000888704  -0.0000502455   0.0000165592   0.0265715959   0.0015950743
        0.0063341735  -0.0164538438  -0.0029642913  -0.0021134123  -0.0156885145
       -0.0029950187  -0.0055626448  -0.0529312765  -0.1044674953   0.0841857142
       -0.0087312044  -0.1034276215  -0.0985502852   0.0088281966  -0.0203950341
       -0.0024187206   0.0068300437  -0.0203901577   0.0058954703  -0.0009820873
        0.0006288341  -0.0003172866  -0.0011623148   0.0007976697  -0.0001623778
        0.0001186503   0.0001202220  -0.0001126198   0.0000174388  -0.0000507574
        0.0000467760  -0.0000964697   0.0000823405  -0.0000401910  -0.0000444350
        0.0000036849  -0.0000366836   0.0000256182   0.0000222629  -0.0000136825
        0.0000378195  -0.0000173274   0.0000329378   0.0000548373  -0.0000573541
        0.0000311578  -0.0000281964   0.0000148485   0.0000683856   0.0000100763
       -0.0000111303  -0.0000031778  -0.0000086449   0.0000045401  -0.0000012377
        0.0000030426   0.0000100179  -0.0000034812  -0.0000087421   0.0000081728
       -0.0000025954   0.0000116440   0.0000019021  -0.0000029614  -0.0000030818
        0.0000069364  -0.0000019342   0.0000034197   0.0000064262  -0.0000016530
        0.0000022885   0.0000059617  -0.0000012647   0.0000064259  -0.0000000914
       -0.0000000747   0.0000088186   0.0000010833  -0.0000002624   0.0000055844
       -0.0000131528   0.0000031238   0.0000055983  -0.0000319999   0.0000053950
        0.0000639256   0.0000999556   0.0000057123   0.0000362048  -0.0000550404
       -0.0000050315   0.0000487092   0.0001034689  -0.0000058754
       -0.0296509726  -0.0045729532  -0.0751914434  -0.0162213753   0.0051130660
        0.5364848819  -0.0034344173   0.0117648284  -0.0698852313  -0.0050509683
        0.0058296421  -0.0009922323  -0.0014969612  -0.0000617073  -0.0002456729
       -0.0002570341   0.0002611439   0.0000060844  -0.0000079545   0.0000389217
        0.0000264662   0.0001593266  -0.0000169160   0.0000429090   0.0000094717
        0.0000173176   0.0000393921  -0.0000007535   0.0000068045   0.0000067726
        0.0000003947  -0.0000121111  -0.0000023145   0.0000099920  -0.0000003038
       -0.0000002882  -0.0000037417  -0.0000062515   0.0000059377   0.0000002929
        0.0000057851  -0.0000083025   0.0000014521   0.0000000668  -0.0000015487
        0.0000004957  -0.0000020324  -0.0000016397   0.0000043362  -0.0000093805
        0.0000000168   0.0000048551   0.0000136551  -0.0000017730  -0.0000069724
       -0.0000108615   0.0000032309   0.0000024220  -0.0000145980  -0.0000010209
        0.0000183887  -0.0000251145   0.0000068226  -0.0000028920  -0.0000022920
       -0.0000027633   0.0000003394   0.0000006191   0.0000019198  -0.0000044582
        0.0000013531   0.0000021838   0.0000013595  -0.0000024294   0.0000005305
       -0.0000018090  -0.0000014793  -0.0000001756   0.0000033636   0.0000010635
        0.0000024959  -0.0000018725  -0.0000023915  -0.0000001074  -0.0000008063
       -0.0000002250  -0.0000008170  -0.0000003902   0.0000003528   0.0000002365
       -0.0000054133  -0.0000002581  -0.0000030180  -0.0000011633  -0.0000023067
       -0.0000020486   0.0000031811   0.0000044342   0.0000063734  -0.0000128132
       -0.0000105108  -0.0000009910  -0.0000002343   0.0000213593   0.0000947475
        0.0000002277  -0.0000033285   0.0000051986   0.0000049236  -0.0000064727
       -0.0000054775  -0.0000004549   0.0000005337   0.0000007128  -0.0000006833
       -0.0000008631  -0.0000064412  -0.0000324836  -0.0000023657   0.0000339053
       -0.0000160404  -0.0000154165  -0.0000059405  -0.0043447705   0.0002151980
       -0.0007169297   0.0215086800   0.0036039586   0.0045645070  -0.0272954860
       -0.0056075456  -0.0089992466   0.0749963567   0.0839763904  -0.1682481130
       -0.0110704314  -0.0985415380  -0.2136046741   0.0110147799  -0.0250828881
        0.0003305527  -0.0086040194   0.0224173900  -0.0039901712   0.0006879289
       -0.0002714983   0.0002703986  -0.0007101974   0.0008495641   0.0001958825
       -0.0000181303  -0.0000948048  -0.0000034239   0.0000053971   0.0000196489
        0.0000028413  -0.0000871789  -0.0000202185  -0.0000763995   0.0000100197
       -0.0000049695  -0.0000025035   0.0000068367  -0.0000042259   0.0000101990
       -0.0000274123  -0.0000088947  -0.0000257441   0.0000986432  -0.0000031328
        0.0000472643  -0.0002753405   0.0001376986   0.0000838519   0.0000029851
        0.0000029912   0.0000016416  -0.0000006564   0.0000013988   0.0000017469
        0.0000001001   0.0000023317   0.0000015914  -0.0000005617   0.0000014755
        0.0000031971   0.0000022751  -0.0000006086   0.0000022515  -0.0000011211
        0.0000022085   0.0000021617   0.0000014539   0.0000019386   0.0000020784
        0.0000010526   0.0000021059   0.0000011961   0.0000017424   0.0000001962
        0.0000016540   0.0000026440  -0.0000002666   0.0000016868   0.0000021286
       -0.0000018299   0.0000017267   0.0000033742   0.0000061951  -0.0000128423
        0.0000258957   0.0000188727  -0.0001634169   0.0000080078  -0.0000077567
       -0.0000121288   0.0000428468   0.0000922374  -0.0000824070
       -0.0204903103   0.0250121763  -0.0049517112  -0.0851934243   0.0490090334
       -0.0034344173   0.4652634180   0.0205975009  -0.0147879656  -0.1807347248
       -0.0221120073  -0.0291969998  -0.0182643725   0.0046745692  -0.0053217167
       -0.0011101544   0.0020259621   0.0001920412   0.0000972032   0.0000057805
        0.0000195146  -0.0002339815  -0.0000861601   0.0002671708   0.0000214985
       -0.0001311420  -0.0000493783  -0.0000367536  -0.0000429165  -0.0000633477
        0.0000294962  -0.0000037150   0.0000092881  -0.0000185633   0.0000028188
        0.0000062800   0.0000256961   0.0000136738  -0.0000084535  -0.0000178750
       -0.0000076786   0.0000070169   0.0000009250   0.0000030778  -0.0000002723
       -0.0000086011   0.0000083058   0.0000087834   0.0000077004  -0.0000283126
        0.0000134125   0.0000037714  -0.0000435860  -0.0000037019   0.0000071612
        0.0000225961  -0.0000051751  -0.0000143800   0.0000179682   0.0000006928
       -0.0000115799  -0.0000034604  -0.0000068222  -0.0000023789  -0.0000028053
        0.0000008469   0.0000077786   0.0000002610   0.0000032457  -0.0000104092
       -0.0000007830   0.0000048353   0.0000038280  -0.0000037071   0.0000007495
       -0.0000015395   0.0000075648  -0.0000005336  -0.0000060597   0.0000040543
       -0.0000011790   0.0000145984  -0.0000064551   0.0000004590   0.0000054739
        0.0000102219  -0.0000015402   0.0000002101  -0.0000171566   0.0000033221
       -0.0000044289   0.0000016213   0.0000006912  -0.0000022863  -0.0000011870
        0.0000007017   0.0000115047   0.0000289377  -0.0000049567   0.0000209204
       -0.0000140083  -0.0000036266   0.0000551530   0.0000686532   0.0000079269
       -0.0000022164   0.0000038486   0.0000371200  -0.0000062672   0.0000023575
       -0.0000041648  -0.0000010597  -0.0000129646   0.0000013397   0.0000000121
        0.0000047246  -0.0000013199   0.0000190600  -0.0000505256   0.0000815955
        0.0000907846   0.0000994295  -0.0000251575  -0.0062092543   0.0003552290
       -0.0016072956   0.0007150781   0.0009019165  -0.0002998999   0.0008519248
        0.0005960765   0.0005673800   0.0048838445  -0.0096400412   0.0011058674
       -0.0002151239   0.0017633649   0.0009341772  -0.0431029208  -0.0097054360
       -0.0118447408  -0.0891728556  -0.0541188813   0.0754058797  -0.0203545582
       -0.0051989967  -0.0013574782  -0.0068509216  -0.0028462110  -0.0052537194
        0.0009592730  -0.0014491788   0.0004360203   0.0000900402   0.0001880356
        0.0000060561  -0.0005473700  -0.0000072931  -0.0004697359   0.0000757243
        0.0000072634   0.0000204016  -0.0000494878  -0.0000368181   0.0000075087
       -0.0000153662  -0.0000285079  -0.0000081291  -0.0003164213   0.0000628868
       -0.0000829321  -0.0001718371   0.0001465189  -0.0001958206   0.0000030278
        0.0000036415  -0.0000141371   0.0000005682   0.0000034399  -0.0000013360
       -0.0000030467  -0.0000001593   0.0000003041   0.0000012657   0.0000057783
       -0.0000020268  -0.0000004776   0.0000053297   0.0000000643  -0.0000005304
       -0.0000024288  -0.0000013500   0.0000008814  -0.0000026840  -0.0000003841
       -0.0000019203  -0.0000038674  -0.0000001524  -0.0000030568  -0.0000016141
       -0.0000003945  -0.0000034270  -0.0000035671   0.0000000546   0.0000031494
       -0.0000022913  -0.0000004306   0.0000102344  -0.0000002632   0.0000024674
       -0.0000614402   0.0000010553  -0.0000085882   0.0000020131  -0.0000148444
       -0.0000335117  -0.0000318366  -0.0000340188  -0.0000987123
        0.0043308639  -0.0002296242   0.0010556936   0.0500620988  -0.1692617982
        0.0117648284   0.0205975009   0.4848425290   0.0041235223  -0.0217369842
       -0.0658387840  -0.0056234552   0.0226986189   0.0003563518   0.0070082644
        0.0026752779  -0.0036825689   0.0003503697  -0.0000418394   0.0000579411
       -0.0001279974  -0.0001014694   0.0003496802   0.0002603354   0.0001800705
       -0.0002400559  -0.0000987022  -0.0002969012   0.0000317091   0.0000519892
        0.0001319723  -0.0000282968  -0.0000558607  -0.0001038962   0.0000828168
       -0.0000059436   0.0000220306   0.0000161333   0.0000087948  -0.0000156731
       -0.0000155295  -0.0000093364  -0.0000183019  -0.0000498909   0.0000076263
       -0.0000025236   0.0000150521  -0.0000061851   0.0000239977  -0.0000595025
        0.0000148208   0.0000427353  -0.0000549425   0.0000070790   0.0000224586
        0.0000295767  -0.0000094806  -0.0000541815  -0.0000214903   0.0000042198
        0.0000894268   0.0000319966  -0.0000085492   0.0000044822   0.0000242200
       -0.0000017648  -0.0000010654  -0.0000104542   0.0000016116  -0.0000048284
       -0.0000120564   0.0000051766  -0.0000040591   0.0000119397  -0.0000038710
        0.0000080713  -0.0000106719   0.0000023970  -0.0000108880   0.0000007367
        0.0000001182   0.0000257922  -0.0000095990   0.0000010889   0.0000022048
        0.0000191921  -0.0000038397  -0.0000000939  -0.0000110638   0.0000019227
       -0.0000036423   0.0000080082  -0.0000014232  -0.0000004729  -0.0000013060
       -0.0000000014   0.0000044786   0.0000127096  -0.0000064825   0.0000148627
       -0.0000023691  -0.0000028016   0.0000171591   0.0000404921  -0.0000157020
       -0.0000410798  -0.0000162862   0.0000277963   0.0000019660   0.0000031796
       -0.0000010190   0.0000089882  -0.0000008366  -0.0000013551   0.0000017021
        0.0000025081   0.0000003214  -0.0001266784   0.0001102601  -0.0000099768
        0.0002404033   0.0002100372  -0.0000216828  -0.0009323920   0.0008280273
       -0.0002169885  -0.0010443120   0.0007962207  -0.0003775783  -0.0011060974
        0.0007752504  -0.0001515648   0.0069294408  -0.0203353088   0.0057732255
        0.0086398909  -0.0200662721  -0.0022340572  -0.0098985908  -0.0989112973
       -0.0959861314  -0.0540067390  -0.1027045754   0.0822614875  -0.0155729444
       -0.0031129925  -0.0021354395  -0.0157580646  -0.0035831117  -0.0064306845
        0.0015979259   0.0007892311  -0.0000967992   0.0000678480  -0.0000398191
       -0.0000471302   0.0012899234  -0.0000632529   0.0007661433  -0.0000458172
        0.0000357858   0.0000666732  -0.0000008140  -0.0000246214  -0.0000000084
       -0.0000047162   0.0000608698   0.0001267940   0.0001507538  -0.0000992823
       -0.0000146130   0.0010196339  -0.0006891045  -0.0000523727  -0.0000081604
       -0.0000272932   0.0000278312   0.0000040990  -0.0000025768   0.0000034352
        0.0000075747  -0.0000121019   0.0000050453  -0.0000047221  -0.0000032409
        0.0000030080   0.0000038052  -0.0000158190   0.0000042341  -0.0000000139
       -0.0000006820  -0.0000003077   0.0000003318   0.0000036363  -0.0000008826
        0.0000008837   0.0000006058  -0.0000002424   0.0000006902   0.0000008987
       -0.0000003514   0.0000027611   0.0000006966  -0.0000000049   0.0000023814
       -0.0000035566   0.0000009781  -0.0000026072  -0.0000099871   0.0000047770
       -0.0000159287   0.0000249743   0.0000109874   0.0000204747  -0.0000514207
       -0.0000084035   0.0000209177  -0.0002598239   0.0000163945
       -0.0049874078   0.0059638031  -0.0007311477  -0.0035286986   0.0115923744
       -0.0698852313  -0.0147879656   0.0041235223   0.5356701609  -0.0281215860
       -0.0059742578  -0.0758956518  -0.0053823283   0.0019476651  -0.0013198584
       -0.0008735548   0.0010446855   0.0000405772  -0.0000862780   0.0001361769
        0.0000556602  -0.0003503872  -0.0002460241   0.0000298632   0.0000944969
       -0.0000084366  -0.0001467255   0.0001598175  -0.0000802114   0.0000199512
       -0.0000716758  -0.0000065045  -0.0000079197   0.0000349709  -0.0000354170
        0.0000040798  -0.0000085364  -0.0000027695   0.0000076535   0.0000018869
        0.0000017400  -0.0000092792  -0.0000032743   0.0000214674  -0.0000069635
       -0.0000009490  -0.0000039042  -0.0000007683   0.0000020664   0.0000429036
       -0.0000060500  -0.0000261996   0.0000184029  -0.0000071620   0.0000012879
       -0.0000002184  -0.0000110034   0.0000017056   0.0000342922  -0.0000116241
       -0.0000675243   0.0000189102   0.0000076172   0.0000130841   0.0000051341
       -0.0000110233  -0.0000116629   0.0000002133  -0.0000061474   0.0000125507
        0.0000107688  -0.0000129251   0.0000052986  -0.0000055175  -0.0000035388
       -0.0000043110   0.0000065672  -0.0000057127   0.0000060802   0.0000007814
        0.0000012586  -0.0000090022   0.0000007637  -0.0000034214  -0.0000044657
       -0.0000106433  -0.0000015782   0.0000036421   0.0000062462  -0.0000003809