73
 energy: -105.623964766324 gnorm: 0.000093422239 xtb: 6.7.1 (edcfbbe)
C            1.32927815377561       -4.47487074067117        0.55448547296185
C           -0.13567138337053       -4.65921920364506        0.17941919474348
C           -0.83921537629042       -3.31975031062157       -0.02771368448551
C           -2.29965961103710       -3.50443015930909       -0.43631168381742
C           -3.02911630110015       -2.18259758208374       -0.70261790708092
C           -4.27259769542774       -2.38479073821755       -1.57802546637232
C           -3.93667033244957       -2.62187937561690       -3.04564855240768
C           -3.42264760348225       -1.51904657643209        0.63066182493625
N           -3.81080543276888       -0.14505560968345        0.46379597577801
C           -5.08742205787327        0.35585305631722        0.42023481615349
C           -6.29886034050508       -0.28873370491346        0.59776514915784
C           -7.46079825175282        0.47779233520343        0.51086765167287
C           -8.71164378322997       -0.15019044046053        0.68535033320103
N           -9.72829143838752       -0.66377600112531        0.82723137070426
C           -7.41623295989593        1.85894050409204        0.25251657387435
C           -6.21118562244635        2.49822296564920        0.07898367988898
C           -5.03473944466016        1.75517499628626        0.16176889407362
C           -3.65687444214714        2.09179554696395        0.03913139081895
C           -2.97455564369197        3.28610829478999       -0.21085648180019
C           -1.60638647415829        3.27043166193967       -0.26474714081775
C           -0.87794643276579        2.07106632804029       -0.06626869567404
C            0.50841095821437        2.08661491838182       -0.11986533666192
C            1.73274252431419        2.08383760323843       -0.16247468452986
C            3.10317587234685        2.09664115725179       -0.21610765835586
C            3.79091633076867        3.30019823926993       -0.52052855311705
C            5.14478818177778        3.34222801904428       -0.58950401695603
C            5.93949524330710        2.17040098789884       -0.35419104219734
C            7.32954564139450        2.19876225483663       -0.42349060857153
C            8.08136574044430        1.05875367147470       -0.19095689977306
C            7.46307241248675       -0.15984985551913        0.12393800665140
C            8.20547384612855       -1.34046355264392        0.36936374486774
C            7.56541000187694       -2.52695607339212        0.67983556124157
C            6.19045959871635       -2.58893738423641        0.75803748766659
C            5.39898992365698       -1.43404752210049        0.52027341125593
C            4.00178836601377       -1.46084297859203        0.59188441411015
C            3.25389945432365       -0.31931198649558        0.35059193148629
C            3.86936784959698        0.88953579180218        0.03470447978863
C            5.28122835499833        0.95123902521418       -0.04042330469117
C            6.04663217081943       -0.21298533623561        0.20036812970051
C           -1.55172532692178        0.86211890660179        0.18468430832087
C           -2.92921547849772        0.88560593335852        0.23062226042793
H            1.81158083141037       -5.43835247990101        0.70226377988988
H            1.85726067680309       -3.94348185430164       -0.23501686438153
H            1.41652761242515       -3.90253652754399        1.47629258253132
H           -0.64641218389544       -5.21694891867408        0.96773236887938
H           -0.20273852951746       -5.24751594341184       -0.73844924381146
H           -0.77375052035426       -2.74362667690841        0.89827857980353
H           -0.31655718372732       -2.75833034459153       -0.80649848467731
H           -2.83089165862757       -4.05848370022041        0.34174428435498
H           -2.32311213547652       -4.11218154022719       -1.34178275472851
H           -2.34885954716665       -1.50469274284242       -1.23005206746065
H           -4.85104033712777       -3.22787590021886       -1.19252445052888
H           -4.90034372886773       -1.49334488073710       -1.51444594775493
H           -4.84997189180479       -2.73434922632212       -3.62479270626115
H           -3.37832918564925       -1.77895953347164       -3.44761519974031
H           -3.34047809457267       -3.52121218929982       -3.17801402547683
H           -4.25257966317067       -2.06638245462974        1.08264993392988
H           -2.57790410596535       -1.55227021216066        1.32515050245788
H           -6.36811554024658       -1.34796373523959        0.79488462719116
H           -8.34452526115869        2.40716359821804        0.19375520191455
H           -6.17251746440818        3.55866957185187       -0.11772326554782
H           -3.52407141746973        4.20359381717427       -0.35820558146810
H           -1.05295441080214        4.17738071103424       -0.45718925959160
H            3.20058133934362        4.18768472400560       -0.69982345976977
H            5.65634206081638        4.26417159611795       -0.82461774112990
H            7.82516496017607        3.12893041461075       -0.66304420685108
H            9.15924790045378        1.10090354952145       -0.24992329535900
H            9.28293273072881       -1.29920627435676        0.31040953322631
H            8.15215406684445       -3.41579115607568        0.86345828182534
H            5.69373661453605       -3.51658444889016        1.00091286615647
H            3.50717359458584       -2.38801773678665        0.84051840848568
H            2.17556807365208       -0.35770506701630        0.40823529838674
H           -0.98422053006625       -0.04355972944286        0.33274319498614
