$hessian                                                                        
        0.5236997908  -0.0089984216  -0.0069828915  -0.0734770266  -0.0176877040
       -0.0198000013  -0.0039643320  -0.0115972283  -0.0071115774   0.0000680514
       -0.0001364500  -0.0000516059  -0.0000020862   0.0000166737  -0.0000780410
        0.0000400936   0.0000297591  -0.0000172901  -0.0000324146   0.0000082188
       -0.0000160546  -0.0000283029  -0.0000575529   0.0000257663  -0.0000114511
       -0.0000535997   0.0000167809   0.0000583150   0.0000388498  -0.0000131495
       -0.0000098531   0.0000100785   0.0000003562  -0.0000156871   0.0000022326
       -0.0000035263   0.0000338337  -0.0000129088   0.0000031308  -0.0000230425
        0.0000116312   0.0000000783   0.0000010989  -0.0000138996   0.0000062420
        0.0000019913   0.0000020891  -0.0000006113   0.0000076954  -0.0000224080
        0.0000104578  -0.0000149824  -0.0000051288   0.0000004935   0.0000074057
       -0.0000085141   0.0000038879  -0.0000070222  -0.0000142220   0.0000054535
       -0.0000129811   0.0000202992  -0.0000092089   0.0000119586   0.0000006894
        0.0000003281   0.0000103686  -0.0000008359   0.0000002640  -0.0000064268
        0.0000025120  -0.0000015731  -0.0000123501   0.0000008919  -0.0000018504
        0.0000062358  -0.0000151419   0.0000041992  -0.0000008044   0.0000055760
       -0.0000013851   0.0000099136   0.0000008531  -0.0000000867  -0.0000013437
        0.0000021556  -0.0000010236   0.0000027597  -0.0000009573   0.0000006016
       -0.0000004750   0.0000022383  -0.0000013541  -0.0000199235   0.0000016737
       -0.0000024459   0.0000069456  -0.0000229077   0.0000018362  -0.0000089538
        0.0000099309  -0.0000018117   0.0000209730   0.0000006711  -0.0000091387
       -0.0000104048   0.0000065711  -0.0000085307   0.0000058723  -0.0000013269
        0.0000020051  -0.0000060536   0.0000019195  -0.0000008785  -0.0000070578
        0.0000047372  -0.0000015939   0.0000154190  -0.0000017569  -0.0000084238
       -0.0000315312   0.0000192556  -0.0000069209  -0.0765629703  -0.0692301530
        0.0419581785  -0.2097401080   0.0519108764   0.0972369646  -0.1583072076
        0.0552123908  -0.1059568360   0.0038822495   0.0174327053   0.0179182510
       -0.0054414077  -0.0134928998  -0.0167976532   0.0004443006  -0.0006843393
       -0.0009329878  -0.0008395184  -0.0029670816   0.0008168875   0.0002287078
        0.0003675466  -0.0003365858  -0.0000139468  -0.0000739197   0.0001097442
       -0.0000255389   0.0000169537  -0.0000146504  -0.0000058259  -0.0000374755
       -0.0000468136   0.0000005545   0.0000042403   0.0000018023  -0.0000199539
        0.0000362708  -0.0000337887   0.0001247231  -0.0000536692   0.0000390188
       -0.0000369054  -0.0000187809   0.0000360892   0.0000365954   0.0000383729
       -0.0000088285  -0.0000372219   0.0000003386   0.0000292321   0.0000153921
        0.0000049568  -0.0000065878  -0.0000023939  -0.0000038151   0.0000007355
       -0.0000010407  -0.0000034349   0.0000010284   0.0000006629  -0.0000036151
        0.0000014593   0.0000004489  -0.0000015270   0.0000010622   0.0000017688
       -0.0000007920   0.0000009053   0.0000004835   0.0000018336   0.0000000026
       -0.0000004016  -0.0000006116   0.0000005780   0.0000003128   0.0000000088
        0.0000004794   0.0000043734   0.0000002334   0.0000007327   0.0000050618
        0.0000046962  -0.0000005925  -0.0000006720   0.0000015984   0.0000025658
       -0.0000028939  -0.0000056278   0.0000114008  -0.0000001170   0.0000035237
        0.0000047806  -0.0000117269  -0.0000073470   0.0000125193
       -0.0089984216   0.4890367263  -0.0310861332  -0.0182952146  -0.1310999471
       -0.0656191690  -0.0091068487  -0.0231770517  -0.0143328868   0.0000463749
        0.0004546781   0.0000291243  -0.0000704383   0.0000699014  -0.0002672088
        0.0000150100   0.0000395985  -0.0000325407   0.0000464063   0.0000488926
       -0.0000518703  -0.0000535743  -0.0001367275   0.0000464273   0.0000211422
       -0.0000705173   0.0000320725   0.0000594401   0.0000095920  -0.0000037713
       -0.0000379052   0.0000173223  -0.0000104214   0.0000224159   0.0000072422
       -0.0000009409  -0.0000028803   0.0000101177  -0.0000049961  -0.0000045442
       -0.0000103823   0.0000029701   0.0000038544  -0.0000161961   0.0000072413
       -0.0000086031  -0.0000069592   0.0000030991  -0.0000028477  -0.0000028599
        0.0000015790   0.0000005560  -0.0000230496   0.0000096616  -0.0000016600
       -0.0000040283   0.0000023018   0.0000130665  -0.0000000890   0.0000018522
       -0.0000117407   0.0000089763  -0.0000053315  -0.0000130644  -0.0000007002
        0.0000002436  -0.0000101006  -0.0000041625   0.0000011936  -0.0000000512
        0.0000026469  -0.0000004665   0.0000004120   0.0000020073   0.0000005784
        0.0000007730  -0.0000029689   0.0000017565   0.0000050586   0.0000025342
       -0.0000001764   0.0000002090  -0.0000006345   0.0000009059   0.0000064880
       -0.0000012608   0.0000013866  -0.0000038616  -0.0000022834   0.0000001191
        0.0000050419   0.0000042117  -0.0000004892  -0.0000054035   0.0000062030
       -0.0000015928   0.0000048787  -0.0000112320   0.0000062750  -0.0000015577
        0.0000073695  -0.0000035687   0.0000171792  -0.0000188145   0.0000114878
        0.0000003118   0.0000025399   0.0000022102   0.0000057065   0.0000004264
       -0.0000002462  -0.0000060967   0.0000027876  -0.0000010780  -0.0000038714
        0.0000021880  -0.0000010102   0.0000277048  -0.0000139835   0.0000144831
       -0.0000699981   0.0000454818  -0.0000265172  -0.0690427154  -0.1978444154
        0.0928373516   0.0516168726  -0.0595960789  -0.0288064567   0.0553166417
       -0.0693575580   0.0527616663  -0.0003551578  -0.0093553917  -0.0104572550
        0.0005267224   0.0053883819   0.0042621510   0.0010630817   0.0010879094
       -0.0005639501  -0.0023986333  -0.0042604257   0.0013531085  -0.0003912742
       -0.0010425351  -0.0000730973   0.0000154240  -0.0002102215  -0.0000587346
       -0.0000032403  -0.0000167087   0.0000030063   0.0000659764  -0.0000290517
        0.0000013102  -0.0000110067  -0.0000051530   0.0000034202   0.0000079815
       -0.0000308491   0.0000294003  -0.0000409892   0.0000284566  -0.0000426125
       -0.0000009278  -0.0000134008   0.0000075669   0.0000997385   0.0000579291
        0.0000206765  -0.0000592490   0.0000240758   0.0000155864   0.0000290898
        0.0000010795   0.0000013388  -0.0000012955  -0.0000047192   0.0000018558
       -0.0000026997  -0.0000052207   0.0000021004   0.0000018409  -0.0000030172
        0.0000017715   0.0000010951  -0.0000053724   0.0000025015   0.0000002815
        0.0000029004  -0.0000004147   0.0000001492   0.0000022999  -0.0000003267
       -0.0000009497   0.0000027172  -0.0000006721  -0.0000029179   0.0000004376
       -0.0000003788  -0.0000037727   0.0000004164  -0.0000009674   0.0000005023
       -0.0000017225  -0.0000009704   0.0000011894   0.0000066151  -0.0000062083
       -0.0000021072   0.0000103047  -0.0000105462  -0.0000090305  -0.0000094400
       -0.0000012587  -0.0000139662   0.0000001625  -0.0000075163
       -0.0069828915  -0.0310861332   0.4976876419  -0.0194769617  -0.0641387509
       -0.1303721011   0.0012171368   0.0039690525   0.0076974085   0.0001033009
       -0.0001900554   0.0001801350  -0.0000282190   0.0000726815   0.0001195846
       -0.0000062957  -0.0000152378  -0.0000111055  -0.0000345347  -0.0000888152
        0.0000179688   0.0000265366   0.0000593323  -0.0001066643  -0.0000066994
        0.0000777998  -0.0000216846  -0.0000539989  -0.0000228983   0.0000141367
        0.0000222912   0.0000061040  -0.0000028963  -0.0000081428  -0.0000154554
        0.0000057965  -0.0000133657   0.0000037415   0.0000002282   0.0000062287
       -0.0000029026  -0.0000018768  -0.0000069036   0.0000077719  -0.0000046487
        0.0000099051  -0.0000010622  -0.0000000835  -0.0000118596   0.0000083004
       -0.0000056525   0.0000108126   0.0000224513  -0.0000093918  -0.0000012318
       -0.0000069000   0.0000022982  -0.0000012748  -0.0000006296  -0.0000006692
        0.0000081999  -0.0000046690   0.0000032032  -0.0000007988   0.0000000635
       -0.0000017391   0.0000036199   0.0000018329   0.0000000920   0.0000074893
       -0.0000007017   0.0000005645  -0.0000033889   0.0000016562  -0.0000012814
        0.0000008555  -0.0000002165  -0.0000004357   0.0000009473  -0.0000000996
        0.0000004043  -0.0000020219  -0.0000003263  -0.0000006414   0.0000013481
       -0.0000024596  -0.0000001828  -0.0000014365  -0.0000004764   0.0000004155
        0.0000062268  -0.0000017095  -0.0000001114   0.0000000826  -0.0000000415
       -0.0000006825  -0.0000019482   0.0000056644  -0.0000074239  -0.0000034479
       -0.0000112033   0.0000050651  -0.0000142503   0.0000146263  -0.0000162424
        0.0000023241  -0.0000085586  -0.0000035179  -0.0000061445   0.0000060344
       -0.0000005068   0.0000009176  -0.0000023792   0.0000007796   0.0000035561
        0.0000018172   0.0000000725  -0.0000167670   0.0000112480  -0.0000134592
        0.0000639226  -0.0000478915   0.0000324730   0.0418663742   0.0928748509
       -0.0971822117   0.0970581219  -0.0289372184  -0.1018037737  -0.1062993194
        0.0525730712  -0.1447683205  -0.0009930642  -0.0134803452  -0.0130190936
       -0.0081085580  -0.0159502464  -0.0194082314  -0.0000283967   0.0009761466
        0.0008102254   0.0014557906   0.0024459632   0.0002050232   0.0003324047
        0.0006799497  -0.0000809641  -0.0000370759   0.0001140199   0.0000417508
       -0.0000134133   0.0000366590  -0.0000100846  -0.0000447082   0.0000007168
        0.0000141131   0.0000020001   0.0000052232   0.0000160860   0.0000030636
        0.0000227975  -0.0000098392   0.0000200829   0.0000265136  -0.0000089513
        0.0000007990   0.0000289698  -0.0000038569  -0.0000347679  -0.0000434148
       -0.0000052706   0.0000134869  -0.0000009982  -0.0000032654  -0.0000104743
       -0.0000000727  -0.0000007982   0.0000000891   0.0000013977   0.0000010319
       -0.0000006855   0.0000011600   0.0000007100  -0.0000001015  -0.0000001014
        0.0000013967  -0.0000018256   0.0000009392   0.0000012735   0.0000003433
       -0.0000033064   0.0000018926   0.0000018348  -0.0000016529   0.0000016819
        0.0000017036  -0.0000005070   0.0000012692   0.0000019226   0.0000004536
        0.0000006655   0.0000013439   0.0000004331   0.0000008772   0.0000021511
        0.0000011506   0.0000008661  -0.0000038757  -0.0000050127   0.0000046114
       -0.0000076380  -0.0000045622   0.0000107692   0.0000029308   0.0000123047
        0.0000007049   0.0000063426   0.0000041133   0.0000044432
       -0.0734770266  -0.0182952146  -0.0194769617   0.5253838759  -0.0308939700
        0.0035786148  -0.0924572576  -0.0437464876   0.0240533711   0.0070401188
        0.0122152593  -0.0053700292  -0.0020164158   0.0021203648  -0.0023471865
       -0.0002477847  -0.0001782730   0.0001067183   0.0000709227  -0.0000196530
       -0.0000152347  -0.0000330752  -0.0001945311  -0.0001992990  -0.0000114490
        0.0000961393   0.0000492196  -0.0000982540  -0.0000410131   0.0000028912
        0.0000399427   0.0000324761  -0.0000055189  -0.0000228179  -0.0000564200
        0.0000200541  -0.0000133044  -0.0000003046  -0.0000025388   0.0000085116
        0.0000027985  -0.0000003010  -0.0000058597   0.0000099847  -0.0000031997
        0.0000137323   0.0000039598   0.0000000665  -0.0000203849   0.0000104532
       -0.0000095637   0.0000171982   0.0000250743  -0.0000121350   0.0000046515
       -0.0000122954   0.0000084595  -0.0000139808  -0.0000000648   0.0000025040
        0.0000207138  -0.0000176951   0.0000047842   0.0000180883   0.0000036040
        0.0000016043   0.0000249492   0.0000039587   0.0000016917   0.0000065377
       -0.0000027051   0.0000020808  -0.0000215501   0.0000013275  -0.0000004261
        0.0000079213  -0.0000190492   0.0000060943  -0.0000061664   0.0000051008
       -0.0000021149   0.0000136899  -0.0000014348   0.0000019475  -0.0000055422
        0.0000039027  -0.0000005135   0.0000041936  -0.0000027721   0.0000005053
        0.0000035893  -0.0000019280   0.0000014438  -0.0000194553   0.0000042806
       -0.0000017481  -0.0000094716   0.0000024813   0.0000046083  -0.0000097075
       -0.0000098479  -0.0000002391  -0.0000080882   0.0000503332  -0.0000021302
       -0.0000042426   0.0000047275   0.0000079059  -0.0000076040   0.0000015704
       -0.0000032011  -0.0000008457  -0.0000020241   0.0000003913  -0.0000025795
        0.0000060529  -0.0000022345  -0.0000417866   0.0000517774   0.0000110381
        0.0001021973  -0.0001298453   0.0000511050  -0.0029279163  -0.0101607880
       -0.0075919626   0.0040376326   0.0178580119   0.0179114795  -0.0058982513
       -0.0145218279  -0.0164365490  -0.2065650026   0.0560285444   0.0859136246
       -0.1339560447   0.0574078930  -0.0953618280  -0.0154622618  -0.0198735716
        0.0133878484  -0.0050441216  -0.0100062547   0.0030175140   0.0004153849
       -0.0000085968  -0.0000551153   0.0007222038   0.0013223268  -0.0008872034
        0.0001471907   0.0009138763  -0.0005020233   0.0001414264   0.0000258778
        0.0000504744   0.0001288720  -0.0000284646   0.0000490665  -0.0000124668
        0.0000105334   0.0000450770  -0.0000604069  -0.0000397609   0.0000011450
        0.0000407231   0.0000090042  -0.0000167491   0.0000489378   0.0000385516
        0.0000363023  -0.0000266899   0.0000152727   0.0000263105   0.0000147551
        0.0000170433   0.0000000932   0.0000010768  -0.0000005398  -0.0000010345
       -0.0000018712   0.0000014604  -0.0000023207   0.0000009394   0.0000004169
       -0.0000017540  -0.0000026538   0.0000041153  -0.0000041871   0.0000032850
       -0.0000067602   0.0000010138  -0.0000002339   0.0000013240  -0.0000010436
       -0.0000000228  -0.0000018351  -0.0000000501   0.0000016261  -0.0000008644
       -0.0000003890   0.0000074517  -0.0000010921  -0.0000001543   0.0000036801
        0.0000024901  -0.0000021887  -0.0000037984  -0.0000128789  -0.0000023751
       -0.0000081029  -0.0000250921  -0.0000069324   0.0000041326   0.0000159978
       -0.0000133264   0.0000243426  -0.0000145109  -0.0000152865
       -0.0176877040  -0.1310999471  -0.0641387509  -0.0308939700   0.4696283005
       -0.0028551798  -0.0457542074  -0.1424140748   0.0390963166  -0.0028621298
       -0.0172334411   0.0115978241   0.0020771540  -0.0008138517   0.0016552124
        0.0000355475   0.0000623787  -0.0001419769   0.0000105769   0.0000318927
       -0.0000636715   0.0000139950  -0.0000304759   0.0000312312   0.0000531492
        0.0000420214  -0.0000306426  -0.0000514539  -0.0000091041   0.0000021475
        0.0000118058  -0.0000021922   0.0000083002   0.0000146810  -0.0000074092
        0.0000042261  -0.0000182923  -0.0000020404  -0.0000010679   0.0000161285
       -0.0000024251   0.0000024329  -0.0000170058   0.0000031104  -0.0000035509
        0.0000011840  -0.0000226841   0.0000095519  -0.0000148133   0.0000408095
       -0.0000183753   0.0000378122   0.0000251112  -0.0000094511  -0.0000020006
       -0.0000146841   0.0000044468   0.0000093588   0.0000068042  -0.0000025783
        0.0000144022  -0.0000011350   0.0000017536  -0.0000130815  -0.0000028024
        0.0000003249  -0.0000056082  -0.0000047367  -0.0000001384   0.0000099395
        0.0000041154  -0.0000006874  -0.0000003276  -0.0000016761   0.0000002092
        0.0000004398  -0.0000022065   0.0000000044   0.0000018046   0.0000005912
        0.0000002966   0.0000007564  -0.0000046324   0.0000007773   0.0000055488
       -0.0000022547   0.0000003507  -0.0000053807  -0.0000009075   0.0000004609
        0.0000061275   0.0000010189  -0.0000004526   0.0000033938   0.0000096604
       -0.0000031157  -0.0000053174   0.0000002080  -0.0000051957   0.0000037117
        0.0000040701   0.0000010756   0.0000028676  -0.0000125883  -0.0000053376
        0.0000065992   0.0000004457  -0.0000058877  -0.0000028882  -0.0000000299
        0.0000009787  -0.0000045301   0.0000025199  -0.0000006504  -0.0000023637
       -0.0000007579   0.0000005596  -0.0000273201  -0.0000173291  -0.0000066276
        0.0000372697  -0.0000254011   0.0000273387  -0.0073650697  -0.0223346733
       -0.0167576199   0.0005745062  -0.0089297918  -0.0095138504   0.0005313954
        0.0066889539   0.0039959824   0.0566560134  -0.0611866716  -0.0285153062
        0.0573878517  -0.0760643765   0.0604412541   0.0009696425   0.0043580210
       -0.0009415815  -0.0123208561  -0.0207099476   0.0062378725  -0.0003602005
        0.0004177087  -0.0004850062  -0.0008297714   0.0003458257  -0.0001011081
       -0.0002446113  -0.0007288035   0.0003481683  -0.0000480257  -0.0001427648
        0.0000201113  -0.0000069807   0.0000990142  -0.0000273457  -0.0000422410
        0.0000229645  -0.0000155563   0.0000100330   0.0000305781   0.0001035989
        0.0000508879   0.0000256603  -0.0000071207   0.0000590071   0.0000713648
       -0.0000036506  -0.0000314039  -0.0000983586   0.0000391393   0.0000122790
        0.0000008975  -0.0000056060   0.0000064404  -0.0000004918   0.0000007462
       -0.0000036996   0.0000049531  -0.0000019796   0.0000049841   0.0000034501
       -0.0000008754  -0.0000043018   0.0000033194  -0.0000010389   0.0000002742
        0.0000021232   0.0000002977  -0.0000013993   0.0000025001  -0.0000003208
       -0.0000013441   0.0000027765  -0.0000004020  -0.0000041708  -0.0000000635
        0.0000005142  -0.0000053813   0.0000002538   0.0000006040  -0.0000028085
       -0.0000056564   0.0000028988   0.0000054230   0.0000000295   0.0000044563
        0.0000082445   0.0000094765   0.0000065707  -0.0000072664  -0.0000100561
        0.0000083951  -0.0000033095  -0.0000124858   0.0000152774
       -0.0198000013  -0.0656191690  -0.1303721011   0.0035786148  -0.0028551798
        0.4947094317   0.0254949908   0.0414919657  -0.0865827085   0.0053078423
        0.0178188614  -0.0099806165  -0.0021791961   0.0015111843  -0.0020267853
       -0.0000378297   0.0001216598  -0.0000123776   0.0000012621   0.0000732804
        0.0000278163  -0.0001003475  -0.0002591448   0.0000913292   0.0000433903
       -0.0000557464   0.0000825355   0.0000569848   0.0000174063  -0.0000067452
       -0.0000259506   0.0000070915  -0.0000082304   0.0000065630   0.0000123325
       -0.0000026623   0.0000073767   0.0000017206   0.0000065970  -0.0000051278
       -0.0000011401  -0.0000077948   0.0000078786  -0.0000179516   0.0000069868
       -0.0000033296   0.0000044701  -0.0000024843   0.0000138658  -0.0000143285
        0.0000081635  -0.0000125483  -0.0000331067   0.0000102187  -0.0000077955
        0.0000051061  -0.0000040687   0.0000071088  -0.0000061711   0.0000003119
       -0.0000048514   0.0000159360  -0.0000061159   0.0000011744  -0.0000028986
       -0.0000008071   0.0000005031  -0.0000001675   0.0000001045  -0.0000041420
        0.0000022321  -0.0000012845   0.0000014846   0.0000001188  -0.0000016347
       -0.0000010768   0.0000027650  -0.0000019634   0.0000009044   0.0000000120
        0.0000002488  -0.0000026779   0.0000002031  -0.0000016382   0.0000002490
       -0.0000008381  -0.0000012125  -0.0000011248   0.0000007565   0.0000003904
       -0.0000015001   0.0000001531  -0.0000013968   0.0000032775  -0.0000002866
       -0.0000008795  -0.0000005287  -0.0000011534  -0.0000067740   0.0000019638
        0.0000018719   0.0000025055   0.0000033939  -0.0000112327  -0.0000104484
        0.0000013837  -0.0000039209  -0.0000068534   0.0000026074  -0.0000010741
        0.0000027872  -0.0000008617   0.0000005495  -0.0000000939  -0.0000005034
       -0.0000013806   0.0000009485   0.0000098904  -0.0000184407   0.0000057464
       -0.0000629951   0.0000242296  -0.0000112180   0.0021315192   0.0078412578
        0.0077117873  -0.0001909109  -0.0138821573  -0.0138477067  -0.0076471653
       -0.0147160838  -0.0181039348   0.0861404040  -0.0284704621  -0.0909528344
       -0.0951136063   0.0605835526  -0.1491644455   0.0113183348   0.0131202582
       -0.0083901005  -0.0101275798  -0.0165817826   0.0065820441   0.0003264777
       -0.0001064499  -0.0000367523   0.0005676780  -0.0007811283   0.0007897068
        0.0001980684   0.0008258367  -0.0003885612  -0.0000061079  -0.0000784400
        0.0000040996  -0.0000591608  -0.0000813522   0.0000011522   0.0000200360
       -0.0000158096   0.0000235027   0.0000738151  -0.0000177778  -0.0001203509
       -0.0000504620  -0.0000358574   0.0000266791   0.0001115545   0.0001459755
       -0.0000523707  -0.0000304771   0.0000254249  -0.0000216811   0.0000199347
        0.0000069304  -0.0000036345  -0.0000014482  -0.0000009642   0.0000027023
       -0.0000004876  -0.0000033101   0.0000035522   0.0000006625  -0.0000014867
        0.0000027530   0.0000020800  -0.0000005201   0.0000022726   0.0000000183
        0.0000015132   0.0000004524   0.0000000276   0.0000001263   0.0000005031
       -0.0000000724   0.0000002236   0.0000004156  -0.0000003993   0.0000003949
        0.0000006568  -0.0000012178   0.0000004565   0.0000013316  -0.0000013571
       -0.0000003738   0.0000024615   0.0000029528   0.0000022656   0.0000055451
        0.0000048248   0.0000046425   0.0000130976   0.0000020187  -0.0000011124
        0.0000074791   0.0000097233   0.0000056344   0.0000029509
       -0.0039643320  -0.0091068487   0.0012171368  -0.0924572576  -0.0457542074
        0.0254949908   0.5015861854  -0.0091163248  -0.0135105216  -0.1204027455
        0.0400553351  -0.0475012120   0.0080603659  -0.0018786215   0.0042893873
        0.0003477329  -0.0000149101  -0.0001745069  -0.0003257072  -0.0000876415
       -0.0001291135   0.0002205795   0.0004363004   0.0002316134  -0.0000370720
       -0.0003988841  -0.0000746346   0.0002791609   0.0001417361  -0.0000499351
       -0.0000323688   0.0000010846  -0.0000013177  -0.0000541773   0.0000369722
       -0.0000178651   0.0001679579  -0.0000798413   0.0000431403  -0.0000902784
        0.0000628948  -0.0000251337  -0.0000063422  -0.0000140386   0.0000033478
        0.0000103308   0.0000237330  -0.0000071893   0.0000460271  -0.0000933153
        0.0000502934  -0.0000370646  -0.0000701758   0.0000402305  -0.0000027843
        0.0000338548  -0.0000155914  -0.0000301008  -0.0000190095   0.0000028498
       -0.0000252309   0.0000344014  -0.0000073104   0.0000307451  -0.0000066177
        0.0000019910   0.0000347919   0.0000078558   0.0000010712  -0.0000266871
       -0.0000007262  -0.0000016567   0.0000051994   0.0000090772  -0.0000032970
       -0.0000106980   0.0000133107  -0.0000042465  -0.0000021232  -0.0000029438
        0.0000007855  -0.0000126340   0.0000080053  -0.0000032446  -0.0000094316
        0.0000007051  -0.0000009357   0.0000038021   0.0000062127  -0.0000015261
       -0.0000115630  -0.0000028981  -0.0000002660   0.0000063957  -0.0000105914
        0.0000028026  -0.0000031618   0.0000060606  -0.0000029000   0.0000021977
       -0.0000008310   0.0000005799  -0.0000192102   0.0000076324  -0.0000044083
        0.0000022889   0.0000032374  -0.0000019284  -0.0000033902  -0.0000132031
        0.0000041669   0.0000029567  -0.0000021196   0.0000005909   0.0000054296
       -0.0000037539   0.0000011353   0.0000413885  -0.0000198353  -0.0000220813
       -0.0002488937   0.0000941078  -0.0000724253   0.0000502615  -0.0009154486
       -0.0008935797   0.0007247777   0.0013372266   0.0001490183  -0.0000848917
        0.0000592837   0.0001104068  -0.0159338412  -0.0203867912   0.0139000341
        0.0066751544   0.0128067613  -0.0081363585  -0.1881790757   0.0569243711
        0.0957584835  -0.0661096259  -0.0394690375  -0.0502364936  -0.0075452577
        0.0038509612  -0.0091606355  -0.0226161416   0.0151889075  -0.0137747967
        0.0000723678  -0.0026628840   0.0013775180  -0.0002480323  -0.0008361258
        0.0004304905   0.0000187079   0.0000286222   0.0001961814  -0.0000773661
        0.0001161398  -0.0000628515   0.0002854428   0.0000720471   0.0002743304
       -0.0000219886   0.0000095444   0.0001014587  -0.0000907518  -0.0002060496
        0.0001423533   0.0000184875  -0.0000800623   0.0000355911  -0.0000077800
       -0.0000008317  -0.0000100061  -0.0000052863  -0.0000079196   0.0000037260
       -0.0000003737  -0.0000063518   0.0000044855   0.0000001864  -0.0000106261
        0.0000065372   0.0000094626   0.0000008741   0.0000025613  -0.0000041300
       -0.0000042361   0.0000014617   0.0000038802  -0.0000048733   0.0000020827
        0.0000029866  -0.0000044290   0.0000017063   0.0000051534   0.0000024024
       -0.0000002310   0.0000037034   0.0000014671  -0.0000000757  -0.0000005440
        0.0000052496  -0.0000016296  -0.0000012156  -0.0000007813   0.0000005265
        0.0000094267   0.0000007685   0.0000012245   0.0000220220  -0.0000113300
        0.0000037417  -0.0000160000  -0.0000820277   0.0000198721
       -0.0115972283  -0.0231770517   0.0039690525  -0.0437464876  -0.1424140748
        0.0414919657  -0.0091163248   0.4764065316   0.0430141900   0.0411096919
       -0.0937994317   0.0324545636   0.0129097891  -0.0162658223   0.0163812147
       -0.0002162965   0.0002625881  -0.0003571498   0.0001474871  -0.0001595860
       -0.0001513167  -0.0000582408   0.0006721238   0.0001419624   0.0002145148
        0.0000138381  -0.0000908007   0.0000747493   0.0000790878   0.0000250223
        0.0000214211  -0.0000148090  -0.0000270120  -0.0000078627   0.0000295157
       -0.0000118332   0.0000503086  -0.0000206694   0.0000339806  -0.0000272652
        0.0000072041  -0.0000288536  -0.0000138368   0.0000062855  -0.0000079694
        0.0000086706  -0.0000081121  -0.0000037854  -0.0000109017   0.0000117757
       -0.0000036516   0.0000341075   0.0000207765  -0.0000076296  -0.0000056306
       -0.0000121180  -0.0000049998   0.0000122225   0.0000077055  -0.0000057688
       -0.0000154346   0.0000174962  -0.0000049070  -0.0000245632  -0.0000051400
        0.0000003900  -0.0000198181  -0.0000077736  -0.0000024401   0.0000083288
        0.0000016427  -0.0000004197   0.0000066831  -0.0000004915  -0.0000009230
        0.0000012193  -0.0000003202  -0.0000005189   0.0000054361  -0.0000009986
        0.0000005830  -0.0000023382  -0.0000012996  -0.0000004923   0.0000054196
       -0.0000034368   0.0000008550  -0.0000026137  -0.0000014066   0.0000003729
        0.0000062132   0.0000007234   0.0000001233   0.0000005419   0.0000029116
       -0.0000002737   0.0000009380   0.0000016498   0.0000007841   0.0000015598
       -0.0000019290   0.0000011643  -0.0000006275  -0.0000000483   0.0000017841
        0.0000000806  -0.0000065891  -0.0000007583   0.0000064543   0.0000047042
       -0.0000007882  -0.0000020442  -0.0000005691   0.0000002522   0.0000020481
       -0.0000004541   0.0000003003  -0.0000041027  -0.0000493973  -0.0000387155
       -0.0000530072   0.0000015831   0.0000389952  -0.0014408016  -0.0032170080
       -0.0029821521  -0.0002725996   0.0006757215   0.0008865463   0.0002475991
        0.0006002126   0.0004689850   0.0004990124   0.0041495835  -0.0010032854
       -0.0057963042  -0.0147792476   0.0098008118   0.0570715891  -0.0647017244
       -0.0405260252  -0.0394951920  -0.1209028141  -0.1034744392  -0.0097646258
        0.0076492111  -0.0085074015   0.0097897381  -0.0059176866   0.0052751996
       -0.0012656664  -0.0039870261   0.0023239035   0.0002714928  -0.0001162138
        0.0005396305   0.0003137947  -0.0000509820   0.0000178752   0.0000624816
       -0.0000423354   0.0001002873  -0.0001307655   0.0001120485  -0.0001862777
        0.0000650010   0.0000398413  -0.0000340551   0.0000206431  -0.0008290489
        0.0004666008   0.0001670175  -0.0002599564  -0.0000615908  -0.0000352508
       -0.0000058698   0.0000417703  -0.0000017371  -0.0000019933   0.0000037256
       -0.0000043225  -0.0000007828   0.0000018080   0.0000036144  -0.0000048149
        0.0000035532  -0.0000014286  -0.0000038701   0.0000040114  -0.0000000629
        0.0000021505  -0.0000001124   0.0000014164   0.0000002506  -0.0000000712
        0.0000007711   0.0000004688  -0.0000002147  -0.0000004370  -0.0000003805
        0.0000001323  -0.0000010209  -0.0000003157   0.0000003999   0.0000012837
       -0.0000020879   0.0000011651   0.0000015921  -0.0000027444   0.0000006979
        0.0000001981   0.0000001646  -0.0000021304  -0.0000046301  -0.0000016103
        0.0000040272  -0.0000056611   0.0000022457   0.0000300758
       -0.0071115774  -0.0143328868   0.0076974085   0.0240533711   0.0390963166
       -0.0865827085  -0.0135105216   0.0430141900   0.5082736649  -0.0487691762
        0.0323195838  -0.1107979280  -0.0047858515   0.0102826444  -0.0084707449
       -0.0001241173  -0.0002921796   0.0004172354  -0.0000431386  -0.0000648360
        0.0000895414   0.0002095140   0.0000448008   0.0002752103  -0.0001648617
       -0.0002022546  -0.0002309820  -0.0000457512  -0.0000388951   0.0000250613
        0.0000487306  -0.0000443079  -0.0000416072  -0.0000183234  -0.0000019009
        0.0000042120  -0.0000033158   0.0000069932   0.0000222746   0.0000131813
       -0.0000078705  -0.0000262380  -0.0000085028   0.0000154984  -0.0000126400
        0.0000207912   0.0000091631  -0.0000052453   0.0000000956  -0.0000050995
        0.0000084392  -0.0000187070   0.0000133571   0.0000048495  -0.0000139076
        0.0000150197  -0.0000063548  -0.0000026756  -0.0000050791  -0.0000036775
        0.0000119282  -0.0000157719   0.0000160479   0.0000113517   0.0000024694
       -0.0000046035   0.0000004004   0.0000047112   0.0000000368  -0.0000006513
       -0.0000042072   0.0000016232   0.0000017632  -0.0000019714  -0.0000003451
        0.0000003081   0.0000031371  -0.0000017268  -0.0000033515  -0.0000020531
        0.0000007508  -0.0000003789   0.0000006032  -0.0000010164  -0.0000045505
        0.0000013093  -0.0000012533   0.0000036460   0.0000021635   0.0000002090