      -----------------------------------------------------------      
     |                   =====================                   |     
     |                           x T B                           |     
     |                   =====================                   |     
     |                         S. Grimme                         |     
     |          Mulliken Center for Theoretical Chemistry        |     
     |                    University of Bonn                     |     
      -----------------------------------------------------------      

   * xtb version 6.7.1 (edcfbbe) compiled by 'albert@albert-system' on 2024-07-22

   xtb is free software: you can redistribute it and/or modify it under
   the terms of the GNU Lesser General Public License as published by
   the Free Software Foundation, either version 3 of the License, or
   (at your option) any later version.
   
   xtb is distributed in the hope that it will be useful,
   but WITHOUT ANY WARRANTY; without even the implied warranty of
   MERCHANTABILITY or FITNESS FOR A PARTICULAR PURPOSE.  See the
   GNU Lesser General Public License for more details.
   
   Cite this work as:
   * C. Bannwarth, E. Caldeweyher, S. Ehlert, A. Hansen, P. Pracht,
     J. Seibert, S. Spicher, S. Grimme, WIREs Comput. Mol. Sci., 2020, 11,
     e01493. DOI: 10.1002/wcms.1493
   
   for GFN2-xTB:
   * C. Bannwarth, S. Ehlert and S. Grimme., J. Chem. Theory Comput., 2019,
     15, 1652-1671. DOI: 10.1021/acs.jctc.8b01176
   for GFN1-xTB:
   * S. Grimme, C. Bannwarth, P. Shushkov, J. Chem. Theory Comput., 2017,
     13, 1989-2009. DOI: 10.1021/acs.jctc.7b00118
   for GFN0-xTB:
   * P. Pracht, E. Caldeweyher, S. Ehlert, S. Grimme, ChemRxiv, 2019, preprint.
     DOI: 10.26434/chemrxiv.8326202.v1
   for GFN-FF:
   * S. Spicher and S. Grimme, Angew. Chem. Int. Ed., 2020, 59, 15665-15673.
     DOI: 10.1002/anie.202004239
   
   for ALPB and GBSA implicit solvation:
   * S. Ehlert, M. Stahn, S. Spicher, S. Grimme, J. Chem. Theory Comput.,
     2021, 17, 4250-4261. DOI: 10.1021/acs.jctc.1c00471
   
   for ddCOSMO and CPCM-X implicit solvation:
   * M. Stahn, S. Ehlert, S. Grimme, J. Phys. Chem. A,
     2023, XX, XXXX-XXXX. DOI: 10.1021/acs.jpca.3c04382
   
   for DFT-D4:
   * E. Caldeweyher, C. Bannwarth and S. Grimme, J. Chem. Phys., 2017,
     147, 034112. DOI: 10.1063/1.4993215
   * E. Caldeweyher, S. Ehlert, A. Hansen, H. Neugebauer, S. Spicher,
     C. Bannwarth and S. Grimme, J. Chem. Phys., 2019, 150, 154122.
     DOI: 10.1063/1.5090222
   * E. Caldeweyher, J.-M. Mewes, S. Ehlert and S. Grimme, Phys. Chem. Chem. Phys.
     2020, 22, 8499-8512. DOI: 10.1039/D0CP00502A
   
   for sTDA-xTB:
   * S. Grimme and C. Bannwarth, J. Chem. Phys., 2016, 145, 054103.
     DOI: 10.1063/1.4959605
   
   in the mass-spec context:
   * V. Asgeirsson, C. Bauer and S. Grimme, Chem. Sci., 2017, 8, 4879.
     DOI: 10.1039/c7sc00601b
   * J. Koopman and S. Grimme, ACS Omega 2019, 4, 12, 15120-15133.
     DOI: 10.1021/acsomega.9b02011
   
   for metadynamics refer to:
   * S. Grimme, J. Chem. Theory Comput., 2019, 155, 2847-2862
     DOI: 10.1021/acs.jctc.9b00143
   
   for SPH calculations refer to:
   * S. Spicher and S. Grimme, J. Chem. Theory Comput., 2021, 17, 1701-1714
     DOI: 10.1021/acs.jctc.0c01306
   
   for ONIOM refer to:
   * C. Plett, A. Katbashev, S. Ehlert, S. Grimme, M. Bursch,
     Phys. Chem. Chem. Phys., 2023, 25, 17860-17868. DOI: 10.1039/D3CP02178E
   
   for DIPRO refer to:
   * J. Kohn, N. Gildemeister, S. Grimme, D. Fazzi, A. Hansen,
     J. Chem. Phys., 2023, just accepted.
   
   for PTB refer to:
   * S. Grimme, M. Mueller, A. Hansen, J. Chem. Phys., 2023, 158, 124111.
     DOI: 10.1063/5.0137838
   
   with help from (in alphabetical order)
   P. Atkinson, C. Bannwarth, F. Bohle, G. Brandenburg, E. Caldeweyher
   M. Checinski, S. Dohm, S. Ehlert, S. Ehrlich, I. Gerasimov, C. Hölzer
   A. Katbashev, J. Kohn, J. Koopman, C. Lavigne, S. Lehtola, F. März, M. Müller,
   F. Musil, H. Neugebauer, J. Pisarek, C. Plett, P. Pracht, F. Pultar,
   J. Seibert, P. Shushkov, S. Spicher, M. Stahn, M. Steiner, T. Strunk,
   J. Stückrath, T. Rose, and J. Unsleber
   
 * started run on 2025/08/24 at 22:18:16.306     
   ID    Z sym.   atoms
    1    6 C      1-29, 31-35, 37-59
    2    7 N      30, 36
    3    1 H      60-107

           -------------------------------------------------
          |                Calculation Setup                |
           -------------------------------------------------

          program call               : xtb data2507/gas/mCP-Ph/mCP-Ph.xyz --gfn 2 --ohess vtight --parallel 40 --molden --ceasefiles --namespace data2507/gas/mCP-Ph/mCP-Ph_gas_S0_preOpt
          calculation namespace      : data2507/gas/mCP-Ph/mCP-Ph_gas_S0_preOpt
          coordinate file            : data2507/gas/mCP-Ph/mCP-Ph.xyz
          omp threads                :                    40


           -------------------------------------------------
          |                 G F N 2 - x T B                 |
           -------------------------------------------------

        Reference                      10.1021/acs.jctc.8b01176
      * Hamiltonian:
        H0-scaling (s, p, d)           1.850000    2.230000    2.230000
        zeta-weighting                 0.500000
      * Dispersion:
        s8                             2.700000
        a1                             0.520000
        a2                             5.000000
        s9                             5.000000
      * Repulsion:
        kExp                           1.500000    1.000000
        rExp                           1.000000
      * Coulomb:
        alpha                          2.000000
        third order                    shell-resolved
        anisotropic                    true
        a3                             3.000000
        a5                             4.000000
        cn-shift                       1.200000
        cn-exp                         4.000000
        max-rad                        5.000000


          ...................................................
          :                      SETUP                      :
          :.................................................:
          :  # basis functions                 284          :
          :  # atomic orbitals                 284          :
          :  # shells                          166          :
          :  # electrons                       286          :
          :  max. iterations                   250          :
          :  Hamiltonian                  GFN2-xTB          :
          :  restarted?                      false          :
          :  GBSA solvation                  false          :
          :  PC potential                    false          :
          :  electronic temp.          300.0000000     K    :
          :  accuracy                    1.0000000          :
          :  -> integral cutoff          0.2500000E+02      :
          :  -> integral neglect         0.1000000E-07      :
          :  -> SCF convergence          0.1000000E-05 Eh   :
          :  -> wf. convergence          0.1000000E-03 e    :
          :  Broyden damping             0.4000000          :
          :  net charge                          0          :
          :  unpaired electrons                  0          :
          ...................................................

 iter      E             dE          RMSdq      gap      omega  full diag
   1   -154.9568838 -0.154957E+03  0.391E+00    2.61       0.0  T
   2   -155.0792296 -0.122346E+00  0.238E+00    3.02       1.0  T
   3   -155.0319303  0.472993E-01  0.976E-01    2.94       1.0  T
   4   -155.0895379 -0.576076E-01  0.329E-01    2.98       1.0  T
   5   -155.1008124 -0.112745E-01  0.121E-01    3.01       1.0  T
   6   -155.1022292 -0.141684E-02  0.480E-02    3.00       1.0  T
   7   -155.1024217 -0.192477E-03  0.209E-02    3.00       1.0  T
   8   -155.1024300 -0.831331E-05  0.922E-03    3.00       1.0  T
   9   -155.1024355 -0.543983E-05  0.226E-03    3.00       4.3  T
  10   -155.1024358 -0.371797E-06  0.753E-04    3.00      12.8  T
  11   -155.1024359 -0.289164E-07  0.312E-04    3.00      31.0  T

   *** convergence criteria satisfied after 11 iterations ***

         #    Occupation            Energy/Eh            Energy/eV
      -------------------------------------------------------------
         1        2.0000           -0.6734905             -18.3266
       ...           ...                  ...                  ...
       137        2.0000           -0.3868516             -10.5268
       138        2.0000           -0.3839952             -10.4490
       139        2.0000           -0.3784619             -10.2985
       140        2.0000           -0.3772335             -10.2650
       141        2.0000           -0.3650895              -9.9346
       142        2.0000           -0.3629142              -9.8754
       143        2.0000           -0.3598245              -9.7913 (HOMO)
       144                         -0.2496753              -6.7940 (LUMO)
       145                         -0.2485917              -6.7645
       146                         -0.2438133              -6.6345
       147                         -0.2402737              -6.5382
       148                         -0.2399790              -6.5302
       ...                                ...                  ...
       284                          0.7221466              19.6506
      -------------------------------------------------------------
                  HL-Gap            0.1101492 Eh            2.9973 eV
             Fermi-level           -0.3047499 Eh           -8.2927 eV

 SCC (total)                   0 d,  0 h,  0 min,  0.155 sec
 SCC setup                      ...        0 min,  0.001 sec (  0.473%)
 Dispersion                     ...        0 min,  0.006 sec (  3.992%)
 classical contributions        ...        0 min,  0.000 sec (  0.127%)
 integral evaluation            ...        0 min,  0.012 sec (  7.785%)
 iterations                     ...        0 min,  0.120 sec ( 77.682%)
 molecular gradient             ...        0 min,  0.015 sec (  9.399%)
 printout                       ...        0 min,  0.001 sec (  0.494%)

         :::::::::::::::::::::::::::::::::::::::::::::::::::::
         ::                     SUMMARY                     ::
         :::::::::::::::::::::::::::::::::::::::::::::::::::::
         :: total energy            -152.474945776728 Eh    ::
         :: gradient norm              0.115437787912 Eh/a0 ::
         :: HOMO-LUMO gap              2.997311673270 eV    ::
         ::.................................................::
         :: SCC energy              -155.099196589092 Eh    ::
         :: -> isotropic ES            0.013456557917 Eh    ::
         :: -> anisotropic ES          0.024710588733 Eh    ::
         :: -> anisotropic XC          0.090212232163 Eh    ::
         :: -> dispersion             -0.144845524449 Eh    ::
         :: repulsion energy           2.624250812364 Eh    ::
         :: add. restraining           0.000000000000 Eh    ::
         :: total charge               0.000000000000 e     ::
         :::::::::::::::::::::::::::::::::::::::::::::::::::::

      ----------------------------------------------------------- 
     |                   =====================                   |
     |                        A N C O P T                        |
     |                   =====================                   |
     |               Approximate Normal Coordinate               |
     |                Rational Function Optimizer                |
      ----------------------------------------------------------- 

Optimization log is written to '/dev/null'
      ----------------------------------------------------------- 
     |                   =====================                   |
     |                        A N C O P T                        |
     |                   =====================                   |
     |               Approximate Normal Coordinate               |
     |                Rational Function Optimizer                |
      ----------------------------------------------------------- 

          ...................................................
          :                      SETUP                      :
          :.................................................:
          :   optimization level         verytight          :
          :   max. optcycles                  2140          :
          :   ANC micro-cycles                  20          :
          :   degrees of freedom               315          :
          :.................................................:
          :   RF solver                   davidson          :
          :   write xtbopt.log                true          :
          :   linear?                        false          :
          :   energy convergence         0.1000000E-06 Eh   :
          :   grad. convergence          0.2000000E-03 Eh/α :
          :   maxmium RF displ.          1.0000000          :
          :   Hlow (freq-cutoff)         0.1000000E-01      :
          :   Hmax (freq-cutoff)         5.0000000          :
          :   S6 in model hess.         20.0000000          :
          ...................................................

generating ANC from exact Hessian ...
Using Lindh-Hessian (1995)
 Shifting diagonal of input Hessian by   9.972010899424021E-003
 Lowest  eigenvalues of input Hessian
    0.000000    0.000000    0.000000    0.000000    0.000000    0.000000
    0.010000    0.010037    0.010056    0.010134    0.010144    0.010231
    0.010346    0.010384    0.010390    0.010427    0.011009    0.011081
 Highest eigenvalues
    2.057789    2.082533    2.090158    2.093900    2.107501    2.116215
 

........................................................................
.............................. CYCLE    1 ..............................
........................................................................

 iter      E             dE          RMSdq      gap      omega  full diag
   1   -155.1024359 -0.155102E+03  0.144E-04    3.00       0.0  T
   2   -155.1024359 -0.576932E-09  0.914E-05    3.00     105.7  T
   3   -155.1024359 -0.744535E-09  0.481E-05    3.00     201.1  T
     SCC iter.                  ...        0 min,  0.035 sec
     gradient                   ...        0 min,  0.014 sec
 * total energy  :  -152.4749458 Eh     change       -0.2690513E-08 Eh
   gradient norm :     0.1154384 Eh/α   predicted     0.0000000E+00 (-100.00%)
   displ. norm   :     0.4549996 α      lambda       -0.2594863E-01
   maximum displ.:     0.1702936 α      in ANC's #75, #72, #27, ...

........................................................................
.............................. CYCLE    2 ..............................
........................................................................

 iter      E             dE          RMSdq      gap      omega  full diag
   1   -155.2236763 -0.155224E+03  0.155E-01    3.04       0.0  T
   2   -155.2237560 -0.796742E-04  0.959E-02    3.05       1.0  T
   3   -155.2236085  0.147472E-03  0.419E-02    3.04       1.0  T
   4   -155.2237991 -0.190594E-03  0.694E-03    3.05       1.4  T
   5   -155.2238037 -0.458972E-05  0.304E-03    3.05       3.2  T
   6   -155.2238041 -0.431730E-06  0.146E-03    3.05       6.6  T
   7   -155.2238042 -0.546960E-07  0.590E-04    3.05      16.4  T
   8   -155.2238042 -0.447176E-07  0.159E-04    3.05      60.7  T
     SCC iter.                  ...        0 min,  0.091 sec
     gradient                   ...        0 min,  0.017 sec
 * total energy  :  -152.4933810 Eh     change       -0.1843522E-01 Eh
   gradient norm :     0.0403954 Eh/α   predicted    -0.1568100E-01 ( -14.94%)
   displ. norm   :     0.4796803 α      lambda       -0.9251096E-02
   maximum displ.:     0.2104248 α      in ANC's #27, #45, #75, ...

........................................................................
.............................. CYCLE    3 ..............................
........................................................................

 iter      E             dE          RMSdq      gap      omega  full diag
   1   -155.2971264 -0.155297E+03  0.107E-01    3.06       0.0  T
   2   -155.2971833 -0.568532E-04  0.682E-02    3.07       1.0  T
   3   -155.2971009  0.824164E-04  0.341E-02    3.06       1.0  T
   4   -155.2972193 -0.118417E-03  0.607E-03    3.06       1.6  T
   5   -155.2972232 -0.395221E-05  0.231E-03    3.06       4.2  T
   6   -155.2972237 -0.484022E-06  0.104E-03    3.06       9.3  T
   7   -155.2972237 -0.234710E-07  0.429E-04    3.06      22.6  T
   8   -155.2972238 -0.193276E-07  0.116E-04    3.06      83.4  T
     SCC iter.                  ...        0 min,  0.095 sec
     gradient                   ...        0 min,  0.016 sec
 * total energy  :  -152.4993976 Eh     change       -0.6016578E-02 Eh
   gradient norm :     0.0118589 Eh/α   predicted    -0.5690720E-02 (  -5.42%)
   displ. norm   :     0.3984254 α      lambda       -0.2620318E-02
   maximum displ.:     0.2283728 α      in ANC's #27, #45, #30, ...

........................................................................
.............................. CYCLE    4 ..............................
........................................................................

 iter      E             dE          RMSdq      gap      omega  full diag
   1   -155.3193806 -0.155319E+03  0.618E-02    3.06       0.0  T
   2   -155.3193968 -0.162659E-04  0.399E-02    3.06       1.0  T
   3   -155.3193590  0.378823E-04  0.197E-02    3.06       1.0  T
   4   -155.3194084 -0.494163E-04  0.333E-03    3.06       2.9  T
   5   -155.3194096 -0.126841E-05  0.117E-03    3.06       8.3  T
   6   -155.3194098 -0.162745E-06  0.451E-04    3.06      21.4  T
   7   -155.3194098 -0.376457E-08  0.193E-04    3.06      50.0  T
     SCC iter.                  ...        0 min,  0.084 sec
     gradient                   ...        0 min,  0.017 sec
 * total energy  :  -152.5012580 Eh     change       -0.1860390E-02 Eh
   gradient norm :     0.0109135 Eh/α   predicted    -0.1518140E-02 ( -18.40%)
   displ. norm   :     0.3640455 α      lambda       -0.1246315E-02
   maximum displ.:     0.2115669 α      in ANC's #27, #12, #11, ...

........................................................................
.............................. CYCLE    5 ..............................
........................................................................

 iter      E             dE          RMSdq      gap      omega  full diag
   1   -155.3274095 -0.155327E+03  0.526E-02    3.05       0.0  T
   2   -155.3274156 -0.609666E-05  0.325E-02    3.06       1.0  T
   3   -155.3273923  0.233280E-04  0.133E-02    3.05       1.0  T
   4   -155.3274191 -0.268533E-04  0.206E-03    3.06       4.7  T
   5   -155.3274196 -0.470283E-06  0.736E-04    3.06      13.1  T
   6   -155.3274197 -0.435452E-07  0.372E-04    3.06      26.0  T
     SCC iter.                  ...        0 min,  0.073 sec
     gradient                   ...        0 min,  0.017 sec
 * total energy  :  -152.5020921 Eh     change       -0.8341274E-03 Eh
   gradient norm :     0.0058002 Eh/α   predicted    -0.7057486E-03 ( -15.39%)
   displ. norm   :     0.2646519 α      lambda       -0.4386778E-03
   maximum displ.:     0.1228296 α      in ANC's #27, #12, #11, ...

........................................................................
.............................. CYCLE    6 ..............................
........................................................................

 iter      E             dE          RMSdq      gap      omega  full diag
   1   -155.3290733 -0.155329E+03  0.338E-02    3.05       0.0  T
   2   -155.3290744 -0.114080E-05  0.202E-02    3.05       1.0  T
   3   -155.3290711  0.333169E-05  0.496E-03    3.05       2.0  T
   4   -155.3290749 -0.380398E-05  0.839E-04    3.05      11.5  T
   5   -155.3290750 -0.607009E-07  0.340E-04    3.05      28.4  T
   6   -155.3290750 -0.225876E-08  0.174E-04    3.05      55.6  T
     SCC iter.                  ...        0 min,  0.071 sec
     gradient                   ...        0 min,  0.017 sec
 * total energy  :  -152.5024058 Eh     change       -0.3136562E-03 Eh
   gradient norm :     0.0033606 Eh/α   predicted    -0.2347095E-03 ( -25.17%)
   displ. norm   :     0.2643221 α      lambda       -0.2888911E-03
   maximum displ.:     0.1374795 α      in ANC's #12, #11, #13, ...

........................................................................
.............................. CYCLE    7 ..............................
........................................................................

 iter      E             dE          RMSdq      gap      omega  full diag
   1   -155.3291749 -0.155329E+03  0.287E-02    3.05       0.0  T
   2   -155.3291755 -0.557618E-06  0.170E-02    3.05       1.0  T
   3   -155.3291735  0.196796E-05  0.385E-03    3.05       2.5  T
   4   -155.3291758 -0.223467E-05  0.638E-04    3.05      15.1  T
   5   -155.3291758 -0.320011E-07  0.311E-04    3.05      31.1  T
   6   -155.3291758 -0.301833E-08  0.143E-04    3.05      67.4  T
     SCC iter.                  ...        0 min,  0.071 sec
     gradient                   ...        0 min,  0.016 sec
 * total energy  :  -152.5026215 Eh     change       -0.2157006E-03 Eh
   gradient norm :     0.0033858 Eh/α   predicted    -0.1545379E-03 ( -28.36%)
   displ. norm   :     0.2583423 α      lambda       -0.2166455E-03
   maximum displ.:     0.1348080 α      in ANC's #12, #11, #13, ...

........................................................................
.............................. CYCLE    8 ..............................
........................................................................

 iter      E             dE          RMSdq      gap      omega  full diag
   1   -155.3286810 -0.155329E+03  0.259E-02    3.05       0.0  T
   2   -155.3286814 -0.397641E-06  0.154E-02    3.05       1.0  T
   3   -155.3286799  0.141572E-05  0.338E-03    3.05       2.9  T
   4   -155.3286816 -0.161080E-05  0.539E-04    3.05      17.9  T
   5   -155.3286816 -0.188493E-07  0.270E-04    3.05      35.7  T
   6   -155.3286816 -0.267926E-08  0.126E-04    3.05      77.0  T
     SCC iter.                  ...        0 min,  0.076 sec
     gradient                   ...        0 min,  0.017 sec
 * total energy  :  -152.5027839 Eh     change       -0.1624930E-03 Eh
   gradient norm :     0.0033252 Eh/α   predicted    -0.1155574E-03 ( -28.88%)
   displ. norm   :     0.2403738 α      lambda       -0.1475722E-03
   maximum displ.:     0.1227838 α      in ANC's #12, #11, #13, ...

........................................................................
.............................. CYCLE    9 ..............................
........................................................................

 iter      E             dE          RMSdq      gap      omega  full diag
   1   -155.3285628 -0.155329E+03  0.248E-02    3.06       0.0  T
   2   -155.3285631 -0.284860E-06  0.147E-02    3.05       1.0  T
   3   -155.3285620  0.113820E-05  0.294E-03    3.05       3.3  T
   4   -155.3285633 -0.130007E-05  0.455E-04    3.05      21.2  T
   5   -155.3285633 -0.930069E-08  0.225E-04    3.05      43.0  T
   6   -155.3285633 -0.155126E-08  0.102E-04    3.05      94.5  T
     SCC iter.                  ...        0 min,  0.072 sec
     gradient                   ...        0 min,  0.017 sec
 * total energy  :  -152.5028879 Eh     change       -0.1039963E-03 Eh
   gradient norm :     0.0024751 Eh/α   predicted    -0.7805679E-04 ( -24.94%)
   displ. norm   :     0.1716903 α      lambda       -0.6977507E-04
   maximum displ.:     0.0834794 α      in ANC's #12, #11, #4, ...

........................................................................
.............................. CYCLE   10 ..............................
........................................................................

 iter      E             dE          RMSdq      gap      omega  full diag
   1   -155.3288287 -0.155329E+03  0.193E-02    3.06       0.0  T
   2   -155.3288289 -0.126142E-06  0.115E-02    3.05       1.0  T
   3   -155.3288278  0.102864E-05  0.263E-03    3.05       3.7  T
   4   -155.3288290 -0.114726E-05  0.334E-04    3.05      28.9  T
   5   -155.3288290 -0.511378E-08  0.188E-04    3.05      51.4  T
   6   -155.3288290 -0.194814E-08  0.727E-05    3.05     133.0  T
     SCC iter.                  ...        0 min,  0.074 sec
     gradient                   ...        0 min,  0.017 sec
 * total energy  :  -152.5029370 Eh     change       -0.4904547E-04 Eh
   gradient norm :     0.0015380 Eh/α   predicted    -0.3591625E-04 ( -26.77%)
   displ. norm   :     0.1858273 α      lambda       -0.3961766E-04
   maximum displ.:     0.0921703 α      in ANC's #4, #12, #11, ...

........................................................................
.............................. CYCLE   11 ..............................
........................................................................

 iter      E             dE          RMSdq      gap      omega  full diag
   1   -155.3293094 -0.155329E+03  0.237E-02    3.06       0.0  T
   2   -155.3293095 -0.126926E-06  0.140E-02    3.06       1.0  T
   3   -155.3293080  0.144049E-05  0.309E-03    3.05       3.1  T
   4   -155.3293096 -0.159726E-05  0.353E-04    3.05      27.4  T
   5   -155.3293096 -0.636808E-08  0.201E-04    3.05      48.0  T
   6   -155.3293096 -0.181265E-08  0.659E-05    3.06     146.8  T
     SCC iter.                  ...        0 min,  0.071 sec
     gradient                   ...        0 min,  0.018 sec
 * total energy  :  -152.5029733 Eh     change       -0.3632349E-04 Eh
   gradient norm :     0.0014329 Eh/α   predicted    -0.2011373E-04 ( -44.63%)
   displ. norm   :     0.0865913 α      lambda       -0.2069012E-04
   maximum displ.:     0.0514998 α      in ANC's #4, #6, #19, ...

........................................................................
.............................. CYCLE   12 ..............................
........................................................................

 iter      E             dE          RMSdq      gap      omega  full diag
   1   -155.3294861 -0.155329E+03  0.127E-02    3.06       0.0  T
   2   -155.3294861 -0.533354E-07  0.748E-03    3.06       1.3  T
   3   -155.3294859  0.223314E-06  0.125E-03    3.06       7.8  T
   4   -155.3294862 -0.255588E-06  0.192E-04    3.06      50.3  T
   5   -155.3294862 -0.236153E-08  0.103E-04    3.06      94.3  T
     SCC iter.                  ...        0 min,  0.059 sec
     gradient                   ...        0 min,  0.017 sec
 * total energy  :  -152.5029979 Eh     change       -0.2461539E-04 Eh
   gradient norm :     0.0012046 Eh/α   predicted    -0.1038177E-04 ( -57.82%)
   displ. norm   :     0.1222650 α      lambda       -0.2279635E-04
   maximum displ.:     0.0751245 α      in ANC's #4, #6, #5, ...

........................................................................
.............................. CYCLE   13 ..............................
........................................................................

 iter      E             dE          RMSdq      gap      omega  full diag
   1   -155.3292648 -0.155329E+03  0.171E-02    3.06       0.0  T
   2   -155.3292649 -0.118339E-06  0.101E-02    3.06       1.0  T
   3   -155.3292645  0.412515E-06  0.179E-03    3.06       5.4  T
   4   -155.3292650 -0.478555E-06  0.244E-04    3.06      39.7  T
   5   -155.3292650 -0.301583E-08  0.126E-04    3.06      76.6  T
     SCC iter.                  ...        0 min,  0.059 sec
     gradient                   ...        0 min,  0.017 sec
 * total energy  :  -152.5030227 Eh     change       -0.2475244E-04 Eh
   gradient norm :     0.0008066 Eh/α   predicted    -0.1147679E-04 ( -53.63%)
   displ. norm   :     0.1054951 α      lambda       -0.1330681E-04
   maximum displ.:     0.0708587 α      in ANC's #4, #6, #5, ...

........................................................................
.............................. CYCLE   14 ..............................
........................................................................

 iter      E             dE          RMSdq      gap      omega  full diag
   1   -155.3293256 -0.155329E+03  0.140E-02    3.06       0.0  T
   2   -155.3293257 -0.483868E-07  0.824E-03    3.06       1.2  T
   3   -155.3293256  0.127550E-06  0.110E-03    3.06       8.8  T
   4   -155.3293257 -0.153476E-06  0.151E-04    3.06      64.2  T
   5   -155.3293257 -0.754682E-09  0.845E-05    3.06     114.4  T
     SCC iter.                  ...        0 min,  0.059 sec
     gradient                   ...        0 min,  0.017 sec
 * total energy  :  -152.5030392 Eh     change       -0.1651854E-04 Eh
   gradient norm :     0.0007345 Eh/α   predicted    -0.6687154E-05 ( -59.52%)
   displ. norm   :     0.1158067 α      lambda       -0.1479378E-04
   maximum displ.:     0.0774065 α      in ANC's #4, #6, #5, ...

........................................................................
.............................. CYCLE   15 ..............................
........................................................................

 iter      E             dE          RMSdq      gap      omega  full diag
   1   -155.3294409 -0.155329E+03  0.148E-02    3.06       0.0  T
   2   -155.3294409 -0.423886E-07  0.871E-03    3.06       1.1  T
   3   -155.3294408  0.835065E-07  0.926E-04    3.06      10.4  T
   4   -155.3294409 -0.105160E-06  0.151E-04    3.06      63.9  T
     SCC iter.                  ...        0 min,  0.047 sec
     gradient                   ...        0 min,  0.017 sec
 * total energy  :  -152.5030586 Eh     change       -0.1939085E-04 Eh
   gradient norm :     0.0007303 Eh/α   predicted    -0.7441797E-05 ( -61.62%)
   displ. norm   :     0.1713647 α      lambda       -0.2161946E-04
   maximum displ.:     0.1120540 α      in ANC's #4, #6, #5, ...

........................................................................
.............................. CYCLE   16 ..............................
........................................................................

 iter      E             dE          RMSdq      gap      omega  full diag
   1   -155.3293949 -0.155329E+03  0.216E-02    3.06       0.0  T
   2   -155.3293949 -0.929837E-07  0.127E-02    3.06       1.0  T
   3   -155.3293947  0.257120E-06  0.141E-03    3.06       6.8  T
   4   -155.3293950 -0.306477E-06  0.225E-04    3.06      43.0  T
   5   -155.3293950 -0.243526E-08  0.127E-04    3.06      76.2  T
     SCC iter.                  ...        0 min,  0.059 sec
     gradient                   ...        0 min,  0.017 sec
 * total energy  :  -152.5030861 Eh     change       -0.2747238E-04 Eh
   gradient norm :     0.0008418 Eh/α   predicted    -0.1095210E-04 ( -60.13%)
   displ. norm   :     0.2302800 α      lambda       -0.2546740E-04
   maximum displ.:     0.1497430 α      in ANC's #4, #6, #5, ...

........................................................................
.............................. CYCLE   17 ..............................
........................................................................

 iter      E             dE          RMSdq      gap      omega  full diag
   1   -155.3293747 -0.155329E+03  0.281E-02    3.06       0.0  T
   2   -155.3293749 -0.154325E-06  0.165E-02    3.06       1.0  T
   3   -155.3293746  0.293780E-06  0.160E-03    3.06       6.0  T
   4   -155.3293749 -0.367461E-06  0.290E-04    3.06      33.4  T
   5   -155.3293749 -0.340577E-08  0.162E-04    3.06      59.7  T
     SCC iter.                  ...        0 min,  0.059 sec
     gradient                   ...        0 min,  0.017 sec
 * total energy  :  -152.5031179 Eh     change       -0.3186668E-04 Eh
   gradient norm :     0.0008291 Eh/α   predicted    -0.1303517E-04 ( -59.09%)
   displ. norm   :     0.2514154 α      lambda       -0.2354336E-04
   maximum displ.:     0.1639361 α      in ANC's #4, #6, #5, ...

........................................................................
.............................. CYCLE   18 ..............................
........................................................................

 iter      E             dE          RMSdq      gap      omega  full diag
   1   -155.3292769 -0.155329E+03  0.308E-02    3.06       0.0  T
   2   -155.3292771 -0.176029E-06  0.181E-02    3.06       1.0  T
   3   -155.3292768  0.274960E-06  0.163E-03    3.06       5.9  T
   4   -155.3292772 -0.353593E-06  0.303E-04    3.06      31.9  T
   5   -155.3292772 -0.382911E-08  0.171E-04    3.06      56.4  T
     SCC iter.                  ...        0 min,  0.059 sec
     gradient                   ...        0 min,  0.017 sec
 * total energy  :  -152.5031479 Eh     change       -0.2999799E-04 Eh
   gradient norm :     0.0006750 Eh/α   predicted    -0.1210425E-04 ( -59.65%)
   displ. norm   :     0.2470034 α      lambda       -0.2080089E-04
   maximum displ.:     0.1620724 α      in ANC's #4, #6, #5, ...

........................................................................
.............................. CYCLE   19 ..............................
........................................................................

 iter      E             dE          RMSdq      gap      omega  full diag
   1   -155.3293791 -0.155329E+03  0.306E-02    3.06       0.0  T
   2   -155.3293793 -0.172126E-06  0.180E-02    3.06       1.0  T
   3   -155.3293791  0.197900E-06  0.153E-03    3.05       6.3  T
   4   -155.3293794 -0.269686E-06  0.291E-04    3.05      33.3  T
   5   -155.3293794 -0.276063E-08  0.162E-04    3.05      59.6  T
     SCC iter.                  ...        0 min,  0.062 sec
     gradient                   ...        0 min,  0.018 sec
 * total energy  :  -152.5031744 Eh     change       -0.2648028E-04 Eh
   gradient norm :     0.0005544 Eh/α   predicted    -0.1068324E-04 ( -59.66%)
   displ. norm   :     0.2351766 α      lambda       -0.1790416E-04
   maximum displ.:     0.1557607 α      in ANC's #4, #5, #6, ...

........................................................................
.............................. CYCLE   20 ..............................
........................................................................

 iter      E             dE          RMSdq      gap      omega  full diag
   1   -155.3294865 -0.155329E+03  0.298E-02    3.06       0.0  T
   2   -155.3294867 -0.168287E-06  0.175E-02    3.05       1.0  T
   3   -155.3294866  0.130574E-06  0.144E-03    3.05       6.7  T
   4   -155.3294868 -0.193533E-06  0.273E-04    3.05      35.4  T
   5   -155.3294868 -0.189934E-08  0.145E-04    3.05      66.5  T
     SCC iter.                  ...        0 min,  0.060 sec
     gradient                   ...        0 min,  0.017 sec
 * total energy  :  -152.5031964 Eh     change       -0.2195739E-04 Eh
   gradient norm :     0.0005121 Eh/α   predicted    -0.9176880E-05 ( -58.21%)
   displ. norm   :     0.2029708 α      lambda       -0.1361548E-04
   maximum displ.:     0.1362243 α      in ANC's #4, #5, #6, ...
 * RMSD in coord.:     0.3041989 α      energy gain  -0.2825059E-01 Eh

generating ANC from exact Hessian ...
Using Lindh-Hessian (1995)
 Shifting diagonal of input Hessian by   9.969437176252661E-003
 Lowest  eigenvalues of input Hessian
    0.000000    0.000000    0.000000    0.000000    0.000000    0.000000
    0.010000    0.010040    0.010066    0.010154    0.010159    0.010263
    0.010400    0.010442    0.010465    0.010515    0.011166    0.011298
 Highest eigenvalues
    2.138395    2.145522    2.180643    2.185334    2.209548    2.240069
 

........................................................................
.............................. CYCLE   21 ..............................
........................................................................

 iter      E             dE          RMSdq      gap      omega  full diag
   1   -155.3295954 -0.155330E+03  0.260E-02    3.06       0.0  T
   2   -155.3295955 -0.134123E-06  0.152E-02    3.05       1.0  T
   3   -155.3295955  0.942574E-07  0.131E-03    3.05       7.4  T
   4   -155.3295956 -0.141890E-06  0.236E-04    3.05      40.9  T
   5   -155.3295956 -0.121724E-08  0.121E-04    3.05      79.9  T
     SCC iter.                  ...        0 min,  0.059 sec
     gradient                   ...        0 min,  0.017 sec
 * total energy  :  -152.5032123 Eh     change       -0.1598267E-04 Eh
   gradient norm :     0.0004927 Eh/α   predicted     0.0000000E+00 (-100.00%)
   displ. norm   :     0.0236013 α      lambda       -0.2613219E-06
   maximum displ.:     0.0117300 α      in ANC's #4, #5, #2, ...

........................................................................
.............................. CYCLE   22 ..............................
........................................................................

 iter      E             dE          RMSdq      gap      omega  full diag
   1   -155.3297914 -0.155330E+03  0.368E-03    3.05       0.0  T
   2   -155.3297914 -0.657039E-08  0.218E-03    3.05       4.4  T
   3   -155.3297913  0.239201E-07  0.442E-04    3.06      21.8  T
   4   -155.3297914 -0.273737E-07  0.634E-05    3.05     152.5  T
     SCC iter.                  ...        0 min,  0.048 sec
     gradient                   ...        0 min,  0.017 sec
 * total energy  :  -152.5032165 Eh     change       -0.4186441E-05 Eh
   gradient norm :     0.0002856 Eh/α   predicted    -0.1791264E-05 ( -57.21%)
   displ. norm   :     0.0785331 α      lambda       -0.8232899E-05
   maximum displ.:     0.0371318 α      in ANC's #4, #5, #2, ...

........................................................................
.............................. CYCLE   23 ..............................
........................................................................

 iter      E             dE          RMSdq      gap      omega  full diag
   1   -155.3300338 -0.155330E+03  0.975E-03    3.06       0.0  T
   2   -155.3300338 -0.360647E-07  0.573E-03    3.06       1.7  T
   3   -155.3300337  0.119630E-06  0.985E-04    3.06       9.8  T
   4   -155.3300338 -0.137355E-06  0.144E-04    3.06      67.1  T
     SCC iter.                  ...        0 min,  0.048 sec
     gradient                   ...        0 min,  0.017 sec
 * total energy  :  -152.5032262 Eh     change       -0.9709543E-05 Eh
   gradient norm :     0.0006844 Eh/α   predicted    -0.4130375E-05 ( -57.46%)
   displ. norm   :     0.1224726 α      lambda       -0.9315569E-05
   maximum displ.:     0.0588787 α      in ANC's #4, #5, #2, ...

........................................................................
.............................. CYCLE   24 ..............................
........................................................................

 iter      E             dE          RMSdq      gap      omega  full diag
   1   -155.3299844 -0.155330E+03  0.150E-02    3.06       0.0  T
   2   -155.3299845 -0.514113E-07  0.881E-03    3.06       1.1  T
   3   -155.3299843  0.151792E-06  0.110E-03    3.06       8.8  T
   4   -155.3299845 -0.177646E-06  0.184E-04    3.06      52.4  T
   5   -155.3299845 -0.217085E-08  0.100E-04    3.06      96.4  T
     SCC iter.                  ...        0 min,  0.059 sec
     gradient                   ...        0 min,  0.017 sec
 * total energy  :  -152.5032370 Eh     change       -0.1073592E-04 Eh
   gradient norm :     0.0007679 Eh/α   predicted    -0.4751579E-05 ( -55.74%)
   displ. norm   :     0.1286019 α      lambda       -0.7837268E-05
   maximum displ.:     0.0635042 α      in ANC's #4, #5, #2, ...

........................................................................
.............................. CYCLE   25 ..............................
........................................................................

 iter      E             dE          RMSdq      gap      omega  full diag
   1   -155.3299588 -0.155330E+03  0.155E-02    3.06       0.0  T
   2   -155.3299589 -0.437231E-07  0.907E-03    3.06       1.1  T
   3   -155.3299588  0.847754E-07  0.899E-04    3.06      10.8  T
   4   -155.3299589 -0.105683E-06  0.161E-04    3.06      60.0  T
     SCC iter.                  ...        0 min,  0.048 sec
     gradient                   ...        0 min,  0.017 sec
 * total energy  :  -152.5032465 Eh     change       -0.9480900E-05 Eh
   gradient norm :     0.0005668 Eh/α   predicted    -0.3971066E-05 ( -58.12%)
   displ. norm   :     0.1474352 α      lambda       -0.8660077E-05
   maximum displ.:     0.0739719 α      in ANC's #4, #5, #2, ...

........................................................................
.............................. CYCLE   26 ..............................
........................................................................

 iter      E             dE          RMSdq      gap      omega  full diag
   1   -155.3298288 -0.155330E+03  0.176E-02    3.06       0.0  T
   2   -155.3298288 -0.524954E-07  0.103E-02    3.06       1.0  T
   3   -155.3298287  0.869738E-07  0.935E-04    3.06      10.3  T
   4   -155.3298288 -0.112360E-06  0.178E-04    3.06      54.2  T
     SCC iter.                  ...        0 min,  0.047 sec
     gradient                   ...        0 min,  0.017 sec
 * total energy  :  -152.5032569 Eh     change       -0.1044366E-04 Eh
   gradient norm :     0.0003363 Eh/α   predicted    -0.4372603E-05 ( -58.13%)
   displ. norm   :     0.1684009 α      lambda       -0.9095519E-05
   maximum displ.:     0.0854220 α      in ANC's #4, #5, #2, ...

........................................................................
.............................. CYCLE   27 ..............................
........................................................................

 iter      E             dE          RMSdq      gap      omega  full diag
   1   -155.3297136 -0.155330E+03  0.201E-02    3.06       0.0  T
   2   -155.3297137 -0.694139E-07  0.118E-02    3.06       1.0  T
   3   -155.3297136  0.887657E-07  0.100E-03    3.06       9.6  T
   4   -155.3297137 -0.120638E-06  0.196E-04    3.06      49.2  T
   5   -155.3297137 -0.918732E-09  0.109E-04    3.06      88.9  T
     SCC iter.                  ...        0 min,  0.059 sec
     gradient                   ...        0 min,  0.017 sec
 * total energy  :  -152.5032672 Eh     change       -0.1033140E-04 Eh
   gradient norm :     0.0004782 Eh/α   predicted    -0.4605138E-05 ( -55.43%)
   displ. norm   :     0.1508435 α      lambda       -0.6929381E-05
   maximum displ.:     0.0772591 α      in ANC's #4, #5, #2, ...

........................................................................
.............................. CYCLE   28 ..............................
........................................................................

 iter      E             dE          RMSdq      gap      omega  full diag
   1   -155.3296858 -0.155330E+03  0.182E-02    3.06       0.0  T
   2   -155.3296858 -0.634149E-07  0.107E-02    3.06       1.0  T
   3   -155.3296857  0.845597E-07  0.967E-04    3.06      10.0  T
   4   -155.3296858 -0.111699E-06  0.194E-04    3.06      49.9  T
     SCC iter.                  ...        0 min,  0.048 sec
     gradient                   ...        0 min,  0.017 sec
 * total energy  :  -152.5032749 Eh     change       -0.7658767E-05 Eh
   gradient norm :     0.0005704 Eh/α   predicted    -0.3503127E-05 ( -54.26%)
   displ. norm   :     0.1252480 α      lambda       -0.5433082E-05
   maximum displ.:     0.0643577 α      in ANC's #4, #5, #2, ...

........................................................................
.............................. CYCLE   29 ..............................
........................................................................

 iter      E             dE          RMSdq      gap      omega  full diag
   1   -155.3297819 -0.155330E+03  0.155E-02    3.06       0.0  T
   2   -155.3297820 -0.461858E-07  0.912E-03    3.06       1.1  T
   3   -155.3297819  0.101669E-06  0.914E-04    3.06      10.6  T
   4   -155.3297820 -0.123137E-06  0.183E-04    3.06      52.9  T
     SCC iter.                  ...        0 min,  0.048 sec
     gradient                   ...        0 min,  0.017 sec
 * total energy  :  -152.5032811 Eh     change       -0.6163333E-05 Eh
   gradient norm :     0.0004581 Eh/α   predicted    -0.2738363E-05 ( -55.57%)
   displ. norm   :     0.1183214 α      lambda       -0.5279381E-05
   maximum displ.:     0.0598108 α      in ANC's #4, #5, #2, ...

........................................................................
.............................. CYCLE   30 ..............................
........................................................................

 iter      E             dE          RMSdq      gap      omega  full diag
   1   -155.3299159 -0.155330E+03  0.154E-02    3.06       0.0  T
   2   -155.3299159 -0.437819E-07  0.905E-03    3.06       1.1  T
   3   -155.3299158  0.937897E-07  0.869E-04    3.06      11.1  T
   4   -155.3299159 -0.114258E-06  0.180E-04    3.06      53.8  T
     SCC iter.                  ...        0 min,  0.048 sec
     gradient                   ...        0 min,  0.017 sec
 * total energy  :  -152.5032872 Eh     change       -0.6128280E-05 Eh
   gradient norm :     0.0002833 Eh/α   predicted    -0.2656300E-05 ( -56.66%)
   displ. norm   :     0.1237552 α      lambda       -0.5378845E-05
   maximum displ.:     0.0623411 α      in ANC's #5, #4, #2, ...

........................................................................
.............................. CYCLE   31 ..............................
........................................................................

 iter      E             dE          RMSdq      gap      omega  full diag
   1   -155.3299914 -0.155330E+03  0.168E-02    3.06       0.0  T
   2   -155.3299915 -0.453332E-07  0.984E-03    3.06       1.0  T
   3   -155.3299914  0.678330E-07  0.796E-04    3.06      12.1  T
   4   -155.3299915 -0.896116E-07  0.182E-04    3.06      53.0  T
     SCC iter.                  ...        0 min,  0.049 sec
     gradient                   ...        0 min,  0.017 sec
 * total energy  :  -152.5032934 Eh     change       -0.6207566E-05 Eh
   gradient norm :     0.0003052 Eh/α   predicted    -0.2708774E-05 ( -56.36%)
   displ. norm   :     0.1265303 α      lambda       -0.5070310E-05
   maximum displ.:     0.0631184 α      in ANC's #5, #4, #2, ...

........................................................................
.............................. CYCLE   32 ..............................
........................................................................

 iter      E             dE          RMSdq      gap      omega  full diag
   1   -155.3300271 -0.155330E+03  0.176E-02    3.06       0.0  T
   2   -155.3300272 -0.431535E-07  0.103E-02    3.06       1.0  T
   3   -155.3300271  0.426552E-07  0.700E-04    3.06      13.8  T
   4   -155.3300272 -0.647256E-07  0.172E-04    3.06      56.3  T
     SCC iter.                  ...        0 min,  0.047 sec
     gradient                   ...        0 min,  0.017 sec
 * total energy  :  -152.5032993 Eh     change       -0.5865644E-05 Eh
   gradient norm :     0.0004041 Eh/α   predicted    -0.2554948E-05 ( -56.44%)
   displ. norm   :     0.1276027 α      lambda       -0.4775129E-05
   maximum displ.:     0.0629798 α      in ANC's #5, #4, #2, ...

........................................................................
.............................. CYCLE   33 ..............................
........................................................................

 iter      E             dE          RMSdq      gap      omega  full diag
   1   -155.3299783 -0.155330E+03  0.178E-02    3.06       0.0  T
   2   -155.3299784 -0.428161E-07  0.105E-02    3.06       1.0  T
   3   -155.3299783  0.372399E-07  0.678E-04    3.06      14.3  T
   4   -155.3299784 -0.598579E-07  0.165E-04    3.06      58.7  T
     SCC iter.                  ...        0 min,  0.047 sec
     gradient                   ...        0 min,  0.017 sec
 * total energy  :  -152.5033047 Eh     change       -0.5443082E-05 Eh
   gradient norm :     0.0004013 Eh/α   predicted    -0.2407720E-05 ( -55.77%)
   displ. norm   :     0.1267080 α      lambda       -0.4421891E-05
   maximum displ.:     0.0618564 α      in ANC's #5, #4, #2, ...

........................................................................
.............................. CYCLE   34 ..............................
........................................................................

 iter      E             dE          RMSdq      gap      omega  full diag
   1   -155.3299179 -0.155330E+03  0.175E-02    3.06       0.0  T
   2   -155.3299180 -0.404248E-07  0.103E-02    3.06       1.0  T
   3   -155.3299179  0.476078E-07  0.700E-04    3.06      13.8  T
   4   -155.3299180 -0.695904E-07  0.160E-04    3.06      60.4  T
     SCC iter.                  ...        0 min,  0.048 sec
     gradient                   ...        0 min,  0.017 sec
 * total energy  :  -152.5033096 Eh     change       -0.4914121E-05 Eh
   gradient norm :     0.0003156 Eh/α   predicted    -0.2228041E-05 ( -54.66%)
   displ. norm   :     0.1159828 α      lambda       -0.3823597E-05
   maximum displ.:     0.0555977 α      in ANC's #5, #2, #4, ...

........................................................................
.............................. CYCLE   35 ..............................
........................................................................

 iter      E             dE          RMSdq      gap      omega  full diag
   1   -155.3298585 -0.155330E+03  0.154E-02    3.06       0.0  T
   2   -155.3298586 -0.320452E-07  0.906E-03    3.06       1.1  T
   3   -155.3298585  0.542901E-07  0.691E-04    3.06      14.0  T
   4   -155.3298586 -0.721529E-07  0.153E-04    3.06      63.2  T
     SCC iter.                  ...        0 min,  0.047 sec
     gradient                   ...        0 min,  0.016 sec
 * total energy  :  -152.5033138 Eh     change       -0.4225823E-05 Eh
   gradient norm :     0.0002576 Eh/α   predicted    -0.1924796E-05 ( -54.45%)
   displ. norm   :     0.1058241 α      lambda       -0.3354875E-05
   maximum displ.:     0.0522273 α      in ANC's #2, #5, #4, ...

........................................................................
.............................. CYCLE   36 ..............................
........................................................................

 iter      E             dE          RMSdq      gap      omega  full diag
   1   -155.3298336 -0.155330E+03  0.131E-02    3.06       0.0  T
   2   -155.3298336 -0.241127E-07  0.768E-03    3.06       1.3  T
   3   -155.3298336  0.384010E-07  0.599E-04    3.06      16.1  T
   4   -155.3298336 -0.509458E-07  0.135E-04    3.06      71.9  T
     SCC iter.                  ...        0 min,  0.047 sec
     gradient                   ...        0 min,  0.016 sec
 * total energy  :  -152.5033176 Eh     change       -0.3801329E-05 Eh
   gradient norm :     0.0002924 Eh/α   predicted    -0.1688021E-05 ( -55.59%)
   displ. norm   :     0.0971087 α      lambda       -0.3073699E-05
   maximum displ.:     0.0495448 α      in ANC's #2, #5, #4, ...

........................................................................
.............................. CYCLE   37 ..............................
........................................................................

 iter      E             dE          RMSdq      gap      omega  full diag
   1   -155.3298825 -0.155330E+03  0.112E-02    3.06       0.0  T
   2   -155.3298826 -0.239599E-07  0.656E-03    3.06       1.5  T
   3   -155.3298825  0.325217E-07  0.590E-04    3.06      16.4  T
   4   -155.3298826 -0.428508E-07  0.123E-04    3.06      78.3  T
     SCC iter.                  ...        0 min,  0.047 sec
     gradient                   ...        0 min,  0.016 sec
 * total energy  :  -152.5033211 Eh     change       -0.3478775E-05 Eh
   gradient norm :     0.0003070 Eh/α   predicted    -0.1546683E-05 ( -55.54%)
   displ. norm   :     0.0892744 α      lambda       -0.2589531E-05
   maximum displ.:     0.0469854 α      in ANC's #2, #3, #5, ...

........................................................................
.............................. CYCLE   38 ..............................
........................................................................

 iter      E             dE          RMSdq      gap      omega  full diag
   1   -155.3299630 -0.155330E+03  0.102E-02    3.06       0.0  T
   2   -155.3299630 -0.264426E-07  0.598E-03    3.06       1.6  T
   3   -155.3299630  0.436177E-07  0.657E-04    3.06      14.7  T
   4   -155.3299630 -0.542729E-07  0.114E-04    3.06      85.1  T
     SCC iter.                  ...        0 min,  0.047 sec
     gradient                   ...        0 min,  0.016 sec
 * total energy  :  -152.5033240 Eh     change       -0.2911886E-05 Eh
   gradient norm :     0.0002518 Eh/α   predicted    -0.1301208E-05 ( -55.31%)
   displ. norm   :     0.0767663 α      lambda       -0.2085352E-05
   maximum displ.:     0.0416078 α      in ANC's #2, #3, #5, ...

........................................................................
.............................. CYCLE   39 ..............................
........................................................................

 iter      E             dE          RMSdq      gap      omega  full diag
   1   -155.3300813 -0.155330E+03  0.918E-03    3.06       0.0  T
   2   -155.3300814 -0.246237E-07  0.539E-03    3.06       1.8  T
   3   -155.3300813  0.490501E-07  0.669E-04    3.06      14.4  T
   4   -155.3300814 -0.589185E-07  0.103E-04    3.06      94.3  T
     SCC iter.                  ...        0 min,  0.047 sec
     gradient                   ...        0 min,  0.017 sec
 * total energy  :  -152.5033264 Eh     change       -0.2392100E-05 Eh
   gradient norm :     0.0001854 Eh/α   predicted    -0.1048444E-05 ( -56.17%)
   displ. norm   :     0.0753558 α      lambda       -0.1979153E-05
   maximum displ.:     0.0416810 α      in ANC's #2, #3, #5, ...

........................................................................
.............................. CYCLE   40 ..............................
........................................................................

 iter      E             dE          RMSdq      gap      omega  full diag
   1   -155.3301803 -0.155330E+03  0.937E-03    3.06       0.0  T
   2   -155.3301803 -0.246285E-07  0.550E-03    3.06       1.8  T
   3   -155.3301802  0.479638E-07  0.663E-04    3.06      14.6  T
   4   -155.3301803 -0.576700E-07  0.107E-04    3.06      90.3  T
     SCC iter.                  ...        0 min,  0.047 sec
     gradient                   ...        0 min,  0.016 sec
 * total energy  :  -152.5033287 Eh     change       -0.2287188E-05 Eh
   gradient norm :     0.0001987 Eh/α   predicted    -0.9964009E-06 ( -56.44%)
   displ. norm   :     0.0745473 α      lambda       -0.1908763E-05
   maximum displ.:     0.0418181 α      in ANC's #2, #3, #5, ...

........................................................................
.............................. CYCLE   41 ..............................
........................................................................

 iter      E             dE          RMSdq      gap      omega  full diag
   1   -155.3302211 -0.155330E+03  0.932E-03    3.06       0.0  T
   2   -155.3302211 -0.210150E-07  0.547E-03    3.06       1.8  T
   3   -155.3302211  0.393542E-07  0.610E-04    3.06      15.8  T
   4   -155.3302211 -0.480742E-07  0.103E-04    3.06      93.9  T
     SCC iter.                  ...        0 min,  0.047 sec
     gradient                   ...        0 min,  0.017 sec
 * total energy  :  -152.5033310 Eh     change       -0.2241793E-05 Eh
   gradient norm :     0.0002461 Eh/α   predicted    -0.9602573E-06 ( -57.17%)
   displ. norm   :     0.0747468 α      lambda       -0.1864244E-05
   maximum displ.:     0.0424694 α      in ANC's #2, #3, #9, ...

........................................................................
.............................. CYCLE   42 ..............................
........................................................................

 iter      E             dE          RMSdq      gap      omega  full diag
   1   -155.3301972 -0.155330E+03  0.920E-03    3.06       0.0  T
   2   -155.3301972 -0.177414E-07  0.540E-03    3.06       1.8  T
   3   -155.3301971  0.260424E-07  0.523E-04    3.06      18.5  T
   4   -155.3301972 -0.336266E-07  0.980E-05    3.06      98.7  T
     SCC iter.                  ...        0 min,  0.048 sec
     gradient                   ...        0 min,  0.016 sec
 * total energy  :  -152.5033332 Eh     change       -0.2207181E-05 Eh
   gradient norm :     0.0002436 Eh/α   predicted    -0.9369526E-06 ( -57.55%)
   displ. norm   :     0.0725795 α      lambda       -0.1689904E-05
   maximum displ.:     0.0418213 α      in ANC's #2, #3, #9, ...
 * RMSD in coord.:     0.1916430 α      energy gain  -0.1367974E-03 Eh

generating ANC from exact Hessian ...
Using Lindh-Hessian (1995)
 Shifting diagonal of input Hessian by   9.968808077816808E-003
 Lowest  eigenvalues of input Hessian
    0.000000    0.000000    0.000000    0.000000    0.000000    0.000000
    0.010000    0.010039    0.010065    0.010154    0.010158    0.010261
    0.010407    0.010442    0.010464    0.010515    0.011152    0.011303
 Highest eigenvalues
    2.139288    2.146290    2.181458    2.185481    2.208638    2.240265
 

........................................................................
.............................. CYCLE   43 ..............................
........................................................................

 iter      E             dE          RMSdq      gap      omega  full diag
   1   -155.3301284 -0.155330E+03  0.886E-03    3.06       0.0  T
   2   -155.3301285 -0.146590E-07  0.520E-03    3.06       1.9  T
   3   -155.3301284  0.185372E-07  0.445E-04    3.06      21.7  T
   4   -155.3301285 -0.251090E-07  0.915E-05    3.06     105.6  T
     SCC iter.                  ...        0 min,  0.047 sec
     gradient                   ...        0 min,  0.016 sec
 * total energy  :  -152.5033351 Eh     change       -0.1940923E-05 Eh
   gradient norm :     0.0001794 Eh/α   predicted     0.0000000E+00 (-100.00%)
   displ. norm   :     0.0088342 α      lambda       -0.3233682E-07
   maximum displ.:     0.0041738 α      in ANC's #2, #18, #13, ...

........................................................................
.............................. CYCLE   44 ..............................
........................................................................

 iter      E             dE          RMSdq      gap      omega  full diag
   1   -155.3301038 -0.155330E+03  0.141E-03    3.06       0.0  T
   2   -155.3301038 -0.863764E-09  0.832E-04    3.06      11.6  T
   3   -155.3301038  0.187276E-08  0.131E-04    3.06      73.6  T
     SCC iter.                  ...        0 min,  0.036 sec
     gradient                   ...        0 min,  0.016 sec
 * total energy  :  -152.5033357 Eh     change       -0.6360807E-06 Eh
   gradient norm :     0.0001039 Eh/α   predicted    -0.2518111E-06 ( -60.41%)
   displ. norm   :     0.0323450 α      lambda       -0.1348358E-05
   maximum displ.:     0.0154578 α      in ANC's #2, #13, #18, ...

........................................................................
.............................. CYCLE   45 ..............................
........................................................................

 iter      E             dE          RMSdq      gap      omega  full diag
   1   -155.3300098 -0.155330E+03  0.467E-03    3.06       0.0  T
   2   -155.3300098 -0.807384E-08  0.275E-03    3.06       3.5  T
   3   -155.3300098  0.221985E-07  0.435E-04    3.06      22.2  T
   4   -155.3300098 -0.259600E-07  0.660E-05    3.06     146.5  T
     SCC iter.                  ...        0 min,  0.047 sec
     gradient                   ...        0 min,  0.016 sec
 * total energy  :  -152.5033369 Eh     change       -0.1205230E-05 Eh
   gradient norm :     0.0001545 Eh/α   predicted    -0.6745863E-06 ( -44.03%)
   displ. norm   :     0.0163190 α      lambda       -0.3649611E-06
   maximum displ.:     0.0094229 α      in ANC's #2, #13, #7, ...

........................................................................
.............................. CYCLE   46 ..............................
........................................................................

 iter      E             dE          RMSdq      gap      omega  full diag
   1   -155.3299874 -0.155330E+03  0.194E-03    3.06       0.0  T
   2   -155.3299874 -0.840203E-09  0.114E-03    3.06       8.5  T
   3   -155.3299874  0.203636E-08  0.137E-04    3.06      70.7  T
   4   -155.3299874 -0.250901E-08  0.228E-05    3.06     423.4  T
     SCC iter.                  ...        0 min,  0.048 sec
     gradient                   ...        0 min,  0.016 sec
 * total energy  :  -152.5033374 Eh     change       -0.4485927E-06 Eh
   gradient norm :     0.0001417 Eh/α   predicted    -0.1827510E-06 ( -59.26%)
   displ. norm   :     0.0240860 α      lambda       -0.5743589E-06
   maximum displ.:     0.0139750 α      in ANC's #2, #13, #7, ...

........................................................................
.............................. CYCLE   47 ..............................
........................................................................

 iter      E             dE          RMSdq      gap      omega  full diag
   1   -155.3300051 -0.155330E+03  0.249E-03    3.06       0.0  T
   2   -155.3300051 -0.157158E-08  0.146E-03    3.06       6.6  T
   3   -155.3300051  0.275182E-08  0.166E-04    3.06      58.3  T
   4   -155.3300051 -0.351710E-08  0.310E-05    3.06     312.0  T
     SCC iter.                  ...        0 min,  0.047 sec
     gradient                   ...        0 min,  0.016 sec
 * total energy  :  -152.5033381 Eh     change       -0.7425809E-06 Eh
   gradient norm :     0.0001112 Eh/α   predicted    -0.2887245E-06 ( -61.12%)
   displ. norm   :     0.0387352 α      lambda       -0.8490355E-06
   maximum displ.:     0.0227242 α      in ANC's #2, #13, #7, ...

........................................................................
.............................. CYCLE   48 ..............................
........................................................................

 iter      E             dE          RMSdq      gap      omega  full diag
   1   -155.3300495 -0.155330E+03  0.379E-03    3.06       0.0  T
   2   -155.3300495 -0.385072E-08  0.222E-03    3.06       4.4  T
   3   -155.3300495  0.806017E-08  0.271E-04    3.06      35.6  T
   4   -155.3300495 -0.100114E-07  0.477E-05    3.06     202.7  T
     SCC iter.                  ...        0 min,  0.047 sec
     gradient                   ...        0 min,  0.016 sec
 * total energy  :  -152.5033391 Eh     change       -0.1002119E-05 Eh
   gradient norm :     0.0001105 Eh/α   predicted    -0.4269149E-06 ( -57.40%)
   displ. norm   :     0.0405073 α      lambda       -0.6559357E-06
   maximum displ.:     0.0242752 α      in ANC's #2, #3, #5, ...

........................................................................
.............................. CYCLE   49 ..............................
........................................................................

 iter      E             dE          RMSdq      gap      omega  full diag
   1   -155.3300791 -0.155330E+03  0.384E-03    3.06       0.0  T
   2   -155.3300791 -0.350542E-08  0.225E-03    3.06       4.3  T
   3   -155.3300791  0.691003E-08  0.255E-04    3.06      37.9  T
   4   -155.3300791 -0.875863E-08  0.462E-05    3.06     209.4  T
     SCC iter.                  ...        0 min,  0.047 sec
     gradient                   ...        0 min,  0.016 sec
 * total energy  :  -152.5033399 Eh     change       -0.8104080E-06 Eh
   gradient norm :     0.0001384 Eh/α   predicted    -0.3360424E-06 ( -58.53%)
   displ. norm   :     0.0378049 α      lambda       -0.5792899E-06
   maximum displ.:     0.0230823 α      in ANC's #2, #3, #5, ...

........................................................................
.............................. CYCLE   50 ..............................
........................................................................

 iter      E             dE          RMSdq      gap      omega  full diag
   1   -155.3300874 -0.155330E+03  0.350E-03    3.06       0.0  T
   2   -155.3300874 -0.269335E-08  0.205E-03    3.06       4.7  T
   3   -155.3300874  0.486187E-08  0.218E-04    3.06      44.4  T
   4   -155.3300874 -0.628211E-08  0.397E-05    3.06     243.5  T
     SCC iter.                  ...        0 min,  0.047 sec
     gradient                   ...        0 min,  0.016 sec
 * total energy  :  -152.5033407 Eh     change       -0.7588631E-06 Eh
   gradient norm :     0.0001335 Eh/α   predicted    -0.2915078E-06 ( -61.59%)
   displ. norm   :     0.0410869 α      lambda       -0.6741822E-06
   maximum displ.:     0.0253183 α      in ANC's #2, #3, #5, ...

........................................................................
.............................. CYCLE   51 ..............................
........................................................................

 iter      E             dE          RMSdq      gap      omega  full diag
   1   -155.3300673 -0.155330E+03  0.370E-03    3.06       0.0  T
   2   -155.3300673 -0.298181E-08  0.217E-03    3.06       4.4  T
   3   -155.3300673  0.494711E-08  0.224E-04    3.06      43.2  T
   4   -155.3300673 -0.649814E-08  0.434E-05    3.06     222.5  T
     SCC iter.                  ...        0 min,  0.047 sec
     gradient                   ...        0 min,  0.017 sec
 * total energy  :  -152.5033416 Eh     change       -0.8707538E-06 Eh
   gradient norm :     0.0000987 Eh/α   predicted    -0.3387310E-06 ( -61.10%)
   displ. norm   :     0.0467911 α      lambda       -0.7102884E-06
   maximum displ.:     0.0291907 α      in ANC's #2, #3, #5, ...

........................................................................
.............................. CYCLE   52 ..............................
........................................................................

 iter      E             dE          RMSdq      gap      omega  full diag
   1   -155.3300347 -0.155330E+03  0.396E-03    3.06       0.0  T
   2   -155.3300347 -0.353251E-08  0.233E-03    3.06       4.2  T
   3   -155.3300347  0.583316E-08  0.245E-04    3.06      39.5  T
   4   -155.3300347 -0.763390E-08  0.491E-05    3.06     196.7  T
     SCC iter.                  ...        0 min,  0.047 sec
     gradient                   ...        0 min,  0.016 sec
 * total energy  :  -152.5033425 Eh     change       -0.8746313E-06 Eh
   gradient norm :     0.0000763 Eh/α   predicted    -0.3565316E-06 ( -59.24%)
   displ. norm   :     0.0420518 α      lambda       -0.5524433E-06
   maximum displ.:     0.0265693 α      in ANC's #2, #3, #5, ...

........................................................................
.............................. CYCLE   53 ..............................
........................................................................

 iter      E             dE          RMSdq      gap      omega  full diag
   1   -155.3300068 -0.155330E+03  0.326E-03    3.06       0.0  T
   2   -155.3300068 -0.244000E-08  0.191E-03    3.06       5.1  T
   3   -155.3300068  0.528578E-08  0.222E-04    3.06      43.5  T
   4   -155.3300068 -0.663653E-08  0.454E-05    3.06     212.8  T
     SCC iter.                  ...        0 min,  0.047 sec
     gradient                   ...        0 min,  0.017 sec
 * total energy  :  -152.5033431 Eh     change       -0.6923715E-06 Eh
   gradient norm :     0.0000870 Eh/α   predicted    -0.2772286E-06 ( -59.96%)
   displ. norm   :     0.0402280 α      lambda       -0.5199217E-06
   maximum displ.:     0.0256012 α      in ANC's #2, #3, #5, ...

........................................................................
.............................. CYCLE   54 ..............................
........................................................................

 iter      E             dE          RMSdq      gap      omega  full diag
   1   -155.3299970 -0.155330E+03  0.301E-03    3.06       0.0  T
   2   -155.3299970 -0.192924E-08  0.177E-03    3.06       5.5  T
   3   -155.3299970  0.403762E-08  0.193E-04    3.06      50.2  T
   4   -155.3299970 -0.512225E-08  0.421E-05    3.06     229.4  T
     SCC iter.                  ...        0 min,  0.047 sec
     gradient                   ...        0 min,  0.016 sec
 * total energy  :  -152.5033438 Eh     change       -0.6860677E-06 Eh
   gradient norm :     0.0000956 Eh/α   predicted    -0.2610488E-06 ( -61.95%)
   displ. norm   :     0.0463316 α      lambda       -0.6309636E-06
   maximum displ.:     0.0294504 α      in ANC's #2, #3, #5, ...

........................................................................
.............................. CYCLE   55 ..............................
........................................................................

 iter      E             dE          RMSdq      gap      omega  full diag
   1   -155.3299901 -0.155330E+03  0.366E-03    3.06       0.0  T
   2   -155.3299901 -0.250790E-08  0.215E-03    3.06       4.5  T
   3   -155.3299901  0.467483E-08  0.207E-04    3.06      46.7  T
   4   -155.3299901 -0.615117E-08  0.485E-05    3.06     199.5  T
     SCC iter.                  ...        0 min,  0.047 sec
     gradient                   ...        0 min,  0.016 sec
 * total energy  :  -152.5033447 Eh     change       -0.8272590E-06 Eh
   gradient norm :     0.0000933 Eh/α   predicted    -0.3168312E-06 ( -61.70%)
   displ. norm   :     0.0541960 α      lambda       -0.7011421E-06
   maximum displ.:     0.0345115 α      in ANC's #2, #3, #5, ...

........................................................................
.............................. CYCLE   56 ..............................
........................................................................

 iter      E             dE          RMSdq      gap      omega  full diag
   1   -155.3299937 -0.155330E+03  0.460E-03    3.06       0.0  T
   2   -155.3299937 -0.348200E-08  0.270E-03    3.06       3.6  T
   3   -155.3299937  0.644283E-08  0.238E-04    3.06      40.6  T
   4   -155.3299937 -0.856269E-08  0.562E-05    3.06     172.1  T
     SCC iter.                  ...        0 min,  0.047 sec
     gradient                   ...        0 min,  0.017 sec
 * total energy  :  -152.5033455 Eh     change       -0.8649442E-06 Eh
   gradient norm :     0.0000766 Eh/α   predicted    -0.3522454E-06 ( -59.28%)
   displ. norm   :     0.0479590 α      lambda       -0.5094632E-06
   maximum displ.:     0.0309827 α      in ANC's #2, #3, #5, ...

........................................................................
.............................. CYCLE   57 ..............................
........................................................................

 iter      E             dE          RMSdq      gap      omega  full diag
   1   -155.3300030 -0.155330E+03  0.425E-03    3.06       0.0  T
   2   -155.3300030 -0.274636E-08  0.250E-03    3.06       3.9  T
   3   -155.3300030  0.487060E-08  0.207E-04    3.06      46.8  T
   4   -155.3300030 -0.655217E-08  0.497E-05    3.06     194.6  T
     SCC iter.                  ...        0 min,  0.047 sec
     gradient                   ...        0 min,  0.016 sec
 * total energy  :  -152.5033461 Eh     change       -0.6002985E-06 Eh
   gradient norm :     0.0000641 Eh/α   predicted    -0.2554568E-06 ( -57.45%)
   displ. norm   :     0.0305910 α      lambda       -0.2768764E-06
   maximum displ.:     0.0202415 α      in ANC's #2, #3, #5, ...

........................................................................
.............................. CYCLE   58 ..............................
........................................................................

 iter      E             dE          RMSdq      gap      omega  full diag
   1   -155.3300132 -0.155330E+03  0.279E-03    3.06       0.0  T
   2   -155.3300132 -0.114650E-08  0.164E-03    3.06       5.9  T
   3   -155.3300132  0.230756E-08  0.140E-04    3.06      68.9  T
   4   -155.3300132 -0.300381E-08  0.320E-05    3.06     302.5  T
     SCC iter.                  ...        0 min,  0.048 sec
     gradient                   ...        0 min,  0.016 sec
 * total energy  :  -152.5033465 Eh     change       -0.3493705E-06 Eh
   gradient norm :     0.0000560 Eh/α   predicted    -0.1408036E-06 ( -59.70%)
   displ. norm   :     0.0227942 α      lambda       -0.2307765E-06
   maximum displ.:     0.0153398 α      in ANC's #2, #3, #5, ...

........................................................................
.............................. CYCLE   59 ..............................
........................................................................

 iter      E             dE          RMSdq      gap      omega  full diag
   1   -155.3300227 -0.155330E+03  0.229E-03    3.06       0.0  T
   2   -155.3300227 -0.783274E-09  0.134E-03    3.06       7.2  T
   3   -155.3300227  0.810360E-09  0.996E-05    3.06      97.0  T
   4   -155.3300227 -0.118970E-08  0.244E-05    3.06     396.5  T
     SCC iter.                  ...        0 min,  0.048 sec
     gradient                   ...        0 min,  0.016 sec
 * total energy  :  -152.5033468 Eh     change       -0.3124823E-06 Eh
   gradient norm :     0.0000509 Eh/α   predicted    -0.1175646E-06 ( -62.38%)
   displ. norm   :     0.0266366 α      lambda       -0.3049875E-06
   maximum displ.:     0.0179290 α      in ANC's #2, #3, #13, ...

........................................................................
.............................. CYCLE   60 ..............................
........................................................................

 iter      E             dE          RMSdq      gap      omega  full diag
   1   -155.3300237 -0.155330E+03  0.301E-03    3.06       0.0  T
   2   -155.3300237 -0.135807E-08  0.177E-03    3.06       5.5  T
   3   -155.3300237  0.999080E-09  0.126E-04    3.06      76.8  T
   4   -155.3300237 -0.161998E-08  0.301E-05    3.06     321.7  T
     SCC iter.                  ...        0 min,  0.047 sec
     gradient                   ...        0 min,  0.016 sec
 * total energy  :  -152.5033472 Eh     change       -0.4090857E-06 Eh
   gradient norm :     0.0000496 Eh/α   predicted    -0.1537132E-06 ( -62.43%)
   displ. norm   :     0.0311429 α      lambda       -0.3467552E-06
   maximum displ.:     0.0207183 α      in ANC's #2, #3, #13, ...

........................................................................
.............................. CYCLE   61 ..............................
........................................................................

 iter      E             dE          RMSdq      gap      omega  full diag
   1   -155.3300228 -0.155330E+03  0.383E-03    3.06       0.0  T
   2   -155.3300228 -0.213961E-08  0.224E-03    3.06       4.3  T
   3   -155.3300228  0.165363E-08  0.158E-04    3.06      61.0  T
   4   -155.3300228 -0.265732E-08  0.374E-05    3.06     258.4  T
     SCC iter.                  ...        0 min,  0.047 sec
     gradient                   ...        0 min,  0.017 sec
 * total energy  :  -152.5033476 Eh     change       -0.4520670E-06 Eh
   gradient norm :     0.0000517 Eh/α   predicted    -0.1753356E-06 ( -61.21%)
   displ. norm   :     0.0310158 α      lambda       -0.3070549E-06
   maximum displ.:     0.0205641 α      in ANC's #2, #3, #13, ...

........................................................................
.............................. CYCLE   62 ..............................
........................................................................

 iter      E             dE          RMSdq      gap      omega  full diag
   1   -155.3300196 -0.155330E+03  0.389E-03    3.06       0.0  T
   2   -155.3300196 -0.209587E-08  0.228E-03    3.06       4.2  T
   3   -155.3300196  0.237591E-08  0.163E-04    3.06      59.3  T
   4   -155.3300196 -0.345841E-08  0.377E-05    3.06     256.7  T
     SCC iter.                  ...        0 min,  0.048 sec
     gradient                   ...        0 min,  0.016 sec
 * total energy  :  -152.5033480 Eh     change       -0.3889764E-06 Eh
   gradient norm :     0.0000472 Eh/α   predicted    -0.1573890E-06 ( -59.54%)
   displ. norm   :     0.0278432 α      lambda       -0.2463613E-06
   maximum displ.:     0.0187257 α      in ANC's #2, #3, #13, ...

........................................................................
.............................. CYCLE   63 ..............................
........................................................................

 iter      E             dE          RMSdq      gap      omega  full diag
   1   -155.3300190 -0.155330E+03  0.350E-03    3.06       0.0  T
   2   -155.3300190 -0.163777E-08  0.206E-03    3.06       4.7  T
   3   -155.3300190  0.239399E-08  0.150E-04    3.06      64.5  T
   4   -155.3300190 -0.331940E-08  0.342E-05    3.06     282.8  T
     SCC iter.                  ...        0 min,  0.047 sec
     gradient                   ...        0 min,  0.016 sec
 * total energy  :  -152.5033484 Eh     change       -0.3143900E-06 Eh
   gradient norm :     0.0000412 Eh/α   predicted    -0.1271266E-06 ( -59.56%)
   displ. norm   :     0.0212732 α      lambda       -0.1933659E-06
   maximum displ.:     0.0144327 α      in ANC's #2, #3, #13, ...

........................................................................
.............................. CYCLE   64 ..............................
........................................................................

 iter      E             dE          RMSdq      gap      omega  full diag
   1   -155.3300214 -0.155330E+03  0.267E-03    3.06       0.0  T
   2   -155.3300214 -0.891077E-09  0.157E-03    3.06       6.2  T
   3   -155.3300214  0.152511E-08  0.114E-04    3.06      84.7  T
   4   -155.3300214 -0.206805E-08  0.251E-05    3.06     385.8  T
     SCC iter.                  ...        0 min,  0.047 sec
     gradient                   ...        0 min,  0.016 sec
 * total energy  :  -152.5033486 Eh     change       -0.2548402E-06 Eh
   gradient norm :     0.0000357 Eh/α   predicted    -0.9735186E-07 ( -61.80%)
   displ. norm   :     0.0204063 α      lambda       -0.2020474E-06
   maximum displ.:     0.0137759 α      in ANC's #2, #3, #4, ...

........................................................................
.............................. CYCLE   65 ..............................
........................................................................

 iter      E             dE          RMSdq      gap      omega  full diag
   1   -155.3300225 -0.155330E+03  0.250E-03    3.06       0.0  T
   2   -155.3300225 -0.805727E-09  0.147E-03    3.06       6.6  T
   3   -155.3300225  0.104541E-08  0.101E-04    3.06      96.0  T
   4   -155.3300225 -0.150473E-08  0.237E-05    3.06     408.1  T
     SCC iter.                  ...        0 min,  0.047 sec
     gradient                   ...        0 min,  0.017 sec
 * total energy  :  -152.5033489 Eh     change       -0.2730694E-06 Eh
   gradient norm :     0.0000378 Eh/α   predicted    -0.1015782E-06 ( -62.80%)
   displ. norm   :     0.0227524 α      lambda       -0.2347804E-06
   maximum displ.:     0.0149688 α      in ANC's #2, #3, #4, ...

[...]
eigval :     1070.84  1072.61  1074.30  1087.80  1110.40  1115.72
eigval :     1122.05  1126.73  1127.88  1130.31  1140.08  1152.81
eigval :     1157.93  1170.06  1177.55  1178.88  1179.87  1181.33
eigval :     1182.78  1183.86  1189.89  1196.56  1201.40  1204.03
eigval :     1212.56  1227.25  1227.33  1231.67  1234.48  1235.13
eigval :     1236.80  1237.16  1238.28  1246.73  1251.57  1255.29
eigval :     1257.75  1285.02  1287.11  1287.37  1289.83  1300.22
eigval :     1300.57  1302.70  1308.66  1318.76  1320.12  1330.62
eigval :     1345.75  1353.84  1358.43  1360.44  1363.37  1376.57
eigval :     1378.17  1403.11  1404.03  1406.62  1406.72  1416.79
eigval :     1418.67  1422.17  1425.74  1428.62  1429.45  1430.15
eigval :     1432.13  1436.68  1453.33  1464.85  1473.46  1474.66
eigval :     1476.09  1476.83  1479.68  1485.79  1488.25  1492.34
eigval :     1492.37  1495.03  1495.16  1501.59  1501.99  1505.87
eigval :     1506.25  1515.01  1515.02  1520.31  1520.46  1569.02
eigval :     1572.92  1577.07  1579.49  1584.80  1586.84  1589.09
eigval :     1589.63  1595.76  1599.61  1600.44  1600.85  1607.60
eigval :     1612.49  1615.30  1617.16  3020.82  3020.88  3022.13
eigval :     3022.29  3026.14  3026.15  3029.07  3029.35  3030.17
eigval :     3030.41  3035.20  3035.39  3037.84  3038.04  3046.29
eigval :     3046.35  3049.69  3050.05  3068.44  3072.35  3075.41
eigval :     3076.31  3076.48  3076.99  3079.07  3079.22  3081.05
eigval :     3081.42  3082.61  3082.97  3084.80  3085.74  3086.04
eigval :     3088.40  3088.66  3089.78  3090.19  3090.66  3091.88
eigval :     3095.48  3095.78  3096.33  3097.30  3100.55  3102.59
eigval :     3105.22  3112.42  3112.85
 reduced masses (amu)
   1: 11.17   2: 11.36   3: 11.41   4: 11.04   5: 11.29   6: 10.99   7: 10.73   8: 10.86
   9: 10.81  10: 10.50  11:  9.84  12: 10.85  13: 10.28  14:  8.55  15: 10.47  16: 10.19
  17: 10.33  18: 10.69  19: 10.03  20: 10.97  21: 10.34  22: 10.23  23:  9.96  24: 10.28
  25: 10.50  26: 10.65  27: 10.41  28:  8.77  29:  9.87  30:  9.44  31: 10.15  32:  8.48
  33:  3.74  34:  6.40  35:  7.07  36: 10.19  37:  9.20  38:  3.94  39:  5.49  40:  8.02
  41:  8.24  42: 10.24  43:  9.79  44: 10.51  45:  9.56  46: 10.27  47: 10.59  48:  8.92
  49:  9.55  50: 10.08  51:  8.99  52:  7.77  53:  2.22  54:  6.63  55:  9.04  56:  9.97
  57: 10.21  58:  9.91  59: 10.24  60:  8.15  61:  8.96  62: 10.86  63:  8.68  64:  9.44
  65:  9.50  66:  9.95  67:  9.78  68: 10.00  69:  9.82  70:  9.29  71: 10.47  72: 10.17
  73:  9.47  74:  8.81  75: 10.14  76: 10.54  77:  9.59  78:  9.97  79: 10.69  80: 11.06
  81:  9.50  82: 10.83  83: 10.85  84: 10.19  85: 11.20  86: 10.47  87: 11.19  88: 10.84
  89: 11.39  90: 11.39  91: 11.14  92: 11.36  93: 11.19  94: 10.89  95: 10.62  96: 10.76
  97: 11.35  98: 11.18  99: 11.19 100: 10.08 101: 10.91 102: 11.18 103: 11.31 104: 11.12
 105: 11.03 106: 11.52 107: 11.47 108:  9.60 109: 11.10 110: 11.35 111: 10.91 112:  7.06
 113: 10.22 114:  3.45 115:  3.75 116:  4.28 117: 10.11 118:  3.88 119:  9.89 120:  5.00
 121:  4.83 122:  4.72 123:  3.56 124:  3.77 125:  8.42 126:  3.43 127:  3.43 128:  4.93
 129:  3.53 130:  5.64 131:  6.93 132:  8.53 133:  6.50 134:  6.26 135:  6.54 136:  3.91
 137:  4.29 138:  4.92 139:  8.88 140:  5.12 141:  3.74 142:  4.24 143:  3.24 144:  3.10
 145:  3.01 146:  2.95 147:  3.55 148:  4.02 149:  3.57 150:  9.45 151:  5.22 152:  5.22
 153:  5.98 154:  4.96 155:  3.17 156:  3.17 157:  8.81 158: 10.64 159: 11.04 160: 10.84
 161: 10.44 162: 10.59 163: 10.01 164:  7.86 165:  4.35 166:  4.09 167:  4.02 168:  4.83
 169:  5.81 170:  6.07 171:  6.36 172:  7.07 173:  7.13 174:  7.02 175:  6.38 176:  4.37
 177:  4.97 178:  5.44 179:  6.11 180:  3.84 181:  4.29 182:  3.56 183:  3.51 184:  2.62
 185:  4.27 186:  1.87 187:  1.59 188:  4.82 189:  2.30 190:  6.14 191:  5.26 192:  2.18
 193:  6.71 194:  9.18 195:  9.18 196:  8.39 197:  8.99 198:  5.63 199:  5.84 200:  8.68
 201:  5.12 202:  6.74 203:  6.28 204:  4.28 205:  4.54 206:  5.98 207:  7.66 208:  4.36
 209:  8.58 210:  7.92 211: 10.61 212:  8.78 213:  9.31 214: 11.84 215: 11.93 216: 11.70
 217: 10.80 218: 11.38 219: 10.69 220: 10.97 221: 11.21 222: 10.49 223: 10.11 224:  4.49
 225:  3.44 226:  3.05 227:  3.05 228:  9.44 229:  9.79 230:  9.53 231: 10.04 232:  9.13
 233:  3.90 234:  3.13 235:  9.00 236:  9.53 237:  9.11 238: 11.72 239: 10.43 240: 10.01
 241:  9.00 242: 10.64 243: 10.47 244: 10.56 245: 10.40 246:  1.61 247:  1.61 248:  1.58
 249:  1.59 250:  1.75 251:  1.90 252:  1.68 253:  1.89 254:  1.58 255:  1.58 256:  1.62
 257:  1.63 258: 11.57 259: 11.60 260: 11.62 261: 11.63 262: 11.57 263: 11.58 264: 11.55
 265: 11.57 266: 11.60 267: 11.70 268: 11.66 269: 11.56 270: 11.68 271: 11.72 272: 11.70
 273: 11.72 274:  1.92 275:  1.92 276:  1.91 277:  1.92 278:  1.84 279:  1.84 280:  1.93
 281:  1.92 282:  1.65 283:  1.65 284:  1.86 285:  1.86 286:  1.28 287:  1.28 288:  1.48
 289:  1.48 290:  1.55 291:  1.55 292:  1.75 293:  1.78 294:  1.82 295:  1.75 296:  1.75
 297:  1.75 298:  1.82 299:  1.84 300:  1.80 301:  1.80 302:  1.80 303:  1.79 304:  1.83
 305:  1.78 306:  1.86 307:  1.86 308:  1.86 309:  1.82 310:  1.86 311:  1.82 312:  1.91
 313:  1.91 314:  1.89 315:  1.89 316:  1.91 317:  1.83 318:  1.83 319:  1.89 320:  1.83
 321:  1.83
 IR intensities (km·mol⁻¹)
   1:  0.02   2:  0.00   3:  0.00   4:  0.00   5:  0.02   6:  0.00   7:  0.06   8:  0.02
   9:  0.01  10:  0.01  11:  0.04  12:  0.10  13:  0.08  14:  0.01  15:  0.01  16:  0.03
  17:  0.06  18:  0.07  19:  0.03  20:  0.04  21:  0.19  22:  0.84  23:  0.43  24:  0.06
  25:  0.68  26:  0.24  27:  0.22  28:  0.38  29:  0.49  30:  0.10  31:  0.03  32:  0.33
  33:  0.10  34:  0.12  35:  0.12  36:  0.48  37:  0.10  38:  0.22  39:  0.06  40:  1.65
  41:  0.02  42:  1.12  43:  1.09  44:  0.29  45:  0.18  46:  1.48  47:  2.70  48:  0.40
  49:  1.00  50:  0.24  51:  0.03  52:  0.29  53:  0.19  54:  0.30  55:  0.29  56:  0.10
  57:  0.35  58:  0.09  59:  0.28  60:  0.02  61:  0.02  62:  3.08  63:  0.26  64:  0.84
  65:  0.42  66:  3.02  67:  0.99  68:  0.19  69:  1.42  70:  0.49  71:  3.97  72:  0.86
  73:  0.07  74:  0.20  75:  1.61  76:  7.08  77:  0.43  78:  0.44  79:  0.35  80:  1.28
  81:  1.34  82:  0.97  83:  3.12  84:  0.37  85:  1.00  86:  0.26  87:  2.19  88:  0.49
  89:  3.33  90:  1.61  91:  0.07  92:  4.70  93:  0.83  94:  3.53  95:  0.87  96:  1.09
  97:  6.54  98:  0.34  99:  2.29 100:  2.86 101:  0.30 102:  0.53 103:  2.87 104:  1.74
 105:  5.66 106:  6.02 107:  0.21 108:  8.56 109:  1.48 110:  0.22 111:  0.37 112:  6.65
 113:  2.38 114: 58.79 115: 27.08 116:  0.88 117:  5.27 118: 15.79 119:  6.74 120: 13.13
 121:  6.47 122:  0.16 123:  0.32 124:  0.45 125:  2.66 126:  0.15 127:  0.33 128:  0.32
 129:  0.43 130:  1.24 131:  1.51 132:  2.48 133:  0.19 134:  1.79 135:  1.77 136:  0.10
 137:  0.32 138:  0.31 139:  0.98 140:  0.19 141:  0.00 142:  0.07 143:  0.47 144:  0.74
 145:  0.12 146:  0.27 147:  0.20 148:  1.24 149:  0.66 150:  0.70 151:  0.27 152:  2.21
 153:  0.22 154:  2.69 155:  0.45 156:  0.07 157: 21.00 158:  0.34 159:  0.53 160:  2.24
 161:  2.22 162:  4.62 163:  1.30 164:  4.46 165:  0.27 166:  0.10 167:  0.07 168:  0.28
 169:  0.01 170:  0.03 171:  0.24 172:  0.48 173:  2.74 174:  0.78 175:  0.66 176:  0.91
 177: 26.81 178:  0.65 179:  0.44 180:  5.50 181: 20.67 182:  9.86 183:  9.57 184:  1.85
 185:  7.84 186:  1.98 187:  0.40 188:  2.76 189:  3.48 190:  8.53 191:  5.09 192:  1.10
 193: 17.77 194:  0.13 195: 21.94 196: 20.00 197:  2.66 198:  3.36 199: 18.53 200:  1.02
 201:  3.42 202: 12.84 203:  4.10 204:  3.96 205: 14.37 206:  1.87 207: 28.63 208:  3.43
 209: 40.29 210:  6.90 211: 10.88 212: 42.55 213: 76.96 214:  1.39 215:  0.97 216:  2.14
 217:110.59 218: 58.96 219:117.37 220: 11.26 221:  1.87 222:  2.05 223: 32.03 224:  2.31
 225:  2.00 226:  1.99 227:  3.26 228: 26.38 229: 14.50 230: 11.24 231:321.06 232:  9.00
 233:  2.46 234:  0.95 235:  2.05 236:  1.10 237: 15.25 238:185.37 239:216.40 240: 10.75
 241:  1.73 242:112.51 243:234.96 244: 13.67 245:  1.61 246:  0.07 247:  0.10 248:  0.01
 249:  0.10 250:  0.43 251:  0.06 252:  0.76 253:  3.81 254:  1.86 255:  2.54 256: 13.88
 257:  0.59 258: 17.85 259: 44.33 260: 14.72 261:  3.31 262:233.08 263: 19.77 264:  1.08
 265:  2.78 266:  0.00 267: 42.90 268:  8.60 269: 27.45 270:  2.61 271: 10.08 272: 22.30
 273: 12.00 274:  1.38 275:  3.10 276:  2.88 277:  4.57 278:  1.95 279:  3.43 280:211.41
 281: 36.11 282: 39.06 283:  5.78 284: 49.15 285: 93.79 286: 57.71 287: 29.68 288:  6.58
 289: 11.86 290: 30.99 291: 32.87 292:  9.58 293:  2.96 294:  4.19 295:  1.34 296:  0.56
 297:  0.15 298: 48.99 299: 76.74 300: 14.57 301: 24.79 302: 19.79 303: 18.71 304: 13.12
 305: 43.02 306: 43.13 307: 15.70 308: 95.30 309: 28.91 310:105.72 311: 29.50 312: 45.94
 313: 99.55 314:112.01 315:  6.23 316: 32.65 317: 27.02 318: 14.40 319: 23.10 320: 28.07
 321: 59.02
 Raman intensities (Ä⁴*amu⁻¹)
   1:  0.00   2:  0.00   3:  0.00   4:  0.00   5:  0.00   6:  0.00   7:  0.00   8:  0.00
   9:  0.00  10:  0.00  11:  0.00  12:  0.00  13:  0.00  14:  0.00  15:  0.00  16:  0.00
  17:  0.00  18:  0.00  19:  0.00  20:  0.00  21:  0.00  22:  0.00  23:  0.00  24:  0.00
  25:  0.00  26:  0.00  27:  0.00  28:  0.00  29:  0.00  30:  0.00  31:  0.00  32:  0.00
  33:  0.00  34:  0.00  35:  0.00  36:  0.00  37:  0.00  38:  0.00  39:  0.00  40:  0.00
  41:  0.00  42:  0.00  43:  0.00  44:  0.00  45:  0.00  46:  0.00  47:  0.00  48:  0.00
  49:  0.00  50:  0.00  51:  0.00  52:  0.00  53:  0.00  54:  0.00  55:  0.00  56:  0.00
  57:  0.00  58:  0.00  59:  0.00  60:  0.00  61:  0.00  62:  0.00  63:  0.00  64:  0.00
  65:  0.00  66:  0.00  67:  0.00  68:  0.00  69:  0.00  70:  0.00  71:  0.00  72:  0.00
  73:  0.00  74:  0.00  75:  0.00  76:  0.00  77:  0.00  78:  0.00  79:  0.00  80:  0.00
  81:  0.00  82:  0.00  83:  0.00  84:  0.00  85:  0.00  86:  0.00  87:  0.00  88:  0.00
  89:  0.00  90:  0.00  91:  0.00  92:  0.00  93:  0.00  94:  0.00  95:  0.00  96:  0.00
  97:  0.00  98:  0.00  99:  0.00 100:  0.00 101:  0.00 102:  0.00 103:  0.00 104:  0.00
 105:  0.00 106:  0.00 107:  0.00 108:  0.00 109:  0.00 110:  0.00 111:  0.00 112:  0.00
 113:  0.00 114:  0.00 115:  0.00 116:  0.00 117:  0.00 118:  0.00 119:  0.00 120:  0.00
 121:  0.00 122:  0.00 123:  0.00 124:  0.00 125:  0.00 126:  0.00 127:  0.00 128:  0.00
 129:  0.00 130:  0.00 131:  0.00 132:  0.00 133:  0.00 134:  0.00 135:  0.00 136:  0.00
 137:  0.00 138:  0.00 139:  0.00 140:  0.00 141:  0.00 142:  0.00 143:  0.00 144:  0.00
 145:  0.00 146:  0.00 147:  0.00 148:  0.00 149:  0.00 150:  0.00 151:  0.00 152:  0.00
 153:  0.00 154:  0.00 155:  0.00 156:  0.00 157:  0.00 158:  0.00 159:  0.00 160:  0.00
 161:  0.00 162:  0.00 163:  0.00 164:  0.00 165:  0.00 166:  0.00 167:  0.00 168:  0.00
 169:  0.00 170:  0.00 171:  0.00 172:  0.00 173:  0.00 174:  0.00 175:  0.00 176:  0.00
 177:  0.00 178:  0.00 179:  0.00 180:  0.00 181:  0.00 182:  0.00 183:  0.00 184:  0.00
 185:  0.00 186:  0.00 187:  0.00 188:  0.00 189:  0.00 190:  0.00 191:  0.00 192:  0.00
 193:  0.00 194:  0.00 195:  0.00 196:  0.00 197:  0.00 198:  0.00 199:  0.00 200:  0.00
 201:  0.00 202:  0.00 203:  0.00 204:  0.00 205:  0.00 206:  0.00 207:  0.00 208:  0.00
 209:  0.00 210:  0.00 211:  0.00 212:  0.00 213:  0.00 214:  0.00 215:  0.00 216:  0.00
 217:  0.00 218:  0.00 219:  0.00 220:  0.00 221:  0.00 222:  0.00 223:  0.00 224:  0.00
 225:  0.00 226:  0.00 227:  0.00 228:  0.00 229:  0.00 230:  0.00 231:  0.00 232:  0.00
 233:  0.00 234:  0.00 235:  0.00 236:  0.00 237:  0.00 238:  0.00 239:  0.00 240:  0.00
 241:  0.00 242:  0.00 243:  0.00 244:  0.00 245:  0.00 246:  0.00 247:  0.00 248:  0.00
 249:  0.00 250:  0.00 251:  0.00 252:  0.00 253:  0.00 254:  0.00 255:  0.00 256:  0.00
 257:  0.00 258:  0.00 259:  0.00 260:  0.00 261:  0.00 262:  0.00 263:  0.00 264:  0.00
 265:  0.00 266:  0.00 267:  0.00 268:  0.00 269:  0.00 270:  0.00 271:  0.00 272:  0.00
 273:  0.00 274:  0.00 275:  0.00 276:  0.00 277:  0.00 278:  0.00 279:  0.00 280:  0.00
 281:  0.00 282:  0.00 283:  0.00 284:  0.00 285:  0.00 286:  0.00 287:  0.00 288:  0.00
 289:  0.00 290:  0.00 291:  0.00 292:  0.00 293:  0.00 294:  0.00 295:  0.00 296:  0.00
 297:  0.00 298:  0.00 299:  0.00 300:  0.00 301:  0.00 302:  0.00 303:  0.00 304:  0.00
 305:  0.00 306:  0.00 307:  0.00 308:  0.00 309:  0.00 310:  0.00 311:  0.00 312:  0.00
 313:  0.00 314:  0.00 315:  0.00 316:  0.00 317:  0.00 318:  0.00 319:  0.00 320:  0.00
 321:  0.00
 output can be read by thermo (or use thermo option).
 writing <g98.out> molden fake output.
 recommended (thermochemical) frequency scaling factor: 1.0
           -------------------------------------------------
          |             Thermodynamic Functions             |
           -------------------------------------------------

Molecule has no symmetry elements
It seems to be the C1 point group
c1  symmetry found (for desy threshold:  0.10E+00) used in thermo

          ...................................................
          :                      SETUP                      :
          :.................................................:
          :  # frequencies                         315      :
          :  # imaginary freq.                       0      :
          :  linear?                             false      :
          :  only rotor calc.                    false      :
          :  symmetry                               c1      :
          :  rotational number                       1      :
          :  scaling factor                  1.0000000      :
          :  rotor cutoff                   50.0000000 cm⁻¹ :
          :  imag. cutoff                  -20.0000000 cm⁻¹ :
          :.................................................:

    mode    ω/cm⁻¹     T·S(HO)/kcal·mol⁻¹    T·S(FR)/kcal·mol⁻¹   T·S(vib)
   ------------------------------------------------------------------------
       1      6.33    -2.65899 (  0.03%)    -1.66855 ( 99.97%)    -1.66881
       2     10.34    -2.36848 (  0.18%)    -1.52330 ( 99.82%)    -1.52484
       3     14.15    -2.18301 (  0.64%)    -1.43054 ( 99.36%)    -1.43533
       4     19.33    -1.99810 (  2.19%)    -1.33804 ( 97.81%)    -1.35247
       5     21.01    -1.94871 (  3.03%)    -1.31333 ( 96.97%)    -1.33255
       6     27.21    -1.79575 (  8.07%)    -1.23677 ( 91.93%)    -1.28185
       7     28.28    -1.77291 (  9.29%)    -1.22533 ( 90.71%)    -1.27618
       8     33.75    -1.66848 ( 17.18%)    -1.17302 ( 82.82%)    -1.25815
       9     36.08    -1.62899 ( 21.32%)    -1.15323 ( 78.68%)    -1.25468
      10     39.99    -1.56817 ( 29.03%)    -1.12273 ( 70.97%)    -1.25206
      11     50.16    -1.43437 ( 50.33%)    -1.05557 ( 49.67%)    -1.24621
      12     57.78    -1.35109 ( 64.07%)    -1.01370 ( 35.93%)    -1.22987
      13     60.72    -1.32187 ( 68.51%)    -0.99899 ( 31.49%)    -1.22018
      14     65.96    -1.27321 ( 75.18%)    -0.97447 ( 24.82%)    -1.19906
      15     78.20    -1.17340 ( 85.68%)    -0.92406 ( 14.32%)    -1.13769
      16     80.35    -1.15753 ( 86.96%)    -0.91603 ( 13.04%)    -1.12603
      17     80.96    -1.15309 ( 87.30%)    -0.91378 ( 12.70%)    -1.12270
      18    101.52    -1.02114 ( 94.44%)    -0.84674 (  5.56%)    -1.01145
      19    106.20    -0.99497 ( 95.32%)    -0.83338 (  4.68%)    -0.98740
      20    117.21    -0.93793 ( 96.79%)    -0.80416 (  3.21%)    -0.93365
      21    128.07    -0.88696 ( 97.73%)    -0.77792 (  2.27%)    -0.88448
      22    133.92    -0.86132 ( 98.09%)    -0.76467 (  1.91%)    -0.85948
      23    141.87    -0.82840 ( 98.48%)    -0.74760 (  1.52%)    -0.82717
      24    145.04    -0.81584 ( 98.61%)    -0.74106 (  1.39%)    -0.81479
      25    155.47    -0.77645 ( 98.94%)    -0.72049 (  1.06%)    -0.77585
      26    172.08    -0.71932 ( 99.29%)    -0.69041 (  0.71%)    -0.71912
      27    178.96    -0.69745 ( 99.39%)    -0.67880 (  0.61%)    -0.69734
      28    181.20    -0.69051 ( 99.42%)    -0.67511 (  0.58%)    -0.69043
      29    185.27    -0.67819 ( 99.47%)    -0.66854 (  0.53%)    -0.67814
      30    201.47    -0.63198 ( 99.62%)    -0.64371 (  0.38%)    -0.63202
      31    206.33    -0.61894 ( 99.66%)    -0.63664 (  0.34%)    -0.61900
      32    215.50    -0.59527 ( 99.71%)    -0.62375 (  0.29%)    -0.59535
      33    218.42    -0.58799 ( 99.73%)    -0.61977 (  0.27%)    -0.58807
      34    223.05    -0.57668 ( 99.75%)    -0.61356 (  0.25%)    -0.57678
      35    229.30    -0.56184 ( 99.77%)    -0.60537 (  0.23%)    -0.56193
      36    240.71    -0.53596 ( 99.81%)    -0.59098 (  0.19%)    -0.53606
      37    244.33    -0.52806 ( 99.82%)    -0.58656 (  0.18%)    -0.52816
      38    258.69    -0.49808 ( 99.86%)    -0.56964 (  0.14%)    -0.49818
      39    261.76    -0.49194 ( 99.87%)    -0.56614 (  0.13%)    -0.49204
      40    271.90    -0.47230 ( 99.89%)    -0.55489 (  0.11%)    -0.47239
      41    275.99    -0.46464 ( 99.89%)    -0.55047 (  0.11%)    -0.46474
      42    284.16    -0.44976 ( 99.90%)    -0.54183 (  0.10%)    -0.44985
      43    293.61    -0.43323 ( 99.92%)    -0.53213 (  0.08%)    -0.43331
      44    298.02    -0.42575 ( 99.92%)    -0.52771 (  0.08%)    -0.42583
   ------------------------------------------------------------------------

   temp. (K)  partition function   enthalpy   heat capacity  entropy
                                   cal/mol     cal/K/mol   cal/K/mol   J/K/mol
 298.15  VIB  0.281E+24            29960.731    188.324    185.770
         ROT  0.144E+09              888.752      2.981     40.312
         INT  0.405E+32            30849.484    191.305    226.082
         TR   0.203E+29             1481.254      4.968     45.747
         TOT                       32330.7378   196.2734   271.8291  1137.3329

       T/K    H(0)-H(T)+PV         H(T)/Eh          T*S/Eh         G(T)/Eh
   ------------------------------------------------------------------------
    298.15    0.515223E-01    0.916805E+00    0.129155E+00    0.787651E+00
   ------------------------------------------------------------------------

         :::::::::::::::::::::::::::::::::::::::::::::::::::::
         ::                  THERMODYNAMIC                  ::
         :::::::::::::::::::::::::::::::::::::::::::::::::::::
         :: total free energy        -151.715699027345 Eh   ::
         ::.................................................::
         :: total energy             -152.503349608240 Eh   ::
         :: zero point energy           0.865283037735 Eh   ::
         :: G(RRHO) w/o ZPVE           -0.077632456840 Eh   ::
         :: G(RRHO) contrib.            0.787650580895 Eh   ::
         :::::::::::::::::::::::::::::::::::::::::::::::::::::

optimized geometry written to: xtbopt.xyz


           -------------------------------------------------
          | TOTAL ENERGY             -152.503349608240 Eh   |
          | TOTAL ENTHALPY           -151.586544260361 Eh   |
          | TOTAL FREE ENERGY        -151.715699027345 Eh   |
          | GRADIENT NORM               0.000040404005 Eh/α |
          | HOMO-LUMO GAP               3.057528043486 eV   |
           -------------------------------------------------

------------------------------------------------------------------------
 * finished run on 2025/08/24 at 22:18:29.692     
------------------------------------------------------------------------
 total:
 * wall-time:     0 d,  0 h,  0 min, 13.386 sec
 *  cpu-time:     0 d,  0 h,  8 min, 21.008 sec
 * ratio c/w:    37.429 speedup
 SCF:
 * wall-time:     0 d,  0 h,  0 min,  0.156 sec
 *  cpu-time:     0 d,  0 h,  0 min,  6.142 sec
 * ratio c/w:    39.496 speedup
 ANC optimizer:
 * wall-time:     0 d,  0 h,  0 min,  5.809 sec
 *  cpu-time:     0 d,  0 h,  3 min, 52.327 sec
 * ratio c/w:    39.997 speedup
 analytical hessian:
 * wall-time:     0 d,  0 h,  0 min,  7.140 sec
 *  cpu-time:     0 d,  0 h,  4 min, 13.491 sec
 * ratio c/w:    35.505 speedup

