 Entering Gaussian System
 *********************************************
 Gaussian 98:
 frequency output generated by the xtb code
 *********************************************
                         Standard orientation:
 --------------------------------------------------------------------
  Center     Atomic     Atomic              Coordinates (Angstroms)
  Number     Number      Type              X           Y           Z
 --------------------------------------------------------------------
    1          8             0        7.642289   -1.628700    1.516529
    2         15             0        7.189028   -0.581057    0.578538
    3          6             0        7.684497    1.093043    1.090870
    4          6             0        7.230952    2.229214    0.430615
    5          6             0        7.627038    3.479466    0.868477
    6          6             0        8.469679    3.598555    1.963991
    7          6             0        8.916276    2.466676    2.626681
    8          6             0        8.522458    1.213423    2.190478
    9          6             0        7.837434   -0.832349   -1.109502
   10          6             0        7.393373   -1.964706   -1.781483
   11          6             0        7.886152   -2.262784   -3.038418
   12          6             0        8.828941   -1.430869   -3.623475
   13          6             0        9.280155   -0.307838   -2.949794
   14          6             0        8.787400   -0.006377   -1.690729
   15          6             0        5.383225   -0.515108    0.397419
   16          6             0        4.751709   -0.051422   -0.752922
   17          6             0        3.376336    0.013410   -0.807569
   18          6             0        2.589453   -0.389323    0.280561
   19          6             0        1.135089   -0.321642    0.216097
   20          6             0        0.353787   -1.488608    0.483230
   21          6             0        0.946332   -2.732665    0.721336
   22          6             0        0.187371   -3.846952    1.072423
   23          6             0       -1.180463   -3.730397    1.199020
   24          6             0       -1.801993   -2.518592    0.905323
   25          6             0       -1.071293   -1.402990    0.485261
   26          6             0       -1.711740   -0.185039    0.096236
   27          6             0       -3.164786   -0.112079    0.041997
   28          6             0       -3.865206    0.891729    0.724806
   29          6             0       -5.240743    0.953794    0.690007
   30          6             0       -5.964486    0.020425   -0.048925
   31          7             0       -7.366629    0.086832   -0.088273
   32          6             0       -8.243488   -0.976809   -0.024457
   33          6             0       -8.031160   -2.330158    0.195376
   34          6             0       -9.157263   -3.135707    0.231121
   35          6             0      -10.423627   -2.575864    0.061779
   36          7             0      -10.647236   -1.286326   -0.112242
   37          6             0       -9.578710   -0.501882   -0.147986
   38          6             0       -9.491233    0.921710   -0.284995
   39          6             0      -10.393892    1.962642   -0.445983
   40          6             0       -9.871372    3.242252   -0.542810
   41          6             0       -8.492388    3.430864   -0.482116
   42          7             0       -7.607528    2.457992   -0.330504
   43          6             0       -8.107929    1.236707   -0.231192
   44          6             0       -5.283472   -0.967575   -0.758336
   45          6             0       -3.908505   -1.038403   -0.700655
   46          6             0       -0.927505    0.963173   -0.237577
   47          6             0       -1.511109    2.139345   -0.718397
   48          6             0       -0.753901    3.284759   -0.955322
   49          6             0        0.602603    3.272538   -0.709743
   50          6             0        1.219841    2.093838   -0.296769
   51          6             0        0.493834    0.912705   -0.114015
   52          6             0        3.239529   -0.861172    1.429300
   53          6             0        4.615330   -0.915419    1.486269
   54          1             0        6.573898    2.127222   -0.420823
   55          1             0        7.278759    4.364475    0.356240
   56          1             0        8.776779    4.577096    2.302831
   57          1             0        9.569633    2.559517    3.481922
   58          1             0        8.853670    0.313393    2.690240
   59          1             0        6.660743   -2.602452   -1.302888
   60          1             0        7.537950   -3.141567   -3.561274
   61          1             0        9.215515   -1.661651   -4.605208
   62          1             0       10.019934    0.335183   -3.403843
   63          1             0        9.137807    0.867675   -1.159379
   64          1             0        5.343185    0.238455   -1.610318
   65          1             0        2.889529    0.345402   -1.713258
   66          1             0        2.016342   -2.838029    0.628951
   67          1             0        0.679739   -4.790046    1.257822
   68          1             0       -1.777684   -4.574278    1.511144
   69          1             0       -2.872668   -2.441253    1.013136
   70          1             0       -3.315293    1.602237    1.323644
   71          1             0       -5.768392    1.723357    1.230315
   72          1             0       -7.044057   -2.739621    0.347578
   73          1             0       -9.060579   -4.197160    0.397056
   74          1             0      -11.308050   -3.198563    0.081365
   75          1             0      -11.455310    1.772219   -0.492542
   76          1             0      -10.520840    4.094259   -0.666443
   77          1             0       -8.066611    4.422553   -0.558773
   78          1             0       -5.833946   -1.660996   -1.376481
   79          1             0       -3.389388   -1.791164   -1.275337
   80          1             0       -2.571245    2.164041   -0.917535
   81          1             0       -1.240107    4.179042   -1.315707
   82          1             0        1.195441    4.164332   -0.848580
   83          1             0        2.282383    2.098087   -0.108721
   84          1             0        2.650974   -1.152223    2.287433
   85          1             0        5.121708   -1.274962    2.372154
 --------------------------------------------------------------------
     1 basis functions        1 primitive gaussians
     1 alpha electrons        1 beta electrons
 
 Harmonic frequencies (cm**-1), IR intensities (km*mol⁻¹),
 Raman scattering activities (A**4/amu), Raman depolarization ratios,
 reduced masses (AMU), force constants (mDyne/A) and normal coordinates:
                      1                      2                      3
                        a                      a                      a 
 Frequencies --     9.0066                10.1199                11.4448
 Red. masses --    11.6750                11.3446                11.5910
 Frc consts  --     0.0000                 0.0000                 0.0000
 IR Inten    --     0.1223                 0.3513                 0.5524
 Raman Activ --     0.0000                 0.0000                 0.0000
 Depolar     --     0.0000                 0.0000                 0.0000
 Atom AN      X      Y      Z        X      Y      Z        X      Y      Z
   1   8     0.04  -0.01  -0.09     0.05  -0.06  -0.13     0.06   0.14   0.08
   2  15     0.02  -0.01  -0.10     0.02  -0.03  -0.09     0.01   0.10   0.03
   3   6     0.04  -0.01  -0.08    -0.05  -0.03   0.02    -0.06   0.11  -0.05
   4   6     0.05  -0.01  -0.08    -0.09  -0.02   0.07    -0.09   0.06  -0.11
   5   6     0.07  -0.01  -0.10    -0.13  -0.02   0.13    -0.14   0.10  -0.16
   6   6     0.08  -0.01  -0.11    -0.14  -0.04   0.13    -0.16   0.18  -0.16
   7   6     0.07  -0.01  -0.10    -0.10  -0.05   0.09    -0.12   0.22  -0.11
   8   6     0.05  -0.01  -0.09    -0.05  -0.05   0.03    -0.07   0.19  -0.05
   9   6    -0.05  -0.01  -0.09     0.02   0.09  -0.07     0.02   0.02   0.03
  10   6    -0.11   0.02  -0.09     0.06   0.11  -0.13     0.05  -0.01   0.07
  11   6    -0.15   0.02  -0.11     0.08   0.20  -0.15     0.07  -0.05   0.08
  12   6    -0.13  -0.01  -0.12     0.05   0.27  -0.10     0.06  -0.05   0.06
  13   6    -0.07  -0.04  -0.11     0.01   0.24  -0.03     0.03  -0.01   0.02
  14   6    -0.02  -0.04  -0.09    -0.01   0.16  -0.02     0.01   0.02   0.01
  15   6     0.00   0.01   0.00     0.01  -0.06  -0.04     0.01  -0.01   0.01
  16   6    -0.03   0.02   0.03    -0.01  -0.07  -0.04    -0.00  -0.04   0.00
  17   6    -0.04   0.03   0.08    -0.01  -0.08  -0.02    -0.00  -0.07   0.00
  18   6     0.00   0.02   0.10     0.00  -0.07  -0.00     0.01  -0.09   0.00
  19   6    -0.00   0.02   0.14     0.00  -0.07   0.02     0.00  -0.10   0.01
  20   6     0.00   0.02   0.15     0.00  -0.06   0.07     0.01  -0.10  -0.01
  21   6     0.00   0.02   0.14    -0.01  -0.05   0.10     0.02  -0.10  -0.03
  22   6     0.00   0.02   0.15    -0.01  -0.04   0.14     0.02  -0.12  -0.06
  23   6     0.00   0.02   0.14    -0.01  -0.02   0.16     0.02  -0.13  -0.07
  24   6     0.00   0.02   0.15    -0.00  -0.03   0.13     0.01  -0.13  -0.05
  25   6     0.00   0.02   0.15     0.00  -0.05   0.08     0.01  -0.11  -0.02
  26   6    -0.00   0.02   0.15     0.00  -0.06   0.04     0.00  -0.10   0.02
  27   6    -0.00   0.00   0.12     0.00  -0.05   0.05     0.00  -0.10   0.03
  28   6    -0.03  -0.01   0.11     0.02  -0.01   0.00     0.02  -0.11   0.07
  29   6    -0.03  -0.02   0.06     0.02   0.01  -0.01     0.02  -0.08   0.07
  30   6     0.00  -0.02   0.02     0.01  -0.01   0.03     0.01  -0.04   0.03
  31   7     0.00  -0.02  -0.04     0.01   0.02   0.02     0.01   0.01   0.02
  32   6     0.00  -0.02  -0.09    -0.02   0.04   0.05    -0.03   0.04  -0.04
  33   6    -0.01  -0.02  -0.09    -0.06   0.05   0.12    -0.09   0.03  -0.09
  34   6    -0.01  -0.02  -0.16    -0.08   0.07   0.14    -0.12   0.07  -0.14
  35   6    -0.00  -0.02  -0.21    -0.06   0.10   0.09    -0.09   0.12  -0.13
  36   7     0.01  -0.02  -0.23    -0.03   0.10   0.02    -0.05   0.15  -0.09
  37   6     0.01  -0.02  -0.15    -0.01   0.07   0.00    -0.01   0.10  -0.04
  38   6     0.01  -0.02  -0.13     0.03   0.06  -0.07     0.04   0.10   0.01
  39   6     0.02  -0.02  -0.17     0.06   0.07  -0.14     0.09   0.14   0.04
  40   6     0.03  -0.02  -0.14     0.09   0.05  -0.19     0.14   0.12   0.09
  41   6     0.02  -0.02  -0.07     0.10   0.02  -0.18     0.14   0.07   0.12
  42   7     0.02  -0.02  -0.04     0.07   0.01  -0.12     0.11   0.03   0.10
  43   6     0.01  -0.02  -0.07     0.04   0.03  -0.06     0.06   0.05   0.05
  44   6     0.03  -0.01   0.04    -0.01  -0.06   0.09    -0.01  -0.03   0.00
  45   6     0.03   0.00   0.09    -0.01  -0.08   0.09    -0.01  -0.06   0.01
  46   6    -0.00   0.03   0.17     0.01  -0.07  -0.00    -0.00  -0.10   0.03
  47   6    -0.01   0.04   0.19     0.01  -0.09  -0.04    -0.01  -0.09   0.06
  48   6    -0.01   0.04   0.21     0.01  -0.10  -0.08    -0.01  -0.08   0.08
  49   6    -0.01   0.04   0.21     0.01  -0.09  -0.08    -0.01  -0.08   0.07
  50   6    -0.01   0.03   0.18     0.01  -0.08  -0.04    -0.00  -0.09   0.04
  51   6    -0.00   0.03   0.17     0.01  -0.07  -0.01    -0.00  -0.09   0.03
  52   6     0.04   0.01   0.08     0.03  -0.06  -0.01     0.01  -0.07   0.00
  53   6     0.04   0.00   0.03     0.03  -0.05  -0.03     0.02  -0.04   0.01
  54   1     0.01  -0.00  -0.02    -0.02  -0.00   0.02    -0.02  -0.00  -0.03
  55   1     0.02  -0.00  -0.03    -0.05  -0.00   0.05    -0.05   0.02  -0.06
  56   1     0.03  -0.00  -0.03    -0.05  -0.01   0.05    -0.06   0.06  -0.06
  57   1     0.02  -0.00  -0.03    -0.03  -0.02   0.03    -0.04   0.08  -0.03
  58   1     0.01  -0.00  -0.03    -0.01  -0.02  -0.00    -0.01   0.06  -0.00
  59   1    -0.04   0.01  -0.02     0.02   0.02  -0.05     0.02  -0.00   0.02
  60   1    -0.06   0.01  -0.03     0.03   0.06  -0.06     0.03  -0.02   0.03
  61   1    -0.05  -0.00  -0.04     0.02   0.10  -0.03     0.02  -0.02   0.02
  62   1    -0.01  -0.02  -0.03    -0.00   0.09   0.00     0.00  -0.00   0.00
  63   1     0.01  -0.02  -0.03    -0.01   0.04   0.01    -0.00   0.01  -0.01
  64   1    -0.02   0.01   0.00    -0.01  -0.02  -0.01    -0.00  -0.01   0.00
  65   1    -0.02   0.01   0.03    -0.01  -0.03  -0.00    -0.00  -0.02   0.00
  66   1     0.00   0.01   0.04    -0.00  -0.02   0.02     0.01  -0.03  -0.01
  67   1     0.00   0.01   0.04    -0.00  -0.01   0.05     0.01  -0.03  -0.02
  68   1     0.00   0.01   0.04    -0.00  -0.00   0.06     0.01  -0.04  -0.03
  69   1     0.00   0.01   0.04     0.00  -0.00   0.04     0.00  -0.04  -0.02
  70   1    -0.02  -0.00   0.04     0.01   0.00  -0.01     0.01  -0.04   0.03
  71   1    -0.02  -0.01   0.02     0.01   0.01  -0.01     0.01  -0.03   0.03
  72   1    -0.00  -0.01  -0.02    -0.02   0.01   0.05    -0.03  -0.01  -0.03
  73   1    -0.01  -0.01  -0.05    -0.03   0.02   0.06    -0.05   0.02  -0.05
  74   1    -0.00  -0.01  -0.08    -0.02   0.03   0.03    -0.03   0.05  -0.05
  75   1     0.01  -0.00  -0.06     0.02   0.03  -0.04     0.02   0.05   0.01
  76   1     0.01  -0.00  -0.05     0.03   0.02  -0.07     0.05   0.04   0.03
  77   1     0.01  -0.01  -0.01     0.04   0.00  -0.06     0.05   0.02   0.05
  78   1     0.02  -0.00   0.00    -0.00  -0.02   0.03    -0.01   0.00  -0.01
  79   1     0.02   0.00   0.03    -0.01  -0.03   0.04    -0.01  -0.01  -0.01
  80   1    -0.00   0.01   0.06     0.00  -0.03  -0.01    -0.00  -0.03   0.02
  81   1    -0.00   0.01   0.07     0.00  -0.03  -0.03    -0.00  -0.02   0.03
  82   1    -0.00   0.01   0.06     0.00  -0.03  -0.03    -0.00  -0.02   0.02
  83   1    -0.00   0.01   0.05     0.00  -0.02  -0.01    -0.00  -0.03   0.01
  84   1     0.02   0.00   0.03     0.01  -0.01   0.00     0.01  -0.03  -0.00
  85   1     0.02  -0.00   0.00     0.01  -0.01  -0.01     0.01  -0.01   0.00
                      4                      5                      6
                        a                      a                      a 
 Frequencies --    20.3627                22.7684                27.4763
 Red. masses --    11.3002                11.0471                10.0863
 Frc consts  --     0.0000                 0.0000                 0.0000
 IR Inten    --     0.1108                 0.0084                 0.0182
 Raman Activ --     0.0000                 0.0000                 0.0000
 Depolar     --     0.0000                 0.0000                 0.0000
 Atom AN      X      Y      Z        X      Y      Z        X      Y      Z
   1   8     0.06  -0.04  -0.03    -0.03  -0.02  -0.01    -0.03  -0.02  -0.03
   2  15     0.02  -0.09  -0.05    -0.00   0.01   0.01    -0.01  -0.02  -0.05
   3   6    -0.09  -0.03  -0.04     0.04  -0.02   0.03    -0.01  -0.01  -0.02
   4   6    -0.15  -0.06  -0.05     0.04   0.01   0.07     0.11  -0.02  -0.12
   5   6    -0.23  -0.03  -0.05     0.07  -0.01   0.09     0.10  -0.02  -0.12
   6   6    -0.26   0.03  -0.03     0.11  -0.05   0.06    -0.03  -0.01  -0.02
   7   6    -0.20   0.06  -0.02     0.11  -0.07   0.02    -0.15   0.00   0.08
   8   6    -0.12   0.03  -0.02     0.08  -0.05   0.00    -0.15  -0.00   0.08
   9   6     0.04  -0.03  -0.03    -0.01   0.01  -0.00     0.04  -0.01  -0.01
  10   6     0.12  -0.06  -0.03     0.02  -0.01   0.02    -0.16   0.17  -0.18
  11   6     0.15  -0.04  -0.02    -0.00  -0.01   0.01    -0.07   0.18  -0.15
  12   6     0.12   0.01  -0.01    -0.05   0.03  -0.02     0.21   0.00   0.05
  13   6     0.04   0.04  -0.01    -0.08   0.05  -0.04     0.41  -0.18   0.22
  14   6     0.00   0.02  -0.01    -0.06   0.05  -0.03     0.32  -0.19   0.19
  15   6     0.01  -0.12  -0.04    -0.00   0.05   0.01    -0.01   0.00  -0.04
  16   6    -0.00  -0.15  -0.05     0.00  -0.02  -0.02    -0.01   0.02  -0.03
  17   6    -0.00  -0.13  -0.03     0.00  -0.02  -0.02    -0.01   0.03  -0.03
  18   6     0.01  -0.07   0.00    -0.00   0.05  -0.00    -0.01   0.02  -0.03
  19   6     0.01  -0.02   0.03    -0.00   0.03  -0.01    -0.01   0.02  -0.02
  20   6    -0.03   0.02   0.07     0.01   0.03   0.07    -0.00   0.02   0.00
  21   6    -0.08   0.00   0.12     0.03   0.06   0.15     0.00   0.02  -0.00
  22   6    -0.12   0.04   0.15     0.05   0.06   0.22     0.01   0.03   0.03
  23   6    -0.12   0.09   0.12     0.04   0.05   0.19     0.01   0.03   0.06
  24   6    -0.07   0.11   0.08     0.03   0.02   0.11     0.01   0.02   0.06
  25   6    -0.03   0.07   0.06     0.01   0.01   0.06    -0.00   0.02   0.03
  26   6     0.02   0.08   0.03    -0.00  -0.02  -0.01    -0.01   0.01   0.02
  27   6     0.02   0.11  -0.01    -0.01  -0.04   0.00    -0.02  -0.00   0.04
  28   6     0.01   0.10  -0.02    -0.00  -0.03   0.00    -0.02   0.00   0.03
  29   6     0.00   0.09  -0.03    -0.00  -0.04   0.02    -0.02  -0.01   0.04
  30   6     0.02   0.08  -0.04    -0.01  -0.04   0.02    -0.02  -0.01   0.05
  31   7     0.02   0.04  -0.03    -0.01  -0.03   0.02    -0.02  -0.01   0.04
  32   6     0.06   0.00  -0.05    -0.02  -0.02  -0.07    -0.02  -0.01   0.01
  33   6     0.12   0.00  -0.10    -0.05  -0.04  -0.16    -0.03  -0.01   0.00
  34   6     0.15  -0.04  -0.12    -0.07  -0.02  -0.24    -0.03  -0.01  -0.03
  35   6     0.13  -0.09  -0.09    -0.05   0.01  -0.23    -0.03  -0.01  -0.06
  36   7     0.08  -0.10  -0.04    -0.03   0.03  -0.16    -0.02  -0.00  -0.05
  37   6     0.04  -0.05  -0.02    -0.01   0.01  -0.06    -0.02  -0.01  -0.01
  38   6    -0.02  -0.04   0.03     0.01   0.02   0.04    -0.01  -0.01   0.01
  39   6    -0.07  -0.07   0.09     0.02   0.04   0.11    -0.01  -0.00   0.00
  40   6    -0.12  -0.04   0.13     0.04   0.04   0.21    -0.00  -0.00   0.03
  41   6    -0.13   0.01   0.12     0.04   0.02   0.25    -0.00  -0.01   0.06
  42   7    -0.09   0.04   0.08     0.03  -0.00   0.20    -0.01  -0.01   0.07
  43   6    -0.03   0.02   0.03     0.01  -0.01   0.09    -0.01  -0.01   0.04
  44   6     0.04   0.11  -0.06    -0.01  -0.04   0.02    -0.02  -0.02   0.05
  45   6     0.04   0.12  -0.04    -0.01  -0.05   0.02    -0.02  -0.01   0.05
  46   6     0.06   0.05   0.02    -0.02  -0.03  -0.09    -0.02   0.01  -0.01
  47   6     0.10   0.07   0.02    -0.05  -0.07  -0.16    -0.04  -0.00  -0.01
  48   6     0.14   0.04   0.01    -0.06  -0.08  -0.25    -0.05  -0.00  -0.04
  49   6     0.14  -0.01  -0.01    -0.06  -0.05  -0.28    -0.04   0.01  -0.06
  50   6     0.10  -0.03  -0.01    -0.04  -0.01  -0.20    -0.03   0.02  -0.06
  51   6     0.06  -0.00   0.01    -0.02  -0.01  -0.10    -0.02   0.01  -0.03
  52   6     0.02  -0.05   0.01    -0.00   0.13   0.03    -0.01   0.01  -0.04
  53   6     0.02  -0.07  -0.01    -0.00   0.12   0.03    -0.01  -0.00  -0.04
  54   1    -0.04  -0.03  -0.02     0.00   0.01   0.03     0.07  -0.01  -0.06
  55   1    -0.08  -0.02  -0.02     0.02   0.00   0.03     0.06  -0.01  -0.06
  56   1    -0.09   0.01  -0.01     0.04  -0.02   0.02    -0.01  -0.00  -0.01
  57   1    -0.06   0.03  -0.00     0.04  -0.03  -0.00    -0.07   0.00   0.05
  58   1    -0.02   0.02  -0.00     0.02  -0.02  -0.01    -0.07   0.00   0.05
  59   1     0.04  -0.03  -0.01     0.02  -0.01   0.01    -0.11   0.09  -0.10
  60   1     0.06  -0.02  -0.01     0.01  -0.01   0.01    -0.07   0.09  -0.08
  61   1     0.04   0.01   0.00    -0.02   0.01  -0.01     0.08   0.00   0.02
  62   1     0.00   0.02   0.00    -0.03   0.02  -0.02     0.18  -0.09   0.11
  63   1    -0.02   0.01  -0.00    -0.02   0.02  -0.02     0.14  -0.10   0.09
  64   1    -0.00  -0.06  -0.02     0.00  -0.02  -0.01    -0.00   0.01  -0.01
  65   1    -0.00  -0.04  -0.01     0.00  -0.02  -0.01    -0.00   0.01  -0.01
  66   1    -0.02  -0.01   0.04     0.01   0.02   0.05    -0.00   0.01  -0.01
  67   1    -0.05   0.01   0.05     0.02   0.02   0.08     0.00   0.01   0.01
  68   1    -0.04   0.04   0.04     0.01   0.02   0.07     0.01   0.01   0.02
  69   1    -0.02   0.04   0.02     0.01   0.00   0.02     0.00   0.01   0.02
  70   1    -0.00   0.03  -0.00     0.00  -0.01  -0.00    -0.01   0.00   0.01
  71   1    -0.00   0.02  -0.01     0.00  -0.01   0.00    -0.01  -0.00   0.01
  72   1     0.04   0.01  -0.04    -0.02  -0.02  -0.05    -0.01  -0.01   0.01
  73   1     0.06  -0.01  -0.04    -0.03  -0.01  -0.09    -0.01  -0.00  -0.01
  74   1     0.04  -0.04  -0.03    -0.02   0.01  -0.09    -0.01  -0.00  -0.02
  75   1    -0.02  -0.03   0.03     0.01   0.02   0.02    -0.00  -0.00  -0.01
  76   1    -0.05  -0.02   0.05     0.01   0.02   0.08    -0.00   0.00   0.01
  77   1    -0.05   0.01   0.05     0.02   0.01   0.09    -0.00  -0.00   0.02
  78   1     0.01   0.03  -0.02    -0.00  -0.01   0.01    -0.00  -0.01   0.02
  79   1     0.01   0.04  -0.01    -0.00  -0.02   0.01    -0.00  -0.00   0.02
  80   1     0.03   0.03   0.01    -0.02  -0.03  -0.04    -0.01  -0.00   0.00
  81   1     0.05   0.02   0.00    -0.02  -0.03  -0.09    -0.02  -0.00  -0.01
  82   1     0.05  -0.01  -0.01    -0.02  -0.02  -0.10    -0.01   0.00  -0.02
  83   1     0.03  -0.02  -0.01    -0.01   0.00  -0.06    -0.01   0.01  -0.02
  84   1     0.01  -0.00   0.01    -0.00   0.05   0.02    -0.00   0.00  -0.01
  85   1     0.01  -0.01  -0.00    -0.00   0.05   0.02    -0.00  -0.00  -0.01
                      7                      8                      9
                        a                      a                      a 
 Frequencies --    30.3725                38.6475                43.5570
 Red. masses --    11.0802                10.7354                11.6058
 Frc consts  --     0.0000                 0.0000                 0.0000
 IR Inten    --     0.1992                 0.1080                 0.2132
 Raman Activ --     0.0000                 0.0000                 0.0000
 Depolar     --     0.0000                 0.0000                 0.0000
 Atom AN      X      Y      Z        X      Y      Z        X      Y      Z
   1   8     0.07   0.03   0.03    -0.03   0.02  -0.01     0.02   0.04   0.12
   2  15     0.02   0.03   0.07    -0.04   0.03  -0.01    -0.00   0.01   0.14
   3   6     0.02   0.03   0.01     0.02   0.01  -0.02     0.00   0.02   0.04
   4   6     0.04   0.01  -0.03    -0.07   0.03   0.07    -0.03   0.01   0.04
   5   6     0.06   0.02  -0.06     0.05   0.01   0.00     0.02   0.02  -0.03
   6   6     0.04   0.04  -0.06     0.27  -0.02  -0.16     0.10   0.04  -0.10
   7   6     0.02   0.06  -0.02     0.37  -0.04  -0.25     0.14   0.06  -0.10
   8   6     0.01   0.05   0.02     0.24  -0.02  -0.18     0.09   0.05  -0.03
   9   6    -0.06   0.03   0.01     0.04   0.05   0.01    -0.03   0.02   0.08
  10   6    -0.22   0.14  -0.06     0.13   0.04  -0.03    -0.11   0.08   0.03
  11   6    -0.30   0.18  -0.11     0.25   0.06   0.01    -0.18   0.13  -0.01
  12   6    -0.22   0.12  -0.07     0.29   0.08   0.10    -0.16   0.12  -0.00
  13   6    -0.05   0.00   0.01     0.20   0.09   0.15    -0.08   0.05   0.05
  14   6     0.03  -0.04   0.05     0.08   0.07   0.10    -0.01   0.00   0.09
  15   6     0.01  -0.00   0.09    -0.03  -0.00  -0.01     0.00  -0.04   0.06
  16   6    -0.01  -0.01   0.10    -0.05  -0.02  -0.01     0.03  -0.02   0.05
  17   6    -0.01  -0.04   0.11    -0.05  -0.04   0.01     0.03  -0.06  -0.01
  18   6     0.01  -0.06   0.12    -0.04  -0.06   0.01     0.00  -0.11  -0.05
  19   6     0.01  -0.06   0.10    -0.04  -0.05   0.03     0.01  -0.08  -0.07
  20   6    -0.01  -0.06   0.08    -0.06  -0.04   0.03    -0.02  -0.06  -0.08
  21   6    -0.03  -0.05   0.16    -0.08  -0.04   0.06    -0.06  -0.09  -0.15
  22   6    -0.06  -0.04   0.12    -0.09  -0.03   0.06    -0.08  -0.07  -0.14
  23   6    -0.07  -0.05  -0.01    -0.10  -0.02   0.03    -0.06  -0.02  -0.04
  24   6    -0.05  -0.05  -0.08    -0.08  -0.01   0.01    -0.04   0.01   0.03
  25   6    -0.01  -0.06  -0.03    -0.06  -0.02   0.01    -0.02  -0.01  -0.00
  26   6     0.02  -0.06  -0.09    -0.05  -0.02   0.00     0.00   0.01   0.03
  27   6     0.02  -0.03  -0.14    -0.05  -0.01  -0.02     0.01   0.05   0.07
  28   6     0.03  -0.01  -0.16    -0.05  -0.00  -0.03     0.04   0.09   0.06
  29   6     0.04   0.01  -0.16    -0.05   0.01  -0.04     0.03   0.10   0.10
  30   6     0.02   0.02  -0.16    -0.05   0.01  -0.05     0.00   0.08   0.15
  31   7     0.02   0.02  -0.13    -0.05   0.01  -0.05     0.00   0.07   0.18
  32   6     0.03   0.02  -0.06    -0.05   0.01  -0.03     0.04   0.03   0.09
  33   6     0.05   0.02  -0.09    -0.04   0.01  -0.04     0.07   0.05   0.14
  34   6     0.05   0.02   0.00    -0.04   0.01  -0.00     0.10  -0.00   0.00
  35   6     0.04   0.02   0.12    -0.04   0.01   0.04     0.10  -0.06  -0.17
  36   7     0.02   0.02   0.15    -0.05   0.01   0.04     0.07  -0.07  -0.21
  37   6     0.02   0.02   0.05    -0.05   0.01   0.01     0.03  -0.02  -0.06
  38   6     0.01   0.02   0.06    -0.06   0.01   0.01    -0.01  -0.02  -0.06
  39   6    -0.01   0.02   0.15    -0.07   0.00   0.04    -0.03  -0.06  -0.17
  40   6    -0.02   0.02   0.13    -0.07   0.01   0.03    -0.07  -0.04  -0.12
  41   6    -0.02   0.03   0.02    -0.07   0.01  -0.01    -0.09   0.02   0.04
  42   7    -0.00   0.03  -0.07    -0.07   0.01  -0.04    -0.07   0.06   0.15
  43   6     0.01   0.02  -0.05    -0.06   0.01  -0.03    -0.03   0.04   0.09
  44   6     0.01   0.02  -0.17    -0.05   0.01  -0.05    -0.02   0.05   0.16
  45   6     0.01  -0.01  -0.16    -0.05   0.00  -0.04    -0.03   0.04   0.12
  46   6     0.04  -0.07  -0.06    -0.03  -0.02   0.02     0.03  -0.02  -0.03
  47   6     0.08  -0.08  -0.12    -0.01  -0.01   0.03     0.05  -0.02  -0.04
  48   6     0.09  -0.08  -0.08     0.00  -0.02   0.05     0.08  -0.05  -0.10
  49   6     0.07  -0.07   0.03    -0.00  -0.03   0.07     0.08  -0.08  -0.13
  50   6     0.04  -0.06   0.10    -0.02  -0.04   0.06     0.06  -0.08  -0.11
  51   6     0.03  -0.07   0.05    -0.03  -0.04   0.04     0.03  -0.06  -0.07
  52   6     0.02  -0.05   0.11    -0.02  -0.05   0.00    -0.03  -0.15  -0.05
  53   6     0.03  -0.02   0.10    -0.02  -0.02  -0.01    -0.03  -0.12   0.01
  54   1     0.02  -0.00  -0.01    -0.07   0.02   0.06    -0.03  -0.00   0.03
  55   1     0.02   0.00  -0.03    -0.01   0.01   0.02    -0.00   0.00  -0.01
  56   1     0.02   0.01  -0.02     0.11  -0.01  -0.06     0.04   0.01  -0.05
  57   1     0.00   0.02  -0.00     0.16  -0.02  -0.11     0.06   0.02  -0.04
  58   1    -0.00   0.02   0.01     0.09  -0.01  -0.07     0.03   0.02  -0.01
  59   1    -0.08   0.06  -0.03     0.03   0.01  -0.03    -0.03   0.02   0.01
  60   1    -0.12   0.08  -0.05     0.09   0.02  -0.01    -0.07   0.05  -0.01
  61   1    -0.08   0.04  -0.03     0.11   0.03   0.04    -0.06   0.05  -0.01
  62   1     0.00  -0.01   0.01     0.07   0.03   0.06    -0.02   0.01   0.02
  63   1     0.04  -0.04   0.03     0.00   0.02   0.04     0.02  -0.01   0.04
  64   1    -0.01   0.00   0.03    -0.02  -0.00  -0.00     0.02   0.01   0.02
  65   1    -0.01  -0.01   0.03    -0.02  -0.01   0.00     0.02  -0.01  -0.01
  66   1    -0.01  -0.02   0.07    -0.02  -0.02   0.02    -0.02  -0.04  -0.06
  67   1    -0.02  -0.01   0.05    -0.03  -0.01   0.02    -0.03  -0.03  -0.06
  68   1    -0.03  -0.01  -0.01    -0.03  -0.00   0.01    -0.02  -0.00  -0.00
  69   1    -0.02  -0.02  -0.05    -0.02  -0.00  -0.00    -0.01   0.02   0.03
  70   1     0.01  -0.01  -0.05    -0.02  -0.00  -0.01     0.02   0.03   0.00
  71   1     0.01   0.01  -0.05    -0.01   0.00  -0.01     0.02   0.04   0.02
  72   1     0.02   0.00  -0.05    -0.01   0.00  -0.02     0.02   0.03   0.08
  73   1     0.02   0.00  -0.00    -0.01   0.00  -0.00     0.04   0.00   0.01
  74   1     0.01   0.01   0.06    -0.01   0.00   0.02     0.04  -0.03  -0.08
  75   1    -0.00   0.01   0.07    -0.02   0.00   0.02    -0.01  -0.03  -0.08
  76   1    -0.01   0.01   0.06    -0.02   0.00   0.01    -0.03  -0.02  -0.06
  77   1    -0.01   0.01   0.00    -0.02   0.00  -0.00    -0.04   0.01   0.02
  78   1     0.00   0.01  -0.05    -0.01   0.01  -0.02    -0.01   0.01   0.05
  79   1    -0.00  -0.00  -0.05    -0.01   0.00  -0.01    -0.01   0.01   0.04
  80   1     0.03  -0.02  -0.06    -0.00  -0.00   0.00     0.01   0.00  -0.00
  81   1     0.03  -0.02  -0.04     0.00  -0.00   0.02     0.03  -0.01  -0.03
  82   1     0.02  -0.02   0.02     0.00  -0.01   0.03     0.03  -0.03  -0.05
  83   1     0.01  -0.02   0.06    -0.01  -0.02   0.02     0.02  -0.03  -0.04
  84   1     0.01  -0.02   0.03    -0.00  -0.02   0.00    -0.02  -0.06  -0.02
  85   1     0.01  -0.00   0.03    -0.00  -0.01  -0.00    -0.02  -0.04   0.00
                     10                     11                     12
                        a                      a                      a 
 Frequencies --    49.7042                57.9439                59.6988
 Red. masses --    10.1413                12.1681                10.8269
 Frc consts  --     0.0000                 0.0000                 0.0000
 IR Inten    --     0.0371                 1.0814                 1.0522
 Raman Activ --     0.0000                 0.0000                 0.0000
 Depolar     --     0.0000                 0.0000                 0.0000
 Atom AN      X      Y      Z        X      Y      Z        X      Y      Z
   1   8    -0.03   0.02  -0.02    -0.04  -0.15   0.13    -0.00   0.03   0.08
   2  15    -0.00   0.06  -0.01    -0.03  -0.21   0.16     0.00   0.01   0.08
   3   6     0.03   0.02   0.02    -0.04  -0.11   0.04    -0.01   0.02   0.03
   4   6     0.34   0.02  -0.19    -0.01  -0.18  -0.09    -0.02   0.02   0.03
   5   6     0.43   0.01  -0.22     0.03  -0.14  -0.24    -0.01   0.02   0.02
   6   6     0.20  -0.01  -0.04     0.03  -0.04  -0.26     0.02   0.03  -0.01
   7   6    -0.13  -0.01   0.17    -0.01   0.03  -0.11     0.04   0.03  -0.02
   8   6    -0.21   0.00   0.20    -0.05  -0.01   0.03     0.02   0.03   0.00
   9   6     0.03   0.06   0.00     0.01  -0.06   0.10     0.01  -0.00   0.05
  10   6     0.15  -0.02   0.07     0.05  -0.02   0.01    -0.04   0.02   0.05
  11   6     0.16  -0.03   0.07     0.01   0.14  -0.05    -0.09   0.03   0.03
  12   6     0.04   0.06   0.00    -0.07   0.26  -0.01    -0.10   0.02   0.01
  13   6    -0.09   0.16  -0.07    -0.09   0.21   0.09    -0.05   0.00   0.01
  14   6    -0.09   0.15  -0.06    -0.05   0.05   0.14     0.00  -0.01   0.03
  15   6    -0.00   0.02  -0.02    -0.01  -0.10   0.06     0.01  -0.03  -0.02
  16   6    -0.02   0.03  -0.01     0.03  -0.19   0.00     0.05   0.08   0.00
  17   6    -0.02  -0.02  -0.01     0.03  -0.11  -0.02     0.06   0.07  -0.06
  18   6    -0.01  -0.07  -0.02     0.00   0.06   0.01     0.01  -0.06  -0.14
  19   6    -0.02  -0.07  -0.01     0.00   0.07  -0.02     0.02  -0.02  -0.14
  20   6    -0.04  -0.05   0.01     0.02   0.07  -0.01    -0.01   0.01  -0.09
  21   6    -0.06  -0.06   0.01     0.04   0.08  -0.00    -0.06  -0.03  -0.18
  22   6    -0.08  -0.04   0.03     0.05   0.06  -0.04    -0.09   0.04  -0.02
  23   6    -0.07  -0.01   0.06     0.04   0.03  -0.09    -0.05   0.14   0.23
  24   6    -0.05  -0.00   0.05     0.03   0.02  -0.07    -0.02   0.17   0.26
  25   6    -0.04  -0.02   0.02     0.02   0.05  -0.03    -0.01   0.09   0.07
  26   6    -0.02  -0.02   0.01     0.01   0.05   0.01     0.01   0.09   0.04
  27   6    -0.02  -0.00   0.01     0.00   0.02   0.01     0.01   0.05   0.01
  28   6    -0.02   0.02  -0.01    -0.02  -0.05   0.09    -0.05   0.06  -0.07
  29   6    -0.02   0.03  -0.02    -0.03  -0.09   0.09    -0.05  -0.02  -0.11
  30   6    -0.02   0.03  -0.01     0.01  -0.05   0.01     0.00  -0.10  -0.06
  31   7    -0.03   0.03  -0.01     0.01  -0.06  -0.01     0.01  -0.12  -0.12
  32   6    -0.02   0.02  -0.01    -0.01  -0.04  -0.00    -0.04  -0.08  -0.07
  33   6    -0.00   0.02  -0.00    -0.03  -0.04  -0.04    -0.09  -0.09  -0.12
  34   6     0.00   0.01  -0.00    -0.05  -0.02  -0.01    -0.13  -0.04  -0.06
  35   6    -0.00  -0.00  -0.01    -0.04   0.01   0.05    -0.12   0.03   0.06
  36   7    -0.01  -0.01  -0.01    -0.02   0.02   0.06    -0.07   0.05   0.11
  37   6    -0.02   0.00  -0.01    -0.00  -0.01   0.03    -0.02  -0.01   0.03
  38   6    -0.03   0.00  -0.00     0.02  -0.01   0.01     0.03  -0.02   0.04
  39   6    -0.05  -0.01   0.00     0.05   0.01   0.01     0.06   0.03   0.13
  40   6    -0.06   0.00   0.01     0.08  -0.00  -0.02     0.11   0.01   0.11
  41   6    -0.06   0.02   0.01     0.09  -0.04  -0.04     0.12  -0.06  -0.01
  42   7    -0.06   0.03   0.00     0.07  -0.06  -0.04     0.10  -0.11  -0.09
  43   6    -0.04   0.02  -0.00     0.03  -0.04  -0.01     0.04  -0.08  -0.05
  44   6    -0.03   0.01   0.00     0.03   0.01  -0.05     0.07  -0.12   0.03
  45   6    -0.03  -0.00   0.01     0.04   0.05  -0.05     0.07  -0.05   0.07
  46   6    -0.00  -0.03   0.01    -0.01   0.07   0.03     0.03   0.06   0.00
  47   6     0.01  -0.03   0.01    -0.03   0.09   0.10     0.05   0.09   0.05
  48   6     0.03  -0.03   0.02    -0.03   0.08   0.06     0.07   0.08   0.07
  49   6     0.03  -0.05   0.03    -0.01   0.05  -0.08     0.08   0.04   0.03
  50   6     0.01  -0.06   0.03     0.01   0.05  -0.12     0.06   0.00  -0.04
  51   6    -0.00  -0.05   0.01    -0.00   0.06  -0.04     0.04   0.01  -0.06
  52   6     0.00  -0.10  -0.04    -0.04   0.16   0.08    -0.03  -0.22  -0.17
  53   6     0.00  -0.05  -0.04    -0.05   0.09   0.10    -0.04  -0.20  -0.11
  54   1     0.15   0.01  -0.10    -0.00  -0.08  -0.02    -0.01   0.00   0.02
  55   1     0.20   0.00  -0.11     0.02  -0.05  -0.10    -0.01   0.00   0.01
  56   1     0.08  -0.01  -0.02     0.02  -0.00  -0.11     0.01   0.01  -0.01
  57   1    -0.09  -0.01   0.09    -0.00   0.03  -0.04     0.02   0.01  -0.01
  58   1    -0.13   0.00   0.10    -0.02   0.01   0.04     0.01   0.01   0.00
  59   1     0.07  -0.03   0.03     0.03  -0.03  -0.01    -0.01   0.01   0.02
  60   1     0.08  -0.03   0.04     0.01   0.05  -0.04    -0.04   0.01   0.01
  61   1     0.01   0.02   0.00    -0.03   0.11  -0.02    -0.04   0.01  -0.00
  62   1    -0.05   0.07  -0.03    -0.04   0.09   0.04    -0.02  -0.00  -0.00
  63   1    -0.05   0.06  -0.03    -0.02   0.00   0.06     0.01  -0.01   0.01
  64   1    -0.01   0.02   0.00     0.02  -0.09  -0.01     0.03   0.06   0.02
  65   1    -0.01  -0.00  -0.00     0.02  -0.05  -0.02     0.03   0.05  -0.01
  66   1    -0.02  -0.03  -0.00     0.01   0.03   0.01    -0.03  -0.03  -0.11
  67   1    -0.03  -0.01   0.01     0.02   0.02  -0.01    -0.04   0.00  -0.02
  68   1    -0.02   0.00   0.02     0.01   0.00  -0.04    -0.02   0.06   0.11
  69   1    -0.01   0.01   0.02     0.01  -0.00  -0.03     0.00   0.07   0.12
  70   1    -0.00   0.01  -0.01    -0.01  -0.02   0.04    -0.03   0.03  -0.03
  71   1    -0.00   0.01  -0.01    -0.02  -0.04   0.04    -0.03  -0.00  -0.05
  72   1    -0.00   0.01   0.00    -0.01  -0.02  -0.02    -0.03  -0.04  -0.06
  73   1     0.00   0.00  -0.00    -0.02  -0.01  -0.01    -0.05  -0.01  -0.03
  74   1     0.00  -0.00  -0.00    -0.02   0.01   0.02    -0.04   0.02   0.03
  75   1    -0.01  -0.01   0.00     0.01   0.01   0.01     0.01   0.02   0.06
  76   1    -0.02  -0.00   0.00     0.03   0.00  -0.01     0.04   0.01   0.05
  77   1    -0.02   0.01   0.00     0.03  -0.01  -0.02     0.05  -0.02  -0.01
  78   1    -0.01   0.00   0.00     0.01   0.01  -0.03     0.03  -0.06   0.02
  79   1    -0.01  -0.00   0.01     0.02   0.03  -0.03     0.03  -0.02   0.05
  80   1     0.00  -0.00  -0.00    -0.01   0.03   0.06     0.01   0.04   0.03
  81   1     0.01  -0.01   0.01    -0.02   0.03   0.03     0.02   0.03   0.03
  82   1     0.01  -0.02   0.01    -0.00   0.01  -0.04     0.03   0.01   0.01
  83   1     0.00  -0.02   0.01     0.01   0.01  -0.06     0.02  -0.01  -0.02
  84   1     0.00  -0.04  -0.01    -0.02   0.08   0.03    -0.02  -0.10  -0.07
  85   1     0.00  -0.02  -0.01    -0.02   0.05   0.04    -0.02  -0.09  -0.04
                     13                     14                     15
                        a                      a                      a 
 Frequencies --    64.3780                71.2191                82.1942
 Red. masses --    10.8755                11.2265                10.3428
 Frc consts  --     0.0000                 0.0000                 0.0000
 IR Inten    --     2.5508                 0.1788                 0.0976
 Raman Activ --     0.0000                 0.0000                 0.0000
 Depolar     --     0.0000                 0.0000                 0.0000
 Atom AN      X      Y      Z        X      Y      Z        X      Y      Z
   1   8    -0.04   0.09   0.00     0.01  -0.06   0.03    -0.04   0.00   0.04
   2  15    -0.01   0.13  -0.01     0.00  -0.09   0.04     0.03   0.01   0.03
   3   6     0.02   0.06   0.02    -0.01  -0.04  -0.00     0.02  -0.00   0.02
   4   6     0.03   0.09   0.06    -0.04  -0.07  -0.02     0.01  -0.01   0.02
   5   6     0.05   0.07   0.11    -0.05  -0.05  -0.06     0.00  -0.00   0.01
   6   6     0.05   0.02   0.12    -0.04  -0.01  -0.07     0.00   0.00   0.01
   7   6     0.04  -0.01   0.07    -0.02   0.01  -0.05     0.01   0.01   0.02
   8   6     0.02   0.01   0.03    -0.01  -0.01  -0.01     0.02   0.01   0.02
   9   6    -0.01   0.04   0.00     0.01  -0.03   0.02     0.03  -0.01   0.03
  10   6    -0.08   0.05   0.02     0.03  -0.03   0.00    -0.01   0.01   0.02
  11   6    -0.11   0.01   0.02     0.03   0.01  -0.01    -0.05   0.03  -0.01
  12   6    -0.06  -0.06   0.00     0.00   0.05  -0.00    -0.06   0.02  -0.02
  13   6     0.01  -0.07  -0.02    -0.02   0.05   0.02    -0.01  -0.01  -0.00
  14   6     0.04  -0.02  -0.02    -0.02   0.00   0.03     0.03  -0.02   0.02
  15   6    -0.00   0.06  -0.05     0.01  -0.04   0.02     0.02   0.03  -0.03
  16   6     0.00  -0.11  -0.12     0.02   0.11   0.08     0.03  -0.21  -0.13
  17   6    -0.00  -0.19  -0.16     0.02   0.16   0.08     0.02  -0.22  -0.16
  18   6    -0.00  -0.09  -0.13     0.01   0.06   0.03     0.03  -0.02  -0.09
  19   6    -0.01  -0.09  -0.11     0.01   0.04   0.03     0.01  -0.04  -0.09
  20   6    -0.01  -0.06  -0.01     0.06   0.00   0.01     0.03  -0.04  -0.09
  21   6    -0.02  -0.06   0.01     0.11  -0.00  -0.14     0.08  -0.02  -0.07
  22   6    -0.03  -0.05   0.05     0.16  -0.04  -0.13     0.11  -0.02  -0.02
  23   6    -0.03  -0.04   0.04     0.18  -0.07   0.04     0.12  -0.03   0.04
  24   6    -0.02  -0.03   0.04     0.12  -0.07   0.16     0.08  -0.05   0.05
  25   6    -0.01  -0.04   0.04     0.06  -0.04   0.13     0.03  -0.05  -0.03
  26   6    -0.00  -0.02   0.11    -0.00  -0.06   0.17    -0.00  -0.04  -0.01
  27   6    -0.01  -0.01   0.12    -0.00  -0.07   0.17     0.01  -0.04  -0.00
  28   6    -0.03  -0.12   0.25    -0.01  -0.01   0.07     0.01   0.12  -0.23
  29   6    -0.03  -0.10   0.17    -0.00   0.07  -0.06     0.01   0.16  -0.27
  30   6     0.01   0.04  -0.04     0.01   0.09  -0.10    -0.03   0.02  -0.06
  31   7     0.01   0.05  -0.11     0.02   0.11  -0.20    -0.03   0.03  -0.07
  32   6     0.03   0.03  -0.06     0.05   0.08  -0.12    -0.02   0.02  -0.04
  33   6     0.08   0.03  -0.11     0.11   0.08  -0.12    -0.03   0.03   0.04
  34   6     0.10   0.02  -0.02     0.14   0.05  -0.04    -0.03   0.03   0.05
  35   6     0.07  -0.00   0.10     0.11   0.00   0.05    -0.03   0.01  -0.02
  36   7     0.04  -0.00   0.12     0.06  -0.00   0.07    -0.03   0.01  -0.07
  37   6     0.02   0.01   0.03     0.03   0.03  -0.02    -0.03   0.01  -0.06
  38   6    -0.00   0.02   0.01    -0.03   0.04  -0.01    -0.04   0.01  -0.04
  39   6    -0.02   0.01   0.04    -0.08   0.00   0.11    -0.07  -0.01   0.03
  40   6    -0.04   0.01  -0.01    -0.14   0.03   0.10    -0.11   0.01   0.10
  41   6    -0.03   0.02  -0.09    -0.14   0.08  -0.02    -0.11   0.04   0.08
  42   7    -0.02   0.04  -0.13    -0.10   0.11  -0.14    -0.09   0.05   0.00
  43   6    -0.00   0.03  -0.07    -0.03   0.08  -0.11    -0.05   0.03  -0.04
  44   6     0.04   0.14  -0.15     0.03   0.02   0.00    -0.03  -0.15   0.17
  45   6     0.03   0.11  -0.07     0.02  -0.07   0.14    -0.03  -0.18   0.19
  46   6    -0.01  -0.02   0.09    -0.05  -0.05   0.07     0.00  -0.02   0.03
  47   6    -0.04   0.03   0.24    -0.11  -0.12  -0.00     0.03   0.01   0.09
  48   6    -0.03  -0.00   0.14    -0.17  -0.10  -0.10     0.03   0.04   0.20
  49   6     0.01  -0.08  -0.13    -0.17  -0.02  -0.10     0.04   0.01   0.18
  50   6     0.03  -0.12  -0.24    -0.11   0.04  -0.03     0.03  -0.04   0.04
  51   6     0.00  -0.08  -0.10    -0.05   0.01   0.04     0.01  -0.03  -0.01
  52   6    -0.01   0.06  -0.07    -0.00  -0.08  -0.02     0.01   0.22   0.01
  53   6    -0.01   0.14  -0.03    -0.01  -0.13  -0.02     0.01   0.25   0.04
  54   1     0.01   0.04   0.02    -0.01  -0.03  -0.00     0.00  -0.01   0.00
  55   1     0.02   0.03   0.04    -0.02  -0.02  -0.02    -0.00  -0.00   0.00
  56   1     0.02   0.00   0.04    -0.01   0.00  -0.03    -0.00   0.00   0.00
  57   1     0.01  -0.01   0.02    -0.00   0.01  -0.02     0.00   0.01   0.01
  58   1     0.00  -0.00  -0.00     0.00   0.00   0.00     0.01   0.00   0.01
  59   1    -0.03   0.03   0.01     0.02  -0.02  -0.00    -0.00   0.00   0.01
  60   1    -0.05   0.01   0.01     0.02   0.00  -0.01    -0.03   0.01  -0.00
  61   1    -0.02  -0.03   0.00    -0.00   0.02  -0.00    -0.03   0.01  -0.01
  62   1     0.01  -0.04  -0.01    -0.01   0.02   0.01    -0.00  -0.00  -0.00
  63   1     0.03  -0.01  -0.01    -0.01   0.00   0.01     0.02  -0.01   0.01
  64   1     0.00  -0.05  -0.04     0.01   0.05   0.03     0.01  -0.10  -0.05
  65   1     0.00  -0.09  -0.06     0.01   0.07   0.03     0.01  -0.11  -0.06
  66   1    -0.01  -0.02   0.00     0.03   0.00  -0.08     0.02   0.01  -0.02
  67   1    -0.01  -0.01   0.02     0.06  -0.01  -0.07     0.04  -0.00  -0.00
  68   1    -0.01  -0.01   0.01     0.07  -0.03   0.02     0.04  -0.01   0.03
  69   1    -0.01  -0.01   0.01     0.04  -0.03   0.08     0.03  -0.02   0.04
  70   1    -0.02  -0.07   0.11    -0.01  -0.00   0.03     0.00   0.06  -0.10
  71   1    -0.02  -0.05   0.08    -0.00   0.03  -0.04     0.01   0.09  -0.13
  72   1     0.03   0.02  -0.06     0.04   0.03  -0.05    -0.01   0.01   0.03
  73   1     0.04   0.00  -0.02     0.06   0.01  -0.01    -0.01   0.01   0.03
  74   1     0.02  -0.00   0.05     0.04  -0.01   0.04    -0.01   0.00  -0.01
  75   1    -0.01  -0.00   0.03    -0.02  -0.01   0.06    -0.02  -0.01   0.01
  76   1    -0.01  -0.00   0.00    -0.05   0.00   0.06    -0.04   0.00   0.05
  77   1    -0.01   0.01  -0.04    -0.05   0.03  -0.01    -0.04   0.01   0.04
  78   1     0.02   0.07  -0.08     0.01   0.01  -0.01    -0.01  -0.08   0.08
  79   1     0.02   0.05  -0.04     0.01  -0.03   0.06    -0.02  -0.09   0.10
  80   1    -0.02   0.02   0.13    -0.03  -0.05   0.00     0.01   0.01   0.01
  81   1    -0.02   0.01   0.08    -0.06  -0.04  -0.05     0.01   0.02   0.08
  82   1     0.01  -0.03  -0.07    -0.06   0.00  -0.05     0.01   0.01   0.07
  83   1     0.02  -0.05  -0.12    -0.03   0.03  -0.01     0.01  -0.03  -0.01
  84   1    -0.01   0.04  -0.01    -0.00  -0.05  -0.02    -0.00   0.10   0.02
  85   1    -0.00   0.07   0.01    -0.01  -0.07  -0.02     0.00   0.13   0.04
                     16                     17                     18
                        a                      a                      a 
 Frequencies --    86.0637               100.6409               108.1024
 Red. masses --    11.1640                13.2782                10.7496
 Frc consts  --     0.0000                 0.0000                 0.0000
 IR Inten    --     0.4764                 0.1725                 0.5970
 Raman Activ --     0.0000                 0.0000                 0.0000
 Depolar     --     0.0000                 0.0000                 0.0000
 Atom AN      X      Y      Z        X      Y      Z        X      Y      Z
   1   8    -0.15  -0.03   0.08    -0.25   0.01  -0.06    -0.04  -0.01   0.02
   2  15    -0.08  -0.05   0.05    -0.28   0.07  -0.06    -0.00  -0.01   0.01
   3   6    -0.04  -0.03   0.02    -0.14   0.02  -0.01     0.00  -0.01   0.00
   4   6    -0.05  -0.04   0.01    -0.07   0.05  -0.00    -0.00  -0.01   0.00
   5   6    -0.03  -0.03  -0.03     0.04   0.02  -0.01    -0.01  -0.01  -0.00
   6   6    -0.00  -0.02  -0.06     0.08  -0.05  -0.04    -0.01  -0.00  -0.00
   7   6     0.00  -0.00  -0.04    -0.01  -0.08  -0.03     0.00   0.00  -0.00
   8   6    -0.02  -0.01   0.00    -0.12  -0.05  -0.02     0.00  -0.00   0.00
   9   6     0.00  -0.03   0.06    -0.15   0.05  -0.02     0.01  -0.01   0.01
  10   6    -0.00  -0.02   0.03    -0.10   0.03  -0.02     0.01  -0.01   0.01
  11   6    -0.03   0.02   0.01     0.01  -0.01   0.03    -0.01   0.01  -0.00
  12   6    -0.05   0.05   0.02     0.07  -0.03   0.09    -0.02   0.01  -0.00
  13   6    -0.04   0.03   0.05    -0.01   0.01   0.08    -0.01   0.01   0.00
  14   6    -0.01  -0.01   0.06    -0.12   0.05   0.02     0.01  -0.01   0.01
  15   6    -0.03   0.01  -0.07    -0.16   0.05  -0.03     0.00   0.01  -0.02
  16   6     0.01   0.10  -0.05    -0.16  -0.04  -0.06     0.00  -0.01  -0.03
  17   6     0.01   0.10  -0.09    -0.16  -0.06  -0.04     0.00  -0.01  -0.03
  18   6    -0.02   0.01  -0.15    -0.10  -0.00   0.02     0.01  -0.00  -0.03
  19   6    -0.01  -0.03  -0.17    -0.08  -0.00   0.05     0.00  -0.02  -0.03
  20   6     0.02  -0.03  -0.08    -0.05  -0.02   0.01     0.01  -0.02  -0.04
  21   6     0.04   0.01   0.08    -0.05  -0.04  -0.08     0.02  -0.01   0.00
  22   6     0.06   0.06   0.30    -0.07  -0.05  -0.13     0.03  -0.00   0.05
  23   6     0.05   0.05   0.27    -0.06  -0.02  -0.04     0.03  -0.01   0.04
  24   6     0.03  -0.01   0.04    -0.05   0.01   0.07     0.02  -0.02  -0.01
  25   6     0.02  -0.06  -0.09    -0.04  -0.00   0.06     0.01  -0.03  -0.04
  26   6     0.01  -0.10  -0.18     0.00   0.01   0.06     0.00  -0.03  -0.05
  27   6     0.01  -0.09  -0.13     0.03   0.02   0.04     0.00   0.00   0.00
  28   6     0.08  -0.11  -0.02     0.05   0.08  -0.04     0.05   0.05  -0.02
  29   6     0.09  -0.06   0.04     0.06   0.07  -0.06     0.04   0.07   0.04
  30   6     0.04   0.02  -0.01     0.10  -0.00  -0.01    -0.01   0.05   0.11
  31   7     0.05   0.06   0.05     0.13  -0.02  -0.02    -0.01   0.04   0.21
  32   6     0.07   0.04   0.03     0.13  -0.02  -0.01     0.00   0.03   0.15
  33   6     0.11   0.06   0.10     0.16  -0.01   0.00     0.02  -0.03  -0.19
  34   6     0.13   0.03   0.08     0.17  -0.02  -0.01     0.03  -0.06  -0.40
  35   6     0.12  -0.01  -0.01     0.17  -0.03  -0.01     0.02  -0.03  -0.18
  36   7     0.10  -0.03  -0.07     0.16  -0.04  -0.00    -0.00   0.02   0.18
  37   6     0.06   0.01  -0.03     0.13  -0.01   0.00    -0.01   0.03   0.28
  38   6     0.04   0.02  -0.03     0.13  -0.01   0.01    -0.03   0.03   0.29
  39   6     0.04   0.00  -0.07     0.16   0.02   0.06    -0.03   0.00   0.16
  40   6     0.02   0.01  -0.02     0.19   0.01   0.06    -0.03  -0.02  -0.19
  41   6     0.01   0.04   0.06     0.19  -0.01   0.00    -0.02  -0.03  -0.36
  42   7     0.02   0.06   0.09     0.18  -0.03  -0.03    -0.02   0.01  -0.17
  43   6     0.04   0.04   0.03     0.13  -0.01  -0.01    -0.02   0.03   0.15
  44   6    -0.03   0.04  -0.11     0.08  -0.06   0.05    -0.05   0.02   0.11
  45   6    -0.03  -0.02  -0.16     0.07  -0.05   0.08    -0.05  -0.01   0.06
  46   6    -0.03  -0.06  -0.13    -0.02   0.02   0.03     0.00  -0.03  -0.05
  47   6    -0.08  -0.04  -0.02    -0.01  -0.01  -0.06     0.01  -0.04  -0.08
  48   6    -0.13   0.04   0.19     0.01  -0.03  -0.07     0.00  -0.02   0.01
  49   6    -0.14   0.07   0.24    -0.00  -0.01   0.02    -0.01   0.01   0.10
  50   6    -0.08   0.03   0.06    -0.02   0.01   0.08    -0.01   0.00   0.08
  51   6    -0.04  -0.02  -0.11    -0.04   0.01   0.07    -0.00  -0.02  -0.01
  52   6    -0.06  -0.05  -0.15    -0.10   0.08   0.05     0.00   0.03  -0.02
  53   6    -0.06  -0.06  -0.11    -0.10   0.12   0.02     0.00   0.04  -0.01
  54   1    -0.02  -0.01   0.01    -0.03   0.03   0.00    -0.00  -0.00   0.00
  55   1    -0.01  -0.01  -0.01     0.03   0.01  -0.00    -0.00  -0.00  -0.00
  56   1     0.01  -0.00  -0.03     0.05  -0.02  -0.02    -0.00   0.00  -0.00
  57   1     0.01   0.00  -0.02     0.00  -0.04  -0.01     0.00   0.00  -0.00
  58   1    -0.01  -0.00   0.00    -0.05  -0.02  -0.01     0.00   0.00   0.00
  59   1     0.00  -0.01   0.01    -0.04   0.01  -0.02     0.00  -0.00   0.00
  60   1    -0.01   0.01  -0.00     0.02  -0.01   0.01    -0.00   0.00  -0.00
  61   1    -0.02   0.03   0.00     0.05  -0.02   0.04    -0.01   0.01  -0.00
  62   1    -0.02   0.02   0.01     0.01  -0.00   0.03    -0.00   0.00   0.00
  63   1    -0.00  -0.01   0.02    -0.05   0.02   0.01     0.00  -0.00   0.00
  64   1     0.01   0.04  -0.00    -0.05  -0.02  -0.02     0.00  -0.01  -0.01
  65   1     0.01   0.05  -0.02    -0.06  -0.03  -0.01     0.00  -0.00  -0.01
  66   1     0.01  -0.00   0.02    -0.02  -0.01  -0.03     0.01   0.00   0.00
  67   1     0.02   0.03   0.14    -0.02  -0.02  -0.06     0.01   0.00   0.02
  68   1     0.02   0.03   0.12    -0.02  -0.01  -0.01     0.01   0.00   0.02
  69   1     0.01  -0.01  -0.01    -0.01   0.01   0.04     0.01  -0.01  -0.00
  70   1     0.04  -0.05   0.00     0.02   0.03  -0.03     0.02   0.02  -0.02
  71   1     0.04  -0.02   0.03     0.01   0.03  -0.04     0.02   0.03   0.01
  72   1     0.03   0.03   0.05     0.05   0.00   0.00     0.01  -0.02  -0.09
  73   1     0.04   0.01   0.04     0.05  -0.01  -0.00     0.02  -0.03  -0.21
  74   1     0.04  -0.01  -0.01     0.05  -0.01  -0.01     0.01  -0.01  -0.09
  75   1     0.01  -0.00  -0.04     0.04   0.02   0.02    -0.01  -0.00   0.08
  76   1     0.00   0.00  -0.01     0.06   0.01   0.03    -0.01  -0.01  -0.11
  77   1    -0.00   0.02   0.03     0.06  -0.00  -0.00    -0.00  -0.02  -0.19
  78   1    -0.03   0.03  -0.04     0.02  -0.02   0.02    -0.02   0.01   0.04
  79   1    -0.02  -0.00  -0.06     0.03  -0.02   0.04    -0.03  -0.01   0.02
  80   1    -0.02  -0.02  -0.02     0.00  -0.01  -0.04     0.01  -0.02  -0.04
  81   1    -0.05   0.02   0.09     0.01  -0.01  -0.04     0.00  -0.00   0.00
  82   1    -0.05   0.04   0.12    -0.00  -0.00   0.01    -0.01   0.01   0.05
  83   1    -0.03   0.02   0.02    -0.01   0.00   0.04    -0.01   0.00   0.04
  84   1    -0.02  -0.02  -0.05    -0.03   0.03   0.02    -0.00   0.01  -0.00
  85   1    -0.03  -0.03  -0.04    -0.02   0.06   0.01     0.00   0.02  -0.00
                     19                     20                     21
                        a                      a                      a 
 Frequencies --   133.9080               135.3583               141.0303
 Red. masses --    11.8962                10.6070                10.7076
 Frc consts  --     0.0000                 0.0000                 0.0000
 IR Inten    --     6.4622                 1.6792                 5.3407
 Raman Activ --     0.0000                 0.0000                 0.0000
 Depolar     --     0.0000                 0.0000                 0.0000
 Atom AN      X      Y      Z        X      Y      Z        X      Y      Z
   1   8     0.40  -0.06  -0.26    -0.06   0.03   0.07     0.02  -0.03   0.02
   2  15     0.01   0.00  -0.01    -0.01  -0.00   0.01     0.10  -0.02   0.01
   3   6    -0.05   0.00   0.04    -0.01   0.01  -0.01     0.14  -0.02  -0.03
   4   6    -0.03   0.00   0.02    -0.01   0.02   0.00     0.09  -0.05  -0.04
   5   6     0.03  -0.00  -0.02     0.00   0.01   0.01    -0.02  -0.02  -0.00
   6   6     0.05  -0.00  -0.04     0.01  -0.00   0.01    -0.09   0.03   0.04
   7   6    -0.00   0.00   0.00     0.00  -0.01  -0.00    -0.00   0.05   0.02
   8   6    -0.05   0.00   0.03    -0.01  -0.00  -0.01     0.11   0.02  -0.01
   9   6    -0.21   0.16  -0.12     0.05  -0.03   0.03     0.04  -0.05  -0.00
  10   6    -0.16   0.12  -0.08     0.03  -0.02   0.02     0.05  -0.05  -0.03
  11   6     0.02  -0.03   0.03    -0.01   0.00   0.00     0.03   0.00  -0.05
  12   6     0.15  -0.13   0.09    -0.03   0.02  -0.02     0.00   0.03  -0.05
  13   6     0.02  -0.03   0.01    -0.01   0.00  -0.00     0.01   0.01  -0.02
  14   6    -0.15   0.12  -0.09     0.03  -0.02   0.02     0.03  -0.04  -0.00
  15   6    -0.02  -0.11   0.24     0.01  -0.01  -0.06     0.04   0.09   0.06
  16   6     0.05  -0.09   0.21    -0.01   0.09  -0.01     0.02  -0.03   0.02
  17   6     0.06  -0.05   0.11    -0.01   0.07   0.00     0.02  -0.05   0.01
  18   6    -0.01  -0.01   0.07    -0.01   0.00  -0.02     0.00   0.00   0.01
  19   6    -0.00   0.00  -0.09    -0.00   0.01   0.02    -0.01  -0.03  -0.03
  20   6    -0.00  -0.00  -0.11    -0.01   0.02   0.09    -0.03  -0.03  -0.09
  21   6     0.01   0.00  -0.10    -0.01   0.05   0.23    -0.08  -0.07  -0.22
  22   6     0.03   0.03   0.02    -0.01   0.02   0.12    -0.11  -0.03  -0.15
  23   6     0.04   0.05   0.11    -0.04  -0.05  -0.16    -0.08   0.07   0.13
  24   6     0.02   0.02   0.03    -0.03  -0.06  -0.21    -0.05   0.10   0.20
  25   6     0.00  -0.01  -0.08    -0.01  -0.01  -0.04    -0.03   0.03   0.04
  26   6    -0.00  -0.01  -0.09    -0.01   0.01   0.01    -0.02  -0.00  -0.03
  27   6    -0.00  -0.03  -0.06    -0.00   0.01   0.01    -0.03  -0.00  -0.01
  28   6     0.02  -0.02  -0.05    -0.01   0.04  -0.03    -0.02  -0.09   0.12
  29   6     0.02  -0.00  -0.03    -0.00   0.05  -0.06    -0.03  -0.11   0.15
  30   6     0.00  -0.00  -0.01     0.00  -0.01   0.01    -0.01  -0.01   0.02
  31   7     0.00   0.02   0.03     0.01  -0.00   0.00    -0.02  -0.00  -0.00
  32   6     0.01   0.02   0.04     0.00   0.01   0.09    -0.02   0.01   0.06
  33   6     0.02   0.02   0.07     0.00   0.03   0.25    -0.01   0.04   0.20
  34   6     0.03   0.00  -0.00     0.02   0.01   0.09     0.00   0.01   0.11
  35   6     0.03  -0.01  -0.08     0.04  -0.04  -0.23     0.02  -0.03  -0.15
  36   7     0.02  -0.01  -0.05     0.03  -0.04  -0.25     0.00  -0.04  -0.20
  37   6     0.01   0.01   0.02     0.01  -0.00  -0.01    -0.02  -0.00  -0.03
  38   6     0.00   0.01   0.04     0.01   0.00   0.04    -0.01   0.00  -0.00
  39   6    -0.00   0.01   0.07     0.00   0.04   0.29    -0.02   0.03   0.20
  40   6    -0.00   0.01   0.03     0.02   0.03   0.24    -0.00   0.03   0.18
  41   6     0.00   0.01  -0.05     0.04  -0.02  -0.16     0.02  -0.01  -0.10
  42   7     0.01   0.01  -0.06     0.05  -0.04  -0.32     0.02  -0.03  -0.23
  43   6     0.00   0.01   0.00     0.02  -0.01  -0.10    -0.01  -0.01  -0.08
  44   6    -0.02  -0.03   0.01    -0.01  -0.07   0.09    -0.02   0.07  -0.10
  45   6    -0.02  -0.04  -0.02    -0.01  -0.04   0.07    -0.02   0.06  -0.10
  46   6    -0.01   0.00  -0.06    -0.01   0.03   0.06    -0.01  -0.04  -0.09
  47   6    -0.05   0.05   0.09    -0.03   0.06   0.15     0.00  -0.07  -0.18
  48   6    -0.08   0.08   0.15    -0.03   0.04   0.08     0.00  -0.05  -0.10
  49   6    -0.05   0.03  -0.02     0.00  -0.01  -0.12    -0.04   0.01   0.13
  50   6    -0.01  -0.01  -0.18     0.00  -0.02  -0.15    -0.04   0.02   0.18
  51   6    -0.01  -0.01  -0.13    -0.01   0.00  -0.03    -0.01  -0.02   0.03
  52   6    -0.09  -0.02   0.11     0.01  -0.09  -0.06     0.01   0.13   0.06
  53   6    -0.09  -0.07   0.21     0.01  -0.12  -0.10     0.02   0.20   0.09
  54   1    -0.01   0.00   0.01    -0.00   0.01   0.00     0.04  -0.03  -0.02
  55   1     0.02  -0.00  -0.01     0.00   0.00   0.00    -0.02  -0.01  -0.00
  56   1     0.03  -0.00  -0.02     0.00  -0.00   0.00    -0.06   0.01   0.02
  57   1     0.00   0.00  -0.00     0.00  -0.01  -0.00    -0.01   0.02   0.01
  58   1    -0.02   0.00   0.01    -0.00  -0.00  -0.00     0.05   0.01  -0.00
  59   1    -0.06   0.05  -0.03     0.01  -0.01   0.01     0.02  -0.02  -0.01
  60   1     0.03  -0.02   0.02    -0.01   0.00  -0.00     0.01   0.00  -0.02
  61   1     0.10  -0.08   0.06    -0.02   0.02  -0.01    -0.01   0.02  -0.02
  62   1     0.03  -0.03   0.01    -0.01   0.00  -0.00    -0.00   0.01  -0.00
  63   1    -0.06   0.05  -0.04     0.01  -0.01   0.01     0.01  -0.01   0.00
  64   1     0.03  -0.03   0.07    -0.01   0.05   0.00     0.00  -0.03  -0.00
  65   1     0.04  -0.02   0.02    -0.00   0.03   0.01     0.01  -0.03  -0.00
  66   1     0.00  -0.00  -0.05     0.00   0.02   0.11    -0.03  -0.03  -0.10
  67   1     0.01   0.01   0.02     0.00   0.01   0.06    -0.04  -0.02  -0.08
  68   1     0.02   0.02   0.06    -0.02  -0.03  -0.09    -0.02   0.03   0.08
  69   1     0.01   0.01   0.02    -0.01  -0.03  -0.10    -0.01   0.05   0.10
  70   1     0.01  -0.01  -0.01    -0.00   0.02  -0.01    -0.00  -0.04   0.05
  71   1     0.01   0.00  -0.01    -0.00   0.03  -0.03    -0.01  -0.06   0.07
  72   1     0.00   0.01   0.03    -0.00   0.02   0.13    -0.00   0.02   0.10
  73   1     0.01   0.00  -0.00     0.00   0.01   0.05     0.00   0.01   0.06
  74   1     0.01  -0.01  -0.05     0.02  -0.02  -0.13     0.01  -0.02  -0.09
  75   1    -0.00   0.01   0.04    -0.00   0.02   0.15    -0.01   0.02   0.10
  76   1    -0.00   0.00   0.02     0.00   0.02   0.13    -0.00   0.01   0.10
  77   1     0.00   0.00  -0.03     0.02  -0.01  -0.10     0.01  -0.01  -0.06
  78   1    -0.01  -0.01   0.01    -0.00  -0.04   0.05    -0.01   0.03  -0.04
  79   1    -0.01  -0.02  -0.00    -0.00  -0.01   0.02    -0.00   0.03  -0.04
  80   1    -0.02   0.02   0.05    -0.01   0.03   0.07     0.01  -0.03  -0.08
  81   1    -0.03   0.04   0.09    -0.02   0.02   0.04     0.01  -0.02  -0.05
  82   1    -0.01   0.01  -0.00     0.01  -0.01  -0.06    -0.02   0.01   0.07
  83   1     0.00  -0.01  -0.08     0.01  -0.01  -0.07    -0.02   0.01   0.08
  84   1    -0.04  -0.00   0.02     0.01  -0.04  -0.02     0.00   0.04   0.02
  85   1    -0.04  -0.02   0.07     0.01  -0.06  -0.04     0.00   0.09   0.04
                     22                     23                     24
                        a                      a                      a 
 Frequencies --   147.7759               151.2441               156.4706
 Red. masses --    10.9888                11.9043                11.8105
 Frc consts  --     0.0000                 0.0000                 0.0000
 IR Inten    --     0.9776                 7.4584                 2.5367
 Raman Activ --     0.0000                 0.0000                 0.0000
 Depolar     --     0.0000                 0.0000                 0.0000
 Atom AN      X      Y      Z        X      Y      Z        X      Y      Z
   1   8     0.15   0.12   0.01     0.22   0.30   0.26     0.13  -0.18  -0.15
   2  15    -0.03   0.04  -0.01     0.08   0.00  -0.00     0.19  -0.02   0.04
   3   6    -0.25   0.07   0.07     0.01   0.09  -0.20     0.07  -0.06   0.20
   4   6    -0.16   0.11   0.09     0.08   0.18  -0.10     0.01  -0.13   0.11
   5   6     0.07   0.06   0.04     0.08   0.12   0.09    -0.04  -0.07  -0.03
   6   6     0.19  -0.03  -0.05     0.01  -0.01   0.16     0.00   0.06  -0.08
   7   6     0.02  -0.07  -0.01    -0.01  -0.09   0.02     0.05   0.14   0.03
   8   6    -0.20  -0.02   0.05    -0.01  -0.02  -0.16     0.09   0.07   0.18
   9   6     0.05   0.09   0.02     0.07  -0.20   0.02     0.17   0.15   0.02
  10   6    -0.01   0.08   0.08     0.10  -0.17  -0.07     0.07   0.13   0.12
  11   6    -0.07   0.01   0.08     0.06  -0.01  -0.13    -0.06   0.02   0.10
  12   6    -0.06  -0.04   0.03    -0.03   0.11  -0.11    -0.07  -0.07  -0.02
  13   6     0.01  -0.04  -0.03    -0.01   0.03   0.00     0.05  -0.05  -0.12
  14   6     0.06   0.04  -0.02     0.04  -0.14   0.06     0.17   0.07  -0.09
  15   6    -0.01  -0.27  -0.14     0.01  -0.16   0.06     0.08  -0.04  -0.08
  16   6    -0.01  -0.31  -0.15     0.01  -0.19   0.05     0.02  -0.09  -0.08
  17   6    -0.01  -0.17  -0.09     0.01  -0.11   0.04     0.01  -0.07  -0.05
  18   6     0.02  -0.01  -0.01    -0.03  -0.01   0.05    -0.01  -0.00  -0.03
  19   6     0.02   0.09   0.07    -0.04   0.04   0.02    -0.04   0.02   0.02
  20   6     0.05   0.07   0.03    -0.05   0.03   0.01    -0.07   0.03   0.06
  21   6     0.09   0.08  -0.02    -0.07   0.02  -0.02    -0.12   0.00   0.07
  22   6     0.13   0.06  -0.02    -0.08   0.02  -0.05    -0.17  -0.01  -0.05
  23   6     0.13   0.03   0.01    -0.08   0.02  -0.01    -0.18  -0.01  -0.10
  24   6     0.09   0.01   0.02    -0.06   0.03   0.02    -0.12   0.04  -0.01
  25   6     0.05   0.04   0.03    -0.05   0.02   0.01    -0.07   0.03   0.05
  26   6     0.02   0.02   0.00    -0.05   0.00  -0.01    -0.06   0.01   0.03
  27   6     0.01   0.01  -0.00    -0.04  -0.01  -0.03    -0.05   0.01   0.01
  28   6    -0.00  -0.05   0.07    -0.01   0.04  -0.07    -0.03   0.07  -0.05
  29   6    -0.01  -0.06   0.09    -0.00   0.05  -0.07    -0.03   0.07  -0.07
  30   6    -0.01  -0.01   0.01     0.00   0.01  -0.02    -0.00   0.01  -0.01
  31   7    -0.02  -0.00   0.00     0.02   0.00   0.01     0.02  -0.00  -0.00
  32   6    -0.03   0.00   0.02     0.03   0.00   0.00     0.03  -0.01  -0.01
  33   6    -0.04   0.01   0.07     0.06   0.00  -0.03     0.07  -0.00  -0.03
  34   6    -0.05   0.01   0.04     0.08  -0.02  -0.03     0.09  -0.02  -0.02
  35   6    -0.04   0.01  -0.04     0.07  -0.02   0.01     0.08  -0.03   0.03
  36   7    -0.03   0.00  -0.07     0.05  -0.02   0.05     0.05  -0.03   0.04
  37   6    -0.03   0.00  -0.02     0.03  -0.00   0.03     0.03  -0.01   0.01
  38   6    -0.02  -0.00  -0.01     0.03   0.01   0.02     0.03   0.00   0.00
  39   6    -0.04  -0.00   0.06     0.05   0.02  -0.04     0.06   0.03  -0.03
  40   6    -0.04  -0.00   0.06     0.07   0.01  -0.05     0.10   0.02  -0.03
  41   6    -0.04  -0.01  -0.04     0.07   0.01   0.02     0.10   0.00   0.03
  42   7    -0.03  -0.01  -0.08     0.05  -0.00   0.07     0.07  -0.02   0.05
  43   6    -0.02  -0.00  -0.03     0.03   0.00   0.04     0.03  -0.00   0.02
  44   6     0.01   0.05  -0.06    -0.02  -0.03   0.00    -0.02  -0.03   0.03
  45   6     0.01   0.06  -0.06    -0.03  -0.04  -0.00    -0.03  -0.03   0.04
  46   6     0.01   0.02  -0.01    -0.07   0.00  -0.02    -0.08  -0.01  -0.00
  47   6     0.02  -0.03  -0.15    -0.13  -0.02   0.01    -0.14  -0.06  -0.04
  48   6     0.02  -0.02  -0.14    -0.19   0.03   0.06    -0.22  -0.00   0.02
  49   6    -0.02   0.06   0.07    -0.18   0.05   0.01    -0.22   0.04   0.05
  50   6    -0.01   0.10   0.18    -0.12   0.05  -0.07    -0.15   0.06  -0.01
  51   6     0.01   0.08   0.10    -0.06   0.03  -0.03    -0.08   0.02   0.01
  52   6     0.02  -0.07  -0.04    -0.03  -0.03   0.05     0.04   0.01  -0.06
  53   6     0.01  -0.19  -0.10    -0.02  -0.10   0.06     0.05  -0.00  -0.08
  54   1    -0.07   0.05   0.04     0.03   0.09  -0.04    -0.00  -0.08   0.04
  55   1     0.05   0.03   0.01     0.03   0.05   0.05    -0.02  -0.04  -0.03
  56   1     0.12  -0.02  -0.04    -0.01  -0.01   0.09    -0.00   0.03  -0.06
  57   1     0.02  -0.04  -0.01    -0.02  -0.06   0.02     0.02   0.07  -0.00
  58   1    -0.09  -0.02   0.01    -0.01  -0.02  -0.07     0.04   0.04   0.07
  59   1    -0.01   0.04   0.04     0.04  -0.07  -0.03     0.02   0.06   0.07
  60   1    -0.04   0.00   0.03     0.02   0.01  -0.06    -0.04   0.00   0.05
  61   1    -0.03  -0.03   0.01    -0.03   0.07  -0.05    -0.05  -0.04  -0.01
  62   1     0.01  -0.03  -0.02    -0.02   0.03   0.01     0.02  -0.04  -0.06
  63   1     0.03   0.01  -0.02     0.01  -0.05   0.04     0.08   0.02  -0.05
  64   1    -0.00  -0.11  -0.05     0.01  -0.07   0.01    -0.01  -0.04  -0.03
  65   1    -0.01  -0.04  -0.02     0.01  -0.03   0.01     0.01  -0.02  -0.02
  66   1     0.03   0.03  -0.02    -0.02   0.00  -0.01    -0.03  -0.01   0.04
  67   1     0.05   0.02  -0.01    -0.03   0.00  -0.03    -0.06  -0.01  -0.03
  68   1     0.05   0.00   0.00    -0.02   0.01  -0.01    -0.06  -0.01  -0.06
  69   1     0.02  -0.01  -0.00    -0.02   0.02   0.01    -0.03   0.02  -0.00
  70   1    -0.00  -0.02   0.03     0.00   0.01  -0.03    -0.01   0.03  -0.03
  71   1    -0.00  -0.03   0.04    -0.00   0.02  -0.03    -0.01   0.03  -0.04
  72   1    -0.01   0.00   0.03     0.02   0.01  -0.01     0.02   0.00  -0.01
  73   1    -0.02   0.00   0.02     0.03  -0.01  -0.02     0.03  -0.01  -0.01
  74   1    -0.01   0.00  -0.03     0.02  -0.01   0.01     0.02  -0.01   0.02
  75   1    -0.01  -0.00   0.03     0.01   0.01  -0.02     0.02   0.02  -0.02
  76   1    -0.01   0.00   0.03     0.02   0.00  -0.03     0.03   0.01  -0.02
  77   1    -0.01  -0.00  -0.02     0.02   0.00   0.01     0.03  -0.00   0.02
  78   1     0.00   0.02  -0.03    -0.01  -0.01   0.01    -0.01  -0.01   0.01
  79   1     0.00   0.03  -0.03    -0.01  -0.02   0.01    -0.00  -0.01   0.02
  80   1     0.01  -0.03  -0.07    -0.04  -0.02  -0.00    -0.04  -0.04  -0.03
  81   1     0.01  -0.02  -0.08    -0.07   0.01   0.04    -0.07  -0.01   0.01
  82   1    -0.01   0.03   0.04    -0.06   0.02   0.01    -0.08   0.02   0.03
  83   1    -0.01   0.04   0.08    -0.03   0.02  -0.04    -0.04   0.03  -0.01
  84   1     0.01   0.01  -0.00    -0.01   0.00   0.02     0.02   0.01  -0.01
  85   1     0.01  -0.05  -0.03    -0.02  -0.03   0.02     0.01   0.01  -0.02
                     25                     26                     27
                        a                      a                      a 
 Frequencies --   176.5098               198.8615               210.0292
 Red. masses --    11.0222                10.7943                10.8210
 Frc consts  --     0.0000                 0.0000                 0.0000
 IR Inten    --     1.3681                 1.3090                 0.6104
 Raman Activ --     0.0000                 0.0000                 0.0000
 Depolar     --     0.0000                 0.0000                 0.0000
 Atom AN      X      Y      Z        X      Y      Z        X      Y      Z
   1   8     0.13   0.03   0.00     0.01  -0.02   0.00     0.10   0.04   0.01
   2  15     0.02  -0.02   0.02    -0.01   0.01   0.06     0.01  -0.03  -0.00
   3   6     0.02   0.00  -0.03     0.23  -0.02  -0.06    -0.15   0.01   0.01
   4   6     0.02   0.01  -0.02     0.22  -0.05  -0.09    -0.15   0.03   0.05
   5   6     0.01   0.01   0.00     0.01  -0.01  -0.01    -0.01   0.00   0.00
   6   6    -0.01  -0.00   0.02    -0.15   0.05   0.11     0.09  -0.05  -0.07
   7   6    -0.00  -0.01   0.00     0.03   0.07   0.03    -0.03  -0.07  -0.02
   8   6     0.01  -0.00  -0.02     0.23   0.04  -0.06    -0.16  -0.04   0.02
   9   6    -0.06  -0.01  -0.02    -0.19   0.02  -0.02    -0.04  -0.05  -0.01
  10   6    -0.04  -0.01  -0.04    -0.16   0.03  -0.05    -0.02  -0.04  -0.04
  11   6     0.01  -0.01  -0.02    -0.01   0.01   0.02     0.01  -0.01  -0.03
  12   6     0.03  -0.00   0.02     0.09  -0.02   0.13     0.01   0.00  -0.00
  13   6    -0.01   0.01   0.03    -0.05   0.05   0.11    -0.01  -0.00   0.02
  14   6    -0.06  -0.00   0.01    -0.20   0.06   0.04    -0.04  -0.03   0.02
  15   6     0.00  -0.03   0.06    -0.01  -0.02   0.01     0.03   0.05   0.02
  16   6     0.05  -0.01   0.03     0.03  -0.13  -0.06     0.09   0.12   0.02
  17   6     0.06  -0.00  -0.04     0.03  -0.15  -0.14     0.09   0.11  -0.03
  18   6     0.00  -0.01  -0.09    -0.01  -0.08  -0.14     0.06   0.02  -0.08
  19   6     0.00  -0.02  -0.13    -0.01   0.01  -0.04     0.07  -0.07  -0.08
  20   6    -0.02  -0.01  -0.09     0.00   0.02   0.03     0.06  -0.04   0.13
  21   6    -0.04   0.02   0.13     0.06   0.05   0.05    -0.01  -0.07   0.14
  22   6    -0.06   0.04   0.14     0.13   0.03   0.09    -0.08  -0.10  -0.07
  23   6    -0.09   0.01  -0.10     0.11  -0.06  -0.03    -0.08  -0.08  -0.12
  24   6    -0.05  -0.00  -0.21     0.05  -0.09  -0.06    -0.01   0.02   0.11
  25   6    -0.02  -0.00  -0.15    -0.00  -0.01   0.06     0.05   0.00   0.18
  26   6     0.00   0.04  -0.06    -0.02   0.02   0.14     0.08  -0.01   0.12
  27   6     0.00   0.06   0.18    -0.01   0.11   0.07     0.08   0.10   0.08
  28   6    -0.02   0.02   0.22    -0.04   0.16  -0.02     0.06   0.14  -0.00
  29   6    -0.03  -0.03   0.23    -0.05   0.15  -0.09     0.06   0.15  -0.08
  30   6     0.00  -0.01   0.18    -0.01   0.09  -0.06     0.07   0.09  -0.04
  31   7     0.02   0.01  -0.10    -0.02  -0.04   0.02     0.05  -0.04   0.04
  32   6     0.03  -0.01  -0.16    -0.02  -0.04   0.03     0.03  -0.05   0.04
  33   6     0.03  -0.01  -0.18    -0.04  -0.04   0.05    -0.10  -0.08   0.04
  34   6     0.02   0.00  -0.02    -0.05  -0.03   0.03    -0.17   0.01   0.03
  35   6     0.01   0.02   0.16    -0.04  -0.03  -0.02    -0.14   0.06  -0.02
  36   7     0.02   0.01   0.06    -0.03  -0.03  -0.03    -0.03   0.08  -0.05
  37   6     0.03  -0.01  -0.14    -0.02  -0.03   0.01     0.04  -0.02   0.00
  38   6     0.02  -0.02  -0.16    -0.02  -0.02   0.02     0.04  -0.04   0.01
  39   6    -0.01  -0.02   0.00     0.03   0.01   0.00    -0.01  -0.09   0.02
  40   6    -0.03   0.00   0.12     0.08  -0.01  -0.00    -0.05  -0.08   0.01
  41   6    -0.02   0.01   0.01     0.08  -0.04   0.01    -0.05  -0.06  -0.00
  42   7    -0.00   0.01  -0.13     0.04  -0.08   0.03    -0.01  -0.03  -0.00
  43   6     0.02  -0.00  -0.14    -0.02  -0.04   0.02     0.03  -0.04   0.02
  44   6     0.03  -0.07   0.28     0.03   0.17  -0.11     0.12   0.17  -0.09
  45   6     0.01  -0.03   0.28     0.03   0.18  -0.05     0.12   0.18  -0.04
  46   6     0.02  -0.01  -0.16    -0.02   0.00   0.09     0.07  -0.10  -0.10
  47   6     0.03  -0.03  -0.22    -0.03  -0.06  -0.05    -0.01  -0.15  -0.11
  48   6     0.02   0.01  -0.06    -0.05  -0.06  -0.08    -0.12  -0.04   0.11
  49   6    -0.01   0.05   0.17    -0.08   0.02   0.06    -0.12   0.01   0.15
  50   6    -0.01   0.03   0.09    -0.05   0.05   0.10    -0.01  -0.03  -0.12
  51   6     0.01  -0.01  -0.11    -0.02   0.03   0.07     0.07  -0.08  -0.16
  52   6    -0.05   0.01  -0.05    -0.05  -0.12  -0.14     0.03   0.10  -0.03
  53   6    -0.05   0.00   0.03    -0.06  -0.10  -0.05     0.02   0.13   0.03
  54   1     0.01   0.01  -0.01     0.09  -0.03  -0.04    -0.06   0.02   0.02
  55   1     0.00   0.00   0.00    -0.02  -0.01  -0.00     0.01   0.01   0.00
  56   1    -0.01  -0.00   0.01    -0.11   0.02   0.07     0.07  -0.02  -0.04
  57   1    -0.00  -0.00   0.00    -0.01   0.03   0.02    -0.00  -0.03  -0.01
  58   1     0.00  -0.00  -0.01     0.09   0.02  -0.02    -0.06  -0.02   0.01
  59   1    -0.01  -0.01  -0.02    -0.06   0.01  -0.03    -0.01  -0.02  -0.02
  60   1     0.01  -0.00  -0.01     0.02  -0.00  -0.00     0.01  -0.00  -0.02
  61   1     0.02  -0.00   0.01     0.07  -0.02   0.06     0.01   0.01   0.00
  62   1    -0.00   0.01   0.02    -0.01   0.02   0.05    -0.00   0.01   0.01
  63   1    -0.03   0.00   0.01    -0.08   0.02   0.02    -0.02  -0.01   0.01
  64   1     0.03  -0.00   0.02     0.02  -0.04  -0.01     0.04   0.04   0.02
  65   1     0.03   0.01  -0.02     0.02  -0.05  -0.05     0.04   0.04  -0.01
  66   1    -0.01   0.00   0.08     0.02   0.03   0.01    -0.00  -0.03   0.06
  67   1    -0.02   0.02   0.09     0.05   0.02   0.04    -0.04  -0.04  -0.06
  68   1    -0.03   0.00  -0.04     0.04  -0.03  -0.02    -0.04  -0.03  -0.09
  69   1    -0.02  -0.00  -0.08     0.01  -0.05  -0.04    -0.00   0.02   0.03
  70   1    -0.01   0.02   0.05    -0.02   0.05  -0.01     0.01   0.04   0.00
  71   1    -0.01  -0.01   0.06    -0.02   0.05  -0.04     0.01   0.05  -0.04
  72   1     0.01  -0.01  -0.07    -0.01  -0.01   0.01    -0.04  -0.05   0.01
  73   1     0.01   0.00   0.00    -0.02  -0.01   0.01    -0.07   0.00   0.01
  74   1    -0.00   0.01   0.11    -0.01  -0.01  -0.02    -0.05   0.03  -0.02
  75   1    -0.00  -0.01   0.02     0.01   0.02  -0.00     0.00  -0.04   0.01
  76   1    -0.01   0.00   0.08     0.03   0.00  -0.00    -0.02  -0.03   0.01
  77   1    -0.01   0.00   0.01     0.03  -0.02   0.00    -0.02  -0.01  -0.01
  78   1     0.02  -0.02   0.08     0.02   0.05  -0.04     0.04   0.05  -0.03
  79   1     0.01  -0.01   0.08     0.02   0.06  -0.02     0.04   0.06  -0.02
  80   1     0.01  -0.02  -0.09    -0.00  -0.03  -0.04    -0.00  -0.07  -0.05
  81   1     0.01   0.01  -0.02    -0.02  -0.03  -0.06    -0.05  -0.00   0.08
  82   1    -0.01   0.03   0.11    -0.03   0.01   0.02    -0.06   0.03   0.10
  83   1    -0.01   0.01   0.06    -0.01   0.02   0.03    -0.00   0.01  -0.05
  84   1    -0.03   0.02  -0.02    -0.03  -0.03  -0.05    -0.00   0.04  -0.01
  85   1    -0.03   0.01   0.02    -0.03  -0.03  -0.01    -0.00   0.05   0.02
                     28                     29                     30
                        a                      a                      a 
 Frequencies --   210.4313               222.3061               232.5153
 Red. masses --    10.9964                11.5293                10.8516
 Frc consts  --     0.0000                 0.0000                 0.0000
 IR Inten    --     0.6438                 0.2783                 2.6669
 Raman Activ --     0.0000                 0.0000                 0.0000
 Depolar     --     0.0000                 0.0000                 0.0000
 Atom AN      X      Y      Z        X      Y      Z        X      Y      Z
   1   8    -0.14  -0.01   0.02     0.31   0.06   0.03     0.10   0.05  -0.01
   2  15    -0.05   0.03   0.01     0.08  -0.05   0.06    -0.01  -0.00  -0.02
   3   6     0.12  -0.01  -0.05    -0.05  -0.01   0.02    -0.03  -0.03  -0.23
   4   6     0.13  -0.02  -0.08    -0.06  -0.00   0.04     0.03  -0.03  -0.24
   5   6     0.01  -0.01  -0.01     0.00  -0.01  -0.00    -0.03  -0.08  -0.06
   6   6    -0.10   0.02   0.07     0.05  -0.02  -0.04    -0.15  -0.21   0.05
   7   6     0.01   0.02   0.00    -0.02  -0.02   0.01    -0.05  -0.25  -0.10
   8   6     0.13   0.01  -0.06    -0.07  -0.01   0.03    -0.00  -0.19  -0.26
   9   6    -0.10   0.05   0.00    -0.13  -0.08  -0.01     0.10   0.21   0.09
  10   6    -0.11   0.06   0.00    -0.11  -0.06  -0.07     0.00   0.18   0.24
  11   6    -0.03   0.02   0.05     0.01  -0.02  -0.04    -0.10   0.07   0.25
  12   6     0.04  -0.02   0.10     0.05  -0.00   0.06    -0.10   0.01   0.17
  13   6    -0.03   0.03   0.07    -0.05   0.02   0.09     0.01   0.04   0.05
  14   6    -0.11   0.07   0.02    -0.15  -0.02   0.05     0.11   0.17   0.05
  15   6    -0.01  -0.03  -0.06     0.06   0.01  -0.01     0.02  -0.02  -0.02
  16   6    -0.02  -0.11  -0.08     0.14   0.08  -0.04     0.02   0.06   0.00
  17   6    -0.02  -0.10  -0.04     0.14   0.13  -0.17     0.03   0.07   0.02
  18   6     0.02  -0.01   0.03     0.05   0.07  -0.24     0.03   0.03   0.01
  19   6     0.04   0.07   0.09     0.02   0.00  -0.08     0.03  -0.02  -0.01
  20   6     0.05   0.08   0.20     0.02   0.02   0.08     0.01   0.01   0.05
  21   6    -0.01   0.04   0.14    -0.03   0.01   0.13     0.02   0.01   0.05
  22   6    -0.10  -0.01  -0.16    -0.09  -0.01  -0.03     0.01  -0.02  -0.05
  23   6    -0.09   0.03  -0.13    -0.10  -0.01  -0.11     0.02  -0.02  -0.04
  24   6    -0.01   0.13   0.13    -0.03   0.05   0.05     0.02   0.01   0.07
  25   6     0.06   0.09   0.14     0.02   0.04   0.10     0.01   0.02   0.06
  26   6     0.09   0.00  -0.07    -0.03   0.00   0.07    -0.01  -0.01  -0.00
  27   6     0.08  -0.12  -0.10    -0.04  -0.12  -0.01    -0.03   0.01   0.02
  28   6     0.11  -0.18  -0.01    -0.06  -0.14  -0.02    -0.05   0.01  -0.00
  29   6     0.11  -0.18   0.05    -0.06  -0.13  -0.05    -0.06   0.01   0.00
  30   6     0.08  -0.11   0.01    -0.05  -0.09  -0.09    -0.07   0.02  -0.00
  31   7     0.08   0.03  -0.01    -0.05   0.02  -0.07    -0.07   0.00  -0.01
  32   6     0.05   0.03   0.01    -0.05   0.05   0.03    -0.06   0.01  -0.01
  33   6    -0.01   0.02   0.01     0.05   0.07   0.06     0.02   0.03  -0.01
  34   6    -0.06   0.07  -0.02     0.11   0.00  -0.00     0.07  -0.04   0.00
  35   6    -0.04   0.10  -0.03     0.09  -0.05  -0.07     0.05  -0.08   0.01
  36   7     0.02   0.12  -0.00     0.00  -0.06   0.02    -0.02  -0.10   0.02
  37   6     0.06   0.04   0.02    -0.05   0.03   0.08    -0.07  -0.01  -0.00
  38   6     0.07   0.02   0.03    -0.05   0.05   0.09    -0.08   0.01  -0.01
  39   6    -0.05  -0.10   0.01    -0.01   0.08  -0.01     0.00   0.09  -0.02
  40   6    -0.17  -0.06  -0.03     0.03   0.06  -0.09     0.08   0.07  -0.00
  41   6    -0.18   0.02  -0.02     0.02   0.05   0.01     0.08   0.02   0.01
  42   7    -0.08   0.12  -0.00    -0.01   0.03   0.08     0.01  -0.05   0.01
  43   6     0.06   0.05   0.01    -0.03   0.04   0.04    -0.06  -0.01  -0.01
  44   6     0.05  -0.17   0.05    -0.05  -0.13  -0.05    -0.05   0.03  -0.01
  45   6     0.06  -0.17  -0.02    -0.04  -0.15   0.00    -0.05   0.02   0.02
  46   6     0.05   0.01  -0.10    -0.04   0.04   0.13     0.01  -0.04  -0.09
  47   6     0.00   0.01  -0.07     0.02   0.04   0.07     0.04  -0.02  -0.06
  48   6    -0.06   0.07   0.07     0.10  -0.05  -0.12     0.04   0.00   0.06
  49   6    -0.05   0.09   0.03     0.08  -0.04  -0.03     0.04  -0.02   0.06
  50   6     0.01   0.07  -0.10     0.01   0.00   0.17     0.03  -0.06  -0.06
  51   6     0.05   0.05  -0.06    -0.03   0.01   0.11     0.02  -0.05  -0.09
  52   6     0.04  -0.09  -0.01    -0.02   0.14  -0.18     0.03   0.07   0.02
  53   6     0.03  -0.10  -0.06    -0.03   0.11  -0.05     0.03   0.03   0.00
  54   1     0.05  -0.01  -0.03    -0.03   0.00   0.02     0.03   0.01  -0.09
  55   1    -0.01  -0.01  -0.00     0.01  -0.00  -0.00     0.00  -0.00   0.01
  56   1    -0.07   0.01   0.05     0.04  -0.01  -0.03    -0.08  -0.07   0.07
  57   1    -0.00   0.01   0.01    -0.00  -0.01   0.00    -0.02  -0.09  -0.02
  58   1     0.05   0.00  -0.02    -0.03  -0.00   0.01    -0.01  -0.08  -0.11
  59   1    -0.04   0.02  -0.00    -0.04  -0.02  -0.04     0.00   0.08   0.11
  60   1     0.00   0.00   0.01     0.02  -0.00  -0.02    -0.05   0.01   0.09
  61   1     0.04  -0.02   0.05     0.05   0.00   0.03    -0.05  -0.02   0.05
  62   1    -0.00   0.01   0.02    -0.01   0.02   0.04     0.01  -0.01  -0.02
  63   1    -0.04   0.02   0.01    -0.06  -0.01   0.03     0.05   0.05  -0.01
  64   1    -0.01  -0.04  -0.03     0.06   0.03   0.00     0.01   0.02   0.00
  65   1    -0.02  -0.04  -0.01     0.07   0.06  -0.06     0.01   0.03   0.01
  66   1    -0.00  -0.00   0.05    -0.01  -0.01   0.06     0.01   0.01   0.02
  67   1    -0.04  -0.02  -0.11    -0.03  -0.01  -0.03     0.00  -0.01  -0.04
  68   1    -0.04  -0.00  -0.09    -0.04  -0.01  -0.08     0.00  -0.01  -0.03
  69   1     0.00   0.06   0.05    -0.01   0.03   0.02     0.01   0.00   0.03
  70   1     0.04  -0.06  -0.00    -0.02  -0.04   0.00    -0.02   0.01  -0.00
  71   1     0.04  -0.05   0.03    -0.02  -0.04  -0.02    -0.01   0.00   0.00
  72   1    -0.01  -0.01   0.01     0.02   0.05   0.03     0.01   0.03  -0.00
  73   1    -0.03   0.02  -0.01     0.04   0.00  -0.00     0.04  -0.01   0.00
  74   1    -0.02   0.04  -0.02     0.04  -0.03  -0.05     0.02  -0.03   0.01
  75   1    -0.01  -0.07   0.01    -0.00   0.03  -0.01    -0.00   0.05  -0.01
  76   1    -0.06  -0.03  -0.01     0.01   0.02  -0.06     0.03   0.03  -0.00
  77   1    -0.07   0.02  -0.01     0.01   0.01   0.01     0.04  -0.00   0.01
  78   1     0.01  -0.05   0.03    -0.01  -0.04  -0.02    -0.01   0.01  -0.01
  79   1     0.01  -0.06  -0.00    -0.01  -0.05   0.01    -0.02   0.00   0.01
  80   1     0.00  -0.01  -0.02     0.01   0.02   0.02     0.01   0.00  -0.02
  81   1    -0.03   0.03   0.05     0.04  -0.03  -0.09     0.01   0.01   0.04
  82   1    -0.02   0.03   0.03     0.03  -0.02  -0.03     0.01  -0.00   0.04
  83   1     0.01   0.03  -0.04    -0.00  -0.01   0.07     0.01  -0.02  -0.02
  84   1     0.02  -0.02   0.00    -0.03   0.06  -0.06     0.01   0.03   0.01
  85   1     0.02  -0.03  -0.03    -0.04   0.04   0.00     0.01   0.01  -0.00
                     31                     32                     33
                        a                      a                      a 
 Frequencies --   234.5788               257.6606               266.1828
[...]
  17   6    -0.00   0.00  -0.00     0.00  -0.00   0.00     0.00  -0.00   0.00
  18   6    -0.00   0.00  -0.00     0.00  -0.00  -0.00     0.00  -0.00   0.00
  19   6     0.00   0.00   0.00    -0.00   0.00  -0.00    -0.00  -0.00   0.00
  20   6    -0.00   0.00  -0.00     0.00   0.00  -0.00    -0.00  -0.00   0.00
  21   6     0.01  -0.00  -0.00     0.01  -0.00  -0.00    -0.22   0.02   0.02
  22   6    -0.00   0.00  -0.00     0.00  -0.00   0.00    -0.04   0.08  -0.02
  23   6     0.01   0.01  -0.00    -0.00  -0.00   0.00     0.00   0.00  -0.00
  24   6     0.02  -0.00  -0.00     0.00  -0.00  -0.00    -0.13   0.01   0.01
  25   6     0.00  -0.00   0.00     0.00  -0.00   0.00    -0.00   0.00  -0.00
  26   6     0.00  -0.00   0.00     0.00  -0.00   0.00    -0.00   0.00  -0.00
  27   6     0.01   0.00   0.00     0.00   0.00   0.00     0.00   0.00  -0.00
  28   6     0.01   0.02   0.02     0.00   0.00   0.00     0.00   0.00   0.00
  29   6     0.01  -0.01  -0.01     0.00  -0.00  -0.00     0.00  -0.00  -0.00
  30   6    -0.01   0.00   0.00    -0.00   0.00  -0.00    -0.00   0.00   0.00
  31   7     0.00  -0.00   0.00     0.00  -0.00   0.00    -0.00  -0.00   0.00
  32   6     0.00   0.00  -0.00     0.00   0.00   0.00     0.00   0.00   0.00
  33   6     0.01  -0.01   0.00     0.00  -0.00   0.00    -0.00   0.00   0.00
  34   6    -0.00   0.01  -0.00    -0.00   0.00  -0.00     0.00  -0.00   0.00
  35   6     0.00   0.00  -0.00     0.00   0.00  -0.00    -0.00  -0.00   0.00
  36   7    -0.00  -0.00   0.00    -0.00  -0.00  -0.00    -0.00  -0.00   0.00
  37   6     0.00  -0.00  -0.00     0.00   0.00  -0.00    -0.00   0.00  -0.00
  38   6     0.00  -0.00   0.00    -0.00  -0.00   0.00     0.00  -0.00   0.00
  39   6    -0.00  -0.00  -0.00    -0.00  -0.00  -0.00     0.00   0.00   0.00
  40   6     0.00  -0.00   0.00     0.00  -0.00   0.00    -0.00  -0.00   0.00
  41   6    -0.00   0.00  -0.00    -0.00  -0.00   0.00     0.00   0.00  -0.00
  42   7     0.00  -0.00   0.00    -0.00  -0.00   0.00    -0.00  -0.00   0.00
  43   6    -0.00   0.00  -0.00     0.00  -0.00  -0.00     0.00   0.00  -0.00
  44   6    -0.11  -0.14  -0.12    -0.00  -0.00  -0.00    -0.00  -0.00  -0.00
  45   6     0.09  -0.12  -0.09     0.00  -0.00  -0.00     0.01  -0.01  -0.01
  46   6     0.00   0.00  -0.00    -0.00   0.00  -0.00     0.00  -0.00   0.00
  47   6     0.01  -0.00   0.00     0.00  -0.00   0.00     0.02  -0.00   0.00
  48   6     0.00  -0.01   0.00     0.00  -0.00   0.00    -0.00   0.00  -0.00
  49   6    -0.00  -0.00   0.00    -0.00  -0.00   0.00     0.01   0.01  -0.00
  50   6    -0.00  -0.00  -0.00     0.00   0.00   0.00     0.04   0.00   0.01
  51   6    -0.00  -0.00   0.00     0.00  -0.00   0.00     0.00  -0.00   0.00
  52   6    -0.00  -0.00   0.00     0.00   0.00  -0.00     0.01   0.00  -0.01
  53   6     0.00  -0.00   0.00    -0.00   0.00  -0.00    -0.00   0.00  -0.00
  54   1    -0.00  -0.00  -0.00    -0.11  -0.02  -0.14    -0.00  -0.00  -0.00
  55   1     0.00  -0.00   0.00    -0.12   0.30  -0.18    -0.00   0.01  -0.00
  56   1    -0.00  -0.00  -0.00     0.13   0.41   0.14     0.00   0.01   0.00
  57   1    -0.00  -0.00  -0.00     0.17   0.02   0.22     0.00   0.00   0.00
  58   1    -0.00   0.00  -0.00     0.03  -0.07   0.04     0.00  -0.00   0.00
  59   1     0.00   0.00  -0.00    -0.03  -0.03   0.02     0.00   0.00  -0.00
  60   1     0.00   0.01   0.01    -0.09  -0.24  -0.14    -0.00  -0.00  -0.00
  61   1    -0.01   0.01   0.02     0.18  -0.11  -0.47     0.00  -0.00  -0.01
  62   1    -0.01  -0.01   0.01     0.21   0.18  -0.13     0.00   0.00  -0.00
  63   1    -0.00  -0.00  -0.00     0.03   0.07   0.04     0.00   0.00   0.00
  64   1    -0.00  -0.00   0.00     0.00   0.00  -0.00     0.00   0.00  -0.00
  65   1     0.00  -0.00   0.00    -0.01   0.00  -0.01    -0.00   0.00  -0.01
  66   1    -0.02   0.00   0.00    -0.02   0.00   0.00     0.77  -0.07  -0.06
  67   1     0.00  -0.01   0.00    -0.00   0.01  -0.00     0.14  -0.27   0.05
  68   1    -0.02  -0.02   0.01     0.00   0.00  -0.00    -0.01  -0.01   0.00
  69   1    -0.08   0.01   0.01    -0.01   0.00   0.00     0.45  -0.03  -0.04
  70   1    -0.05  -0.07  -0.06    -0.00  -0.00  -0.00    -0.00  -0.00  -0.00
  71   1    -0.03   0.04   0.03    -0.00   0.00   0.00    -0.00   0.00   0.00
  72   1    -0.05   0.02  -0.01    -0.00   0.00  -0.00     0.00  -0.00   0.00
  73   1     0.00  -0.04   0.01     0.00  -0.00   0.00    -0.00   0.00  -0.00
  74   1    -0.00  -0.00   0.00    -0.00  -0.00  -0.00     0.00   0.00  -0.00
  75   1     0.01   0.00   0.00     0.00   0.00   0.00    -0.00  -0.00  -0.00
  76   1    -0.01   0.01  -0.00    -0.00   0.00  -0.00    -0.00   0.00  -0.00
  77   1    -0.00  -0.00   0.00     0.00   0.00  -0.00    -0.00  -0.00   0.00
  78   1     0.37   0.47   0.41     0.01   0.01   0.01     0.01   0.01   0.01
  79   1    -0.29   0.42   0.32    -0.01   0.01   0.01    -0.03   0.04   0.03
  80   1    -0.04   0.00  -0.01    -0.00   0.00  -0.00    -0.06   0.00  -0.01
  81   1    -0.01   0.02  -0.01    -0.00   0.00  -0.00     0.00  -0.00   0.00
  82   1     0.01   0.01  -0.00     0.00   0.00  -0.00    -0.03  -0.04   0.01
  83   1     0.01  -0.00   0.00    -0.01  -0.00  -0.00    -0.13   0.00  -0.02
  84   1     0.00   0.00  -0.00    -0.01  -0.00   0.01    -0.02  -0.01   0.03
  85   1    -0.00   0.00  -0.00     0.00  -0.00   0.00     0.00  -0.00   0.00
                    244                    245                    246
                        a                      a                      a 
 Frequencies --  3096.3160              3098.7225              3099.9291
 Red. masses --     1.8347                 1.8690                 1.8841
 Frc consts  --     0.0000                 0.0000                 0.0000
 IR Inten    --   132.5574                86.8113                89.4943
 Raman Activ --     0.0000                 0.0000                 0.0000
 Depolar     --     0.0000                 0.0000                 0.0000
 Atom AN      X      Y      Z        X      Y      Z        X      Y      Z
   1   8     0.00  -0.00   0.00    -0.00  -0.00  -0.00    -0.00   0.00  -0.00
   2  15    -0.00   0.00  -0.00     0.00  -0.00   0.00     0.00  -0.00   0.00
   3   6     0.00  -0.00  -0.00    -0.00  -0.00   0.00    -0.00  -0.00   0.00
   4   6    -0.00  -0.00  -0.00    -0.00  -0.00  -0.00     0.00  -0.00   0.00
   5   6    -0.00   0.00  -0.00    -0.00   0.00  -0.00    -0.00   0.00  -0.00
   6   6    -0.00  -0.00  -0.00     0.00   0.00   0.00     0.00   0.00   0.00
   7   6    -0.00  -0.00  -0.00     0.00   0.00   0.00     0.00   0.00   0.00
   8   6    -0.00   0.00  -0.00    -0.00   0.00  -0.00     0.00  -0.00   0.00
   9   6     0.00  -0.00  -0.00    -0.00   0.00   0.00    -0.00   0.00   0.00
  10   6     0.00   0.00  -0.00     0.00   0.00  -0.00    -0.00  -0.00   0.00
  11   6     0.00   0.00   0.00     0.00   0.00   0.00    -0.00  -0.00  -0.00
  12   6    -0.00   0.00   0.00     0.00  -0.00  -0.00     0.00  -0.00  -0.00
  13   6    -0.00  -0.00   0.00     0.00   0.00  -0.00     0.00   0.00  -0.00
  14   6    -0.00  -0.00  -0.00     0.00   0.00   0.00     0.00   0.00   0.00
  15   6    -0.00   0.00  -0.00     0.00  -0.00  -0.00     0.00  -0.00   0.00
  16   6    -0.00  -0.00   0.00     0.00   0.00  -0.00     0.00   0.00  -0.00
  17   6     0.01  -0.00   0.01    -0.00   0.00  -0.00    -0.00   0.00  -0.00
  18   6     0.00   0.00  -0.00    -0.00   0.00  -0.00    -0.00  -0.00   0.00
  19   6    -0.00   0.00  -0.00     0.00   0.00  -0.00     0.00  -0.00   0.00
  20   6    -0.00  -0.00   0.00     0.00   0.00  -0.00     0.00   0.00  -0.00
  21   6    -0.03   0.00   0.00     0.08  -0.01  -0.01     0.01  -0.00  -0.00
  22   6    -0.01   0.01  -0.00     0.04  -0.06   0.01     0.00  -0.00   0.00
  23   6    -0.00  -0.00   0.00    -0.06  -0.07   0.03    -0.00  -0.00   0.00
  24   6    -0.03   0.00   0.00    -0.19   0.01   0.02    -0.01   0.00   0.00
  25   6    -0.00   0.00  -0.00    -0.00   0.00  -0.00    -0.00   0.00  -0.00
  26   6    -0.00  -0.00   0.00    -0.00   0.00  -0.00    -0.00  -0.00   0.00
  27   6     0.00  -0.00   0.00     0.00   0.00  -0.00     0.00  -0.00  -0.00
  28   6     0.01   0.01   0.01    -0.00  -0.00  -0.00     0.00   0.00   0.00
  29   6     0.00  -0.00  -0.00     0.00  -0.00  -0.00     0.00   0.00   0.00
  30   6     0.00  -0.00  -0.00    -0.00   0.00   0.00    -0.00   0.00  -0.00
  31   7    -0.00   0.00   0.00     0.00  -0.00   0.00     0.00   0.00  -0.00
  32   6     0.00  -0.00   0.00    -0.00  -0.00   0.00    -0.00  -0.01   0.00
  33   6    -0.00   0.00  -0.00    -0.00   0.00  -0.00    -0.09   0.04  -0.01
  34   6    -0.00   0.00  -0.00    -0.00   0.01  -0.00    -0.02   0.25  -0.04
  35   6     0.00   0.00  -0.00     0.00   0.00  -0.00     0.04   0.02  -0.00
  36   7    -0.00  -0.00   0.00     0.00  -0.00   0.00    -0.00  -0.00  -0.00
  37   6     0.00   0.00  -0.00     0.00  -0.00   0.00     0.00  -0.00   0.00
  38   6    -0.00  -0.00  -0.00     0.00   0.00   0.00    -0.00  -0.00   0.00
  39   6     0.00   0.00   0.00    -0.00  -0.00  -0.00    -0.01  -0.00  -0.00
  40   6     0.00  -0.00   0.00    -0.00   0.00  -0.00    -0.02   0.02  -0.00
  41   6    -0.00  -0.00   0.00     0.00   0.00  -0.00     0.00   0.00  -0.00
  42   7     0.00  -0.00   0.00     0.00  -0.00   0.00     0.00  -0.00   0.00
  43   6     0.00  -0.00  -0.00    -0.00   0.00  -0.00     0.00  -0.00   0.00
  44   6    -0.00  -0.00  -0.00    -0.00  -0.00  -0.00     0.00   0.00   0.00
  45   6     0.00  -0.00  -0.00     0.01  -0.01  -0.01    -0.00  -0.00  -0.00
  46   6    -0.00  -0.00   0.00     0.00   0.00  -0.00    -0.00  -0.00   0.00
  47   6    -0.14   0.00  -0.03     0.10  -0.00   0.02    -0.03   0.00  -0.01
  48   6    -0.01   0.02  -0.01     0.03  -0.05   0.02    -0.01   0.01  -0.01
  49   6    -0.04  -0.06   0.01    -0.02  -0.03   0.00     0.01   0.01  -0.00
  50   6    -0.21  -0.00  -0.04    -0.05  -0.00  -0.01     0.02   0.00   0.00
  51   6    -0.00   0.00  -0.00    -0.00   0.00  -0.00     0.00  -0.00   0.00
  52   6     0.00   0.00  -0.00    -0.00  -0.00   0.00    -0.00  -0.00   0.00
  53   6    -0.00   0.00  -0.00     0.00  -0.00   0.00     0.00  -0.00   0.00
  54   1     0.00   0.00   0.01     0.00   0.00   0.00    -0.00   0.00  -0.00
  55   1     0.00  -0.00   0.00     0.00  -0.00   0.00     0.00  -0.00   0.00
  56   1     0.00   0.00   0.00    -0.00  -0.00  -0.00    -0.00  -0.00  -0.00
  57   1     0.00   0.00   0.00    -0.00  -0.00  -0.00    -0.00  -0.00  -0.00
  58   1     0.00  -0.00   0.00     0.00  -0.00   0.00    -0.00   0.00  -0.00
  59   1    -0.00  -0.00   0.00    -0.00  -0.00   0.00     0.00   0.00  -0.00
  60   1    -0.00  -0.01  -0.00    -0.00  -0.00  -0.00     0.00   0.00   0.00
  61   1     0.00  -0.00  -0.01    -0.00   0.00   0.00    -0.00   0.00   0.00
  62   1     0.00   0.00  -0.00    -0.00  -0.00   0.00    -0.00  -0.00   0.00
  63   1     0.00   0.00   0.00    -0.00  -0.00  -0.00    -0.00  -0.00  -0.00
  64   1     0.00   0.00  -0.00    -0.00  -0.00   0.00    -0.00  -0.00   0.00
  65   1    -0.02   0.02  -0.04     0.00  -0.00   0.00     0.00  -0.00   0.00
  66   1     0.11  -0.01  -0.01    -0.28   0.03   0.02    -0.02   0.00   0.00
  67   1     0.02  -0.03   0.01    -0.11   0.21  -0.04    -0.01   0.01  -0.00
  68   1     0.00   0.01  -0.00     0.17   0.24  -0.09     0.01   0.02  -0.01
  69   1     0.10  -0.01  -0.01     0.68  -0.05  -0.06     0.04  -0.00  -0.00
  70   1    -0.03  -0.04  -0.03     0.00   0.01   0.00    -0.00  -0.00  -0.00
  71   1    -0.01   0.01   0.01    -0.00   0.01   0.00    -0.00   0.00   0.00
  72   1     0.00  -0.00   0.00     0.01  -0.00   0.00     0.30  -0.13   0.05
  73   1     0.00  -0.00   0.00     0.00  -0.02   0.00     0.08  -0.86   0.13
  74   1    -0.00  -0.00   0.00    -0.00  -0.00   0.00    -0.10  -0.07   0.00
  75   1    -0.00  -0.00  -0.00     0.00   0.00   0.00     0.03   0.01   0.00
  76   1    -0.00   0.00  -0.00     0.00  -0.00   0.00     0.05  -0.07   0.01
  77   1     0.00   0.00  -0.00    -0.00  -0.00   0.00    -0.00  -0.01   0.00
  78   1     0.00   0.00   0.00     0.01   0.01   0.01    -0.01  -0.01  -0.01
  79   1    -0.01   0.01   0.01    -0.02   0.03   0.02    -0.00   0.00   0.00
  80   1     0.50  -0.01   0.09    -0.35   0.01  -0.06     0.11  -0.00   0.02
  81   1     0.02  -0.05   0.02    -0.08   0.15  -0.06     0.03  -0.05   0.02
  82   1     0.13   0.19  -0.03     0.07   0.11  -0.02    -0.03  -0.04   0.01
  83   1     0.75  -0.00   0.13     0.17  -0.00   0.03    -0.07   0.00  -0.01
  84   1    -0.01  -0.00   0.01     0.00   0.00  -0.01     0.00   0.00  -0.00
  85   1     0.00  -0.00   0.00    -0.00   0.00  -0.00    -0.00   0.00  -0.00
                    247                    248                    249
                        a                      a                      a 
 Frequencies --  3100.2720              3102.9054              3109.8722
 Red. masses --     1.8776                 1.8879                 1.8601
 Frc consts  --     0.0000                 0.0000                 0.0000
 IR Inten    --     1.6022                96.3645                25.9926
 Raman Activ --     0.0000                 0.0000                 0.0000
 Depolar     --     0.0000                 0.0000                 0.0000
 Atom AN      X      Y      Z        X      Y      Z        X      Y      Z
   1   8     0.00  -0.00   0.00     0.00  -0.00   0.00     0.00  -0.00   0.00
   2  15    -0.00   0.00  -0.00    -0.00   0.00  -0.00    -0.00   0.00  -0.00
   3   6     0.00  -0.00  -0.00     0.00  -0.00  -0.00     0.00  -0.00  -0.00
   4   6    -0.00  -0.00  -0.00    -0.00  -0.00  -0.00    -0.00   0.00  -0.00
   5   6     0.00  -0.00   0.00     0.00  -0.00   0.00     0.00  -0.00   0.00
   6   6    -0.00  -0.00  -0.00    -0.00  -0.00  -0.00    -0.00  -0.00  -0.00
   7   6    -0.00  -0.00  -0.00    -0.00  -0.00  -0.00    -0.00  -0.00  -0.00
   8   6    -0.00   0.00  -0.00     0.00   0.00   0.00    -0.00   0.00   0.00
   9   6     0.00  -0.00  -0.00     0.00   0.00   0.00     0.00   0.00   0.00
  10   6     0.00   0.00  -0.00    -0.00  -0.00   0.00    -0.00  -0.00   0.00
  11   6     0.00   0.00   0.00     0.00   0.00   0.00     0.00   0.00   0.00
  12   6    -0.00   0.00   0.00    -0.00   0.00   0.00     0.00  -0.00  -0.00
  13   6    -0.00  -0.00   0.00    -0.00  -0.00   0.00     0.00   0.00  -0.00
  14   6    -0.00  -0.00  -0.00     0.00   0.00   0.00     0.00   0.00   0.00
  15   6    -0.00  -0.00  -0.00     0.00  -0.00  -0.00     0.00  -0.00   0.00
  16   6    -0.00  -0.00   0.00    -0.00  -0.00   0.00    -0.00  -0.00   0.00
  17   6     0.00  -0.00   0.01     0.00  -0.00   0.00     0.00  -0.00   0.00
  18   6     0.00   0.00  -0.00    -0.00   0.00  -0.00    -0.00   0.00   0.00
  19   6    -0.00   0.00  -0.00    -0.00   0.00  -0.00    -0.00   0.00  -0.00
  20   6    -0.00  -0.00   0.00    -0.00  -0.00   0.00    -0.00  -0.00   0.00
  21   6    -0.05   0.00   0.00    -0.00   0.00   0.00    -0.00   0.00   0.00
  22   6    -0.02   0.04  -0.01    -0.00   0.00  -0.00    -0.00   0.00  -0.00
  23   6     0.03   0.04  -0.01     0.00   0.00  -0.00     0.00   0.00  -0.00
  24   6     0.10  -0.01  -0.01     0.00  -0.00  -0.00     0.00  -0.00  -0.00
  25   6     0.00  -0.00   0.00     0.00  -0.00  -0.00     0.00  -0.00  -0.00
  26   6     0.00   0.00  -0.00     0.00   0.00  -0.00     0.00  -0.00  -0.00
  27   6    -0.00   0.00  -0.00    -0.00   0.00  -0.00    -0.00   0.00   0.00
  28   6    -0.01  -0.01  -0.01    -0.00  -0.00  -0.00    -0.04  -0.05  -0.04
  29   6    -0.01   0.01   0.01     0.00  -0.00  -0.00     0.13  -0.19  -0.13
  30   6     0.00   0.00   0.00    -0.00  -0.00   0.00     0.01  -0.00   0.00
  31   7    -0.00   0.00  -0.00     0.00  -0.00   0.00    -0.00  -0.00   0.00
  32   6    -0.00  -0.00   0.00    -0.00  -0.00   0.00    -0.00  -0.00  -0.00
  33   6    -0.02   0.01  -0.00    -0.01   0.01  -0.00    -0.00   0.00  -0.00
  34   6    -0.00   0.04  -0.01    -0.00   0.03  -0.00    -0.00   0.00  -0.00
  35   6     0.01   0.00  -0.00     0.00   0.00  -0.00     0.00   0.00  -0.00
  36   7    -0.00  -0.00  -0.00    -0.00   0.00  -0.00    -0.00  -0.00   0.00
  37   6     0.00  -0.00   0.00     0.00  -0.00   0.00     0.00   0.00   0.00
  38   6    -0.00  -0.00   0.00    -0.00   0.00  -0.00    -0.00  -0.00  -0.00
  39   6    -0.01  -0.00  -0.00     0.12   0.02   0.01    -0.00  -0.00  -0.00
  40   6    -0.01   0.01  -0.00     0.15  -0.20   0.03    -0.00   0.00  -0.00
  41   6     0.00   0.00  -0.00    -0.02  -0.04   0.00     0.00   0.00  -0.00
  42   7    -0.00   0.00  -0.00     0.00   0.00  -0.00     0.00  -0.00   0.00
  43   6     0.00  -0.00   0.00    -0.00   0.00  -0.00    -0.00   0.00  -0.00
  44   6     0.01   0.01   0.01     0.00   0.00   0.00     0.00   0.01   0.01
  45   6    -0.01   0.01   0.01    -0.00   0.00   0.00    -0.00   0.00   0.00
  46   6     0.00   0.00  -0.00     0.00   0.00   0.00     0.00   0.00   0.00
  47   6     0.17  -0.00   0.03     0.01  -0.00   0.00     0.00  -0.00   0.00
  48   6     0.05  -0.08   0.03     0.00  -0.00   0.00     0.00  -0.00   0.00
  49   6    -0.05  -0.07   0.01    -0.00  -0.00   0.00    -0.00  -0.00   0.00
  50   6    -0.10   0.00  -0.02    -0.00   0.00  -0.00    -0.00   0.00  -0.00
  51   6    -0.00   0.00  -0.00    -0.00   0.00  -0.00    -0.00   0.00  -0.00
  52   6     0.00   0.00  -0.00     0.00   0.00  -0.00     0.00   0.00  -0.00
  53   6    -0.00   0.00  -0.00    -0.00   0.00  -0.00    -0.00   0.00  -0.00
  54   1     0.00   0.00   0.00     0.00   0.00   0.00     0.00   0.00   0.00
  55   1    -0.00   0.00  -0.00    -0.00   0.00  -0.00    -0.00   0.00  -0.00
  56   1     0.00   0.00   0.00     0.00   0.00   0.00     0.00   0.00   0.00
  57   1     0.00   0.00   0.00     0.00   0.00   0.00     0.00   0.00   0.00
  58   1     0.00  -0.00   0.00     0.00  -0.00   0.00     0.00  -0.00   0.00
  59   1     0.00   0.00   0.00     0.00   0.00  -0.00     0.00   0.00  -0.00
  60   1    -0.00  -0.00  -0.00    -0.00  -0.00  -0.00    -0.00  -0.00  -0.00
  61   1     0.00  -0.00  -0.00     0.00  -0.00  -0.00    -0.00   0.00   0.00
  62   1     0.00   0.00  -0.00     0.00   0.00  -0.00    -0.00  -0.00   0.00
  63   1     0.00   0.00   0.00    -0.00  -0.00  -0.00    -0.00  -0.00  -0.00
  64   1     0.00   0.00  -0.00     0.00   0.00  -0.00     0.00   0.00  -0.00
  65   1    -0.01   0.01  -0.02    -0.00   0.00  -0.00    -0.00   0.00  -0.00
  66   1     0.18  -0.02  -0.01     0.01  -0.00  -0.00     0.01  -0.00  -0.00
  67   1     0.07  -0.13   0.02     0.00  -0.00   0.00     0.00  -0.01   0.00
  68   1    -0.09  -0.13   0.05    -0.00  -0.01   0.00    -0.00  -0.01   0.00
  69   1    -0.34   0.03   0.03    -0.01   0.00   0.00    -0.02   0.00   0.00
  70   1     0.03   0.03   0.03     0.01   0.01   0.01     0.12   0.16   0.13
  71   1     0.02  -0.03  -0.02    -0.00   0.00   0.00    -0.45   0.67   0.47
  72   1     0.05  -0.02   0.01     0.04  -0.02   0.01     0.00  -0.00   0.00
  73   1     0.01  -0.14   0.02     0.01  -0.09   0.01     0.00  -0.00   0.00
  74   1    -0.02  -0.01   0.00    -0.01  -0.01   0.00    -0.00  -0.00   0.00
  75   1     0.02   0.00   0.00    -0.37  -0.07  -0.02     0.00   0.00   0.00
  76   1     0.03  -0.04   0.01    -0.52   0.68  -0.10     0.01  -0.01   0.00
  77   1    -0.00  -0.00   0.00     0.05   0.10  -0.01    -0.00  -0.01   0.00
  78   1    -0.02  -0.03  -0.02    -0.00  -0.01  -0.01    -0.02  -0.02  -0.02
  79   1     0.03  -0.04  -0.03     0.00  -0.01  -0.01     0.01  -0.01  -0.01
  80   1    -0.60   0.01  -0.11    -0.02   0.00  -0.00    -0.01   0.00  -0.00
  81   1    -0.15   0.28  -0.11    -0.01   0.01  -0.00    -0.00   0.01  -0.00
  82   1     0.15   0.22  -0.03     0.01   0.01  -0.00     0.00   0.01  -0.00
  83   1     0.36  -0.00   0.06     0.01  -0.00   0.00     0.01  -0.00   0.00
  84   1    -0.01  -0.01   0.01    -0.00  -0.00   0.00    -0.00  -0.00   0.00
  85   1     0.00  -0.00   0.00     0.00  -0.00   0.00     0.00  -0.00   0.00
