70
 energy: -110.636959315265 gnorm: 0.000034436664 xtb: 6.7.1 (edcfbbe)
C           -2.69169445849881        4.83782889827280       -0.27639902525770
C           -2.71361969448287        4.20754631242752        0.95754003940003
C           -2.96544421144002        2.84943616135415        1.04124096189647
C           -3.19501371962327        2.12049126751292       -0.12144986119693
N           -3.45800797064907        0.73327350453022       -0.04111051463743
C           -2.51102497221591       -0.30381171344616        0.00878481531246
C           -1.11260623502116       -0.20568080639336       -0.03567480437196
C           -0.36312353997224       -1.41959033138365        0.07840985728029
C            0.99205975352325       -1.43204948873894        0.05511903299124
C            1.75940568332781       -0.23311287791568       -0.06534043521686
C            3.18057440797875       -0.23892023168376       -0.06033054807727
C            3.93200613897124       -1.42339238730102       -0.30499450015533
C            5.29524989291332       -1.42494982331711       -0.29768026907725
C            6.03103936498017       -0.24957027019193       -0.03091476922561
C            7.45909147957782       -0.28498514370357       -0.01911722724722
C            8.35679955696577        0.76602173845808        0.20664782778941
N            9.59666266745132        0.23856315345524        0.11662198152851
C           10.82404568869218        0.79908064435565        0.24583696226839
C           11.93478236020512        0.01957390192491        0.10328470124103
C           11.80915670604962       -1.35581198188203       -0.17469653177901
C           10.57174743992495       -1.92836903526593       -0.30629874836945
C            9.42956031793238       -1.12570335445788       -0.16135166377848
N            8.15466551539268       -1.43777807826683       -0.24341860453300
C            5.30147919405761        0.93260258484238        0.21884562434867
C            3.93723610335413        0.93899245786492        0.19667177165044
C            1.00465068073355        0.97184050658864       -0.19117457696698
C           -0.35408999926239        0.99079285873906       -0.18841880669874
N           -3.13128181452235       -1.49316507365101        0.10852284035665
C           -4.43873901703650       -1.24833490171336        0.11921450152156
C           -5.50243460681190       -2.19349346379132        0.21058508958249
C           -5.23832588031969       -3.56349452893319        0.29611898822535
C           -6.27065824010233       -4.46863997583112        0.38286684756254
C           -7.58257856067560       -4.00408091000395        0.38542637966745
C           -7.85411452770682       -2.65509610668349        0.30287813156860
C           -6.82901387450829       -1.70213655843075        0.21177550203251
C           -7.08329938568508       -0.27370533815005        0.12505423606732
C           -8.38436239021019        0.24040410996429        0.12704348434686
C           -8.64140938340426        1.59180785368914        0.05289806916601
C           -7.58695893379709        2.50050376691222       -0.02560636313222
C           -6.29520316064603        2.04224340063229       -0.03330497863782
C           -6.00554227427709        0.66438873258661        0.03681782877958
C           -4.69336807669191        0.14372968818919        0.02915959775987
C           -3.17530215024324        2.75163272590033       -1.36178131029262
C           -2.92302821032045        4.11018559211645       -1.43314376727075
H           -2.49474573881872        5.89740016460020       -0.33674643384222
H           -2.53474776197759        4.77322355877657        1.85941479599598
H           -2.98374209703536        2.34555701869034        1.99649393137534
H           -0.92474119699239       -2.33295492648942        0.19496959376988
H            1.50302371780567       -2.37440494167277        0.17486325596888
H            3.41343180600926       -2.33928954894481       -0.54123409995399
H            5.85183033947247       -2.32706147863927       -0.50111249724524
H            8.19181580407657        1.80308198650022        0.41439512328451
H           10.86033269007345        1.85647003807215        0.45980288344525
H           12.91157450671300        0.46323468847149        0.20506785215326
H           12.69919059772697       -1.95556362553849       -0.28289074450520
H           10.43732258408115       -2.97587630681069       -0.51864272747788
H            5.83357643532016        1.84626005406796        0.43901569276872
H            3.42134276620315        1.85927997023224        0.42290644487152
H            1.52658197173950        1.90470706210375       -0.33851417221752
H           -0.86037822026753        1.93265085967958       -0.31833321769535
H           -4.20651182845212       -3.87974245244614        0.29096893680264
H           -6.06821701768903       -5.52721206959308        0.44806848177657
H           -8.39993052059530       -4.70747098867845        0.45339099751261
H           -8.88689506535853       -2.34585049510371        0.30987210751860
H           -9.22525279478387       -0.43108389713937        0.18871385762348
H           -9.66124625499801        1.94664437262497        0.05690626017830
H           -7.78605293796406        3.56045488295688       -0.07981622792233
H           -5.48299661764874        2.74757202958994       -0.09258650794215
H           -3.35722924150415        2.17269286947171       -2.25546727183629
H           -2.90677054813305        4.59977936658599       -2.39517051487648
