      -----------------------------------------------------------      
     |                   =====================                   |     
     |                           x T B                           |     
     |                   =====================                   |     
     |                         S. Grimme                         |     
     |          Mulliken Center for Theoretical Chemistry        |     
     |                    University of Bonn                     |     
      -----------------------------------------------------------      

   * xtb version 6.7.1 (edcfbbe) compiled by 'albert@albert-system' on 2024-07-22

   xtb is free software: you can redistribute it and/or modify it under
   the terms of the GNU Lesser General Public License as published by
   the Free Software Foundation, either version 3 of the License, or
   (at your option) any later version.
   
   xtb is distributed in the hope that it will be useful,
   but WITHOUT ANY WARRANTY; without even the implied warranty of
   MERCHANTABILITY or FITNESS FOR A PARTICULAR PURPOSE.  See the
   GNU Lesser General Public License for more details.
   
   Cite this work as:
   * C. Bannwarth, E. Caldeweyher, S. Ehlert, A. Hansen, P. Pracht,
     J. Seibert, S. Spicher, S. Grimme, WIREs Comput. Mol. Sci., 2020, 11,
     e01493. DOI: 10.1002/wcms.1493
   
   for GFN2-xTB:
   * C. Bannwarth, S. Ehlert and S. Grimme., J. Chem. Theory Comput., 2019,
     15, 1652-1671. DOI: 10.1021/acs.jctc.8b01176
   for GFN1-xTB:
   * S. Grimme, C. Bannwarth, P. Shushkov, J. Chem. Theory Comput., 2017,
     13, 1989-2009. DOI: 10.1021/acs.jctc.7b00118
   for GFN0-xTB:
   * P. Pracht, E. Caldeweyher, S. Ehlert, S. Grimme, ChemRxiv, 2019, preprint.
     DOI: 10.26434/chemrxiv.8326202.v1
   for GFN-FF:
   * S. Spicher and S. Grimme, Angew. Chem. Int. Ed., 2020, 59, 15665-15673.
     DOI: 10.1002/anie.202004239
   
   for ALPB and GBSA implicit solvation:
   * S. Ehlert, M. Stahn, S. Spicher, S. Grimme, J. Chem. Theory Comput.,
     2021, 17, 4250-4261. DOI: 10.1021/acs.jctc.1c00471
   
   for ddCOSMO and CPCM-X implicit solvation:
   * M. Stahn, S. Ehlert, S. Grimme, J. Phys. Chem. A,
     2023, XX, XXXX-XXXX. DOI: 10.1021/acs.jpca.3c04382
   
   for DFT-D4:
   * E. Caldeweyher, C. Bannwarth and S. Grimme, J. Chem. Phys., 2017,
     147, 034112. DOI: 10.1063/1.4993215
   * E. Caldeweyher, S. Ehlert, A. Hansen, H. Neugebauer, S. Spicher,
     C. Bannwarth and S. Grimme, J. Chem. Phys., 2019, 150, 154122.
     DOI: 10.1063/1.5090222
   * E. Caldeweyher, J.-M. Mewes, S. Ehlert and S. Grimme, Phys. Chem. Chem. Phys.
     2020, 22, 8499-8512. DOI: 10.1039/D0CP00502A
   
   for sTDA-xTB:
   * S. Grimme and C. Bannwarth, J. Chem. Phys., 2016, 145, 054103.
     DOI: 10.1063/1.4959605
   
   in the mass-spec context:
   * V. Asgeirsson, C. Bauer and S. Grimme, Chem. Sci., 2017, 8, 4879.
     DOI: 10.1039/c7sc00601b
   * J. Koopman and S. Grimme, ACS Omega 2019, 4, 12, 15120-15133.
     DOI: 10.1021/acsomega.9b02011
   
   for metadynamics refer to:
   * S. Grimme, J. Chem. Theory Comput., 2019, 155, 2847-2862
     DOI: 10.1021/acs.jctc.9b00143
   
   for SPH calculations refer to:
   * S. Spicher and S. Grimme, J. Chem. Theory Comput., 2021, 17, 1701-1714
     DOI: 10.1021/acs.jctc.0c01306
   
   for ONIOM refer to:
   * C. Plett, A. Katbashev, S. Ehlert, S. Grimme, M. Bursch,
     Phys. Chem. Chem. Phys., 2023, 25, 17860-17868. DOI: 10.1039/D3CP02178E
   
   for DIPRO refer to:
   * J. Kohn, N. Gildemeister, S. Grimme, D. Fazzi, A. Hansen,
     J. Chem. Phys., 2023, just accepted.
   
   for PTB refer to:
   * S. Grimme, M. Mueller, A. Hansen, J. Chem. Phys., 2023, 158, 124111.
     DOI: 10.1063/5.0137838
   
   with help from (in alphabetical order)
   P. Atkinson, C. Bannwarth, F. Bohle, G. Brandenburg, E. Caldeweyher
   M. Checinski, S. Dohm, S. Ehlert, S. Ehrlich, I. Gerasimov, C. Hölzer
   A. Katbashev, J. Kohn, J. Koopman, C. Lavigne, S. Lehtola, F. März, M. Müller,
   F. Musil, H. Neugebauer, J. Pisarek, C. Plett, P. Pracht, F. Pultar,
   J. Seibert, P. Shushkov, S. Spicher, M. Stahn, M. Steiner, T. Strunk,
   J. Stückrath, T. Rose, and J. Unsleber
   
 * started run on 2025/07/16 at 13:47:34.464     
   ID    Z sym.   atoms
    1    6 C      1-4, 6-16, 18-22, 24-27, 29-44
    2    7 N      5, 17, 23, 28
    3    1 H      45-70

           -------------------------------------------------
          |                Calculation Setup                |
           -------------------------------------------------

          program call               : xtb data2507/toluene/IP-PPI/IP-PPI_toluene_S0_finalOpt.xtbopt.xyz --gfn 2 --uhf 2 --gbsa toluene --ohess vtight --parallel 40 --molden --ceasefiles --namespace data2507/toluene/IP-PPI/IP-PPI_toluene_T1_preOpt
          calculation namespace      : data2507/toluene/IP-PPI/IP-PPI_toluene_T1_preOpt
          coordinate file            : data2507/toluene/IP-PPI/IP-PPI_toluene_S0_finalOpt.xtbopt.xyz
          omp threads                :                    40


           -------------------------------------------------
          |                 G F N 2 - x T B                 |
           -------------------------------------------------

        Reference                      10.1021/acs.jctc.8b01176
      * Hamiltonian:
        H0-scaling (s, p, d)           1.850000    2.230000    2.230000
        zeta-weighting                 0.500000
      * Dispersion:
        s8                             2.700000
        a1                             0.520000
        a2                             5.000000
        s9                             5.000000
      * Repulsion:
        kExp                           1.500000    1.000000
        rExp                           1.000000
      * Coulomb:
        alpha                          2.000000
        third order                    shell-resolved
        anisotropic                    true
        a3                             3.000000
        a5                             4.000000
        cn-shift                       1.200000
        cn-exp                         4.000000
        max-rad                        5.000000

      * Solvation model:               GBSA
        Solvent                        toluene
        Parameter file                 internal GFN2-xTB/GBSA
        Dielectric constant                7.0000E+00
        Reference state                gsolv [1 M gas/solution]
        Free energy shift                  4.5239E-03 Eh       2.8388E+00 kcal/mol
        Temperature                        2.9815E+02 K
        Density                            8.6700E-01 kg/L
        Solvent mass                       9.2140E+01 g/mol
        Interaction kernel             Still
        Born radius scaling (c1)           1.5686E+00
        Born radii integrator          GBOBC
        Born offset                        0.0000E+00 a0       0.0000E+00 AA
        H-bond correction              false
        Ion screening                  false
        Surface tension                    1.0000E-05 Eh       1.5569E+01 dyn/cm
        Grid points                               230 per atom

          ...................................................
          :                      SETUP                      :
          :.................................................:
          :  # basis functions                 202          :
          :  # atomic orbitals                 202          :
          :  # shells                          114          :
          :  # electrons                       206          :
          :  max. iterations                   250          :
          :  Hamiltonian                  GFN2-xTB          :
          :  restarted?                      false          :
          :  GBSA solvation                   true          :
          :  PC potential                    false          :
          :  electronic temp.          300.0000000     K    :
          :  accuracy                    1.0000000          :
          :  -> integral cutoff          0.2500000E+02      :
          :  -> integral neglect         0.1000000E-07      :
          :  -> SCF convergence          0.1000000E-05 Eh   :
          :  -> wf. convergence          0.1000000E-03 e    :
          :  Broyden damping             0.4000000          :
          :  net charge                          0          :
          :  unpaired electrons                  2          :
          ...................................................

 iter      E             dE          RMSdq      gap      omega  full diag
   1   -112.5189924 -0.112519E+03  0.448E+00    0.34       0.0  T
   2   -112.5897977 -0.708052E-01  0.284E+00    0.20       1.0  T
   3   -112.4146741  0.175124E+00  0.193E+00    0.93       1.0  T
   4   -112.5360436 -0.121369E+00  0.108E+00    0.36       1.0  T
   5   -112.5842749 -0.482314E-01  0.851E-01    0.45       1.0  T
   6   -112.6620701 -0.777951E-01  0.363E-01    0.28       1.0  T
   7   -112.6721620 -0.100919E-01  0.137E-01    0.24       1.0  T
   8   -112.6719495  0.212502E-03  0.122E-01    0.28       1.0  T
   9   -112.6725040 -0.554485E-03  0.704E-02    0.25       1.0  T
  10   -112.6724527  0.512294E-04  0.674E-02    0.27       1.0  T
  11   -112.6730417 -0.588994E-03  0.158E-02    0.26       1.0  T
  12   -112.6730672 -0.254679E-04  0.387E-03    0.26       3.1  T
  13   -112.6730644  0.282626E-05  0.542E-03    0.26       2.2  T
  14   -112.6730672 -0.279148E-05  0.208E-03    0.26       5.8  T
  15   -112.6730676 -0.470764E-06  0.550E-04    0.26      21.7  T
  16   -112.6730676  0.516879E-07  0.811E-04    0.26      14.7  T

   *** convergence criteria satisfied after 16 iterations ***

         #    Occupation            Energy/Eh            Energy/eV
      -------------------------------------------------------------
         1        2.0000           -0.6938111             -18.8796
       ...           ...                  ...                  ...
        98        2.0000           -0.3874502             -10.5431
        99        2.0000           -0.3836428             -10.4395
       100        2.0000           -0.3810206             -10.3681
       101        1.9989           -0.3773838             -10.2691
       102        1.9815           -0.3746877             -10.1958
       103        1.0196           -0.3671996              -9.9920
       104        0.9935           -0.2683474              -7.3021 (HOMO)
       105        0.0063           -0.2587617              -7.0413 (LUMO)
       106        0.0002           -0.2556658              -6.9570
       107                         -0.2465254              -6.7083
       108                         -0.2399340              -6.5289
       109                         -0.2392771              -6.5111
       ...                                ...                  ...
       202                          0.7190591              19.5666
      -------------------------------------------------------------
                  HL-Gap            0.0095857 Eh            0.2608 eV
             Fermi-level           -0.3172438 Eh           -8.6326 eV
 
 transition dipole moment (au) for excitation:         103         104
     X       Y       Z   
  -3.1143   0.2728   0.0226  total (au/Debye):    3.126   7.946
 dE (eV)             :    2.690
 oscillator strength :  0.91088E+00

 SCC (total)                   0 d,  0 h,  0 min,  0.218 sec
 SCC setup                      ...        0 min,  0.008 sec (  3.554%)
 Dispersion                     ...        0 min,  0.003 sec (  1.262%)
 classical contributions        ...        0 min,  0.000 sec (  0.062%)
 integral evaluation            ...        0 min,  0.007 sec (  2.993%)
 iterations                     ...        0 min,  0.169 sec ( 77.792%)
 molecular gradient             ...        0 min,  0.010 sec (  4.501%)
 printout                       ...        0 min,  0.021 sec (  9.795%)

         :::::::::::::::::::::::::::::::::::::::::::::::::::::
         ::                     SUMMARY                     ::
         :::::::::::::::::::::::::::::::::::::::::::::::::::::
         :: total energy            -110.623706565183 Eh    ::
         :: total w/o Gsasa/hb      -110.579420222649 Eh    ::
         :: gradient norm              0.109494208315 Eh/a0 ::
         :: HOMO-LUMO gap              0.260841178412 eV    ::
         ::.................................................::
         :: SCC energy              -112.673774849320 Eh    ::
         :: -> isotropic ES            0.034529993122 Eh    ::
         :: -> anisotropic ES          0.011011080217 Eh    ::
         :: -> anisotropic XC          0.067928782992 Eh    ::
         :: -> dispersion             -0.096208241758 Eh    ::
         :: -> Gsolv                  -0.048838964148 Eh    ::
         ::    -> Gelec               -0.004552621614 Eh    ::
         ::    -> Gsasa               -0.048810222405 Eh    ::
         ::    -> Ghb                  0.000000000000 Eh    ::
         ::    -> Gshift               0.004523879872 Eh    ::
         :: repulsion energy           2.050068284137 Eh    ::
         :: add. restraining           0.000000000000 Eh    ::
         :: total charge              -0.000000000000 e     ::
         :::::::::::::::::::::::::::::::::::::::::::::::::::::

      ----------------------------------------------------------- 
     |                   =====================                   |
     |                        A N C O P T                        |
     |                   =====================                   |
     |               Approximate Normal Coordinate               |
     |                Rational Function Optimizer                |
      ----------------------------------------------------------- 

Optimization log is written to '/dev/null'
      ----------------------------------------------------------- 
     |                   =====================                   |
     |                        A N C O P T                        |
     |                   =====================                   |
     |               Approximate Normal Coordinate               |
     |                Rational Function Optimizer                |
      ----------------------------------------------------------- 

          ...................................................
          :                      SETUP                      :
          :.................................................:
          :   optimization level         verytight          :
          :   max. optcycles                  1400          :
          :   ANC micro-cycles                  20          :
          :   degrees of freedom               204          :
          :.................................................:
          :   RF solver                   davidson          :
          :   write xtbopt.log                true          :
          :   linear?                        false          :
          :   energy convergence         0.1000000E-06 Eh   :
          :   grad. convergence          0.2000000E-03 Eh/α :
          :   maxmium RF displ.          1.0000000          :
          :   Hlow (freq-cutoff)         0.1000000E-01      :
          :   Hmax (freq-cutoff)         5.0000000          :
          :   S6 in model hess.         20.0000000          :
          ...................................................

generating ANC from exact Hessian ...
Using Lindh-Hessian (1995)
 Shifting diagonal of input Hessian by   9.929769507094042E-003
 Lowest  eigenvalues of input Hessian
    0.000000    0.000000    0.000000    0.000000    0.000000    0.000000
    0.010000    0.010064    0.010231    0.010405    0.010672    0.010824
    0.011312    0.011362    0.011442    0.011968    0.012438    0.012795
 Highest eigenvalues
    2.129287    2.138183    2.164432    2.186154    2.237897    2.355554
 

........................................................................
.............................. CYCLE    1 ..............................
........................................................................

 iter      E             dE          RMSdq      gap      omega  full diag
   1   -112.6730677 -0.112673E+03  0.321E-04    0.26       0.0  T
   2   -112.6730673  0.393311E-06  0.170E-03    0.26       7.0  T
   3   -112.6730677 -0.405316E-06  0.962E-05    0.26     124.3  T
   4   -112.6730677 -0.334637E-09  0.653E-05    0.26     183.1  T
     SCC iter.                  ...        0 min,  0.033 sec
     gradient                   ...        0 min,  0.009 sec
 * total energy  :  -110.6237066 Eh     change       -0.7646793E-07 Eh
   gradient norm :     0.1094910 Eh/α   predicted     0.0000000E+00 (-100.00%)
   displ. norm   :     0.1824214 α      lambda       -0.8139557E-02
   maximum displ.:     0.0722484 α      in ANC's #12, #56, #13, ...

........................................................................
.............................. CYCLE    2 ..............................
........................................................................

 iter      E             dE          RMSdq      gap      omega  full diag
   1   -112.6587872 -0.112659E+03  0.997E-02    0.35       0.0  T
   2   -112.6587865  0.708340E-06  0.663E-02    0.33       1.0  T
   3   -112.6588228 -0.363568E-04  0.469E-02    0.35       1.0  T
   4   -112.6588171  0.574070E-05  0.313E-02    0.33       1.0  T
   5   -112.6588227 -0.560286E-05  0.286E-02    0.34       1.0  T
   6   -112.6589322 -0.109493E-03  0.344E-03    0.34       3.5  T
   7   -112.6589330 -0.813774E-06  0.138E-03    0.34       8.6  T
   8   -112.6589331 -0.811540E-07  0.557E-04    0.34      21.5  T
   9   -112.6589331 -0.825681E-08  0.213E-04    0.34      56.2  T
     SCC iter.                  ...        0 min,  0.070 sec
     gradient                   ...        0 min,  0.009 sec
 * total energy  :  -110.6297813 Eh     change       -0.6074644E-02 Eh
   gradient norm :     0.0589351 Eh/α   predicted    -0.4206206E-02 ( -30.76%)
   displ. norm   :     0.3136877 α      lambda       -0.5165421E-02
   maximum displ.:     0.1931971 α      in ANC's #12, #13, #15, ...

........................................................................
.............................. CYCLE    3 ..............................
........................................................................

 iter      E             dE          RMSdq      gap      omega  full diag
   1   -112.6558417 -0.112656E+03  0.118E-01    0.46       0.0  T
   2   -112.6557946  0.471901E-04  0.778E-02    0.44       1.0  T
   3   -112.6550498  0.744721E-03  0.906E-02    0.46       1.0  T
   4   -112.6553269 -0.277073E-03  0.758E-02    0.46       1.0  T
   5   -112.6559743 -0.647353E-03  0.847E-03    0.45       1.4  T
   6   -112.6559797 -0.546881E-05  0.255E-03    0.45       4.7  T
   7   -112.6559802 -0.491386E-06  0.107E-03    0.45      11.2  T
   8   -112.6559803 -0.360009E-07  0.490E-04    0.45      24.4  T
   9   -112.6559803 -0.752485E-08  0.167E-04    0.45      71.5  T
     SCC iter.                  ...        0 min,  0.069 sec
     gradient                   ...        0 min,  0.009 sec
 * total energy  :  -110.6327973 Eh     change       -0.3016051E-02 Eh
   gradient norm :     0.0130452 Eh/α   predicted    -0.2836854E-02 (  -5.94%)
   displ. norm   :     0.2553718 α      lambda       -0.9088444E-03
   maximum displ.:     0.1796696 α      in ANC's #12, #13, #8, ...

........................................................................
.............................. CYCLE    4 ..............................
........................................................................

 iter      E             dE          RMSdq      gap      omega  full diag
   1   -112.6591391 -0.112659E+03  0.807E-02    0.49       0.0  T
   2   -112.6591301  0.900140E-05  0.497E-02    0.48       1.0  T
   3   -112.6586819  0.448197E-03  0.616E-02    0.50       1.0  T
   4   -112.6590737 -0.391770E-03  0.265E-02    0.49       1.0  T
   5   -112.6591535 -0.797945E-04  0.264E-03    0.49       4.5  T
   6   -112.6591541 -0.552235E-06  0.809E-04    0.49      14.8  T
   7   -112.6591541 -0.233841E-07  0.439E-04    0.49      27.2  T
     SCC iter.                  ...        0 min,  0.054 sec
     gradient                   ...        0 min,  0.009 sec
 * total energy  :  -110.6335474 Eh     change       -0.7500175E-03 Eh
   gradient norm :     0.0141281 Eh/α   predicted    -0.4840735E-03 ( -35.46%)
   displ. norm   :     0.4738122 α      lambda       -0.1361922E-02
   maximum displ.:     0.3244885 α      in ANC's #12, #13, #8, ...

........................................................................
.............................. CYCLE    5 ..............................
........................................................................

 iter      E             dE          RMSdq      gap      omega  full diag
   1   -112.6642461 -0.112664E+03  0.147E-01    0.54       0.0  T
   2   -112.6642360  0.100272E-04  0.886E-02    0.53       1.0  T
   3   -112.6633956  0.840471E-03  0.849E-02    0.55       1.0  T
   4   -112.6641632 -0.767682E-03  0.309E-02    0.54       1.0  T
   5   -112.6642723 -0.109079E-03  0.368E-03    0.53       3.2  T
   6   -112.6642734 -0.103275E-05  0.122E-03    0.53       9.8  T
   7   -112.6642734 -0.316724E-07  0.679E-04    0.53      17.6  T
   8   -112.6642734 -0.117387E-07  0.227E-04    0.53      52.6  T
     SCC iter.                  ...        0 min,  0.061 sec
     gradient                   ...        0 min,  0.009 sec
 * total energy  :  -110.6345563 Eh     change       -0.1008968E-02 Eh
   gradient norm :     0.0136001 Eh/α   predicted    -0.8338435E-03 ( -17.36%)
   displ. norm   :     0.3937547 α      lambda       -0.7549216E-03
   maximum displ.:     0.2609840 α      in ANC's #12, #13, #9, ...

........................................................................
.............................. CYCLE    6 ..............................
........................................................................

 iter      E             dE          RMSdq      gap      omega  full diag
   1   -112.6668151 -0.112667E+03  0.117E-01    0.55       0.0  T
   2   -112.6668122  0.289579E-05  0.699E-02    0.55       1.0  T
   3   -112.6664632  0.349073E-03  0.548E-02    0.56       1.0  T
   4   -112.6667925 -0.329353E-03  0.170E-02    0.55       1.0  T
   5   -112.6668255 -0.329985E-04  0.242E-03    0.55       4.9  T
   6   -112.6668260 -0.442360E-06  0.839E-04    0.55      14.2  T
   7   -112.6668260 -0.121990E-07  0.456E-04    0.55      26.2  T
     SCC iter.                  ...        0 min,  0.053 sec
     gradient                   ...        0 min,  0.009 sec
 * total energy  :  -110.6351111 Eh     change       -0.5547423E-03 Eh
   gradient norm :     0.0104408 Eh/α   predicted    -0.4359843E-03 ( -21.41%)
   displ. norm   :     0.3467868 α      lambda       -0.4822414E-03
   maximum displ.:     0.2170840 α      in ANC's #12, #13, #6, ...

........................................................................
.............................. CYCLE    7 ..............................
........................................................................

 iter      E             dE          RMSdq      gap      omega  full diag
   1   -112.6679971 -0.112668E+03  0.967E-02    0.56       0.0  T
   2   -112.6679972 -0.562734E-07  0.572E-02    0.55       1.0  T
   3   -112.6678910  0.106155E-03  0.302E-02    0.56       1.0  T
   4   -112.6679919 -0.100860E-03  0.888E-03    0.56       1.3  T
   5   -112.6680008 -0.896721E-05  0.163E-03    0.56       7.4  T
   6   -112.6680010 -0.190632E-06  0.623E-04    0.56      19.2  T
   7   -112.6680010 -0.537921E-08  0.319E-04    0.56      37.5  T
     SCC iter.                  ...        0 min,  0.053 sec
     gradient                   ...        0 min,  0.009 sec
 * total energy  :  -110.6354708 Eh     change       -0.3597273E-03 Eh
   gradient norm :     0.0071383 Eh/α   predicted    -0.2701186E-03 ( -24.91%)
   displ. norm   :     0.3630797 α      lambda       -0.3360418E-03
   maximum displ.:     0.2132949 α      in ANC's #12, #13, #6, ...

........................................................................
.............................. CYCLE    8 ..............................
........................................................................

 iter      E             dE          RMSdq      gap      omega  full diag
   1   -112.6672110 -0.112667E+03  0.957E-02    0.56       0.0  T
   2   -112.6672111 -0.634491E-07  0.566E-02    0.56       1.0  T
   3   -112.6671369  0.742086E-04  0.250E-02    0.57       1.0  T
   4   -112.6672094 -0.725692E-04  0.620E-03    0.56       1.9  T
   5   -112.6672136 -0.414763E-05  0.125E-03    0.56       9.6  T
   6   -112.6672137 -0.905655E-07  0.567E-04    0.56      21.1  T
   7   -112.6672137 -0.327891E-08  0.268E-04    0.56      44.7  T
     SCC iter.                  ...        0 min,  0.054 sec
     gradient                   ...        0 min,  0.009 sec
 * total energy  :  -110.6357166 Eh     change       -0.2457922E-03 Eh
   gradient norm :     0.0055204 Eh/α   predicted    -0.1901721E-03 ( -22.63%)
   displ. norm   :     0.3062435 α      lambda       -0.2109218E-03
   maximum displ.:     0.1585341 α      in ANC's #12, #13, #6, ...

........................................................................
.............................. CYCLE    9 ..............................
........................................................................

 iter      E             dE          RMSdq      gap      omega  full diag
   1   -112.6668708 -0.112667E+03  0.739E-02    0.56       0.0  T
   2   -112.6668715 -0.682805E-06  0.435E-02    0.56       1.0  T
   3   -112.6668592  0.122168E-04  0.106E-02    0.57       1.1  T
   4   -112.6668697 -0.104614E-04  0.465E-03    0.56       2.6  T
   5   -112.6668721 -0.242382E-05  0.999E-04    0.56      12.0  T
   6   -112.6668722 -0.528335E-07  0.459E-04    0.56      26.0  T
   7   -112.6668722 -0.290105E-08  0.204E-04    0.56      58.5  T
     SCC iter.                  ...        0 min,  0.053 sec
     gradient                   ...        0 min,  0.009 sec
 * total energy  :  -110.6358669 Eh     change       -0.1502862E-03 Eh
   gradient norm :     0.0046228 Eh/α   predicted    -0.1153682E-03 ( -23.23%)
   displ. norm   :     0.2297611 α      lambda       -0.1234931E-03
   maximum displ.:     0.1090623 α      in ANC's #6, #12, #13, ...

........................................................................
.............................. CYCLE   10 ..............................
........................................................................

 iter      E             dE          RMSdq      gap      omega  full diag
   1   -112.6668615 -0.112667E+03  0.512E-02    0.57       0.0  T
   2   -112.6668621 -0.634178E-06  0.302E-02    0.57       1.0  T
   3   -112.6668560  0.615069E-05  0.817E-03    0.57       1.5  T
   4   -112.6668612 -0.527668E-05  0.356E-03    0.57       3.4  T
   5   -112.6668626 -0.130297E-05  0.112E-03    0.57      10.6  T
   6   -112.6668627 -0.105265E-06  0.436E-04    0.57      27.4  T
   7   -112.6668627 -0.674024E-08  0.183E-04    0.57      65.2  T
     SCC iter.                  ...        0 min,  0.053 sec
     gradient                   ...        0 min,  0.009 sec
 * total energy  :  -110.6359584 Eh     change       -0.9151387E-04 Eh
   gradient norm :     0.0035017 Eh/α   predicted    -0.6501072E-04 ( -28.96%)
   displ. norm   :     0.2048154 α      lambda       -0.9224631E-04
   maximum displ.:     0.1046337 α      in ANC's #6, #10, #12, ...

........................................................................
.............................. CYCLE   11 ..............................
........................................................................

 iter      E             dE          RMSdq      gap      omega  full diag
   1   -112.6668241 -0.112667E+03  0.440E-02    0.57       0.0  T
   2   -112.6668247 -0.609924E-06  0.259E-02    0.57       1.0  T
   3   -112.6668209  0.379352E-05  0.722E-03    0.57       1.7  T
   4   -112.6668251 -0.418964E-05  0.117E-03    0.57      10.2  T
   5   -112.6668251 -0.630678E-07  0.613E-04    0.57      19.5  T
   6   -112.6668251  0.152232E-07  0.598E-04    0.57      20.0  T
     SCC iter.                  ...        0 min,  0.050 sec
     gradient                   ...        0 min,  0.009 sec
 * total energy  :  -110.6360260 Eh     change       -0.6762684E-04 Eh
   gradient norm :     0.0027951 Eh/α   predicted    -0.4806113E-04 ( -28.93%)
   displ. norm   :     0.1801632 α      lambda       -0.6920125E-04
   maximum displ.:     0.0933500 α      in ANC's #6, #10, #2, ...

........................................................................
.............................. CYCLE   12 ..............................
........................................................................

 iter      E             dE          RMSdq      gap      omega  full diag
   1   -112.6670182 -0.112667E+03  0.381E-02    0.58       0.0  T
   2   -112.6670185 -0.329660E-06  0.224E-02    0.58       1.0  T
   3   -112.6670099  0.860279E-05  0.965E-03    0.58       1.2  T
   4   -112.6670174 -0.751798E-05  0.366E-03    0.58       3.3  T
   5   -112.6670190 -0.158145E-05  0.806E-04    0.58      14.8  T
   6   -112.6670190 -0.407345E-07  0.353E-04    0.58      33.8  T
   7   -112.6670191 -0.388069E-08  0.133E-04    0.58      89.8  T
     SCC iter.                  ...        0 min,  0.055 sec
     gradient                   ...        0 min,  0.009 sec
 * total energy  :  -110.6360784 Eh     change       -0.5238533E-04 Eh
   gradient norm :     0.0027590 Eh/α   predicted    -0.3573048E-04 ( -31.79%)
   displ. norm   :     0.2102708 α      lambda       -0.7016236E-04
   maximum displ.:     0.1049115 α      in ANC's #6, #10, #8, ...

........................................................................
.............................. CYCLE   13 ..............................
........................................................................

 iter      E             dE          RMSdq      gap      omega  full diag
   1   -112.6665072 -0.112667E+03  0.462E-02    0.58       0.0  T
   2   -112.6665075 -0.267856E-06  0.272E-02    0.58       1.0  T
   3   -112.6664957  0.117655E-04  0.109E-02    0.59       1.1  T
   4   -112.6665064 -0.106861E-04  0.383E-03    0.58       3.1  T
   5   -112.6665081 -0.171497E-05  0.726E-04    0.58      16.5  T
   6   -112.6665081 -0.267224E-07  0.362E-04    0.58      33.0  T
   7   -112.6665081 -0.445270E-08  0.128E-04    0.58      93.1  T
     SCC iter.                  ...        0 min,  0.056 sec
     gradient                   ...        0 min,  0.009 sec
 * total energy  :  -110.6361324 Eh     change       -0.5399423E-04 Eh
   gradient norm :     0.0030666 Eh/α   predicted    -0.3663308E-04 ( -32.15%)
   displ. norm   :     0.2509157 α      lambda       -0.8077624E-04
   maximum displ.:     0.1194268 α      in ANC's #6, #2, #8, ...

........................................................................
.............................. CYCLE   14 ..............................
........................................................................

 iter      E             dE          RMSdq      gap      omega  full diag
   1   -112.6667629 -0.112667E+03  0.565E-02    0.59       0.0  T
   2   -112.6667631 -0.208318E-06  0.333E-02    0.59       1.0  T
   3   -112.6667425  0.205567E-04  0.139E-02    0.59       1.0  T
   4   -112.6667618 -0.192332E-04  0.439E-03    0.59       2.7  T
   5   -112.6667640 -0.219898E-05  0.708E-04    0.59      16.9  T
   6   -112.6667640 -0.170572E-07  0.401E-04    0.59      29.8  T
   7   -112.6667640 -0.604923E-08  0.148E-04    0.59      80.8  T
     SCC iter.                  ...        0 min,  0.056 sec
     gradient                   ...        0 min,  0.009 sec
 * total energy  :  -110.6361928 Eh     change       -0.6036831E-04 Eh
   gradient norm :     0.0035191 Eh/α   predicted    -0.4293223E-04 ( -28.88%)
   displ. norm   :     0.2824032 α      lambda       -0.8529629E-04
   maximum displ.:     0.1305461 α      in ANC's #8, #6, #2, ...

........................................................................
.............................. CYCLE   15 ..............................
........................................................................

 iter      E             dE          RMSdq      gap      omega  full diag
   1   -112.6661821 -0.112666E+03  0.650E-02    0.59       0.0  T
   2   -112.6661825 -0.440717E-06  0.383E-02    0.59       1.0  T
   3   -112.6661722  0.103011E-04  0.102E-02    0.59       1.2  T
   4   -112.6661816 -0.936169E-05  0.378E-03    0.59       3.2  T
   5   -112.6661832 -0.160968E-05  0.781E-04    0.59      15.3  T
   6   -112.6661832 -0.261011E-07  0.425E-04    0.59      28.1  T
   7   -112.6661832 -0.680382E-08  0.165E-04    0.59      72.3  T
     SCC iter.                  ...        0 min,  0.056 sec
     gradient                   ...        0 min,  0.009 sec
 * total energy  :  -110.6362556 Eh     change       -0.6288069E-04 Eh
   gradient norm :     0.0039808 Eh/α   predicted    -0.4605094E-04 ( -26.76%)
   displ. norm   :     0.2710301 α      lambda       -0.8117357E-04
   maximum displ.:     0.1261208 α      in ANC's #8, #2, #6, ...

........................................................................
.............................. CYCLE   16 ..............................
........................................................................

 iter      E             dE          RMSdq      gap      omega  full diag
   1   -112.6673224 -0.112667E+03  0.631E-02    0.59       0.0  T
   2   -112.6673228 -0.346731E-06  0.371E-02    0.59       1.0  T
   3   -112.6673135  0.933954E-05  0.920E-03    0.59       1.3  T
   4   -112.6673220 -0.858610E-05  0.334E-03    0.59       3.6  T
   5   -112.6673233 -0.121435E-05  0.609E-04    0.59      19.6  T
   6   -112.6673233 -0.756802E-08  0.328E-04    0.59      36.4  T
   7   -112.6673233 -0.241762E-08  0.135E-04    0.59      88.3  T
     SCC iter.                  ...        0 min,  0.056 sec
     gradient                   ...        0 min,  0.009 sec
 * total energy  :  -110.6363115 Eh     change       -0.5590649E-04 Eh
   gradient norm :     0.0034481 Eh/α   predicted    -0.4356947E-04 ( -22.07%)
   displ. norm   :     0.2224051 α      lambda       -0.5174463E-04
   maximum displ.:     0.1223412 α      in ANC's #8, #2, #6, ...

........................................................................
.............................. CYCLE   17 ..............................
........................................................................

 iter      E             dE          RMSdq      gap      omega  full diag
   1   -112.6673979 -0.112667E+03  0.510E-02    0.59       0.0  T
   2   -112.6673981 -0.275468E-06  0.300E-02    0.59       1.0  T
   3   -112.6673931  0.501609E-05  0.697E-03    0.59       1.7  T
   4   -112.6673978 -0.465917E-05  0.254E-03    0.59       4.7  T
   5   -112.6673985 -0.687590E-06  0.784E-04    0.59      15.2  T
   6   -112.6673985 -0.466883E-07  0.283E-04    0.59      42.2  T
     SCC iter.                  ...        0 min,  0.048 sec
     gradient                   ...        0 min,  0.009 sec
 * total energy  :  -110.6363480 Eh     change       -0.3640705E-04 Eh
   gradient norm :     0.0023433 Eh/α   predicted    -0.2715228E-04 ( -25.42%)
   displ. norm   :     0.1556267 α      lambda       -0.4008099E-04
   maximum displ.:     0.0889055 α      in ANC's #8, #2, #6, ...

........................................................................
.............................. CYCLE   18 ..............................
........................................................................

 iter      E             dE          RMSdq      gap      omega  full diag
   1   -112.6685174 -0.112669E+03  0.341E-02    0.59       0.0  T
   2   -112.6685176 -0.202954E-06  0.200E-02    0.59       1.0  T
   3   -112.6685151  0.247615E-05  0.517E-03    0.59       2.3  T
   4   -112.6685172 -0.201936E-05  0.236E-03    0.59       5.1  T
   5   -112.6685178 -0.612420E-06  0.592E-04    0.59      20.2  T
   6   -112.6685178 -0.271990E-07  0.234E-04    0.59      51.1  T
     SCC iter.                  ...        0 min,  0.048 sec
     gradient                   ...        0 min,  0.009 sec
 * total energy  :  -110.6363770 Eh     change       -0.2904524E-04 Eh
   gradient norm :     0.0019859 Eh/α   predicted    -0.2052867E-04 ( -29.32%)
   displ. norm   :     0.3181311 α      lambda       -0.4629818E-04
   maximum displ.:     0.1983049 α      in ANC's #8, #2, #3, ...

........................................................................
.............................. CYCLE   19 ..............................
........................................................................

 iter      E             dE          RMSdq      gap      omega  full diag
   1   -112.6677673 -0.112668E+03  0.702E-02    0.59       0.0  T
   2   -112.6677680 -0.658226E-06  0.415E-02    0.59       1.0  T
   3   -112.6677534  0.145989E-04  0.116E-02    0.59       1.0  T
   4   -112.6677663 -0.128960E-04  0.481E-03    0.59       2.5  T
   5   -112.6677688 -0.254384E-05  0.112E-03    0.59      10.7  T
   6   -112.6677689 -0.927666E-07  0.439E-04    0.59      27.2  T
   7   -112.6677689 -0.319473E-08  0.219E-04    0.59      54.7  T
     SCC iter.                  ...        0 min,  0.056 sec
     gradient                   ...        0 min,  0.009 sec
 * total energy  :  -110.6364184 Eh     change       -0.4143578E-04 Eh
   gradient norm :     0.0040118 Eh/α   predicted    -0.2419261E-04 ( -41.61%)
   displ. norm   :     0.1736280 α      lambda       -0.4250932E-04
   maximum displ.:     0.1050689 α      in ANC's #8, #2, #3, ...

........................................................................
.............................. CYCLE   20 ..............................
........................................................................

 iter      E             dE          RMSdq      gap      omega  full diag
   1   -112.6675903 -0.112668E+03  0.369E-02    0.59       0.0  T
   2   -112.6675903 -0.575481E-07  0.217E-02    0.59       1.0  T
   3   -112.6675838  0.656751E-05  0.765E-03    0.59       1.6  T
   4   -112.6675903 -0.652989E-05  0.162E-03    0.59       7.4  T
   5   -112.6675906 -0.269505E-06  0.356E-04    0.59      33.6  T
   6   -112.6675906 -0.144313E-08  0.216E-04    0.59      55.4  T
     SCC iter.                  ...        0 min,  0.047 sec
     gradient                   ...        0 min,  0.009 sec
 * total energy  :  -110.6364520 Eh     change       -0.3358163E-04 Eh
   gradient norm :     0.0039203 Eh/α   predicted    -0.2189597E-04 ( -34.80%)
   displ. norm   :     0.2671860 α      lambda       -0.6725835E-04
   maximum displ.:     0.1665564 α      in ANC's #8, #2, #3, ...
 * RMSD in coord.:     0.4772466 α      energy gain  -0.1274545E-01 Eh

generating ANC from exact Hessian ...
Using Lindh-Hessian (1995)
 Shifting diagonal of input Hessian by   9.931983115058473E-003
 Lowest  eigenvalues of input Hessian
    0.000000    0.000000    0.000000    0.000000    0.000000    0.000000
    0.010000    0.010095    0.010227    0.010385    0.010585    0.010852
    0.011232    0.011308    0.011441    0.011838    0.012193    0.012399
 Highest eigenvalues
    2.119946    2.146225    2.166920    2.188484    2.203329    2.352557
 

........................................................................
.............................. CYCLE   21 ..............................
........................................................................

 iter      E             dE          RMSdq      gap      omega  full diag
   1   -112.6668657 -0.112667E+03  0.565E-02    0.59       0.0  T
   2   -112.6668658 -0.179656E-06  0.332E-02    0.59       1.0  T
   3   -112.6668488  0.170399E-04  0.125E-02    0.59       1.0  T
   4   -112.6668651 -0.162858E-04  0.359E-03    0.59       3.3  T
   5   -112.6668665 -0.143479E-05  0.618E-04    0.59      19.4  T
   6   -112.6668665 -0.118251E-07  0.372E-04    0.59      32.2  T
   7   -112.6668665 -0.487030E-08  0.138E-04    0.59      86.8  T
     SCC iter.                  ...        0 min,  0.055 sec
     gradient                   ...        0 min,  0.009 sec
 * total energy  :  -110.6365023 Eh     change       -0.5030010E-04 Eh
   gradient norm :     0.0026027 Eh/α   predicted     0.0000000E+00 (-100.00%)
   displ. norm   :     0.0264836 α      lambda       -0.9129095E-05
   maximum displ.:     0.0128838 α      in ANC's #2, #16, #6, ...

........................................................................
.............................. CYCLE   22 ..............................
........................................................................

 iter      E             dE          RMSdq      gap      omega  full diag
   1   -112.6672590 -0.112667E+03  0.695E-03    0.59       0.0  T
   2   -112.6672590 -0.378495E-07  0.417E-03    0.59       2.9  T
   3   -112.6672586  0.375068E-06  0.220E-03    0.59       5.4  T
   4   -112.6672590 -0.373863E-06  0.711E-04    0.59      16.8  T
   5   -112.6672591 -0.447466E-07  0.300E-04    0.59      39.8  T
     SCC iter.                  ...        0 min,  0.039 sec
     gradient                   ...        0 min,  0.009 sec
 * total energy  :  -110.6365158 Eh     change       -0.1348452E-04 Eh
   gradient norm :     0.0014589 Eh/α   predicted    -0.8318717E-05 ( -38.31%)
   displ. norm   :     0.1070666 α      lambda       -0.2641419E-04
   maximum displ.:     0.0554619 α      in ANC's #2, #6, #16, ...

........................................................................
.............................. CYCLE   23 ..............................
........................................................................

 iter      E             dE          RMSdq      gap      omega  full diag
   1   -112.6681510 -0.112668E+03  0.234E-02    0.60       0.0  T
   2   -112.6681513 -0.349729E-06  0.138E-02    0.60       1.0  T
   3   -112.6681484  0.288083E-05  0.626E-03    0.60       1.9  T
   4   -112.6681516 -0.314790E-05  0.125E-03    0.60       9.6  T
   5   -112.6681517 -0.976764E-07  0.658E-04    0.60      18.2  T
   6   -112.6681517 -0.332375E-07  0.361E-04    0.60      33.1  T
     SCC iter.                  ...        0 min,  0.048 sec
     gradient                   ...        0 min,  0.009 sec
 * total energy  :  -110.6365334 Eh     change       -0.1755776E-04 Eh
   gradient norm :     0.0021363 Eh/α   predicted    -0.1327469E-04 ( -24.39%)
   displ. norm   :     0.0199813 α      lambda       -0.6381768E-05
   maximum displ.:     0.0125084 α      in ANC's #2, #6, #7, ...

........................................................................
.............................. CYCLE   24 ..............................
........................................................................

 iter      E             dE          RMSdq      gap      omega  full diag
   1   -112.6680589 -0.112668E+03  0.394E-03    0.60       0.0  T
   2   -112.6680589 -0.357957E-08  0.235E-03    0.60       5.1  T
   3   -112.6680587  0.195062E-06  0.141E-03    0.60       8.4  T
   4   -112.6680589 -0.170468E-06  0.574E-04    0.60      20.8  T
   5   -112.6680589 -0.370657E-07  0.113E-04    0.60     105.5  T
     SCC iter.                  ...        0 min,  0.040 sec
     gradient                   ...        0 min,  0.009 sec
 * total energy  :  -110.6365392 Eh     change       -0.5837519E-05 Eh
   gradient norm :     0.0015786 Eh/α   predicted    -0.3192377E-05 ( -45.31%)
   displ. norm   :     0.1347970 α      lambda       -0.2234701E-04
   maximum displ.:     0.0788887 α      in ANC's #2, #6, #7, ...

........................................................................
.............................. CYCLE   25 ..............................
........................................................................

 iter      E             dE          RMSdq      gap      omega  full diag
   1   -112.6675724 -0.112668E+03  0.265E-02    0.59       0.0  T
   2   -112.6675726 -0.112866E-06  0.157E-02    0.59       1.0  T
   3   -112.6675649  0.764588E-05  0.860E-03    0.59       1.4  T
   4   -112.6675716 -0.668316E-05  0.343E-03    0.59       3.5  T
   5   -112.6675729 -0.133979E-05  0.525E-04    0.59      22.8  T
   6   -112.6675729 -0.179394E-07  0.211E-04    0.59      56.7  T
   7   -112.6675730 -0.113708E-08  0.110E-04    0.59     109.0  T
     SCC iter.                  ...        0 min,  0.055 sec
     gradient                   ...        0 min,  0.011 sec
 * total energy  :  -110.6365590 Eh     change       -0.1976628E-04 Eh
   gradient norm :     0.0017638 Eh/α   predicted    -0.1127065E-04 ( -42.98%)
   displ. norm   :     0.0995995 α      lambda       -0.9078190E-05
   maximum displ.:     0.0597695 α      in ANC's #2, #6, #7, ...

........................................................................
.............................. CYCLE   26 ..............................
........................................................................

 iter      E             dE          RMSdq      gap      omega  full diag
   1   -112.6675926 -0.112668E+03  0.183E-02    0.59       0.0  T
   2   -112.6675926 -0.232031E-07  0.108E-02    0.59       1.1  T
   3   -112.6675913  0.134538E-05  0.352E-03    0.59       3.4  T
   4   -112.6675926 -0.131249E-05  0.905E-04    0.59      13.2  T
   5   -112.6675927 -0.902490E-07  0.192E-04    0.59      62.2  T
   6   -112.6675927 -0.686924E-09  0.960E-05    0.59     124.5  T
     SCC iter.                  ...        0 min,  0.053 sec
     gradient                   ...        0 min,  0.009 sec
 * total energy  :  -110.6365711 Eh     change       -0.1210374E-04 Eh
   gradient norm :     0.0017659 Eh/α   predicted    -0.4560366E-05 ( -62.32%)
   displ. norm   :     0.1592121 α      lambda       -0.1561481E-04
   maximum displ.:     0.0962585 α      in ANC's #2, #6, #7, ...

........................................................................
.............................. CYCLE   27 ..............................
........................................................................

 iter      E             dE          RMSdq      gap      omega  full diag
   1   -112.6677861 -0.112668E+03  0.294E-02    0.59       0.0  T
   2   -112.6677863 -0.155459E-06  0.173E-02    0.59       1.0  T
   3   -112.6677852  0.110187E-05  0.357E-03    0.59       3.3  T
   4   -112.6677863 -0.110400E-05  0.110E-03    0.59      10.9  T
   5   -112.6677864 -0.103646E-06  0.529E-04    0.59      22.6  T
   6   -112.6677864 -0.233696E-07  0.207E-04    0.59      57.7  T
     SCC iter.                  ...        0 min,  0.047 sec
     gradient                   ...        0 min,  0.009 sec
 * total energy  :  -110.6365894 Eh     change       -0.1836993E-04 Eh
   gradient norm :     0.0006897 Eh/α   predicted    -0.7896031E-05 ( -57.02%)
   displ. norm   :     0.1565596 α      lambda       -0.1023072E-04
   maximum displ.:     0.0984472 α      in ANC's #2, #4, #6, ...

........................................................................
.............................. CYCLE   28 ..............................
........................................................................

 iter      E             dE          RMSdq      gap      omega  full diag
   1   -112.6677191 -0.112668E+03  0.286E-02    0.59       0.0  T
   2   -112.6677193 -0.149681E-06  0.168E-02    0.59       1.0  T
   3   -112.6677186  0.668139E-06  0.288E-03    0.59       4.1  T
   4   -112.6677194 -0.766786E-06  0.454E-04    0.59      26.3  T
   5   -112.6677194 -0.722085E-08  0.233E-04    0.59      51.3  T
     SCC iter.                  ...        0 min,  0.039 sec
     gradient                   ...        0 min,  0.009 sec
 * total energy  :  -110.6366015 Eh     change       -0.1209479E-04 Eh
   gradient norm :     0.0004586 Eh/α   predicted    -0.5172167E-05 ( -57.24%)
   displ. norm   :     0.1016073 α      lambda       -0.6044564E-05
   maximum displ.:     0.0674841 α      in ANC's #2, #4, #9, ...

........................................................................
.............................. CYCLE   29 ..............................
........................................................................

 iter      E             dE          RMSdq      gap      omega  full diag
   1   -112.6678482 -0.112668E+03  0.183E-02    0.59       0.0  T
   2   -112.6678482 -0.634250E-07  0.108E-02    0.59       1.1  T
   3   -112.6678478  0.391680E-06  0.209E-03    0.59       5.7  T
   4   -112.6678482 -0.381069E-06  0.744E-04    0.59      16.1  T
   5   -112.6678483 -0.489261E-07  0.361E-04    0.59      33.1  T
     SCC iter.                  ...        0 min,  0.039 sec
     gradient                   ...        0 min,  0.009 sec
 * total energy  :  -110.6366096 Eh     change       -0.8069065E-05 Eh
   gradient norm :     0.0005287 Eh/α   predicted    -0.3040942E-05 ( -62.31%)
   displ. norm   :     0.0898321 α      lambda       -0.6768132E-05
   maximum displ.:     0.0606080 α      in ANC's #2, #4, #3, ...

........................................................................
.............................. CYCLE   30 ..............................
........................................................................

 iter      E             dE          RMSdq      gap      omega  full diag
   1   -112.6679776 -0.112668E+03  0.166E-02    0.59       0.0  T
   2   -112.6679777 -0.502396E-07  0.973E-03    0.59       1.2  T
   3   -112.6679774  0.255684E-06  0.174E-03    0.59       6.9  T
   4   -112.6679777 -0.270517E-06  0.486E-04    0.59      24.6  T
   5   -112.6679777 -0.110746E-07  0.341E-04    0.59      35.1  T
     SCC iter.                  ...        0 min,  0.039 sec
     gradient                   ...        0 min,  0.009 sec
 * total energy  :  -110.6366190 Eh     change       -0.9438292E-05 Eh
   gradient norm :     0.0005459 Eh/α   predicted    -0.3398119E-05 ( -64.00%)
   displ. norm   :     0.1417612 α      lambda       -0.1158972E-04
   maximum displ.:     0.0927144 α      in ANC's #2, #4, #3, ...

........................................................................
.............................. CYCLE   31 ..............................
........................................................................

 iter      E             dE          RMSdq      gap      omega  full diag
   1   -112.6679400 -0.112668E+03  0.269E-02    0.59       0.0  T
   2   -112.6679401 -0.100476E-06  0.158E-02    0.59       1.0  T
   3   -112.6679388  0.131880E-05  0.358E-03    0.59       3.3  T
   4   -112.6679400 -0.119850E-05  0.141E-03    0.59       8.5  T
   5   -112.6679402 -0.213388E-06  0.347E-04    0.59      34.4  T
   6   -112.6679402 -0.482832E-08  0.149E-04    0.59      80.0  T
     SCC iter.                  ...        0 min,  0.047 sec
     gradient                   ...        0 min,  0.009 sec
 * total energy  :  -110.6366347 Eh     change       -0.1571031E-04 Eh
   gradient norm :     0.0005372 Eh/α   predicted    -0.5847934E-05 ( -62.78%)
   displ. norm   :     0.2241463 α      lambda       -0.1671055E-04
   maximum displ.:     0.1447305 α      in ANC's #2, #4, #3, ...

........................................................................
.............................. CYCLE   32 ..............................
........................................................................

 iter      E             dE          RMSdq      gap      omega  full diag
   1   -112.6678020 -0.112668E+03  0.426E-02    0.59       0.0  T
   2   -112.6678023 -0.254935E-06  0.250E-02    0.59       1.0  T
   3   -112.6677999  0.233721E-05  0.481E-03    0.59       2.5  T
   4   -112.6678020 -0.210656E-05  0.199E-03    0.59       6.0  T
   5   -112.6678025 -0.424465E-06  0.533E-04    0.59      22.4  T
   6   -112.6678025 -0.112745E-07  0.229E-04    0.59      52.1  T
     SCC iter.                  ...        0 min,  0.046 sec
     gradient                   ...        0 min,  0.009 sec
 * total energy  :  -110.6366562 Eh     change       -0.2143352E-04 Eh
   gradient norm :     0.0005920 Eh/α   predicted    -0.8543349E-05 ( -60.14%)
   displ. norm   :     0.2607707 α      lambda       -0.1616685E-04
   maximum displ.:     0.1686328 α      in ANC's #2, #4, #3, ...

........................................................................
.............................. CYCLE   33 ..............................
........................................................................

 iter      E             dE          RMSdq      gap      omega  full diag
   1   -112.6676397 -0.112668E+03  0.489E-02    0.59       0.0  T
   2   -112.6676400 -0.328615E-06  0.286E-02    0.59       1.0  T
   3   -112.6676371  0.288589E-05  0.532E-03    0.59       2.2  T
   4   -112.6676398 -0.265015E-05  0.213E-03    0.59       5.6  T
   5   -112.6676402 -0.475723E-06  0.601E-04    0.59      19.9  T
   6   -112.6676403 -0.128749E-07  0.255E-04    0.59      46.8  T
     SCC iter.                  ...        0 min,  0.047 sec
     gradient                   ...        0 min,  0.009 sec
 * total energy  :  -110.6366765 Eh     change       -0.2029602E-04 Eh
   gradient norm :     0.0006587 Eh/α   predicted    -0.8328049E-05 ( -58.97%)
   displ. norm   :     0.2572323 α      lambda       -0.1416928E-04
   maximum displ.:     0.1673627 α      in ANC's #2, #4, #3, ...

........................................................................
.............................. CYCLE   34 ..............................
........................................................................

 iter      E             dE          RMSdq      gap      omega  full diag
   1   -112.6676255 -0.112668E+03  0.475E-02    0.59       0.0  T
   2   -112.6676258 -0.262695E-06  0.278E-02    0.59       1.0  T
   3   -112.6676208  0.503636E-05  0.683E-03    0.59       1.8  T
   4   -112.6676257 -0.491581E-05  0.198E-03    0.59       6.0  T
   5   -112.6676261 -0.403341E-06  0.564E-04    0.59      21.2  T
   6   -112.6676261 -0.787118E-08  0.252E-04    0.59      47.3  T
     SCC iter.                  ...        0 min,  0.047 sec
     gradient                   ...        0 min,  0.009 sec
 * total energy  :  -110.6366950 Eh     change       -0.1847537E-04 Eh
   gradient norm :     0.0006433 Eh/α   predicted    -0.7293374E-05 ( -60.52%)
   displ. norm   :     0.3194956 α      lambda       -0.1739458E-04
   maximum displ.:     0.2080469 α      in ANC's #2, #4, #3, ...

........................................................................
.............................. CYCLE   35 ..............................
........................................................................

 iter      E             dE          RMSdq      gap      omega  full diag
   1   -112.6674839 -0.112667E+03  0.584E-02    0.59       0.0  T
   2   -112.6674844 -0.462660E-06  0.343E-02    0.59       1.0  T
   3   -112.6674796  0.479318E-05  0.686E-03    0.59       1.7  T
   4   -112.6674841 -0.451656E-05  0.248E-03    0.59       4.8  T
   5   -112.6674847 -0.645944E-06  0.742E-04    0.59      16.1  T
   6   -112.6674847 -0.176470E-07  0.332E-04    0.59      36.0  T
     SCC iter.                  ...        0 min,  0.047 sec
     gradient                   ...        0 min,  0.009 sec
 * total energy  :  -110.6367169 Eh     change       -0.2193535E-04 Eh
   gradient norm :     0.0006705 Eh/α   predicted    -0.9095159E-05 ( -58.54%)
   displ. norm   :     0.4210962 α      lambda       -0.2108978E-04
   maximum displ.:     0.2741483 α      in ANC's #2, #4, #1, ...

........................................................................
.............................. CYCLE   36 ..............................
........................................................................

 iter      E             dE          RMSdq      gap      omega  full diag
   1   -112.6669938 -0.112667E+03  0.768E-02    0.60       0.0  T
   2   -112.6669946 -0.775375E-06  0.451E-02    0.59       1.0  T
   3   -112.6669863  0.833012E-05  0.915E-03    0.60       1.3  T
   4   -112.6669941 -0.781331E-05  0.333E-03    0.59       3.6  T
   5   -112.6669953 -0.118279E-05  0.974E-04    0.59      12.3  T
   6   -112.6669953 -0.312228E-07  0.457E-04    0.59      26.2  T
   7   -112.6669953 -0.910232E-08  0.149E-04    0.59      80.4  T
     SCC iter.                  ...        0 min,  0.054 sec
     gradient                   ...        0 min,  0.009 sec
 * total energy  :  -110.6367404 Eh     change       -0.2349944E-04 Eh
   gradient norm :     0.0009410 Eh/α   predicted    -0.1137621E-04 ( -51.59%)
   displ. norm   :     0.3884063 α      lambda       -0.1781821E-04
   maximum displ.:     0.2525847 α      in ANC's #2, #4, #1, ...

........................................................................
.............................. CYCLE   37 ..............................
........................................................................

 iter      E             dE          RMSdq      gap      omega  full diag
   1   -112.6672922 -0.112667E+03  0.702E-02    0.60       0.0  T
   2   -112.6672929 -0.680763E-06  0.413E-02    0.60       1.0  T
   3   -112.6672860  0.688423E-05  0.848E-03    0.60       1.4  T
   4   -112.6672926 -0.656952E-05  0.295E-03    0.60       4.0  T
   5   -112.6672935 -0.909170E-06  0.994E-04    0.60      12.0  T
   6   -112.6672935 -0.485246E-07  0.443E-04    0.60      27.0  T
     SCC iter.                  ...        0 min,  0.047 sec
     gradient                   ...        0 min,  0.009 sec
 * total energy  :  -110.6367605 Eh     change       -0.2013085E-04 Eh
   gradient norm :     0.0008521 Eh/α   predicted    -0.9507556E-05 ( -52.77%)
   displ. norm   :     0.3876041 α      lambda       -0.1544445E-04
   maximum displ.:     0.2497749 α      in ANC's #2, #4, #1, ...

........................................................................
.............................. CYCLE   38 ..............................
........................................................................

 iter      E             dE          RMSdq      gap      omega  full diag
   1   -112.6671298 -0.112667E+03  0.704E-02    0.60       0.0  T
   2   -112.6671304 -0.640750E-06  0.414E-02    0.60       1.0  T
   3   -112.6671217  0.867732E-05  0.940E-03    0.60       1.3  T
   4   -112.6671299 -0.820642E-05  0.325E-03    0.60       3.7  T
   5   -112.6671311 -0.114646E-05  0.906E-04    0.60      13.2  T
   6   -112.6671311 -0.309611E-07  0.444E-04    0.60      26.9  T
   7   -112.6671311 -0.720644E-08  0.150E-04    0.60      79.5  T
     SCC iter.                  ...        0 min,  0.054 sec
     gradient                   ...        0 min,  0.009 sec
 * total energy  :  -110.6367782 Eh     change       -0.1769290E-04 Eh
   gradient norm :     0.0008564 Eh/α   predicted    -0.8240249E-05 ( -53.43%)
   displ. norm   :     0.2569564 α      lambda       -0.1079421E-04
   maximum displ.:     0.1614092 α      in ANC's #2, #4, #1, ...

........................................................................
.............................. CYCLE   39 ..............................
........................................................................

 iter      E             dE          RMSdq      gap      omega  full diag
   1   -112.6680430 -0.112668E+03  0.470E-02    0.60       0.0  T
   2   -112.6680433 -0.289622E-06  0.277E-02    0.60       1.0  T
   3   -112.6680374  0.581118E-05  0.763E-03    0.60       1.6  T
   4   -112.6680429 -0.541786E-05  0.262E-03    0.60       4.6  T
   5   -112.6680436 -0.767480E-06  0.642E-04    0.60      18.6  T
   6   -112.6680437 -0.181590E-07  0.318E-04    0.60      37.6  T
     SCC iter.                  ...        0 min,  0.047 sec
     gradient                   ...        0 min,  0.009 sec
 * total energy  :  -110.6367889 Eh     change       -0.1067685E-04 Eh
   gradient norm :     0.0005487 Eh/α   predicted    -0.5555806E-05 ( -47.96%)
   displ. norm   :     0.1959131 α      lambda       -0.5383011E-05
   maximum displ.:     0.1223962 α      in ANC's #2, #4, #1, ...

........................................................................
.............................. CYCLE   40 ..............................
........................................................................

 iter      E             dE          RMSdq      gap      omega  full diag
   1   -112.6670871 -0.112667E+03  0.363E-02    0.60       0.0  T
   2   -112.6670873 -0.200802E-06  0.213E-02    0.60       1.0  T
   3   -112.6670860  0.134157E-05  0.387E-03    0.60       3.1  T
   4   -112.6670872 -0.127414E-05  0.146E-03    0.60       8.2  T
   5   -112.6670874 -0.208375E-06  0.528E-04    0.60      22.7  T
   6   -112.6670875 -0.172230E-07  0.244E-04    0.60      48.9  T
     SCC iter.                  ...        0 min,  0.046 sec
     gradient                   ...        0 min,  0.009 sec
 * total energy  :  -110.6367944 Eh     change       -0.5462053E-05 Eh
   gradient norm :     0.0006372 Eh/α   predicted    -0.2739771E-05 ( -49.84%)
   displ. norm   :     0.0905559 α      lambda       -0.4530995E-05
   maximum displ.:     0.0462207 α      in ANC's #2, #1, #7, ...

........................................................................
.............................. CYCLE   41 ..............................
........................................................................

 iter      E             dE          RMSdq      gap      omega  full diag
   1   -112.6680859 -0.112668E+03  0.171E-02    0.60       0.0  T
   2   -112.6680859 -0.342066E-07  0.101E-02    0.60       1.2  T
   3   -112.6680849  0.103988E-05  0.317E-03    0.60       3.8  T
   4   -112.6680859 -0.958181E-06  0.108E-03    0.60      11.0  T
   5   -112.6680860 -0.133522E-06  0.219E-04    0.60      54.7  T
   6   -112.6680860 -0.218215E-08  0.109E-04    0.60     109.9  T
     SCC iter.                  ...        0 min,  0.047 sec
     gradient                   ...        0 min,  0.010 sec
 * total energy  :  -110.6367992 Eh     change       -0.4834596E-05 Eh
   gradient norm :     0.0006252 Eh/α   predicted    -0.2274176E-05 ( -52.96%)
   displ. norm   :     0.1344688 α      lambda       -0.5974972E-05
   maximum displ.:     0.0661885 α      in ANC's #2, #1, #4, ...

........................................................................
.............................. CYCLE   42 ..............................
........................................................................

 iter      E             dE          RMSdq      gap      omega  full diag
   1   -112.6680461 -0.112668E+03  0.261E-02    0.60       0.0  T
   2   -112.6680461 -0.376859E-07  0.153E-02    0.60       1.0  T
   3   -112.6680431  0.307279E-05  0.527E-03    0.60       2.3  T
   4   -112.6680461 -0.305801E-05  0.115E-03    0.60      10.4  T
   5   -112.6680463 -0.135309E-06  0.283E-04    0.60      42.3  T
   6   -112.6680463 -0.192189E-08  0.139E-04    0.60      86.1  T
     SCC iter.                  ...        0 min,  0.047 sec
     gradient                   ...        0 min,  0.008 sec
 * total energy  :  -110.6368063 Eh     change       -0.7106892E-05 Eh
   gradient norm :     0.0005947 Eh/α   predicted    -0.3015633E-05 ( -57.57%)
   displ. norm   :     0.2036858 α      lambda       -0.8869987E-05
   maximum displ.:     0.0969216 α      in ANC's #1, #7, #2, ...
 * RMSD in coord.:     0.4586705 α      energy gain  -0.3542761E-03 Eh

generating ANC from exact Hessian ...
Using Lindh-Hessian (1995)
 Shifting diagonal of input Hessian by   9.929392448179227E-003
 Lowest  eigenvalues of input Hessian
    0.000000    0.000000    0.000000    0.000000    0.000000    0.000000
    0.010000    0.010091    0.010231    0.010382    0.010583    0.010834
    0.011187    0.011296    0.011436    0.011854    0.012181    0.012415
 Highest eigenvalues
    2.121180    2.146812    2.166826    2.189365    2.199499    2.353101
 

........................................................................
.............................. CYCLE   43 ..............................
........................................................................

 iter      E             dE          RMSdq      gap      omega  full diag
   1   -112.6679868 -0.112668E+03  0.399E-02    0.60       0.0  T
   2   -112.6679869 -0.961233E-07  0.235E-02    0.60       1.0  T
   3   -112.6679813  0.558078E-05  0.719E-03    0.60       1.7  T
   4   -112.6679868 -0.548989E-05  0.178E-03    0.60       6.7  T
   5   -112.6679871 -0.334204E-06  0.399E-04    0.60      30.0  T
   6   -112.6679872 -0.233783E-08  0.210E-04    0.60      56.9  T
     SCC iter.                  ...        0 min,  0.046 sec
     gradient                   ...        0 min,  0.009 sec
 * total energy  :  -110.6368170 Eh     change       -0.1073624E-04 Eh
   gradient norm :     0.0007116 Eh/α   predicted     0.0000000E+00 (-100.00%)
   displ. norm   :     0.0202093 α      lambda       -0.5442852E-06
   maximum displ.:     0.0078328 α      in ANC's #1, #11, #10, ...

........................................................................
.............................. CYCLE   44 ..............................
........................................................................

 iter      E             dE          RMSdq      gap      omega  full diag
   1   -112.6682137 -0.112668E+03  0.523E-03    0.60       0.0  T
   2   -112.6682137 -0.101929E-07  0.310E-03    0.60       3.9  T
   3   -112.6682135  0.291373E-06  0.170E-03    0.60       7.0  T
   4   -112.6682137 -0.247257E-06  0.716E-04    0.60      16.7  T
   5   -112.6682138 -0.591125E-07  0.102E-04    0.60     117.2  T
     SCC iter.                  ...        0 min,  0.038 sec
     gradient                   ...        0 min,  0.008 sec
 * total energy  :  -110.6368212 Eh     change       -0.4154839E-05 Eh
   gradient norm :     0.0003111 Eh/α   predicted    -0.1805223E-05 ( -56.55%)
   displ. norm   :     0.0558873 α      lambda       -0.5950038E-05
   maximum displ.:     0.0228607 α      in ANC's #1, #11, #10, ...

........................................................................
.............................. CYCLE   45 ..............................
........................................................................

 iter      E             dE          RMSdq      gap      omega  full diag
   1   -112.6681915 -0.112668E+03  0.127E-02    0.60       0.0  T
   2   -112.6681915 -0.544078E-08  0.751E-03    0.60       1.6  T
   3   -112.6681891  0.238678E-05  0.465E-03    0.60       2.6  T
   4   -112.6681914 -0.233183E-05  0.115E-03    0.60      10.4  T
   5   -112.6681916 -0.143887E-06  0.188E-04    0.60      63.7  T
   6   -112.6681916 -0.104760E-08  0.930E-05    0.60     128.6  T
     SCC iter.                  ...        0 min,  0.046 sec
     gradient                   ...        0 min,  0.009 sec
 * total energy  :  -110.6368274 Eh     change       -0.6182491E-05 Eh
   gradient norm :     0.0006331 Eh/α   predicted    -0.2979689E-05 ( -51.80%)
   displ. norm   :     0.0616509 α      lambda       -0.3915097E-05
   maximum displ.:     0.0278301 α      in ANC's #1, #11, #10, ...

........................................................................
.............................. CYCLE   46 ..............................
........................................................................

 iter      E             dE          RMSdq      gap      omega  full diag
   1   -112.6679932 -0.112668E+03  0.134E-02    0.60       0.0  T
   2   -112.6679932 -0.489760E-08  0.790E-03    0.60       1.5  T
   3   -112.6679916  0.160642E-05  0.378E-03    0.60       3.2  T
   4   -112.6679932 -0.159231E-05  0.817E-04    0.60      14.6  T
   5   -112.6679932 -0.707658E-07  0.159E-04    0.60      75.3  T
   6   -112.6679932 -0.528374E-09  0.851E-05    0.60     140.5  T
     SCC iter.                  ...        0 min,  0.045 sec
     gradient                   ...        0 min,  0.009 sec
 * total energy  :  -110.6368318 Eh     change       -0.4470995E-05 Eh
   gradient norm :     0.0005365 Eh/α   predicted    -0.1993966E-05 ( -55.40%)
   displ. norm   :     0.0820913 α      lambda       -0.4476872E-05
   maximum displ.:     0.0388603 α      in ANC's #1, #3, #10, ...

........................................................................
.............................. CYCLE   47 ..............................
........................................................................

 iter      E             dE          RMSdq      gap      omega  full diag
   1   -112.6678793 -0.112668E+03  0.172E-02    0.60       0.0  T
   2   -112.6678793 -0.775695E-08  0.101E-02    0.60       1.2  T
   3   -112.6678774  0.184935E-05  0.402E-03    0.60       3.0  T
   4   -112.6678793 -0.185761E-05  0.750E-04    0.60      15.9  T
   5   -112.6678793 -0.556744E-07  0.172E-04    0.60      69.7  T
   6   -112.6678793 -0.457248E-09  0.947E-05    0.60     126.2  T
     SCC iter.                  ...        0 min,  0.045 sec
     gradient                   ...        0 min,  0.009 sec
 * total energy  :  -110.6368373 Eh     change       -0.5433521E-05 Eh
   gradient norm :     0.0004233 Eh/α   predicted    -0.2260281E-05 ( -58.40%)
   displ. norm   :     0.1190544 α      lambda       -0.6249219E-05
   maximum displ.:     0.0581744 α      in ANC's #1, #3, #10, ...

........................................................................
.............................. CYCLE   48 ..............................
........................................................................

 iter      E             dE          RMSdq      gap      omega  full diag
   1   -112.6677740 -0.112668E+03  0.244E-02    0.60       0.0  T
   2   -112.6677740 -0.470549E-07  0.143E-02    0.60       1.0  T
   3   -112.6677724  0.162580E-05  0.380E-03    0.60       3.1  T
   4   -112.6677740 -0.159808E-05  0.996E-04    0.60      12.0  T
   5   -112.6677741 -0.998505E-07  0.247E-04    0.60      48.5  T
   6   -112.6677741 -0.134348E-08  0.135E-04    0.60      88.7  T
     SCC iter.                  ...        0 min,  0.045 sec
     gradient                   ...        0 min,  0.008 sec
 * total energy  :  -110.6368446 Eh     change       -0.7313424E-05 Eh
   gradient norm :     0.0005653 Eh/α   predicted    -0.3147725E-05 ( -56.96%)
   displ. norm   :     0.1266449 α      lambda       -0.6159111E-05
   maximum displ.:     0.0645176 α      in ANC's #1, #3, #7, ...

........................................................................
.............................. CYCLE   49 ..............................
........................................................................

 iter      E             dE          RMSdq      gap      omega  full diag
   1   -112.6679071 -0.112668E+03  0.252E-02    0.60       0.0  T
   2   -112.6679072 -0.769911E-07  0.148E-02    0.60       1.0  T
   3   -112.6679069  0.246627E-06  0.165E-03    0.60       7.2  T
   4   -112.6679071 -0.179109E-06  0.990E-04    0.60      12.1  T
   5   -112.6679072 -0.105110E-06  0.266E-04    0.60      44.9  T
     SCC iter.                  ...        0 min,  0.038 sec
     gradient                   ...        0 min,  0.009 sec
 * total energy  :  -110.6368517 Eh     change       -0.7108619E-05 Eh
   gradient norm :     0.0006290 Eh/α   predicted    -0.3110555E-05 ( -56.24%)
   displ. norm   :     0.1025373 α      lambda       -0.4781929E-05
   maximum displ.:     0.0554829 α      in ANC's #1, #3, #7, ...

........................................................................
.............................. CYCLE   50 ..............................
........................................................................

 iter      E             dE          RMSdq      gap      omega  full diag
   1   -112.6681419 -0.112668E+03  0.194E-02    0.60       0.0  T
   2   -112.6681420 -0.450831E-07  0.114E-02    0.60       1.0  T
   3   -112.6681418  0.183396E-06  0.147E-03    0.60       8.1  T
   4   -112.6681419 -0.151547E-06  0.726E-04    0.60      16.5  T
   5   -112.6681420 -0.554428E-07  0.228E-04    0.60      52.5  T
     SCC iter.                  ...        0 min,  0.038 sec
     gradient                   ...        0 min,  0.009 sec
 * total energy  :  -110.6368573 Eh     change       -0.5571033E-05 Eh
   gradient norm :     0.0004613 Eh/α   predicted    -0.2404374E-05 ( -56.84%)
   displ. norm   :     0.0845895 α      lambda       -0.4076176E-05
   maximum displ.:     0.0483207 α      in ANC's #1, #7, #3, ...

........................................................................
.............................. CYCLE   51 ..............................
........................................................................

 iter      E             dE          RMSdq      gap      omega  full diag
   1   -112.6683507 -0.112668E+03  0.152E-02    0.60       0.0  T
   2   -112.6683507 -0.196497E-07  0.897E-03    0.60       1.3  T
   3   -112.6683502  0.539303E-06  0.226E-03    0.60       5.3  T
   4   -112.6683507 -0.517092E-06  0.694E-04    0.60      17.2  T
   5   -112.6683508 -0.509998E-07  0.174E-04    0.60      68.7  T
     SCC iter.                  ...        0 min,  0.038 sec
     gradient                   ...        0 min,  0.009 sec
 * total energy  :  -110.6368623 Eh     change       -0.5040103E-05 Eh
   gradient norm :     0.0003024 Eh/α   predicted    -0.2045221E-05 ( -59.42%)
   displ. norm   :     0.1089729 α      lambda       -0.5007783E-05
   maximum displ.:     0.0630486 α      in ANC's #1, #7, #3, ...

........................................................................
.............................. CYCLE   52 ..............................
........................................................................

 iter      E             dE          RMSdq      gap      omega  full diag
   1   -112.6683884 -0.112668E+03  0.196E-02    0.60       0.0  T
   2   -112.6683884 -0.369693E-07  0.115E-02    0.60       1.0  T
   3   -112.6683879  0.526192E-06  0.235E-03    0.60       5.1  T
   4   -112.6683884 -0.515609E-06  0.724E-04    0.60      16.5  T
   5   -112.6683885 -0.523668E-07  0.251E-04    0.60      47.6  T
     SCC iter.                  ...        0 min,  0.038 sec
     gradient                   ...        0 min,  0.008 sec
 * total energy  :  -110.6368686 Eh     change       -0.6294500E-05 Eh
   gradient norm :     0.0004361 Eh/α   predicted    -0.2518298E-05 ( -59.99%)
   displ. norm   :     0.1522208 α      lambda       -0.6229108E-05
   maximum displ.:     0.0883885 α      in ANC's #1, #7, #3, ...

........................................................................
.............................. CYCLE   53 ..............................
........................................................................

 iter      E             dE          RMSdq      gap      omega  full diag
   1   -112.6681866 -0.112668E+03  0.275E-02    0.60       0.0  T
   2   -112.6681867 -0.760163E-07  0.162E-02    0.60       1.0  T
   3   -112.6681861  0.519422E-06  0.252E-03    0.61       4.7  T
   4   -112.6681867 -0.586882E-06  0.335E-04    0.60      35.6  T
   5   -112.6681867 -0.344691E-08  0.186E-04    0.60      64.2  T
     SCC iter.                  ...        0 min,  0.037 sec
     gradient                   ...        0 min,  0.009 sec
 * total energy  :  -110.6368762 Eh     change       -0.7580371E-05 Eh
   gradient norm :     0.0005396 Eh/α   predicted    -0.3151163E-05 ( -58.43%)
   displ. norm   :     0.1752810 α      lambda       -0.5734811E-05
   maximum displ.:     0.1027659 α      in ANC's #1, #7, #3, ...

........................................................................
.............................. CYCLE   54 ..............................
........................................................................

 iter      E             dE          RMSdq      gap      omega  full diag
   1   -112.6679026 -0.112668E+03  0.317E-02    0.61       0.0  T
   2   -112.6679027 -0.106838E-06  0.187E-02    0.61       1.0  T
   3   -112.6679022  0.503602E-06  0.253E-03    0.61       4.7  T
   4   -112.6679028 -0.553761E-06  0.611E-04    0.61      19.6  T
   5   -112.6679028 -0.158774E-07  0.439E-04    0.61      27.2  T
     SCC iter.                  ...        0 min,  0.038 sec
     gradient                   ...        0 min,  0.009 sec
 * total energy  :  -110.6368827 Eh     change       -0.6474269E-05 Eh
   gradient norm :     0.0004255 Eh/α   predicted    -0.2911462E-05 ( -55.03%)
   displ. norm   :     0.1202011 α      lambda       -0.3062140E-05
   maximum displ.:     0.0722492 α      in ANC's #1, #7, #3, ...

........................................................................
.............................. CYCLE   55 ..............................
........................................................................

 iter      E             dE          RMSdq      gap      omega  full diag
   1   -112.6678208 -0.112668E+03  0.215E-02    0.61       0.0  T
   2   -112.6678208 -0.441955E-07  0.126E-02    0.61       1.0  T
   3   -112.6678205  0.310727E-06  0.189E-03    0.61       6.3  T
   4   -112.6678208 -0.305956E-06  0.640E-04    0.61      18.7  T
   5   -112.6678208 -0.395475E-07  0.246E-04    0.61      48.7  T
     SCC iter.                  ...        0 min,  0.037 sec
     gradient                   ...        0 min,  0.009 sec
 * total energy  :  -110.6368863 Eh     change       -0.3614692E-05 Eh
   gradient norm :     0.0002572 Eh/α   predicted    -0.1542732E-05 ( -57.32%)
   displ. norm   :     0.0785319 α      lambda       -0.2120350E-05
   maximum displ.:     0.0485645 α      in ANC's #1, #3, #7, ...

........................................................................
.............................. CYCLE   56 ..............................
........................................................................

 iter      E             dE          RMSdq      gap      omega  full diag
   1   -112.6679094 -0.112668E+03  0.138E-02    0.61       0.0  T
   2   -112.6679095 -0.194583E-07  0.811E-03    0.61       1.5  T
   3   -112.6679093  0.131458E-06  0.117E-03    0.61      10.2  T
   4   -112.6679094 -0.125384E-06  0.450E-04    0.61      26.6  T
   5   -112.6679095 -0.198680E-07  0.149E-04    0.61      80.2  T
     SCC iter.                  ...        0 min,  0.037 sec
     gradient                   ...        0 min,  0.009 sec
 * total energy  :  -110.6368889 Eh     change       -0.2672419E-05 Eh
   gradient norm :     0.0002031 Eh/α   predicted    -0.1063776E-05 ( -60.19%)
   displ. norm   :     0.0821439 α      lambda       -0.2467190E-05
   maximum displ.:     0.0509027 α      in ANC's #1, #3, #4, ...

........................................................................
.............................. CYCLE   57 ..............................
........................................................................

 iter      E             dE          RMSdq      gap      omega  full diag
   1   -112.6679884 -0.112668E+03  0.146E-02    0.61       0.0  T
   2   -112.6679884 -0.229740E-07  0.855E-03    0.61       1.4  T
   3   -112.6679883  0.767864E-07  0.915E-04    0.61      13.1  T
   4   -112.6679884 -0.688383E-07  0.461E-04    0.61      25.9  T
     SCC iter.                  ...        0 min,  0.030 sec
     gradient                   ...        0 min,  0.009 sec
 * total energy  :  -110.6368921 Eh     change       -0.3163574E-05 Eh
   gradient norm :     0.0003227 Eh/α   predicted    -0.1242061E-05 ( -60.74%)
   displ. norm   :     0.1058093 α      lambda       -0.3213112E-05
   maximum displ.:     0.0655879 α      in ANC's #1, #4, #3, ...

[...]
    10   6 C       26   6 C                                       1.4273760
     7   6 C       27   6 C                                       1.4248604
    26   6 C       27   6 C                                       1.3588758
     6   6 C       28   7 N                                       1.3450755
    28   7 N       29   6 C                                       1.3302258
    29   6 C       30   6 C                                       1.4258759
    30   6 C       31   6 C                                       1.3978458
    31   6 C       32   6 C                                       1.3756903
    32   6 C       33   6 C                                       1.3917460
    33   6 C       34   6 C                                       1.3785160
    30   6 C       35   6 C                                       1.4146540
    34   6 C       35   6 C                                       1.4025916
    36   6 C       37   6 C                                       1.3989560
    37   6 C       38   6 C                                       1.3776295
    38   6 C       39   6 C                                       1.3941870
    39   6 C       40   6 C                                       1.3706550
    36   6 C       41   6 C                                       1.4315610 (max)
    40   6 C       41   6 C                                       1.4097179
     5   7 N       42   6 C                                       1.3706257
    29   6 C       42   6 C                                       1.4180233
    41   6 C       42   6 C                                       1.4117174
     4   6 C       43   6 C                                       1.3918156
     1   6 C       44   6 C                                       1.3860155
    43   6 C       44   6 C                                       1.3836188
     1   6 C       45   1 H                                       1.0794082
     2   6 C       46   1 H                                       1.0795204
     3   6 C       47   1 H                                       1.0801562
     8   6 C       48   1 H                                       1.0785340
     9   6 C       49   1 H                                       1.0786366
    12   6 C       50   1 H                                       1.0787012
    13   6 C       51   1 H                                       1.0793387
    16   6 C       52   1 H                                       1.0704545 (min)
    18   6 C       53   1 H                                       1.0794307
    19   6 C       54   1 H                                       1.0776446
    20   6 C       55   1 H                                       1.0786884
    21   6 C       56   1 H                                       1.0772334
    24   6 C       57   1 H                                       1.0799873
    25   6 C       58   1 H                                       1.0790076
    26   6 C       59   1 H                                       1.0790558
    27   6 C       60   1 H                                       1.0771733
    31   6 C       61   1 H                                       1.0792033
    32   6 C       62   1 H                                       1.0797263
    33   6 C       63   1 H                                       1.0804819
    34   6 C       64   1 H                                       1.0781084
    37   6 C       65   1 H                                       1.0778665
    38   6 C       66   1 H                                       1.0798113
    39   6 C       67   1 H                                       1.0798489
    40   6 C       68   1 H                                       1.0773497
    43   6 C       69   1 H                                       1.0802517
    44   6 C       70   1 H                                       1.0795657

 * 3 distinct bonds (by element types)

   Z      Z             #   av. dist./Å        max./Å        min./Å
   1 H    6 C          26     1.0786609     1.0804819     1.0704545
   6 C    6 C          41     1.3986825     1.4315610     1.3554408
   6 C    7 N          10     1.3653634     1.4142114     1.3150980

           -------------------------------------------------
          |               Frequency Printout                |
           -------------------------------------------------
 projected vibrational frequencies (cm⁻¹)
eigval :       -0.00    -0.00     0.00     0.00     0.00     0.00
eigval :       10.13    20.58    22.21    25.63    31.96    35.95
eigval :       51.29    55.01    61.69    65.09    71.69    88.63
eigval :       89.85    98.44   118.22   130.76   147.17   163.51
eigval :      198.42   211.58   221.58   228.14   240.08   247.32
eigval :      254.80   267.33   289.90   305.05   322.48   334.18
eigval :      360.53   373.31   375.04   382.76   392.00   396.80
eigval :      407.52   414.07   427.47   432.71   436.58   447.86
eigval :      466.79   483.53   501.25   505.09   505.66   525.22
eigval :      526.70   528.78   573.72   582.58   586.11   587.15
eigval :      597.64   614.38   614.58   630.73   632.25   637.22
eigval :      646.39   657.52   667.30   671.92   675.24   681.83
eigval :      687.22   693.04   704.10   708.63   732.97   745.85
eigval :      754.96   759.61   761.32   776.61   789.52   795.79
eigval :      804.30   808.11   823.86   829.93   837.48   857.12
eigval :      870.85   871.77   872.39   885.56   897.64   899.56
eigval :      901.19   902.81   903.70   905.20   911.50   915.31
eigval :      917.72   919.29   922.82   927.51   927.62   931.64
eigval :      935.19   943.10   979.05   990.63  1004.43  1022.22
eigval :     1053.97  1059.20  1076.02  1076.35  1081.80  1097.67
eigval :     1103.46  1112.86  1128.41  1130.97  1138.70  1148.73
eigval :     1151.68  1158.53  1167.27  1178.81  1180.21  1182.87
eigval :     1185.33  1200.41  1206.67  1215.74  1219.09  1241.47
eigval :     1246.73  1252.27  1255.33  1263.26  1270.73  1270.89
eigval :     1280.64  1284.03  1297.30  1304.26  1313.30  1316.86
eigval :     1331.17  1333.97  1336.88  1340.07  1351.12  1367.61
eigval :     1377.80  1392.03  1395.14  1407.76  1422.62  1429.05
eigval :     1430.92  1438.32  1442.44  1449.95  1463.00  1467.13
eigval :     1471.96  1475.61  1486.42  1488.99  1499.92  1519.29
eigval :     1540.61  1544.61  1545.60  1566.16  1577.19  1578.99
eigval :     1584.55  1588.57  1591.50  1599.69  3074.12  3076.28
eigval :     3077.60  3082.26  3082.47  3085.15  3086.64  3087.31
eigval :     3088.18  3088.62  3088.94  3093.83  3094.02  3095.92
eigval :     3096.56  3099.66  3101.81  3102.12  3102.27  3107.26
eigval :     3111.08  3113.09  3120.98  3127.76  3130.46  3178.19
 reduced masses (amu)
   1: 11.73   2: 11.68   3: 11.53   4: 11.58   5: 11.69   6: 10.99   7: 11.20   8: 10.78
   9: 10.56  10: 10.75  11: 10.70  12: 10.77  13: 10.50  14: 10.51  15: 10.88  16: 10.95
  17: 10.12  18: 10.02  19: 10.25  20: 10.92  21: 11.51  22: 11.10  23: 11.09  24: 11.23
  25: 11.24  26: 10.94  27: 10.74  28: 10.49  29: 10.81  30: 10.82  31: 10.76  32: 10.55
  33: 11.16  34: 10.76  35: 10.88  36: 10.83  37:  9.28  38:  9.20  39:  8.97  40: 10.09
  41: 11.25  42:  9.75  43: 10.32  44: 10.54  45: 11.46  46: 10.70  47: 10.25  48: 10.91
  49: 11.13  50:  9.00  51: 11.04  52: 10.96  53: 10.35  54: 11.21  55: 10.20  56:  9.70
  57: 11.54  58: 11.34  59: 11.26  60: 11.37  61: 11.37  62: 11.31  63: 11.95  64: 11.55
  65: 10.96  66: 11.36  67: 11.25  68: 11.03  69: 11.29  70:  9.60  71: 11.02  72:  4.45
  73: 11.53  74: 10.75  75: 11.69  76: 10.87  77: 11.41  78: 10.93  79:  4.06  80:  3.92
  81:  7.16  82:  4.67  83:  4.56  84: 10.26  85:  4.43  86:  5.20  87:  5.02  88:  9.37
  89:  3.38  90:  3.81  91:  3.61  92:  3.62  93:  3.41  94: 11.57  95:  3.98  96:  3.66
  97:  3.40  98:  3.17  99:  4.03 100: 10.57 101:  3.77 102:  3.96 103:  3.43 104:  3.50
 105:  3.31 106:  5.04 107: 10.94 108:  3.20 109: 11.62 110: 10.91 111: 10.22 112: 10.52
 113: 10.87 114:  8.03 115:  7.03 116: 10.63 117:  4.97 118:  6.35 119:  6.23 120: 10.04
 121:  6.84 122:  3.89 123:  4.64 124:  3.62 125:  6.97 126:  5.05 127:  2.70 128:  6.10
 129:  6.11 130:  1.39 131:  1.68 132:  3.18 133:  2.06 134:  5.80 135:  6.07 136:  7.40
 137:  6.91 138:  5.45 139:  8.06 140:  5.49 141:  5.28 142:  8.37 143:  4.17 144:  4.86
 145:  7.44 146:  8.80 147:  8.65 148: 11.69 149: 10.15 150:  8.58 151: 10.52 152:  9.72
 153: 10.70 154: 10.34 155:  9.98 156:  8.59 157: 10.13 158:  8.84 159:  9.53 160:  8.50
 161:  9.59 162:  8.97 163:  9.99 164: 10.76 165: 10.69 166: 10.76 167: 10.71 168: 11.30
 169: 10.00 170: 11.79 171: 11.51 172: 11.15 173: 11.59 174: 11.10 175: 11.73 176: 11.75
 177: 11.65 178: 11.29 179: 11.51 180: 11.56 181: 11.50 182: 11.48 183: 11.52 184: 11.72
 185:  1.77 186:  1.77 187:  1.77 188:  1.79 189:  1.76 190:  1.83 191:  1.81 192:  1.85
 193:  1.80 194:  1.83 195:  1.80 196:  1.88 197:  1.77 198:  1.82 199:  1.79 200:  1.86
 201:  1.92 202:  1.87 203:  1.87 204:  1.87 205:  1.82 206:  1.87 207:  1.88 208:  1.82
 209:  1.82 210:  1.87
 IR intensities (km·mol⁻¹)
   1:  0.03   2:  0.41   3:  0.07   4:  3.95   5:  0.70   6:  1.18   7:  3.03   8:  2.97
   9:  1.15  10:  1.22  11:  1.01  12:  4.16  13:  0.57  14:  0.87  15:  7.23  16:  4.03
  17:  5.95  18:  1.34  19:  0.60  20:  0.33  21:  0.08  22:  2.46  23:  1.64  24:  2.68
  25:  0.62  26:  0.05  27: 15.08  28:  5.11  29:  1.98  30:  6.54  31:  0.31  32:  1.58
  33: 14.26  34:  2.68  35:  2.28  36:  0.73  37:  8.81  38:  2.92  39:  1.52  40:  2.91
  41:  7.17  42:  2.55  43:  2.56  44:  0.17  45:  0.27  46:  2.09  47:  1.09  48:  0.97
  49:  2.49  50:  4.86  51:  0.64  52: 12.74  53:  4.51  54: 12.73  55:  1.94  56: 10.18
  57: 14.40  58:  0.54  59:  2.06  60:  0.36  61:  0.15  62:  2.81  63: 13.67  64:  0.53
  65:  0.96  66:  8.27  67: 13.29  68:  0.73  69: 10.20  70:  0.85  71:  6.62  72:  9.19
  73:  0.69  74: 33.27  75: 10.25  76: 11.50  77:  3.84  78: 27.98  79: 52.10  80: 34.83
  81: 10.48  82:  4.71  83: 38.37  84:  0.52  85: 38.77  86:  0.95  87: 30.88  88:  1.87
  89:  4.13  90:  2.29  91:  4.83  92: 13.35  93: 14.38  94:  2.56  95:  2.19  96:  4.50
  97:  1.68  98:  2.14  99:  0.83 100: 10.32 101:  0.55 102:  0.30 103:  0.74 104:  1.04
 105:  0.35 106:  4.31 107:  8.82 108: 21.51 109: 19.40 110:  5.36 111:  1.95 112:  0.55
 113: 54.10 114:  0.55 115: 42.47 116: 14.64 117: 45.17 118:  1.91 119:  5.10 120: 44.95
 121:  3.05 122:  1.72 123:  6.14 124:  0.84 125: 55.96 126:  0.98 127: 71.27 128:134.33
 129:  6.39 130:  2.17 131: 10.01 132:  9.43 133: 13.53 134: 14.88 135: 65.45 136:  6.82
 137: 49.04 138: 34.44 139: 86.39 140: 19.49 141:  5.53 142: 22.00 143: 52.75 144:100.28
 145:222.10 146:119.95 147:223.87 148:  0.63 149:636.52 150:522.74 151: 43.17 152: 29.41
 153: 56.63 154: 61.24 155: 18.58 156:  4.52 157:318.67 158: 19.09 159:  3.85 160:278.65
 161:276.23 162:  1.58 163: 77.53 164:263.78 165: 70.10 166:****** 167:330.89 168:729.71
 169: 44.17 170: 63.62 171:148.34 172: 42.92 173:  9.94 174:132.11 175:133.41 176: 16.13
 177:216.98 178: 21.63 179:  2.19 180: 11.95 181:197.80 182: 68.72 183:124.80 184: 84.83
 185:  4.45 186: 53.26 187: 10.08 188: 35.60 189:147.78 190:115.86 191:  5.32 192:263.52
 193: 19.90 194:156.91 195: 10.19 196: 90.14 197: 75.83 198:128.76 199: 35.18 200: 16.11
 201: 65.98 202: 34.08 203: 61.95 204: 79.26 205:446.62 206: 60.51 207: 54.80 208: 50.80
 209: 32.62 210: 17.94
 Raman intensities (Ä⁴*amu⁻¹)
   1:  0.00   2:  0.00   3:  0.00   4:  0.00   5:  0.00   6:  0.00   7:  0.00   8:  0.00
   9:  0.00  10:  0.00  11:  0.00  12:  0.00  13:  0.00  14:  0.00  15:  0.00  16:  0.00
  17:  0.00  18:  0.00  19:  0.00  20:  0.00  21:  0.00  22:  0.00  23:  0.00  24:  0.00
  25:  0.00  26:  0.00  27:  0.00  28:  0.00  29:  0.00  30:  0.00  31:  0.00  32:  0.00
  33:  0.00  34:  0.00  35:  0.00  36:  0.00  37:  0.00  38:  0.00  39:  0.00  40:  0.00
  41:  0.00  42:  0.00  43:  0.00  44:  0.00  45:  0.00  46:  0.00  47:  0.00  48:  0.00
  49:  0.00  50:  0.00  51:  0.00  52:  0.00  53:  0.00  54:  0.00  55:  0.00  56:  0.00
  57:  0.00  58:  0.00  59:  0.00  60:  0.00  61:  0.00  62:  0.00  63:  0.00  64:  0.00
  65:  0.00  66:  0.00  67:  0.00  68:  0.00  69:  0.00  70:  0.00  71:  0.00  72:  0.00
  73:  0.00  74:  0.00  75:  0.00  76:  0.00  77:  0.00  78:  0.00  79:  0.00  80:  0.00
  81:  0.00  82:  0.00  83:  0.00  84:  0.00  85:  0.00  86:  0.00  87:  0.00  88:  0.00
  89:  0.00  90:  0.00  91:  0.00  92:  0.00  93:  0.00  94:  0.00  95:  0.00  96:  0.00
  97:  0.00  98:  0.00  99:  0.00 100:  0.00 101:  0.00 102:  0.00 103:  0.00 104:  0.00
 105:  0.00 106:  0.00 107:  0.00 108:  0.00 109:  0.00 110:  0.00 111:  0.00 112:  0.00
 113:  0.00 114:  0.00 115:  0.00 116:  0.00 117:  0.00 118:  0.00 119:  0.00 120:  0.00
 121:  0.00 122:  0.00 123:  0.00 124:  0.00 125:  0.00 126:  0.00 127:  0.00 128:  0.00
 129:  0.00 130:  0.00 131:  0.00 132:  0.00 133:  0.00 134:  0.00 135:  0.00 136:  0.00
 137:  0.00 138:  0.00 139:  0.00 140:  0.00 141:  0.00 142:  0.00 143:  0.00 144:  0.00
 145:  0.00 146:  0.00 147:  0.00 148:  0.00 149:  0.00 150:  0.00 151:  0.00 152:  0.00
 153:  0.00 154:  0.00 155:  0.00 156:  0.00 157:  0.00 158:  0.00 159:  0.00 160:  0.00
 161:  0.00 162:  0.00 163:  0.00 164:  0.00 165:  0.00 166:  0.00 167:  0.00 168:  0.00
 169:  0.00 170:  0.00 171:  0.00 172:  0.00 173:  0.00 174:  0.00 175:  0.00 176:  0.00
 177:  0.00 178:  0.00 179:  0.00 180:  0.00 181:  0.00 182:  0.00 183:  0.00 184:  0.00
 185:  0.00 186:  0.00 187:  0.00 188:  0.00 189:  0.00 190:  0.00 191:  0.00 192:  0.00
 193:  0.00 194:  0.00 195:  0.00 196:  0.00 197:  0.00 198:  0.00 199:  0.00 200:  0.00
 201:  0.00 202:  0.00 203:  0.00 204:  0.00 205:  0.00 206:  0.00 207:  0.00 208:  0.00
 209:  0.00 210:  0.00
 output can be read by thermo (or use thermo option).
 writing <g98.out> molden fake output.
 recommended (thermochemical) frequency scaling factor: 1.0
           -------------------------------------------------
          |             Thermodynamic Functions             |
           -------------------------------------------------

Molecule has no symmetry elements
It seems to be the C1 point group
c1  symmetry found (for desy threshold:  0.10E+00) used in thermo

          ...................................................
          :                      SETUP                      :
          :.................................................:
          :  # frequencies                         204      :
          :  # imaginary freq.                       0      :
          :  linear?                             false      :
          :  only rotor calc.                    false      :
          :  symmetry                               c1      :
          :  rotational number                       1      :
          :  scaling factor                  1.0000000      :
          :  rotor cutoff                   50.0000000 cm⁻¹ :
          :  imag. cutoff                  -20.0000000 cm⁻¹ :
          :.................................................:

    mode    ω/cm⁻¹     T·S(HO)/kcal·mol⁻¹    T·S(FR)/kcal·mol⁻¹   T·S(vib)
   ------------------------------------------------------------------------
       1     10.13    -2.38072 (  0.17%)    -1.52942 ( 99.83%)    -1.53085
       2     20.58    -1.96094 (  2.79%)    -1.31945 ( 97.21%)    -1.33736
       3     22.21    -1.91582 (  3.75%)    -1.29687 ( 96.25%)    -1.32008
       4     25.63    -1.83120 (  6.46%)    -1.25452 ( 93.54%)    -1.29176
       5     31.96    -1.70055 ( 14.31%)    -1.18909 ( 85.69%)    -1.26228
       6     35.95    -1.63105 ( 21.09%)    -1.15426 ( 78.91%)    -1.25482
       7     51.29    -1.42131 ( 52.54%)    -1.04901 ( 47.46%)    -1.24462
       8     55.01    -1.38003 ( 59.43%)    -1.02826 ( 40.57%)    -1.23733
       9     61.69    -1.31261 ( 69.85%)    -0.99432 ( 30.15%)    -1.21664
      10     65.09    -1.28100 ( 74.18%)    -0.97840 ( 25.82%)    -1.20286
      11     71.69    -1.22432 ( 80.87%)    -0.94980 ( 19.13%)    -1.17179
      12     88.63    -1.10022 ( 90.80%)    -0.88698 (  9.20%)    -1.08060
      13     89.85    -1.09222 ( 91.25%)    -0.88291 (  8.75%)    -1.07390
      14     98.44    -1.03904 ( 93.76%)    -0.85586 (  6.24%)    -1.02761
      15    118.22    -0.93301 ( 96.90%)    -0.80163 (  3.10%)    -0.92893
      16    130.76    -0.87501 ( 97.91%)    -0.77175 (  2.09%)    -0.87285
      17    147.17    -0.80752 ( 98.69%)    -0.73673 (  1.31%)    -0.80659
      18    163.51    -0.74801 ( 99.13%)    -0.70555 (  0.87%)    -0.74764
      19    198.42    -0.64034 ( 99.60%)    -0.64822 (  0.40%)    -0.64037
      20    211.58    -0.60524 ( 99.69%)    -0.62919 (  0.31%)    -0.60531
      21    221.58    -0.58025 ( 99.74%)    -0.61552 (  0.26%)    -0.58034
      22    228.14    -0.56456 ( 99.77%)    -0.60687 (  0.23%)    -0.56466
      23    240.08    -0.53736 ( 99.81%)    -0.59177 (  0.19%)    -0.53746
      24    247.32    -0.52164 ( 99.83%)    -0.58296 (  0.17%)    -0.52174
      25    254.80    -0.50599 ( 99.85%)    -0.57413 (  0.15%)    -0.50609
      26    267.33    -0.48104 ( 99.88%)    -0.55991 (  0.12%)    -0.48114
      27    289.90    -0.43963 ( 99.91%)    -0.53590 (  0.09%)    -0.43971
   ------------------------------------------------------------------------

   temp. (K)  partition function   enthalpy   heat capacity  entropy
                                   cal/mol     cal/K/mol   cal/K/mol   J/K/mol
 298.15  VIB  0.144E+16            19723.759    126.587    122.012
         ROT  0.913E+08              888.752      2.981     39.406
         INT  0.131E+24            20612.511    129.568    161.419
         TR   0.129E+29             1481.254      4.968     44.847
         TOT                       22093.7649   134.5360   206.2657   863.0158

       T/K    H(0)-H(T)+PV         H(T)/Eh          T*S/Eh         G(T)/Eh
   ------------------------------------------------------------------------
    298.15    0.352087E-01    0.565259E+00    0.980035E-01    0.467255E+00
   ------------------------------------------------------------------------

         :::::::::::::::::::::::::::::::::::::::::::::::::::::
         ::                  THERMODYNAMIC                  ::
         :::::::::::::::::::::::::::::::::::::::::::::::::::::
         :: total free energy        -110.169704181637 Eh   ::
         ::.................................................::
         :: total energy             -110.636959319702 Eh   ::
         :: zero point energy           0.530049986227 Eh   ::
         :: G(RRHO) w/o ZPVE           -0.062794848162 Eh   ::
         :: G(RRHO) contrib.            0.467255138065 Eh   ::
         :::::::::::::::::::::::::::::::::::::::::::::::::::::

optimized geometry written to: xtbopt.xyz


           -------------------------------------------------
          | TOTAL ENERGY             -110.636959319702 Eh   |
          | TOTAL ENTHALPY           -110.071700677943 Eh   |
          | TOTAL FREE ENERGY        -110.169704181637 Eh   |
          | GRADIENT NORM               0.000034320107 Eh/α |
          | HOMO-LUMO GAP               0.604488404820 eV   |
           -------------------------------------------------

------------------------------------------------------------------------
 * finished run on 2025/07/16 at 13:47:42.843     
------------------------------------------------------------------------
 total:
 * wall-time:     0 d,  0 h,  0 min,  8.378 sec
 *  cpu-time:     0 d,  0 h,  5 min, 19.912 sec
 * ratio c/w:    38.185 speedup
 SCF:
 * wall-time:     0 d,  0 h,  0 min,  0.218 sec
 *  cpu-time:     0 d,  0 h,  0 min,  8.389 sec
 * ratio c/w:    38.397 speedup
 ANC optimizer:
 * wall-time:     0 d,  0 h,  0 min,  5.273 sec
 *  cpu-time:     0 d,  0 h,  3 min, 30.883 sec
 * ratio c/w:    39.994 speedup
 analytical hessian:
 * wall-time:     0 d,  0 h,  0 min,  2.723 sec
 *  cpu-time:     0 d,  0 h,  1 min, 34.598 sec
 * ratio c/w:    34.737 speedup

