111
 energy: -173.778564973915 gnorm: 0.000188759094 xtb: 6.7.1 (edcfbbe)
N            0.12196191520349        4.00526861488762       -0.07229942532260
C            0.09938851615987        2.84823405587975       -0.04848121822527
C            0.05656767822621        1.45585021053506       -0.02955436191069
C            1.26522251246661        0.69028727851346       -0.03195520271482
C            2.56214787518850        1.35305475938602        0.00409975700437
C            2.82244664582369        2.38896030770447        0.90891770768458
C            4.05233549219986        3.00226374351512        0.95009016355112
C            5.07175051533954        2.60978466274064        0.07553385013852
N            6.31877385016612        3.23314758166028        0.11244234367387
C            6.40834706556316        4.60265252054138        0.38007107517799
C            7.46628530406946        5.10644662940873        1.14045062308422
C            7.55271385014966        6.46057043785787        1.39745878770121
C            6.59013962095854        7.33084205375145        0.90878854314028
C            5.53506572808044        6.83501721512351        0.15800707927255
C            5.44078530517502        5.48337928942229       -0.10932146743022
C            7.47891604160235        2.48725237057715       -0.11872361149041
C            8.55066239055051        3.04697495613601       -0.81822581174437
C            9.69557250781545        2.30760047472607       -1.04107760194395
C            9.79074743265790        1.00428383013002       -0.57740022774043
C            8.72775612777618        0.44266050152629        0.11360820196720
C            7.57936772478062        1.17384310672875        0.34622627539721
C            4.81643231078893        1.58071611557715       -0.83723415641759
C            3.58736245429809        0.96539910911279       -0.86767058421211
C            1.17749044210434       -0.70545375433073       -0.04172258618701
C            2.36259884501418       -1.43578457645571        0.16898499641747
N            3.32693209826793       -2.01525616421111        0.41717715779409
C           -0.06142268684369       -1.39196627122817       -0.04455381214995
C           -0.12594889876066       -2.83253550302003       -0.04509903740187
C           -1.07980396376997       -3.52436561501455        0.72476388165512
C           -1.13680174549708       -4.89504989953194        0.72809456661380
C           -0.24502220206451       -5.64806686854761       -0.04768606329551
N           -0.30036715700065       -7.04230977794690       -0.04561043534757
C           -1.53644620025811       -7.68836590690695        0.02183046537562
C           -2.65234046971377       -7.14658410764433       -0.62234036250374
C           -3.87371723564791       -7.78629156887542       -0.54914817599964
C           -4.00496173612585       -8.97180585200080        0.15863032316517
C           -2.90117406298022       -9.51315832006560        0.80062556631195
C           -1.67556906070803       -8.88053625992639        0.73817607148478
C            0.88181560058996       -7.78289740179069       -0.10865612327772
C            2.03653692530569       -7.32514286403083        0.53237182686489
C            3.20464299149155       -8.05795024338241        0.46349242766791
C            3.24343080333300       -9.25448269412595       -0.23682236872376
C            2.10084351291903       -9.71283244761373       -0.87556439316775
C            0.92794163906035       -8.98667715585043       -0.81754416959687
C            0.70400702020332       -4.97183993169737       -0.82622104484684
C            0.76153286890268       -3.60136003196008       -0.82181022381944
C           -1.25449705381664       -0.59333937850928       -0.03619360825224
C           -2.50977243764769       -1.18840336343585       -0.20145085313388
N           -3.55208959795682       -1.65112375610905       -0.38719091944581
C           -1.19098194857946        0.80107123086190       -0.02703976100513
C           -2.43456085234684        1.58300006977638       -0.03367251728587
C           -2.68543472271155        2.52270308534508       -1.03269190967831
C           -3.86234839424624        3.23769106256971       -1.04826375690617
C           -4.82309916734554        3.04084300582256       -0.05266000479728
N           -6.01619962101739        3.76294932380372       -0.06623521804961
C           -7.20712324948460        3.15189664751807        0.34164349135792
C           -7.44852778558485        1.80809136897272        0.04755867253648
C           -8.62662999278661        1.21124085510761        0.45224503237669
C           -9.58036574451374        1.93895081437709        1.14738689656148
C           -9.34545037772368        3.27350641071543        1.44064568063501
C           -8.16883314473735        3.87952957238210        1.04561253829022
C           -6.02179691829742        5.09544992993864       -0.49334286237516
C           -4.95162601852509        5.93898546271256       -0.18750261737969
C           -4.96260278961334        7.25368736931769       -0.61094588125892
C           -6.03561168647579        7.74922885512196       -1.33579428617136
C           -7.10049139104067        6.91567691590753       -1.64134822637707
C           -7.09775601950344        5.59777401886955       -1.22805896726922
C           -4.56978190417137        2.10681247797276        0.95545414144671
C           -3.39587420109866        1.38704051955602        0.95775505121642
H            2.05680436439632        2.68761803447686        1.60982390286915
H            4.24145727121762        3.77956425421736        1.67537981930982
H            8.20719120467315        4.42739290732121        1.53548054760898
H            8.37222395064343        6.83771116880547        1.99087106552197
H            6.66042267012642        8.38833628573387        1.11288560347428
H            4.78249810926957        7.50535020639668       -0.22967998069630
H            4.62439166488148        5.10088713170731       -0.70421113563100
H            8.46987210187807        4.05619747400962       -1.19392952851471
H           10.51539771976047        2.74884536266660       -1.58809921716019
H           10.68665154026712        0.42912233829222       -0.75477919853076
H            8.79485966344950       -0.57007650888829        0.48221506928969
H            6.75707057230882        0.73869847167686        0.89513247316244
H            5.58556602382440        1.28280759809636       -1.53422297773047
H            3.39963678125833        0.19077128443290       -1.59726214938739
H           -1.75398024497539       -2.96721870673258        1.35824640870508
H           -1.85651974028405       -5.40278283829683        1.35329168565242
H           -2.54874815313574       -6.23060187023269       -1.18523655073701
H           -4.72670824307661       -7.35927689920577       -1.05515869827727
H           -4.96144548467503       -9.46893308039193        0.21125077053350
H           -2.99791413921697      -10.43036023128374        1.36215514828064
H           -0.82146745827838       -9.29253603299057        1.25472420379532
H            2.00429077844429       -6.40040327891828        1.08946837204942
H            4.08835848395716       -7.69503932161790        0.96681704428257
H            4.15854330165739       -9.82454328135675       -0.28570415170001
H            2.12621428999018      -10.63841518962416       -1.43111553445991
H            0.04414024373249       -9.33487244675706       -1.33113899975352
H            1.37644397648558       -5.53763816486828       -1.45422007859870
H            1.47621548516691       -3.10161888980320       -1.45910672726814
H           -1.95952525354447        2.67186099009015       -1.81867980310978
H           -4.05321863645256        3.94332195502030       -1.84294855884974
H           -6.71233214605549        1.24191202594955       -0.50416032346726
H           -8.80245785523150        0.17254996965018        0.21502054866322
H          -10.50033577960633        1.46842635597119        1.45920934728170
H          -10.07982211293470        3.84463022076618        1.98883794892712
H           -7.97948996617681        4.91460739850546        1.28831331068685
H           -4.12012278757978        5.55834973088861        0.38738044956663
H           -4.13064376843375        7.89652298864954       -0.36482399168638
H           -6.04061744529879        8.77822562645439       -1.66151476144171
H           -7.93547607440314        7.29180184333113       -2.21349647783170
H           -7.91984565376983        4.94459614081586       -1.48037543603816
H           -5.29512160372096        1.95849879649282        1.74142900652169
H           -3.20611571438512        0.67667895564000        1.74979106299265
