$hessian                                                                        
        0.6356464660  -0.0208825340   0.0838799504  -0.3467277633  -0.0236112202
       -0.0411068599  -0.0435619163   0.0435665233  -0.0110318349   0.0075122301
       -0.0028475616   0.0015648701   0.0053486605   0.0043044110   0.0020585559
       -0.0088331623  -0.0000765669  -0.0021645945   0.0091950824   0.0044637150
        0.0011373390  -0.0041561074  -0.0084878788  -0.0019038335  -0.0016648983
        0.0023863311  -0.0000719212   0.0002388566   0.0006723642  -0.0000555552
       -0.0003202830   0.0000822917   0.0002920145   0.0002638338   0.0001913099
       -0.0002332464   0.0000175126  -0.0001110577  -0.0000802328   0.0000019038
       -0.0001149179   0.0000882026  -0.0000384984  -0.0007134770   0.0004450720
        0.0007785521  -0.0003059480  -0.0002916794   0.0000840745  -0.0001064759
       -0.0001152878   0.0000615822  -0.0000808610  -0.0000359462  -0.0004138566
       -0.0002698924   0.0001857290   0.0002658354   0.0003773165  -0.0003655582
       -0.0003938592   0.0003387420   0.0004712910   0.0011123211  -0.0000813498
        0.0008450743  -0.0235872005  -0.0015024404  -0.0012960153   0.0412319404
       -0.0276025968   0.0074727945   0.0015715026   0.0074887659  -0.0009722467
       -0.0021704109   0.0000236008   0.0007405176   0.0004148796  -0.0001926816
       -0.0003729765   0.0000140753  -0.0002121304   0.0001236196   0.0002013743
       -0.0001554665  -0.0003578662  -0.0003662496   0.0002383850   0.0004245472
        0.0004190138   0.0005677597  -0.0001608614   0.0003468129   0.0008156402
        0.0002049931   0.0003433247  -0.0002441152  -0.0004090483  -0.0002650486
        0.0001584307   0.0003167931  -0.0000172604  -0.0002219798  -0.0000166508
       -0.0004924612   0.0001306925   0.0005012656   0.0010150228  -0.0015429147
       -0.0009055636  -0.1367687441  -0.0491417446  -0.0120471538  -0.0990833460
        0.1024158497  -0.0228854917  -0.0193846694  -0.0033610808  -0.0039334148
       -0.0002383600  -0.0004064522  -0.0002956586  -0.0004799602  -0.0004679337
        0.0004530306  -0.0000652282  -0.0000383187   0.0001179265   0.0000193148
       -0.0000136576  -0.0000047440  -0.0000150496  -0.0000194842  -0.0000213075
        0.0000177662   0.0000017656   0.0000053231  -0.0000125723  -0.0000058103
       -0.0000330384   0.0000067623  -0.0000024444   0.0000288270   0.0000163161
       -0.0000186070   0.0000316274   0.0000865122   0.0001138786   0.0000541275
        0.0007418489  -0.0002293779  -0.0009049501   0.0001736133  -0.0007355526
       -0.0004087556  -0.0004063543  -0.0001740440   0.0002620631   0.0000415396
        0.0000256841   0.0000302496  -0.0000489920  -0.0000030106  -0.0000149889
        0.0000414354  -0.0000155238   0.0000116365  -0.0000020483   0.0000496801
        0.0000188952   0.0000089463  -0.0000009009  -0.0000185789  -0.0000015287
        0.0000351578   0.0000033843   0.0000051603  -0.0000437086  -0.0001554526
       -0.0177282440  -0.0244065764   0.0009015931
       -0.0208825340   0.6277757157  -0.0642012618   0.0472621030  -0.0845617151
        0.0128598819   0.0164705428   0.0046394568   0.0018353080   0.0055229774
       -0.0083516300   0.0017126243   0.0029646978   0.0033068890   0.0012180857
       -0.0058233286  -0.0013705329  -0.0013036956   0.0060153704   0.0040064258
        0.0004817877  -0.0026796409  -0.0059725205  -0.0010843978  -0.0010221602
        0.0017502976  -0.0000214937   0.0003446979   0.0003471909  -0.0000468434
       -0.0002124417   0.0002059415   0.0001643771   0.0002700499   0.0001148777
       -0.0002027637   0.0000865421   0.0000519743  -0.0001448341  -0.0001003611
       -0.0001975928   0.0001660480   0.0001911830  -0.0004197794   0.0001795756
        0.0003861931  -0.0003439968  -0.0000646663   0.0002302482  -0.0000421183
       -0.0001873171  -0.0001135018  -0.0000915624   0.0000671011  -0.0003118389
       -0.0002827731   0.0001232594   0.0000137892   0.0003598583  -0.0002009783
       -0.0002273500   0.0001017322   0.0004339828   0.0021021385   0.0002158856
        0.0011892949  -0.0139770982   0.0051401962  -0.0011581978   0.0168235184
       -0.0611374921   0.0087859575   0.0035035760  -0.0030321602   0.0006253535
       -0.0007384891  -0.0002078206   0.0002324466   0.0003062346   0.0000013244
       -0.0003117500   0.0000002736  -0.0000091763   0.0001297252   0.0000334542
        0.0000931564  -0.0000630423  -0.0000053444   0.0000175838  -0.0000124637
       -0.0000972999   0.0000721938  -0.0001292311  -0.0000716808  -0.0001572321
       -0.0002222553  -0.0001146927   0.0000001985   0.0000026350   0.0000051213
        0.0000355740   0.0000468870   0.0000895087  -0.0000548171  -0.0000205244
       -0.0000973535   0.0001194856   0.0001558866  -0.0001016991  -0.0013175332
        0.0003036740  -0.1291174015  -0.2417807003   0.0018413020   0.1021301468
       -0.2350899576   0.0397497013  -0.0271788971  -0.0031777638  -0.0034078734
        0.0002654494  -0.0002433613  -0.0000543511  -0.0003444681  -0.0003441526
        0.0002290242  -0.0000488355  -0.0000594781   0.0000917974  -0.0000092405
       -0.0000323652   0.0000198872  -0.0000549869  -0.0000025136  -0.0000011700
        0.0000001620   0.0000274784  -0.0000087303  -0.0000233367   0.0000134661
       -0.0000294707   0.0000226974   0.0000218694   0.0000160963   0.0000407978
       -0.0000065576   0.0000007707   0.0000928476   0.0000990861   0.0000101877
        0.0004702613   0.0000914703  -0.0007663210  -0.0002705087   0.0001435577
       -0.0004164265  -0.0004860644  -0.0000651677   0.0003837183   0.0000565210
        0.0000191056  -0.0000007602  -0.0000312865   0.0000075126   0.0000018619
        0.0000304257  -0.0000166800   0.0000132452   0.0000089870  -0.0000049784
        0.0000193870  -0.0000030684  -0.0000151904  -0.0000265096  -0.0000082982
        0.0000197803   0.0000017719  -0.0000304263  -0.0000922666  -0.0000786468
       -0.0015568826  -0.0003176985   0.0010733331
        0.0838799504  -0.0642012618   0.1277981877  -0.0504852422   0.0025350039
       -0.0478985672  -0.0084785023   0.0053314991  -0.0011491455  -0.0006187681
        0.0009464127   0.0027864165   0.0007143330   0.0007077694   0.0002173299
       -0.0005634388   0.0005398064  -0.0001783553   0.0012459469   0.0005432327
        0.0000796051  -0.0008500833  -0.0011105254  -0.0003064621  -0.0001624850
        0.0001960419  -0.0000665976   0.0000729398   0.0001605394   0.0000753753
       -0.0000509684   0.0000378627   0.0000142948   0.0000571447   0.0000048451
       -0.0000604233   0.0000160287   0.0000107434  -0.0000229796  -0.0000005575
       -0.0000496681   0.0000110545   0.0000095167  -0.0000992852   0.0000772573
        0.0001211569  -0.0000511636  -0.0000325785   0.0000328071  -0.0000195923
       -0.0000220479  -0.0000146756   0.0000036503   0.0000077690  -0.0000575086
       -0.0000697883   0.0000359984   0.0000263954   0.0000722191  -0.0000310456
       -0.0000714401   0.0000875171   0.0000552540  -0.0001729233   0.0000823075
        0.0005138463  -0.0019618431  -0.0005533637  -0.0022410583   0.0056860904
        0.0037686696  -0.0008362633  -0.0023298006   0.0008968228   0.0055446423
        0.0000510721  -0.0006874531  -0.0000454692   0.0000621620   0.0001685317
        0.0000360992   0.0000597675  -0.0000220120   0.0000274339  -0.0000223052
        0.0000718598   0.0000144713   0.0000754960  -0.0000807404  -0.0001032790
       -0.0003985180  -0.0001001067   0.0000128272  -0.0002058590   0.0000798472
       -0.0000072848  -0.0000604252   0.0001580187   0.0001157223   0.0000808832
        0.0000018009  -0.0000638450   0.0000437877   0.0000046642   0.0000500064
        0.0002012540   0.0000021298  -0.0001228528   0.0002756249   0.0013512345
        0.0001551177  -0.0015950988   0.0144217885  -0.0431034594  -0.0223657435
        0.0399338071  -0.0425298731   0.0005699478  -0.0000735593   0.0011513986
        0.0003450695  -0.0002466622   0.0000166252  -0.0000784433  -0.0000754538
        0.0000868732   0.0000029669  -0.0000268026   0.0000328950  -0.0000076762
       -0.0000089064   0.0000045536  -0.0000022465   0.0000006027   0.0000065848
       -0.0000111551   0.0000024663  -0.0000007503  -0.0000130635   0.0000145524
       -0.0000098432   0.0000048660   0.0000168962  -0.0000034094   0.0000131900
        0.0000011586  -0.0000011602   0.0000353063   0.0000072715  -0.0000038398
       -0.0000624047   0.0000228128  -0.0002090252   0.0001172452  -0.0001984476
       -0.0002522071  -0.0000350443  -0.0000610000  -0.0000013808  -0.0000117015
       -0.0000036260   0.0000076594  -0.0000083699  -0.0000023435  -0.0000221357
        0.0000074340  -0.0000131192   0.0000298647   0.0000208876   0.0000224429
        0.0000347570  -0.0000137700   0.0000107318  -0.0000127671  -0.0000083735
        0.0000080121   0.0000049053  -0.0000426546   0.0000052188  -0.0000177810
       -0.0030681811  -0.0044759104   0.0003510609
       -0.3467277633   0.0472621030  -0.0504852422   0.6626407808   0.0439392943
        0.0746407706  -0.0962759165   0.0516517210  -0.0118238690  -0.0393318352
        0.0322855099  -0.0098693003  -0.0079295515  -0.0059433633  -0.0031909103
        0.0130365040   0.0021638966   0.0032890946  -0.0143782971  -0.0081262486
       -0.0017039018   0.0049830437   0.0155752659   0.0036735528   0.0024754816
       -0.0047163678   0.0002594652  -0.0005857897  -0.0010187512   0.0003950595
        0.0006740991  -0.0002601354  -0.0004004326  -0.0007177863  -0.0002928276
        0.0004262458  -0.0001719721   0.0000232096   0.0002143659   0.0000902757
        0.0003992067  -0.0002803586  -0.0002089999   0.0011626432  -0.0005950019
       -0.0011252272   0.0005228558   0.0003803936  -0.0003398656   0.0002263283
        0.0002586148   0.0000770769   0.0001556951  -0.0000568596   0.0007561098
        0.0006362570  -0.0003903674  -0.0003256019  -0.0009124012   0.0004874025
        0.0008956809  -0.0003350749  -0.0009532478  -0.0045153454  -0.0026131712
       -0.0038180372   0.0265381040  -0.0003474545   0.0004071958  -0.0207300351
        0.0128257384  -0.0026413064  -0.0003556320   0.0006082341   0.0003269266
        0.0005478857   0.0001433621  -0.0004161480  -0.0000296041  -0.0000244091
        0.0000946204  -0.0001384055   0.0001110055  -0.0000636563  -0.0001001569
        0.0001831380   0.0001879932   0.0003192003  -0.0001596890  -0.0002693668
       -0.0003899581  -0.0000754773   0.0002676554   0.0001665446  -0.0003287874
       -0.0001371290  -0.0001741350   0.0001625937   0.0001868577   0.0001530229
       -0.0000408374  -0.0001168984  -0.0000713682   0.0000110207  -0.0001843640
        0.0000309249   0.0000097087  -0.0001383244   0.0001546215   0.0002715937
        0.0002646735  -0.0531583753  -0.0717134097   0.0011281403  -0.0179891014
        0.0033160431  -0.0026956736  -0.1040962695  -0.1121983265   0.0049396806
       -0.0019920533   0.0010880018   0.0000475443   0.0008045815   0.0008748724
       -0.0010795229   0.0000732671   0.0001432209  -0.0001675727   0.0000139613
        0.0000463678  -0.0000196938   0.0000081052   0.0000327450   0.0000199028
       -0.0000094706  -0.0000132870  -0.0000373335   0.0000466175  -0.0000005546
        0.0000590270  -0.0000308222  -0.0000465919  -0.0000362803  -0.0000728967
       -0.0000112810  -0.0000155910  -0.0002025586  -0.0001402480  -0.0000201960
       -0.0008249157  -0.0000765614   0.0014587544  -0.0011185979  -0.0033980336
       -0.0002716610   0.0001523177  -0.0000718317  -0.0000747424  -0.0000090458
       -0.0000290459   0.0000115699   0.0000140625  -0.0000170315   0.0000482323
       -0.0000268944  -0.0000089078  -0.0000010176  -0.0000311101  -0.0000085089
       -0.0000254223   0.0000265774  -0.0000404306   0.0000414550  -0.0000082445
       -0.0000056380   0.0000064376   0.0000765771  -0.0000082260   0.0001762340
       -0.0005618209  -0.0028487225  -0.0017184372
       -0.0236112202  -0.0845617151   0.0025350039   0.0439392943   0.5790331945
       -0.0532338523   0.0674386312  -0.2005318851   0.0255029237   0.0276601667
       -0.0030950026   0.0059108097   0.0092931319   0.0043762443   0.0042239138
       -0.0170341865  -0.0033529278  -0.0039923990   0.0157559928   0.0057154457
        0.0016889764  -0.0044505235  -0.0129546237  -0.0025135189  -0.0031472076
        0.0053811899  -0.0002322381   0.0008568404   0.0009392092  -0.0005060405
       -0.0006790357   0.0003532389   0.0004036451   0.0007571003   0.0001931660
       -0.0004230331   0.0002146298   0.0001654692  -0.0002816364  -0.0002165846
       -0.0004680599   0.0003783078   0.0003818874  -0.0008503016   0.0004021001
        0.0008411149  -0.0005912570  -0.0001282110   0.0005165478  -0.0001270115
       -0.0003985324  -0.0003147248  -0.0001502315   0.0001785573  -0.0007884466
       -0.0007739324   0.0002936873   0.0001827808   0.0011141958  -0.0004746353
       -0.0008282189   0.0002148140   0.0011663599  -0.0002717873   0.0020066446
        0.0018154837  -0.0035885699  -0.0443780209   0.0081685326  -0.0009392962
        0.0135577303  -0.0038444478  -0.0021444980  -0.0050312218   0.0001046592
        0.0018692679   0.0000652652  -0.0001032494  -0.0003749342   0.0001274185
        0.0003882159   0.0002951130   0.0001038178  -0.0000513643  -0.0000855185
       -0.0000930909   0.0000545089  -0.0000963504   0.0000166226  -0.0000161439
        0.0002917006  -0.0001341519  -0.0001331976  -0.0003032097   0.0000110552
        0.0001330915   0.0000128538  -0.0000203841   0.0001002036   0.0000540814
       -0.0001042225  -0.0001434751   0.0001381477   0.0001287132   0.0002451792
        0.0002342911  -0.0001819096  -0.0003541082  -0.0009764917   0.0017691000
        0.0000316281  -0.0180956809  -0.0056554556  -0.0034397121   0.0267882277
       -0.0027629506   0.0042007231  -0.1100750128  -0.2400944579   0.0129110830
       -0.0032772975  -0.0005440297  -0.0014017364  -0.0007229896  -0.0009843106
        0.0007126101  -0.0000633040  -0.0000916905   0.0001394852  -0.0000043363
       -0.0000357685   0.0000190214  -0.0000134059  -0.0000401236  -0.0000073631
        0.0000235530   0.0000071866   0.0000185150  -0.0000225783  -0.0000475833
       -0.0000678979   0.0000475570   0.0000133474   0.0000984447   0.0000479139
        0.0000218275   0.0000079674   0.0000893281   0.0001690150   0.0000741822
        0.0004899504   0.0002051686  -0.0020729472  -0.0024808869  -0.0038888651
        0.0009352360  -0.0000461155  -0.0000412340  -0.0001107421  -0.0000130370
        0.0000042200   0.0000192703  -0.0000627739  -0.0000035797   0.0000069996
       -0.0000295118  -0.0000374481   0.0000007587   0.0000040343  -0.0000614295
        0.0000254223  -0.0000215393  -0.0000432219  -0.0000750607   0.0000287536
       -0.0000357554  -0.0000333167  -0.0000741242  -0.0000070239  -0.0000470745
       -0.0033994935  -0.0039184222   0.0011904272
       -0.0411068599   0.0128598819  -0.0478985672   0.0746407706  -0.0532338523
        0.1196467133  -0.0200904573   0.0234351289  -0.0518550523  -0.0048837520
        0.0062194688  -0.0014765057  -0.0028216120  -0.0018704112  -0.0021094938
        0.0030792596   0.0011570428   0.0009400193  -0.0033826064  -0.0023809590
       -0.0003393681   0.0015576925   0.0037621809   0.0019984092   0.0007083683
       -0.0011752326  -0.0005204163  -0.0000759111  -0.0003646399  -0.0001530440
        0.0001371992  -0.0000282294  -0.0000788588  -0.0001307997  -0.0000201837
        0.0000854954  -0.0000409777  -0.0000732236   0.0000628765   0.0001499678
        0.0000874820  -0.0000858443  -0.0001184159   0.0001805332  -0.0000705954
       -0.0001654393   0.0001814377  -0.0000094328  -0.0001255848  -0.0000614668
        0.0001346367   0.0000937517  -0.0000046943  -0.0000434377   0.0001409065
        0.0001614041  -0.0000425388  -0.0000524471  -0.0001953181   0.0001175299
        0.0001072940  -0.0001515656  -0.0001762785  -0.0023709051  -0.0002952074
        0.0031196126   0.0069423617   0.0064547139  -0.0000435966  -0.0032105174
       -0.0000634809  -0.0039248869   0.0002599150   0.0006904126  -0.0002434255
       -0.0001024701   0.0000505820  -0.0000385786   0.0000466940  -0.0000121443
        0.0000078797  -0.0000935249  -0.0000225050   0.0000181634  -0.0000260525
        0.0000952598   0.0000489615   0.0001060367  -0.0000560428  -0.0000889972
       -0.0001706290  -0.0000266953   0.0000990121   0.0000451223  -0.0001686526
       -0.0000601391  -0.0001102019   0.0000668300   0.0001090578   0.0000887345
        0.0000170817  -0.0000459274   0.0000252444  -0.0000378608  -0.0000456589
        0.0000583248   0.0001184293   0.0000557018   0.0000720314  -0.0000220765
        0.0000561970  -0.0058893105  -0.0103955454   0.0025075019  -0.0060440552
        0.0009084247  -0.0003397310   0.0045354027   0.0123009833  -0.0304755852
       -0.0000566210   0.0004854611   0.0003097478   0.0002034092   0.0002312712
       -0.0002919723   0.0000068350  -0.0000059470  -0.0000289306  -0.0000077606
       -0.0000013578   0.0000010407  -0.0000164371   0.0000070030   0.0000019841
       -0.0000032144   0.0000104771   0.0000039694   0.0000006944   0.0000214543
        0.0000178586  -0.0000076056   0.0000045967  -0.0000248931  -0.0000040676
       -0.0000059077  -0.0000048938  -0.0000154014  -0.0000676178  -0.0000319410
        0.0000296544  -0.0000548395   0.0002324099  -0.0011026414   0.0006436875
        0.0055313331  -0.0000093496  -0.0000576410  -0.0000002169  -0.0000014644
       -0.0000078561   0.0000044747   0.0000086743  -0.0000064683   0.0000068688
        0.0000005652   0.0000052585  -0.0000044417  -0.0000052291   0.0000060180
       -0.0000014904  -0.0000030896  -0.0000003651   0.0000075656  -0.0000085281
        0.0000058222   0.0000079071   0.0000096736   0.0000437812   0.0000190574
       -0.0008006439   0.0006558793   0.0054027548
       -0.0435619163   0.0164705428  -0.0084785023  -0.0962759165   0.0674386312
       -0.0200904573   0.5879497438   0.0144623075   0.0753401279  -0.2500728539
        0.0030841045  -0.0398961783  -0.0216755267  -0.0111007151   0.0004836309
       -0.0242550069  -0.0035887226  -0.0068877788   0.0261756440   0.0074309119
        0.0024511542  -0.0015866565  -0.0202386078  -0.0014998647  -0.0067224837
        0.0092089818  -0.0010442496   0.0013539742   0.0024925484  -0.0010463691
       -0.0013956965   0.0003819604   0.0011009459   0.0013975517   0.0006535818
       -0.0010488470   0.0002737842  -0.0001828020  -0.0004048216   0.0000590629
       -0.0007755138   0.0004926368  -0.0000580828  -0.0024762542   0.0015265265
        0.0027523298  -0.0009477795  -0.0009748058   0.0006507817  -0.0005957618
       -0.0004854181  -0.0001028438  -0.0003427888   0.0000933920  -0.0017086128
       -0.0014799042   0.0007435793   0.0007719187   0.0020701389  -0.0011270281
       -0.0019330056   0.0008777584   0.0021356309  -0.0326457920   0.0209664763
       -0.0021739622  -0.1061844318  -0.0838823713   0.0074453625  -0.0543761033
       -0.0089862403  -0.0087334963  -0.0045617818  -0.0018049386  -0.0008175771
       -0.0005110605  -0.0004669174  -0.0000812721  -0.0001725337  -0.0000119755
       -0.0000487248   0.0003042738   0.0000929129   0.0001672360   0.0000110042
       -0.0002881711  -0.0001898389  -0.0002083948   0.0000153708   0.0001475672
        0.0002786831  -0.0005085917  -0.0001487819  -0.0006583918  -0.0003368108
        0.0004923024   0.0000196641   0.0000708448   0.0001495810   0.0000095264
        0.0000421005   0.0000332960   0.0004226450  -0.0001793366   0.0001604098
        0.0001356625   0.0004199323   0.0001779192  -0.0007620231   0.0009772032
       -0.0001124053   0.0174555530  -0.0049109222   0.0030261929  -0.0053529853
        0.0002887587  -0.0018767093   0.0067181537  -0.0119249190   0.0038592399
       -0.0007751961   0.0005969569   0.0007057687  -0.0010946924  -0.0016616516
        0.0007222515  -0.0001490087  -0.0001972335   0.0003488693  -0.0000164251
       -0.0000979692   0.0000321613  -0.0000516486  -0.0000562040  -0.0000136838
        0.0000183937   0.0000452518   0.0000638302  -0.0001008397   0.0000017474
       -0.0001466657   0.0000812722   0.0000827074   0.0001334152   0.0001365061
        0.0000039070   0.0000598200   0.0002459618   0.0004957154   0.0001460444
        0.0020609198  -0.0008476094  -0.0034920302   0.0070371338   0.0096313009
       -0.0017751750  -0.0002160026  -0.0001054301  -0.0001214379   0.0000196545
        0.0000098432   0.0000396148  -0.0000891184  -0.0000262827  -0.0000207043
       -0.0000213096  -0.0000350926  -0.0000283329   0.0000183488  -0.0000021417
        0.0000413721  -0.0000304362  -0.0000018712  -0.0001220026   0.0000251553
        0.0000202372  -0.0000249591   0.0000947644  -0.0001480106  -0.0005483790
        0.0008487104  -0.0001231935   0.0011405801
        0.0435665233   0.0046394568   0.0053314991   0.0516517210  -0.2005318851
        0.0234351289   0.0144623075   0.5519750953  -0.0416752530   0.0044942167
       -0.0743017358   0.0002224952  -0.0296585529  -0.0024179672  -0.0087940424
        0.0090092246  -0.0011650001   0.0035947177  -0.0089805562   0.0005199296
       -0.0006951749   0.0021787248   0.0003452062   0.0014326996   0.0033357970
       -0.0040640250   0.0000065737  -0.0009672994  -0.0004934991   0.0006981615
        0.0005303726  -0.0000384137  -0.0001359423  -0.0005548876   0.0002110677
        0.0001834062  -0.0001194352  -0.0003301154   0.0001557500   0.0002012338
        0.0002778130  -0.0002030068  -0.0002247154  -0.0003163621   0.0001331146
        0.0002238367   0.0000509545  -0.0002058203  -0.0003300749  -0.0000409298
        0.0002424480   0.0003728137  -0.0001319081  -0.0001726077   0.0001803276
        0.0006539854  -0.0001412443  -0.0001974269  -0.0006656909   0.0002244641
        0.0005144875   0.0005772091  -0.0009776280   0.0234967059  -0.0003307180
        0.0040729041  -0.0696836875  -0.2160034480   0.0090178367  -0.0397580681
       -0.0107313484  -0.0053132344   0.0058660936   0.0096180231   0.0016118004
       -0.0032175695  -0.0000270495   0.0001935806   0.0005563851  -0.0002636559
       -0.0006045891  -0.0003465854  -0.0001768583   0.0002938426   0.0000275309
        0.0002142689  -0.0000556170   0.0002121381  -0.0001234602  -0.0000458787
       -0.0005445818   0.0004662831   0.0002059283   0.0005292992  -0.0000389276
       -0.0002113695  -0.0001721424   0.0001155093  -0.0000060470   0.0000965061
        0.0001504976   0.0001004840   0.0001039734  -0.0002903558  -0.0003918203
       -0.0004719515   0.0006139762   0.0005123728   0.0018909048  -0.0023590513
       -0.0001867143  -0.0068058738  -0.0082673978   0.0009449084  -0.0010528783
        0.0014842207   0.0010756835   0.0085631326  -0.0246326340   0.0043704063
        0.0015618632   0.0008757546   0.0009694237   0.0006229028   0.0007148531
       -0.0009996627  -0.0000711933   0.0001173974  -0.0000544035   0.0000698370
        0.0000397450  -0.0000470304  -0.0000220049  -0.0000068112  -0.0000279335
        0.0000499487  -0.0000217108  -0.0000196895   0.0000579990  -0.0000330892
        0.0000497906  -0.0000374432  -0.0000991913   0.0000020375  -0.0000704458
       -0.0000534960   0.0000509484  -0.0000061390   0.0000005295  -0.0000756366
       -0.0003593844  -0.0001556287   0.0012620336  -0.0105664474  -0.0247078342
        0.0008614235  -0.0000227172   0.0000442330   0.0000458029   0.0000544174
        0.0000200995   0.0000525308  -0.0000796215  -0.0000311904   0.0000341722
        0.0000335576  -0.0000456545   0.0000244876  -0.0000615363   0.0000363952
        0.0000003683   0.0000402537  -0.0000682851   0.0000239025  -0.0000320817
        0.0000574438   0.0000408309   0.0000403877  -0.0004346532  -0.0002549764
       -0.0001801222  -0.0004199658  -0.0001826361
       -0.0110318349   0.0018353080  -0.0011491455  -0.0118238690   0.0255029237
       -0.0518550523   0.0753401279  -0.0416752530   0.1303638058  -0.0400481389
        0.0008645008  -0.0446683048  -0.0029161014   0.0000338663  -0.0005520276
       -0.0059295064   0.0002682048   0.0005232682   0.0052321713   0.0019993795
        0.0009926662  -0.0012867337  -0.0066740751   0.0002285746  -0.0017730606
        0.0025781587   0.0002878744   0.0002909643   0.0004785118  -0.0005445455
       -0.0002934999  -0.0000174172   0.0002486840   0.0002724727   0.0002297311
       -0.0001247127   0.0000160455  -0.0001485558  -0.0000149324   0.0000924277
       -0.0000728670   0.0000375972  -0.0001409994  -0.0005513928   0.0003138411
        0.0005612976  -0.0000644846  -0.0002980354  -0.0000053304  -0.0002058252
        0.0000131731   0.0001397574  -0.0000909994  -0.0000640909  -0.0003366300
       -0.0001715244   0.0001972270   0.0002470397   0.0003434443  -0.0002460477
       -0.0005670385  -0.0002733606   0.0005582381  -0.0033934532   0.0026246007
       -0.0001834483  -0.0012279289   0.0072730565  -0.0427007147  -0.0048452177
        0.0011163030  -0.0036132110  -0.0020984661   0.0008057829   0.0074238878
       -0.0003470029  -0.0013964785   0.0009865707  -0.0000318109  -0.0001718661
       -0.0000574236   0.0000641444   0.0000420338  -0.0000553839   0.0000833471
       -0.0002089792  -0.0001096350  -0.0003885657   0.0000367719   0.0001478388
        0.0000354485   0.0001081682  -0.0000836501  -0.0002067355   0.0005891526
        0.0001277156   0.0002505095  -0.0001811163  -0.0002253506  -0.0001824473
       -0.0000562307   0.0000950026   0.0000225626   0.0000378593   0.0000734474
       -0.0000887887  -0.0002611908  -0.0000119209   0.0003963543   0.0006725034
       -0.0002890439   0.0053356629  -0.0022387815  -0.0044016833  -0.0019355824
        0.0008785748   0.0081193776  -0.0007379648   0.0015136102   0.0013805078
        0.0000330072  -0.0000712172  -0.0006728677  -0.0002724409  -0.0003382126
        0.0006571231  -0.0000161083  -0.0000108710  -0.0000255936  -0.0000132441
       -0.0000081738   0.0000111493  -0.0000053785  -0.0000089899  -0.0000252006
        0.0000053358   0.0000172425   0.0000363266  -0.0000162682   0.0000024393
       -0.0000164920   0.0000032270   0.0000218043   0.0000021508   0.0000256965
        0.0000181638   0.0000074022  -0.0000166615   0.0000271459   0.0000354395
        0.0007023636   0.0000233856  -0.0009411615   0.0025917063   0.0050005534
        0.0003508487  -0.0000252531  -0.0000300494   0.0000051169  -0.0000161433
       -0.0000072932   0.0000015743   0.0000220331   0.0000083729  -0.0000065534
       -0.0000416817   0.0000023722  -0.0000006303   0.0000311806   0.0000135508
        0.0000195146  -0.0000047642   0.0000330976  -0.0000165763   0.0000034206
       -0.0000024015  -0.0000123561   0.0000109300   0.0000261558  -0.0000286512
        0.0002554169  -0.0000891234  -0.0002515015
        0.0075122301   0.0055229774  -0.0006187681  -0.0393318352   0.0276601667
       -0.0048837520  -0.2500728539   0.0044942167  -0.0400481389   0.6010474698
       -0.0193659014   0.0862577327  -0.0939209891  -0.0722967634  -0.0069537686
       -0.0372270188  -0.0332744246  -0.0049776298  -0.0143003395   0.0045801531
        0.0002428634  -0.0375427499   0.0370279362  -0.0085744897   0.0012932230
       -0.0079178845   0.0010473643  -0.0019297841  -0.0018713398   0.0011000643
        0.0014812431  -0.0000888629  -0.0012969165  -0.0013123658  -0.0008180168
        0.0011948878  -0.0001439000   0.0005760291   0.0002013605  -0.0005083036
        0.0006817569  -0.0002271850   0.0006674182   0.0030047795  -0.0017214238
       -0.0034077450   0.0004531131   0.0015898268  -0.0002761507   0.0009041763
        0.0001684958  -0.0002821110   0.0002802968   0.0001175510   0.0018377950
        0.0013917792  -0.0009122566  -0.0012136873  -0.0022781668   0.0014163611
        0.0022189660  -0.0005459326  -0.0022645336  -0.1096912069   0.0887316677
       -0.0088666930  -0.0477458235  -0.0294678027  -0.0082889069   0.0106343330
       -0.0063660543   0.0025814578  -0.0013180867   0.0010473139  -0.0005378784
       -0.0012237354  -0.0004917920   0.0007721419   0.0001394598  -0.0008450188
       -0.0003318026   0.0002229156  -0.0001136692  -0.0003471588   0.0003999936
       -0.0005462681  -0.0004860122  -0.0009094650   0.0006139361   0.0009699870
        0.0011718147   0.0008428003  -0.0003986492   0.0002462699   0.0016464238
        0.0003773392   0.0009807496  -0.0006891347  -0.0010060554  -0.0007305979
        0.0000985868   0.0004774789  -0.0004033791   0.0003398433   0.0001374598
       -0.0006833070  -0.0003988089   0.0004506964   0.0006003604  -0.0017524062
       -0.0009482008  -0.0029321004  -0.0005378160  -0.0008857889  -0.0002434569
       -0.0000605408  -0.0001600128   0.0007220549  -0.0014988199  -0.0004828917
        0.0077398155   0.0070338963  -0.0067765850   0.0013789891   0.0015537520
        0.0007461709  -0.0000085517   0.0001948833  -0.0003787613   0.0000661380
        0.0000931146  -0.0000411146   0.0000067295   0.0000213943   0.0000099517
       -0.0000332144  -0.0000601432  -0.0001207673   0.0001274983  -0.0000516628
        0.0001367708  -0.0000461844  -0.0001396293  -0.0001014408  -0.0001329160
       -0.0000734492  -0.0000418094   0.0000870067  -0.0000620120  -0.0003604557
        0.0061271821  -0.0094043260   0.0019199648   0.0006080896   0.0020315632
        0.0004520253  -0.0000014968   0.0002916888   0.0002510615  -0.0000360660
        0.0000907472   0.0000746303  -0.0000742217   0.0000200910   0.0000952142
       -0.0000293804  -0.0000635309   0.0000235049  -0.0000618126  -0.0000645574
        0.0000065204   0.0000603720  -0.0001187271  -0.0000048774   0.0001070757
       -0.0000007551  -0.0000254075   0.0002879032  -0.0000809789   0.0000282560
        0.0000017400   0.0001161128   0.0002229929
       -0.0028475616  -0.0083516300   0.0009464127   0.0322855099  -0.0030950026
        0.0062194688   0.0030841045  -0.0743017358   0.0008645008  -0.0193659014
        0.4458574247   0.0037773449  -0.0286456676  -0.1380307672   0.0091595358