104
 energy: -164.284863604443 gnorm: 0.000188500538 xtb: 6.7.1 (edcfbbe)
O            0.01412860884505        6.30042660740286        0.12833625539165
C            0.00130725877144        5.09133831830144        0.09128324721991
C            1.16504414046577        4.16906642552420        0.05934665024806
C            2.51532798487494        4.45608488155710        0.06884406295235
C            3.41650863220773        3.40126734305542        0.03408794074328
C            2.97047991789461        2.08328050640442       -0.01083621960791
N            3.91674122044016        1.03350625790286       -0.04592048472705
C            4.71634010051454        0.88993686685314       -1.17571686971965
C            4.46528481552624        1.65412159282647       -2.31855479006340
C            5.25062709050521        1.52200808824385       -3.44535516589919
C            6.29612860159262        0.61502766028215       -3.46487077090214
C            6.52962757606989       -0.16774528530176       -2.35030274822704
C            5.74976685004709       -0.04844833275288       -1.20935225013000
C            6.05485433642366       -0.93169499230362       -0.02547531560822
C            6.25776443790817       -2.36971616451816       -0.45645722137841
C            5.34663947609407       -3.21867919974434       -1.04439224545645
C            5.75118851427140       -4.50892013170233       -1.36048344415203
C            7.04331470608936       -4.93343812649621       -1.09113511569591
C            7.96350937988648       -4.08235426292332       -0.49973834190353
C            7.56554491421302       -2.79454303733898       -0.18176600282504
C            8.28903215626709       -1.69251043496392        0.43461286229026
C            9.59399155908854       -1.59838048009053        0.88852226288167
C           10.01843912950234       -0.40119896798209        1.44263912418582
C            9.15834798815018        0.68158143745665        1.54337854001441
C            7.84896340690627        0.59300568826044        1.09005525610085
C            7.42414463549156       -0.59460901484618        0.53785823032073
C            5.01279203751060       -0.82272777764430        1.06012967042196
C            5.09040855363495       -1.68878987394090        2.14081492380787
C            4.21517722989650       -1.59057881899670        3.20565025324354
C            3.26177004962329       -0.58761878644290        3.20247809991241
C            3.16977662628442        0.28289515635501        2.13548118341501
C            4.02369788253347        0.16446173087939        1.03564576804873
C            1.60200253159478        1.79091072287625       -0.02732086207226
C            0.70884292028853        2.83817221345557        0.00963787528285
C           -0.75398232292917        2.85357787061123        0.01310877790967
C           -1.66955329993775        1.82587492685939       -0.01848309903014
C           -3.03142477010104        2.14720605207017        0.00327913555839
N           -3.99405780756270        1.11198759080107       -0.02782824481069
C           -4.80957075925197        0.98124838613639       -1.14773623946810
C           -4.60001192909882        1.78361930511244       -2.27283445688513
C           -5.40602603472870        1.66733548822648       -3.38666844235758
C           -6.43257383059089        0.73910212678565       -3.41189142750606
C           -6.62266322416878       -0.08301817781108       -2.31783414423593
C           -5.82120626567294        0.01954247125376       -1.19010432811345
C           -6.06746942914269       -0.92938231154050       -0.04392442627261
C           -6.08417749377552       -2.36475913039210       -0.53209803729725
C           -5.06004149178542       -3.07789628229466       -1.11408266691717
C           -5.29820081339455       -4.39367197018617       -1.48859031565142
C           -6.53901338597603       -4.97666050287507       -1.28184575949502
C           -7.57243591619098       -4.26243606555930       -0.69650528342098
C           -7.34056479692675       -2.94987002307392       -0.32060273425087
C           -8.20968106461798       -1.96409284371031        0.30463240435947
C           -9.53108913061039       -2.04063195791844        0.71194796075358
C          -10.11274207678589       -0.92269859346688        1.28845089520586
C           -9.39103771376888        0.24921173085439        1.45634981969762
C           -8.06585326334320        0.33170364981159        1.05020123786650
C           -7.48464185539453       -0.77687126976783        0.47643387582302
C           -5.07699088596951       -0.75266213910850        1.07992981810978
C           -5.16658304307132       -1.59832974302596        2.17593801843803
C           -4.32514720075137       -1.45876153342257        3.26295923837616
C           -3.39168325100969       -0.43697477855839        3.26421482434010
C           -3.28898668095122        0.41403566183401        2.18274424334249
C           -4.11077857117680        0.25634357473694        1.06314446235765
C           -3.44955700822485        3.47400305167099        0.05343094292008
C           -2.52560228825834        4.50932102322502        0.08361660035969
C           -1.18184995236178        4.19385597433735        0.06483505990576
H            2.85608217540382        5.47910171024756        0.11058792246566
H            4.47947496215710        3.59161334050266        0.03956418882315
H            3.64315207619304        2.35340831695549       -2.32600417285570
H            5.03868906960451        2.12900054890173       -4.31280823538047
H            6.91694009273412        0.51179088217111       -4.34118290762296
H            7.33330178678390       -0.88954518104882       -2.35706278418438
H            4.33999730379349       -2.88761615126485       -1.25505663939281
H            5.05114720968592       -5.18989909496432       -1.82181330302538
H            7.33608283692294       -5.94163712105835       -1.34601503947171
H            8.96884242934239       -4.41760456422532       -0.29186782654637
H           10.26772056779125       -2.43904796308682        0.81298905827787
H           11.03317770754454       -0.30947287054299        1.80181104579997
H            9.51115509140768        1.60446830886174        1.97978297599192
H            7.17855227983570        1.43663401953112        1.17057390781736
H            5.85993101120810       -2.44692916694326        2.14390462802516
H            4.28876243945671       -2.27625499834328        4.03534299590533
H            2.58572270417581       -0.47482844448328        4.03687593717522
H            2.43384933264513        1.07147234841505        2.16406426365547
H            1.27228592131956        0.76386234481203       -0.07603716648831
H           -1.36306693791923        0.79149703451620       -0.06377209967236
H           -3.79328578040939        2.50043316828712       -2.27821154181875
H           -5.22514400642743        2.30411103363546       -4.23969089501980
H           -7.06976402967520        0.64838214563215       -4.27774298664155
H           -7.40721526378772       -0.82555533878969       -2.33077119858937
H           -4.09317154683572       -2.62363182312932       -1.27610268437674
H           -4.50758730656400       -4.96984282501318       -1.94642610174457
H           -6.70177054455743       -6.00176229657629       -1.58156643951646
H           -8.53730992022589       -4.72085185397474       -0.53778061686789
H          -10.09732455665097       -2.95130690247272        0.58382170746653
H          -11.14264240904259       -0.96395051257244        1.61205866016996
H           -9.86548571617788        1.10782161761430        1.90832999104673
H           -7.50319590695163        1.24469877952771        1.18218365941166
H           -5.91740093212822       -2.37505431027840        2.17132311059595
H           -4.40768961747708       -2.12867687788733        4.10459432264944
H           -2.74055430912557       -0.29392536450897        4.11365289600991
H           -2.56961655160708        1.21779428469413        2.21351494414411
H           -4.50811817318819        3.68702336167433        0.06808164099251
H           -2.84420584268977        5.53931876022705        0.12905842711324
