49
 energy: -77.133225740138 gnorm: 0.000071689162 xtb: 6.7.1 (edcfbbe)
C           -5.59149054732525        3.40674369488986        0.51958090164922
C           -4.29117043405831        3.62337445078442        0.08898082899021
C           -3.42018515217951        2.56162803709504       -0.05042875752672
C           -3.83822233435941        1.25815877425696        0.23092717219971
C           -2.89966057201387        0.16517477046625        0.06955693865975
N           -1.58035790446216        0.35328008992859        0.21133195715284
C           -0.96115915388287       -0.82112743870693        0.07005707304567
C            0.41508042782449       -1.06652068187358        0.28563721321276
C            0.83828947628935       -2.31330901727370        0.80944990438581
C            2.14750176216714       -2.60335429028334        1.02544683987308
C            3.17658027288914       -1.66221796950101        0.70290176561540
C            4.52590531546945       -1.96319566043326        0.87594794480689
C            5.50816303211747       -1.03242288923224        0.58604148728828
C            5.16875152444439        0.24385998713726        0.11320753162312
C            6.15318333172895        1.21674824434810       -0.18707662956504
C            5.79336857164091        2.46950557023575       -0.64977852932417
C            4.46756077034377        2.79907643336412       -0.83375056517242
C            3.44197319498566        1.85952533892520       -0.54743701987447
C            2.08612785579277        2.15684409389448       -0.72295475179101
C            1.10492261454244        1.21972797280878       -0.44413050339883
C            1.42455784780074       -0.05064270032924        0.03412851550273
C            2.79235043942146       -0.38104736325748        0.22372336097262
C            3.79832281443960        0.57226505268631       -0.06846466745917
N           -1.90235562926435       -1.80526670633391       -0.24534980035904
C           -1.75186490958264       -3.07660713054475       -0.69002802202213
C           -2.84306795648810       -3.81178993502145       -1.03923311584760
C           -4.13527577031664       -3.23936344618958       -0.98326796638135
C           -4.28146317701707       -1.93131314751214       -0.60956116248953
C           -3.15202477784126       -1.19025534278221       -0.23907116276405
C           -5.14224933339404        1.05352642328483        0.68635837805902
C           -6.00878337148266        2.12092897639607        0.82565379775175
H           -6.27361204462081        4.23731763559653        0.62676105764981
H           -3.95723255999683        4.62550275222946       -0.13802788353293
H           -2.40503777004387        2.71852068341905       -0.38097486996078
H            0.08871888931641       -3.02539493246188        1.12554971214074
H            2.43518731040331       -3.54614334158022        1.46766783355642
H            4.80286041005302       -2.94213991838735        1.24216461200186
H            6.55039161245788       -1.28261306081778        0.72431969800939
H            7.19379277339678        0.96385438527854       -0.04507830844441
H            6.56241018773089        3.19695747344554       -0.87087110933963
H            4.18813253608897        3.77654301727154       -1.19871737470088
H            1.80452356309168        3.13601686105377       -1.08371057867756
H            0.06761593757453        1.47391138933941       -0.58616009461633
H           -0.74533180864888       -3.45090513118461       -0.78254579417639
H           -2.71443048847320       -4.82345722917223       -1.38602597258698
H           -4.99072753928981       -3.82813831144078       -1.27235350389047
H           -5.24408559395558       -1.44797485018726       -0.62460984873677
H           -5.46590248418191        0.06258186813075        0.96598306291267
H           -7.01463437880706        1.95086087365257        1.18206432821373
