$hessian                                                                        
        0.5685090756  -0.1139781306   0.1649654251  -0.2695199744  -0.0251574317
       -0.1273685423  -0.0493691580   0.0620242589   0.0097664462  -0.0244058835
       -0.0237288455  -0.0226962675  -0.0022904570   0.0019361704   0.0002887963
        0.0009849019  -0.0001062841   0.0005534011   0.0000711435   0.0005471841
        0.0000327419   0.0000145975   0.0000722442  -0.0000704679  -0.0000401207
        0.0000329682  -0.0000288094   0.0001102790   0.0000743078  -0.0000191860
       -0.0002155415  -0.0000518783   0.0000107502   0.0002490049   0.0001045201
       -0.0000225365  -0.0001040815  -0.0002259225   0.0000766160   0.0000636934
        0.0001688262  -0.0000584551  -0.0000635636  -0.0000838192   0.0000247230
        0.0000105528  -0.0000185665   0.0000026449  -0.0001070187  -0.0000682633
        0.0000134460   0.0001926125   0.0000582044  -0.0000132847  -0.0002557670
       -0.0001017951   0.0000074227   0.0001194724   0.0002070493  -0.0000491612
       -0.0000624151  -0.0001894397   0.0000665059   0.0000170780  -0.0000094266
       -0.0000016738  -0.0000113571  -0.0000037824   0.0000016293  -0.0007946591
       -0.0001876666  -0.0001419646   0.0002479918   0.0004659634   0.0001997862
       -0.0006193240  -0.0000451021  -0.0000499514   0.0004096753  -0.0003363002
       -0.0000406487   0.0001592182   0.0004995280   0.0001025885   0.0003313764
       -0.0012282364  -0.0004934860   0.0411542529  -0.0100480073   0.0155576822
       -0.1016468222  -0.0045212367  -0.0319716749  -0.1453822978   0.1255871511
        0.0174102729  -0.0083254450  -0.0014990846  -0.0055720797  -0.0002295568
        0.0045965547  -0.0019961967  -0.0000012725  -0.0000119152   0.0000154601
       -0.0000056469   0.0000035263   0.0000004433  -0.0000016278   0.0000029348
        0.0000034214  -0.0000026807  -0.0000006368   0.0000014553  -0.0000057457
       -0.0000009790  -0.0000009283  -0.0000020989  -0.0000034745  -0.0000053061
       -0.0000022765  -0.0000042394  -0.0000002682  -0.0000139775   0.0000018211
       -0.0000029140   0.0000298277   0.0000454853  -0.0000348439   0.0000190522
       -0.0000085199   0.0000217485   0.0000083759  -0.0000047847  -0.0000023912
       -0.0000026249  -0.0000093198  -0.0000105173   0.0000420848   0.0000444573
        0.0000617643  -0.0002582286   0.0052395339  -0.0015252635  -0.0090046437
       -0.0200796010  -0.0170083521
       -0.1139781306   0.5459549502   0.1978548014   0.0378139892  -0.0850101560
       -0.0020987657   0.0147495546   0.0206376217   0.0193072098  -0.0235059033
       -0.0087313535  -0.0135957570   0.0022424079  -0.0024946835  -0.0002200481
       -0.0013403028   0.0002836178  -0.0003106027  -0.0000049810  -0.0006879641
       -0.0002302574  -0.0001172359  -0.0000268314   0.0000962586   0.0000623832
       -0.0000884759   0.0000826550  -0.0001895666  -0.0001149220   0.0000304626
        0.0003046118   0.0000824222  -0.0000154407  -0.0003477955  -0.0001538755
        0.0000359051   0.0001447700   0.0003127950  -0.0001048045  -0.0000900086
       -0.0002490636   0.0000823427   0.0001010345   0.0001085848  -0.0000366472
       -0.0000013752   0.0000217208  -0.0000051484   0.0001551086   0.0001021142
       -0.0000337412  -0.0002862448  -0.0001009887   0.0000108017   0.0003650996
        0.0001679406  -0.0000197184  -0.0001340156  -0.0003464371   0.0000971307
        0.0001087901   0.0002860030  -0.0000907814   0.0000012029   0.0000181575
       -0.0000010222   0.0000098618  -0.0000066906  -0.0000012920   0.0006087053
        0.0004806137   0.0001848584  -0.0002704576  -0.0006198872  -0.0002110984
        0.0006839436   0.0001024464   0.0000317496  -0.0004148692   0.0003622930
        0.0001005040  -0.0001688535  -0.0003567786  -0.0000834847  -0.0002518055
        0.0009172969   0.0004578394   0.0371741284  -0.0536628052  -0.0140542755
       -0.0668954053  -0.2204486831  -0.1394347553   0.1256209506  -0.1917003818
       -0.0281950185  -0.0204726035  -0.0015316431  -0.0119811490   0.0048659394
       -0.0013172892  -0.0032560117   0.0000003777   0.0000261650  -0.0000154800
       -0.0000044567   0.0000024629  -0.0000021054  -0.0000069435   0.0000021081
       -0.0000021096  -0.0000054540  -0.0000022401  -0.0000009348  -0.0000000656
       -0.0000040075  -0.0000024954  -0.0000019501  -0.0000101932   0.0000008334
        0.0000056398  -0.0000005534  -0.0000065402   0.0000091712   0.0000020737
       -0.0000009413  -0.0000032351  -0.0000122275  -0.0000094078  -0.0000151477
        0.0000058934  -0.0000170461   0.0000073565   0.0000180872  -0.0000061050
        0.0000257841   0.0000069591   0.0000312054   0.0001633119   0.0000447302
        0.0000003069   0.0046864911  -0.0013051424  -0.0032297426  -0.0014038065
       -0.0009637834  -0.0011321360
        0.1649654251   0.1978548014   0.3186221324  -0.0901433674  -0.0353476362
       -0.1138450097  -0.0175106883   0.0438772001   0.0179787396  -0.0236507844
       -0.0135563267  -0.0263991368   0.0003012260  -0.0005343546  -0.0003256038
       -0.0004093920   0.0002202227   0.0000900737   0.0000743854  -0.0002007306
       -0.0000904198  -0.0000746174   0.0000242677   0.0000349273   0.0000277658
       -0.0000454915   0.0000210739  -0.0000655570  -0.0000337798   0.0000101178
        0.0000824109   0.0000256356  -0.0000060425  -0.0000938289  -0.0000391202
        0.0000051592   0.0000414930   0.0000831505  -0.0000322946  -0.0000196307
       -0.0000657234   0.0000215299   0.0000279154   0.0000302158  -0.0000170073
       -0.0000015330   0.0000104658   0.0000068384   0.0000414564   0.0000333666
       -0.0000088616  -0.0000812302  -0.0000297895   0.0000032866   0.0000947027
        0.0000565696  -0.0000035558  -0.0000114944  -0.0001114825   0.0000517382
        0.0000307767   0.0000862785  -0.0000227675   0.0000148972   0.0000089302
       -0.0000042664  -0.0000062837  -0.0000020182   0.0000017689  -0.0000187914
        0.0002346007   0.0000321405  -0.0000360371  -0.0001526549  -0.0000331453
        0.0001119704   0.0000388314  -0.0000449545  -0.0000025481   0.0000448545
        0.0000594883  -0.0000783115  -0.0000565789   0.0000119260   0.0000065549
       -0.0000590912   0.0000791712   0.0437767871  -0.0384015412   0.0011545633
       -0.0689469603  -0.1053577838  -0.1480756334   0.0174173301  -0.0282502333
       -0.0418542769  -0.0166082766  -0.0021716352  -0.0090365228  -0.0014242785
       -0.0032258884   0.0053894535   0.0000006402   0.0000064648  -0.0000025931
       -0.0000026669   0.0000062390  -0.0000066025  -0.0000010252   0.0000011599
       -0.0000051789  -0.0000048444   0.0000043696  -0.0000020121  -0.0000040494
        0.0000032161   0.0000002801  -0.0000051767   0.0000012773   0.0000037912
       -0.0000029624   0.0000014007  -0.0000015074  -0.0000082469   0.0000094551
        0.0000044547   0.0000139347   0.0000205442  -0.0000312322   0.0000020682
        0.0000025596  -0.0000041165   0.0000177738   0.0000011127  -0.0000028586
        0.0000202450  -0.0000030916   0.0000089411   0.0001558919   0.0000614660
        0.0000073678  -0.0018860253  -0.0031826112   0.0052787753  -0.0061270427
       -0.0119210932  -0.0090221390
       -0.2695199744   0.0378139892  -0.0901433674   0.5609013667  -0.0969061021
        0.1713162526  -0.1842375797   0.0964892295  -0.0131410277   0.0366364043
        0.0383498670   0.0399746171   0.0058185920  -0.0049709899  -0.0035005572
       -0.0021196810   0.0000714730  -0.0009115406  -0.0000242468  -0.0013866604
       -0.0000868640  -0.0002035924  -0.0001517617   0.0001738765   0.0000317289
       -0.0000462426   0.0000708411  -0.0002435331  -0.0002322125   0.0000646165
        0.0004477569   0.0001809470  -0.0000472050  -0.0005092230  -0.0002699548
        0.0000628088   0.0002544752   0.0004921260  -0.0001692445  -0.0001582428
       -0.0004016210   0.0001330600   0.0002268386   0.0001821979  -0.0000612664
        0.0000248591   0.0000600693  -0.0000157948   0.0002273834   0.0002424743
       -0.0000757244  -0.0004429349  -0.0001833384   0.0000404445   0.0005406830
        0.0002893700  -0.0000539353  -0.0001900068  -0.0005150580   0.0001609758
        0.0001704797   0.0004104742  -0.0001205746   0.0000154601   0.0000190120
       -0.0000066592  -0.0000079875  -0.0000190286   0.0000004060   0.0014869273
        0.0005654812   0.0003970536  -0.0004579562  -0.0008871476  -0.0003090274
        0.0010706916   0.0001936630   0.0001366536  -0.0006661890   0.0006256058
        0.0000664475  -0.0002364305  -0.0005788460  -0.0001783581  -0.0002461324
        0.0020141407   0.0009759215  -0.0472502296   0.0255693129  -0.0072507474
       -0.0052825953  -0.0707853873  -0.0452609030  -0.0190858949   0.0023287342
       -0.0091656851  -0.0595302469  -0.0494768722  -0.0416039952  -0.0189210676
        0.0204170229   0.0017345227  -0.0000006506   0.0000339149  -0.0000224566
       -0.0000087325   0.0000068743  -0.0000049923  -0.0000108271   0.0000128555
       -0.0000120076  -0.0000175543   0.0000018545  -0.0000130813  -0.0000223278
        0.0000037962  -0.0000063060  -0.0000226982  -0.0000152786   0.0000087279
       -0.0000005328  -0.0000087551  -0.0000010720  -0.0000059035   0.0000040567
        0.0000050430  -0.0000332955  -0.0000124517  -0.0000542626  -0.0000067099
        0.0000039228  -0.0000424550   0.0000060550   0.0000080762   0.0000092097
       -0.0000007618   0.0000306884   0.0000118201  -0.0001224251  -0.0000650434
       -0.0000429207  -0.0003503639   0.0003232837   0.0001767238   0.0020768262
        0.0001682389  -0.0032179905
       -0.0251574317  -0.0850101560  -0.0353476362  -0.0969061021   0.5519150834
        0.2067559897   0.1585421989  -0.2288053211  -0.0262258502  -0.0059334179
       -0.0527177702  -0.0343117737  -0.0030656754   0.0006053423  -0.0047870677
        0.0011806619   0.0000871566   0.0007122217  -0.0000756621   0.0005220890
        0.0002466070   0.0000531730   0.0000533599  -0.0000700696  -0.0000748600
       -0.0000142785  -0.0000675676   0.0000965132   0.0000311068  -0.0000044444
       -0.0001574231  -0.0000119728  -0.0000102010   0.0001751959   0.0000236927
       -0.0000039092  -0.0000255620  -0.0001616566   0.0000572429   0.0000135162
        0.0001117481  -0.0000414078   0.0000011048  -0.0000662931   0.0000302001
        0.0000413110   0.0000290977  -0.0000063847  -0.0000887137  -0.0000108680
       -0.0000003785   0.0001247458   0.0000229771  -0.0000050523  -0.0002019092
       -0.0000413456  -0.0000124902   0.0000482125   0.0001660325  -0.0000069410
       -0.0000438550  -0.0001487765   0.0000668700  -0.0000106633  -0.0000017171
       -0.0000030824  -0.0000171199  -0.0000138527   0.0000072206  -0.0009538048
       -0.0004599346  -0.0000628019   0.0003363338   0.0007651783   0.0003652309
       -0.0007816347  -0.0001453162  -0.0000973628   0.0005288377  -0.0002758889
       -0.0000502817  -0.0000359987   0.0002042291   0.0001317562   0.0010746601
       -0.0014285884  -0.0007031821   0.0229932781  -0.0118159109   0.0084634739
       -0.0256759896   0.0219720408  -0.0009446885   0.0212809491  -0.0010658107
        0.0096231951  -0.0494459873  -0.1925965747  -0.1183060962   0.0020807810
       -0.0004669046  -0.0002130815   0.0000183443   0.0000011735  -0.0000090182
       -0.0000047419   0.0000220581  -0.0000036500  -0.0000014683   0.0000255946
       -0.0000129583  -0.0000254124   0.0000047157  -0.0000001908  -0.0000230760
        0.0000081188  -0.0000014433  -0.0000196702  -0.0000186874   0.0000089205
        0.0000117718  -0.0000200446   0.0000196565   0.0000211366  -0.0000067643
        0.0000131715   0.0000631467  -0.0000305082  -0.0000180341   0.0000160316
       -0.0000232319   0.0000473697  -0.0000022329  -0.0000006014  -0.0000173186
        0.0000015846  -0.0000065041  -0.0000318639   0.0001157123   0.0000466097
        0.0000289409   0.0003454723   0.0003427448   0.0005388376  -0.0004362610
       -0.0015948706  -0.0057406764
       -0.1273685423  -0.0020987657  -0.1138450097   0.1713162526   0.2067559897
        0.3238967649   0.0216970997  -0.0578642294  -0.0688928674   0.0164619388
       -0.0113153924   0.0023049803  -0.0032071189  -0.0061125693   0.0022453141
       -0.0007391188   0.0009954519   0.0001449925  -0.0002551103  -0.0002839313
       -0.0003110891  -0.0000839507  -0.0000466070   0.0000740666  -0.0000322551
       -0.0000307094   0.0000727582  -0.0001187378  -0.0001244415   0.0000472346
        0.0002275834   0.0001164910  -0.0000335704  -0.0002649949  -0.0001632735
        0.0000446765   0.0001626320   0.0002514544  -0.0000843395  -0.0001028692
       -0.0002177306   0.0000728286   0.0001391873   0.0000905165  -0.0000367443
        0.0000364754   0.0000548873  -0.0000089188   0.0001074231   0.0001455955
       -0.0000529100  -0.0002411365  -0.0001172265   0.0000220010   0.0002694424
        0.0001904307  -0.0000495370  -0.0001049322  -0.0002707316   0.0001221058
        0.0000925652   0.0002125838  -0.0000712488   0.0000165501   0.0000022818
       -0.0000034376  -0.0000152954  -0.0000188970   0.0000051212  -0.0000219801
       -0.0000779358  -0.0002164019   0.0000703232  -0.0000258572  -0.0000540105
       -0.0000005618   0.0000634180   0.0000060107   0.0000523570   0.0001000732
        0.0000259447  -0.0000797347  -0.0001721588  -0.0000856688   0.0010074192
       -0.0005432752   0.0003011438  -0.0087182970   0.0095590592  -0.0042987655
       -0.0182519791  -0.0250707982  -0.0229652704   0.0020440087  -0.0000145923
        0.0020648771  -0.0416584118  -0.1183550674  -0.1250469011  -0.0091203191
        0.0094739260   0.0018761243   0.0000082994   0.0000214419  -0.0000106114
       -0.0000082857   0.0000140366  -0.0000136889  -0.0000054271   0.0000183035
       -0.0000084647  -0.0000238625   0.0000055595  -0.0000044427  -0.0000235205
        0.0000057539  -0.0000040431  -0.0000233807  -0.0000183237   0.0000087736
        0.0000025305  -0.0000217470   0.0000043203  -0.0000031199  -0.0000116404
        0.0000143042  -0.0000041661   0.0000119352  -0.0000423435   0.0000053458
       -0.0000332925  -0.0000318396   0.0000008560  -0.0000029748   0.0000220533
        0.0000029500  -0.0000015666   0.0000128393   0.0000142914  -0.0000027885
       -0.0000287668   0.0001330739   0.0005008862   0.0001628427  -0.0033914971
       -0.0055735525   0.0026488135
       -0.0493691580   0.0147495546  -0.0175106883  -0.1842375797   0.1585421989
        0.0216970997   0.5877046688  -0.1196617809   0.1716758827  -0.1019517500
       -0.0618563080  -0.0602980198   0.0067175809   0.0133469195   0.0099484267
       -0.0009483515   0.0018578475   0.0005678606  -0.0001911708  -0.0003522627
       -0.0003360051  -0.0000318572  -0.0000596110  -0.0000029048  -0.0001313651
       -0.0000965806   0.0001236091  -0.0001416021  -0.0002327281   0.0000815859
        0.0003797975   0.0002066747  -0.0000578847  -0.0004225497  -0.0003171040
        0.0000934106   0.0003107151   0.0004161395  -0.0001324095  -0.0002045657
       -0.0003803599   0.0001257105   0.0002783743   0.0001531183  -0.0000418570
        0.0001032209   0.0001162104  -0.0000273185   0.0002019024   0.0002773308
       -0.0001133061  -0.0004167698  -0.0002265519   0.0000524917   0.0005164157
        0.0003415802  -0.0000814734  -0.0002814831  -0.0005244422   0.0000170582
        0.0002000120   0.0003473405  -0.0001242494   0.0000165249   0.0000201257
        0.0000217433  -0.0000176668  -0.0000416970   0.0000114145  -0.0003012044
        0.0017944580   0.0002064765  -0.0002534918  -0.0003061741  -0.0001050074
        0.0001022156   0.0000812307  -0.0000156076   0.0000849100   0.0001817308
        0.0000886817  -0.0003996676  -0.0002880564  -0.0000398082  -0.0015017210
        0.0026337397   0.0001072664  -0.0033440875  -0.0253538486  -0.0177547755
       -0.0013905051   0.0129041492   0.0098571188  -0.0036064142   0.0014185998
       -0.0048771195   0.0043009175  -0.0042370616  -0.0007267482  -0.2487202439
        0.0031459583  -0.1079086982   0.0000481284   0.0000587061  -0.0000181371
       -0.0000347434   0.0000645698  -0.0000301964  -0.0000233982   0.0000686050
       -0.0000247653  -0.0000692524   0.0000176816   0.0000021783  -0.0000602099
        0.0000163106  -0.0000092720  -0.0000561890  -0.0000494520   0.0000126875
        0.0000082158  -0.0000641531   0.0000226943  -0.0000113467  -0.0000673810
        0.0000423691   0.0000106487   0.0000722808   0.0000916402  -0.0000302976
        0.0000676890   0.0000364318  -0.0000035569   0.0000200885   0.0000008638
        0.0000072296   0.0000588192   0.0000325450  -0.0000390320   0.0000822883
       -0.0000645788  -0.0033999889   0.0010376944  -0.0052111906   0.0005997420
        0.0000159127   0.0005947743
        0.0620242589   0.0206376217   0.0438772001   0.0964892295  -0.2288053211
       -0.0578642294  -0.1196617809   0.5361379325   0.1832498357  -0.0204231768
       -0.1980293410  -0.0958779406   0.0133603574  -0.0414869746  -0.0165045676
       -0.0071165260   0.0003034814  -0.0034272002  -0.0006635049  -0.0031031116
       -0.0004591150  -0.0003824708  -0.0002686972   0.0003938492   0.0000213206
       -0.0000591618   0.0001733988  -0.0004863141  -0.0005033694   0.0001282135
        0.0009546769   0.0003675486  -0.0001019463  -0.0011118610  -0.0005757453
        0.0001397263   0.0005307792   0.0010768529  -0.0003680848  -0.0003393910
       -0.0008680399   0.0002913609   0.0004791963   0.0004039837  -0.0001218187
        0.0000312423   0.0001118540  -0.0000268920   0.0004941736   0.0004941147
       -0.0001484702  -0.0009449249  -0.0003810060   0.0000863632   0.0011261204
        0.0005709174  -0.0000811563  -0.0004889314  -0.0010842014   0.0003036815
        0.0003387159   0.0008493648  -0.0002534092   0.0000018537   0.0000626387
       -0.0000174555   0.0000045983  -0.0000314774   0.0000051042   0.0034468622
        0.0000046831   0.0009166327  -0.0008065972  -0.0019882164  -0.0005911668
        0.0022462907   0.0004765879   0.0002506283  -0.0014570026   0.0014415841
        0.0003279096  -0.0005369517  -0.0016816495  -0.0004888048   0.0024176928
        0.0040773380   0.0006601837  -0.0597415328   0.0197408930  -0.0217606933
        0.0108614608  -0.0494751757  -0.0206969987   0.0010289824   0.0026281706
       -0.0023872106   0.0143045506  -0.0210538695  -0.0052368190   0.0027116670
       -0.0418225708  -0.0019180492   0.0000273796   0.0001021093  -0.0000779548
       -0.0000010567   0.0000170622  -0.0000228267  -0.0000142095   0.0000229567
       -0.0000272361  -0.0000191344   0.0000068336  -0.0000127084  -0.0000250059
        0.0000136743  -0.0000024784  -0.0000255889  -0.0000202210   0.0000143263
        0.0000144256  -0.0000163677   0.0000070226   0.0000169657   0.0000084755
        0.0000193001  -0.0000198696  -0.0000528871  -0.0000190093  -0.0000019575
       -0.0001103749  -0.0001251846  -0.0000082408  -0.0000060768  -0.0000416283
       -0.0000081945  -0.0000081028   0.0000070871  -0.0001693572  -0.0001444843
       -0.0000861233   0.0014471360   0.0024489597  -0.0018999192   0.0000736447
       -0.0004291950  -0.0002047263
        0.0097664462   0.0193072098   0.0179787396  -0.0131410277  -0.0262258502
       -0.0688928674   0.1716758827   0.1832498357   0.3100951953  -0.0325154486
       -0.1203358376  -0.1361370203   0.0066005788  -0.0136010612  -0.0028147229
       -0.0022814480  -0.0002469136  -0.0015259820  -0.0005449982  -0.0004993719
       -0.0001446735  -0.0001062926  -0.0000976735   0.0001440509  -0.0000110247
       -0.0000438618   0.0001038165  -0.0001932816  -0.0002182189   0.0000698359
        0.0004525630   0.0001551203  -0.0000422322  -0.0005080669  -0.0002650682
        0.0000786924   0.0002586330   0.0004806062  -0.0001589763  -0.0001586689
       -0.0003969310   0.0001336743   0.0002094354   0.0001745317  -0.0000565927
        0.0000188221   0.0000636411  -0.0000184599   0.0002424705   0.0002160217
       -0.0000700730  -0.0004325995  -0.0001720549   0.0000580049   0.0005296335
        0.0002442566  -0.0000622454  -0.0003606782  -0.0004952125   0.0000332311
        0.0001932102   0.0004487827  -0.0001505586  -0.0000036935   0.0000036356
        0.0000034371   0.0000110564  -0.0000089802   0.0000068787   0.0010357064
        0.0000552591   0.0000580849  -0.0003270620  -0.0006705260  -0.0002794117
        0.0007363187   0.0001182023   0.0000851433  -0.0004623550   0.0005087421
       -0.0000377499  -0.0004738125  -0.0006831113  -0.0002605439  -0.0001797280
        0.0023015501   0.0024660230  -0.0402807267  -0.0016332108  -0.0212377887
        0.0085252145  -0.0198056092  -0.0130513244  -0.0051740444  -0.0023135107
        0.0038426309   0.0102390699  -0.0150728934  -0.0026883738  -0.1087676320
       -0.0017762740  -0.0909507762   0.0000196027   0.0000331234  -0.0000175627
       -0.0000069009   0.0000217835  -0.0000128428  -0.0000070245   0.0000198810
       -0.0000068755  -0.0000213154   0.0000072410   0.0000046462  -0.0000143820
        0.0000087947   0.0000047650  -0.0000132321  -0.0000163879   0.0000049891
        0.0000057748  -0.0000288067   0.0000081305  -0.0000058092  -0.0000474772
        0.0000332600   0.0000071326   0.0000128358   0.0001548882  -0.0000053513
        0.0000042676  -0.0000562119  -0.0000006835  -0.0000137977   0.0000168098
        0.0000007655   0.0000073121   0.0000351158  -0.0000815531  -0.0000908259
       -0.0000350234  -0.0049489886  -0.0025556436   0.0033246091   0.0004995123
       -0.0001275244  -0.0000357633
       -0.0244058835  -0.0235059033  -0.0236507844   0.0366364043  -0.0059334179
        0.0164619388  -0.1019517500  -0.0204231768  -0.0325154486   0.5660734989
       -0.0864982223   0.1676961084  -0.1300658874   0.0799677911   0.0072558362
       -0.0409179389   0.0274883090  -0.0001898342  -0.0066723011  -0.0060358166
       -0.0027997253  -0.0012578587   0.0010784068   0.0005389882  -0.0002158052
       -0.0001134492   0.0002945594  -0.0007309998  -0.0005701762   0.0000888053
        0.0012770657   0.0005170748  -0.0001071619  -0.0014500722  -0.0007440177
        0.0001643282   0.0006880778   0.0014093876  -0.0004753648  -0.0004455192
       -0.0011202491   0.0003921756   0.0006107680   0.0005188830  -0.0001718543
        0.0000217921   0.0001569021  -0.0000086736   0.0006510458   0.0006386521
       -0.0002124746  -0.0012588873  -0.0004983649   0.0000493275   0.0015044731
        0.0007604844  -0.0000564242  -0.0005941447  -0.0014709821   0.0004388648
        0.0006411758   0.0011699865  -0.0003493406   0.0000450653   0.0000599401
        0.0000154944   0.0000003413  -0.0000667299  -0.0000014588   0.0045438661
       -0.0012690304   0.0001424204  -0.0010982316  -0.0028300722  -0.0009979359
        0.0031214883   0.0007235820   0.0004276436  -0.0020125592   0.0024434152
        0.0003113328  -0.0008606858  -0.0031769623  -0.0011514378   0.0050437459
        0.0090060233   0.0055166333  -0.2425366099  -0.0191128675  -0.1212173753
       -0.0464844759   0.0607299093   0.0112080639   0.0001105777  -0.0005662991
       -0.0004211037  -0.0002935235   0.0053565813  -0.0020171209  -0.0090347531
       -0.0192229208  -0.0177134113  -0.0000122768   0.0001196400  -0.0000755916
       -0.0000264381  -0.0000221891  -0.0000040855  -0.0000034397  -0.0000131520
       -0.0000036561   0.0000166823  -0.0000043022  -0.0000175106  -0.0000109560
       -0.0000007991  -0.0000173072  -0.0000127728  -0.0000053233   0.0000274545
       -0.0000039559   0.0000140397  -0.0000244959  -0.0000167686   0.0000351651
        0.0000169337  -0.0002562187   0.0000431892  -0.0001695953   0.0000363947
       -0.0002571339  -0.0003031800   0.0000050275  -0.0000328418   0.0000220738
        0.0000041562  -0.0001368611   0.0000453426   0.0000002758  -0.0005111364
       -0.0000614698  -0.0081221907  -0.0025339405  -0.0048606259  -0.0002790182
        0.0044389754  -0.0015198776
       -0.0237288455  -0.0087313535  -0.0135563267   0.0383498670  -0.0527177702
       -0.0113153924  -0.0618563080  -0.1980293410  -0.1203358376  -0.0864982223
        0.5154990899   0.1733367530   0.0789741440  -0.1591849521  -0.0186213118
        0.0195457752   0.0023702149   0.0063028343  -0.0008683872   0.0067587579
        0.0005269102   0.0003182714   0.0009593576  -0.0009950877  -0.0001043363
       -0.0001060400  -0.0002753327   0.0007561833   0.0009157957  -0.0002638911
       -0.0016599050  -0.0006518341   0.0001341002   0.0019855530   0.0010219466
       -0.0002358207  -0.0009391984  -0.0019656269   0.0006652013   0.0006131115
        0.0015732524  -0.0005483989  -0.0008553396  -0.0007499307   0.0002473412
       -0.0000247860  -0.0001833434   0.0000233462  -0.0009034178  -0.0008771248
        0.0002814041   0.0017226239   0.0006805165  -0.0001119534  -0.0020221278
       -0.0009671866   0.0000889050   0.0008504869   0.0018878263  -0.0005446033
       -0.0005837330  -0.0014396542   0.0004647940  -0.0000159938  -0.0000967016
       -0.0000043761  -0.0000075496   0.0000637006   0.0000046836  -0.0060568274
       -0.0079436847  -0.0029168189   0.0031324296   0.0039976138   0.0014207220
       -0.0047242068  -0.0008161969  -0.0005350464   0.0028419643  -0.0029368429
       -0.0004978429   0.0016865359   0.0031590326   0.0012402845   0.0145958381
       -0.0320522743  -0.0079945673   0.0211328138  -0.0803908331  -0.0034216222
        0.0162375144   0.0150158554   0.0183396377  -0.0006391210   0.0003727872
       -0.0000866883   0.0046464947  -0.0013399857  -0.0032753109  -0.0021193786
       -0.0008490683  -0.0019651379  -0.0000198241  -0.0001346271   0.0000822804
       -0.0000329947   0.0000540182  -0.0000189485   0.0000046349   0.0000199141
       -0.0000006216  -0.0000251497   0.0000058984   0.0000220313   0.0000095048
       -0.0000012552   0.0000117855   0.0000111193   0.0000047647  -0.0000322630
       -0.0000002808  -0.0000177614   0.0000312201  -0.0000063871  -0.0000591390
       -0.0000088383   0.0001384925   0.0001413300   0.0001523306   0.0000784252
       -0.0002128658   0.0001201388  -0.0000202018   0.0000427261   0.0000127908
       -0.0000133757   0.0000790382  -0.0000655397  -0.0001845813   0.0003109400
       -0.0000272183  -0.0190102428  -0.0010643050  -0.0125099729   0.0052889386
       -0.0014146787  -0.0033447255
       -0.0226962675  -0.0135957570  -0.0263991368   0.0399746171  -0.0343117737
        0.0023049803  -0.0602980198  -0.0958779406  -0.1361370203   0.1676961084
        0.1733367530   0.3135237452   0.0079240915  -0.0164782173  -0.0529001905
       -0.0000957219   0.0033188207  -0.0020508176  -0.0023819277  -0.0001223147
        0.0064553644   0.0006927137   0.0000208771   0.0005829649   0.0000048507
       -0.0000298653  -0.0005950381   0.0002840813   0.0001342204  -0.0000626100
       -0.0002986915  -0.0001531476   0.0000186041   0.0003000810   0.0001456772
       -0.0000372137  -0.0001309098  -0.0002798711   0.0000954357   0.0000781963
        0.0002027167  -0.0000750890  -0.0001141917  -0.0001070548   0.0000331017
       -0.0000229412  -0.0000223499  -0.0000151177  -0.0000840356  -0.0001084009
        0.0000599922   0.0002307477   0.0001039880   0.0000289900  -0.0002635313
       -0.0001928255  -0.0000600457   0.0000798126   0.0003804958  -0.0001298874
       -0.0001652213  -0.0003180489   0.0001985104   0.0000011968  -0.0000333011
        0.0000075249   0.0000026434   0.0000009041   0.0000029835  -0.0005961033
       -0.0024956390   0.0028054246   0.0003254063   0.0006755745   0.0010134608
       -0.0008084157  -0.0001963238  -0.0002914895   0.0003857802  -0.0003595163
       -0.0001493815  -0.0000239874   0.0001928847   0.0004174219   0.0040480225
       -0.0058421912  -0.0031375980  -0.0917949096  -0.0279357403  -0.1151800593
       -0.0156044242   0.0397456725   0.0172003380  -0.0001827202   0.0000659976
       -0.0004853179  -0.0016386155  -0.0031111972   0.0055252577  -0.0064196016
       -0.0112063276  -0.0088518629  -0.0000065577  -0.0000344706   0.0000222352
       -0.0000101676   0.0000541450   0.0001241417   0.0000039001  -0.0000027910
        0.0000074503  -0.0000029170   0.0000014168   0.0000146637   0.0000046703
       -0.0000008172   0.0000114341   0.0000072812  -0.0000002277  -0.0000063335
        0.0000012187  -0.0000052480  -0.0000051506  -0.0000019341  -0.0000116135
        0.0000060057  -0.0000438379  -0.0000584205   0.0000462136   0.0000118470
       -0.0000283775   0.0003248254  -0.0000125060   0.0000158260  -0.0000308387
       -0.0000030448   0.0000388644  -0.0000789084  -0.0000539969  -0.0000316958
        0.0001022351  -0.0167728832  -0.0021938814  -0.0096979300  -0.0015291844
       -0.0032894871   0.0054437319
       -0.0022904570   0.0022424079   0.0003012260   0.0058185920  -0.0030656754
       -0.0032071189   0.0067175809   0.0133603574   0.0066005788  -0.1300658874
        0.0789741440   0.0079240915   0.6105838828  -0.1044019692   0.0285810287
       -0.2964236752  -0.0567589600  -0.0288759787  -0.0797946879   0.0684879588
        0.0033777883   0.0116667888  -0.0007385309  -0.0002824479  -0.0057188078
        0.0049731427  -0.0011259098   0.0030277397   0.0004361272   0.0004900500
       -0.0007716367   0.0000306822  -0.0000207496  -0.0000345804  -0.0005678870
        0.0000581105   0.0006110702   0.0006528295  -0.0002086722  -0.0007988654
       -0.0010700202   0.0004400807   0.0006856913   0.0006977488  -0.0002029304
        0.0003368062   0.0002158390   0.0000889112   0.0005261095   0.0005860431
       -0.0002415896  -0.0007332342  -0.0005858770  -0.0000955170   0.0008743133
        0.0004738923  -0.0000424136  -0.0007401536   0.0006306125   0.0003239494
       -0.0015335121  -0.0028933467  -0.0007793058   0.0004434686  -0.0004455008
        0.0001001307   0.0000865706  -0.0001997344   0.0001093190  -0.0145882152
        0.0082633385   0.0005920194  -0.0018822191   0.0129876429   0.0024804108
       -0.0080455056  -0.0049886609  -0.0022889240   0.0012652499   0.0070664752