$hessian                                                                        
        0.4966797768  -0.0304874710   0.0266462516  -0.0911425576  -0.0429941067
        0.0376867702   0.0061272142   0.0082302598  -0.0072148596  -0.0162995950
       -0.0178464196   0.0019716290  -0.0006155756   0.0003590394   0.0016941990
       -0.0006029544   0.0002881198  -0.0006278269   0.0000910037   0.0000325828
       -0.0000657793  -0.0006097269   0.0003872414  -0.0006200556   0.0003139982
       -0.0020333300  -0.0013864480  -0.0003557231  -0.0000588076   0.0000678628
        0.0002397646  -0.0000279379   0.0000201051  -0.0000088453   0.0000086685
       -0.0000086449   0.0000068352   0.0000082717  -0.0000018550   0.0000517972
        0.0000115271  -0.0000075426  -0.0000030169   0.0000262364  -0.0000082827
       -0.0000122173  -0.0000571248   0.0000001762   0.0000918740  -0.0000619399
        0.0000016307  -0.0000212225  -0.0000060734   0.0000062484  -0.0000033492
        0.0000121191   0.0000019695   0.0000049990  -0.0000143601   0.0000043359
        0.0000079041   0.0000160436  -0.0000002060  -0.0000099853  -0.0000197489
        0.0000031775   0.0000112221   0.0000135599  -0.0000028796  -0.0000125802
       -0.0000130477   0.0000012631   0.0000102118   0.0000126600  -0.0000031298
       -0.0001960276  -0.0000235196   0.0000011422   0.0000735730   0.0000996213
       -0.0000038813   0.0000019201  -0.0000175157  -0.0000011537   0.0000089628
        0.0000113544  -0.0000036915   0.0000068286   0.0000047209   0.0000016625
       -0.0000108837   0.0000075351  -0.0000032796   0.0000081375  -0.0000060079
        0.0000023152  -0.0000055433   0.0000030077  -0.0000003921   0.0000066366
       -0.0000085279  -0.0000027327  -0.0000262665  -0.0000062143  -0.0000047221
        0.0000137303   0.0000270196   0.0000013215  -0.0000085637  -0.0000135408
        0.0000033505   0.0000321679  -0.0000377974   0.0000337782   0.0001914661
        0.0011210774   0.0022310597  -0.0006406532   0.0006555999  -0.0003044990
        0.0000946957   0.0000764256  -0.0000061437  -0.0006251603   0.0006561826
       -0.0001982686  -0.0006029417  -0.0016170429  -0.0005871835  -0.0164902765
       -0.0044847198   0.0174136619  -0.1264251966   0.0860501276  -0.0763650004
       -0.1258164971   0.0757206373   0.0875416841  -0.1234301331  -0.0766777795
       -0.0855695740   0.0006852013   0.0004608602  -0.0002148387  -0.0009891907
        0.0024672440  -0.0021842613   0.0006895479   0.0002767922  -0.0004288427
       -0.0000940148   0.0000897276   0.0003955772   0.0000116568  -0.0000363470
        0.0000266524  -0.0000151546  -0.0000992654   0.0000709550  -0.0001285411
       -0.0000905548  -0.0000793846   0.0000013796   0.0000336093  -0.0000254997
       -0.0000106357   0.0000011639   0.0000011710   0.0000003213   0.0000052814
        0.0000003584   0.0000073687   0.0000077606  -0.0000038098  -0.0000040176
       -0.0000004122  -0.0000009034  -0.0000007073   0.0000041679   0.0000005503
        0.0000015749  -0.0000033599  -0.0000003682   0.0000013890   0.0000025037
        0.0000025271  -0.0000015969  -0.0000032740   0.0000006139  -0.0000033702
        0.0000006764   0.0000015111   0.0000077867  -0.0000059332   0.0000048545
       -0.0000015630  -0.0000024715   0.0000019183  -0.0000146522   0.0000047772
       -0.0000071829  -0.0000233703   0.0000046302   0.0000009814  -0.0001255120
        0.0000628832   0.0001133190  -0.0000126398  -0.0000860662   0.0000888066
        0.0000122997  -0.0000296555   0.0000327230  -0.0000927863  -0.0003913432
       -0.0001349901
       -0.0304874710   0.4886385908   0.0352836345  -0.0363900027  -0.1016422255
        0.0351884050  -0.0082105131  -0.0165151788   0.0158138083  -0.0163123235
       -0.0148887870   0.0035876444  -0.0003506730  -0.0001971987   0.0000407623
       -0.0001898550   0.0006072715  -0.0000469351  -0.0003281653   0.0000642708
       -0.0000236652  -0.0005126137   0.0002959325  -0.0007159296   0.0005790079
       -0.0022855877  -0.0009600900  -0.0002755560   0.0005094880   0.0007801682
        0.0000876930   0.0001561865  -0.0001292940   0.0000891590  -0.0000229731
       -0.0000020891  -0.0000475410   0.0000332828  -0.0000146712   0.0001027746
       -0.0000049722  -0.0000002266  -0.0000439758   0.0000025535  -0.0000010450
       -0.0000008403   0.0000013266  -0.0000018019  -0.0000103511  -0.0001816504
        0.0000220318   0.0000334154   0.0000014791  -0.0000017274  -0.0000078124
        0.0000012420  -0.0000029363   0.0000035388  -0.0000172913   0.0000001834
        0.0000188369   0.0000368019  -0.0000027219  -0.0000452320  -0.0000619304
        0.0000091543   0.0000288110   0.0000420263  -0.0000077100  -0.0000090028
       -0.0000137555   0.0000014434   0.0000093256  -0.0000044621   0.0000014928
       -0.0000016822  -0.0000005396   0.0000017587  -0.0000139234   0.0001858633
       -0.0000255690   0.0000352427  -0.0000011140   0.0000009599   0.0000053608
        0.0000053928   0.0000003490  -0.0000090708   0.0000127144  -0.0000010575
        0.0000219800  -0.0000353541   0.0000040479  -0.0000438368   0.0000607456
       -0.0000105275   0.0000284127  -0.0000398398   0.0000089360   0.0000047336
        0.0000184469  -0.0000001400  -0.0000072567  -0.0000017885   0.0000029874
        0.0000002188  -0.0000081155   0.0000078006  -0.0000593910  -0.0000067736
        0.0000081181   0.0000125959   0.0000215069   0.0000427536   0.0011581968
       -0.0016663898  -0.0015431826   0.0002986100  -0.0002904109   0.0003058423
        0.0004501159   0.0000916963   0.0000074351  -0.0006571000   0.0002752164
        0.0007616672   0.0003249243  -0.0010455638  -0.0017497985   0.0053795087
        0.0087082978  -0.0037885173   0.0856751842  -0.1314214464   0.0769772812
        0.0761539354  -0.1095625685  -0.0797713291  -0.0763382629  -0.1169532905
       -0.0813463998  -0.0005092667   0.0006776200  -0.0007809128   0.0018166416
       -0.0027915122   0.0029167524  -0.0009662405   0.0005034237   0.0000025283
       -0.0007273936  -0.0010490640   0.0000758882   0.0000115091  -0.0000624783
        0.0000408063  -0.0000427619  -0.0000937761   0.0000703978  -0.0000924037
       -0.0000746933  -0.0001107366  -0.0000046481   0.0000059774  -0.0000173758
        0.0000012321   0.0000010202   0.0000070074  -0.0000240030  -0.0000001394
       -0.0000038065  -0.0000024816   0.0000137410  -0.0000022400   0.0000044615
        0.0000008268  -0.0000015705  -0.0000047670   0.0000105289   0.0000000895
       -0.0000034446  -0.0000008205   0.0000004120  -0.0000027977   0.0000004930
       -0.0000020568  -0.0000046395  -0.0000094339  -0.0000008369   0.0000058306
       -0.0000000873   0.0000010591  -0.0000009708  -0.0000128938   0.0000017374
       -0.0000260622   0.0000009160  -0.0000005702  -0.0000053681  -0.0000035347
       -0.0000092954   0.0000013821  -0.0000300904   0.0000014316   0.0000658089
       -0.0001057080  -0.0000643529   0.0000110411   0.0000705485  -0.0000360057
       -0.0000010250   0.0000144613   0.0000129105   0.0003512375   0.0000335500
       -0.0008125609
        0.0266462516   0.0352836345   0.4980827421   0.0318562888   0.0351019525
       -0.0921136395   0.0072619836   0.0159290197  -0.0124696771  -0.0076788884
       -0.0069793824   0.0086358548  -0.0003805491  -0.0016545284  -0.0012791799
        0.0006346111   0.0008031047   0.0003869423  -0.0004986315   0.0000096331
        0.0000891093  -0.0003523058   0.0003915380  -0.0003525742  -0.0010108676
       -0.0016428202  -0.0020344184   0.0001622497   0.0007714967   0.0007102684
       -0.0000274969  -0.0001417627   0.0001199642  -0.0001041145  -0.0000109856
        0.0000036086   0.0000764873  -0.0000460573   0.0000343368  -0.0001345203
        0.0000037469  -0.0000073364   0.0000761848   0.0000091281  -0.0000013341
       -0.0000188901  -0.0000349931   0.0000125931   0.0000367954   0.0001830076
       -0.0000259394  -0.0000485133  -0.0000171845   0.0000046838   0.0000192035
        0.0000024545   0.0000026961  -0.0000036699   0.0000040201   0.0000020887
       -0.0000091969  -0.0000200205   0.0000017323   0.0000333405   0.0000448655
       -0.0000056408  -0.0000213525  -0.0000288215   0.0000066441  -0.0000046371
        0.0000067706   0.0000022274  -0.0000032066   0.0000180249  -0.0000011454
       -0.0000305871  -0.0000051136   0.0000021630   0.0000326083  -0.0001718021
        0.0000222786  -0.0000401942   0.0000033451  -0.0000015477  -0.0000081066
       -0.0000098505   0.0000001783   0.0000007248  -0.0000104124  -0.0000003013
       -0.0000148477   0.0000287334  -0.0000030166   0.0000387640  -0.0000529776
        0.0000083837  -0.0000225278   0.0000334351  -0.0000061631  -0.0000029540
       -0.0000108927   0.0000003262   0.0000112550   0.0000004312  -0.0000016793
       -0.0000131538   0.0000246600  -0.0000079065   0.0000739210   0.0000323005
       -0.0000159292  -0.0000370117   0.0000415561   0.0000170379  -0.0003358382
       -0.0008651389  -0.0025770929   0.0005705199  -0.0007778736   0.0002324453
        0.0003888403  -0.0000182969   0.0000503385   0.0001173099  -0.0000942726
        0.0006920212   0.0003637643  -0.0000968752  -0.0003939999   0.0169885024
        0.0067449047  -0.0146059023  -0.0760192445   0.0769816855  -0.1130126628
        0.0872471170  -0.0793593289  -0.1363115508  -0.0859735286  -0.0817707708
       -0.1312769716   0.0009105821   0.0000335026   0.0004118748  -0.0016080390
        0.0029217500  -0.0020763457   0.0003974007  -0.0007975876   0.0005771616
       -0.0004345862  -0.0009459027  -0.0000558519   0.0000032889   0.0000040560
        0.0000192391  -0.0000187078  -0.0000578354   0.0000731117  -0.0000845186
       -0.0000518816  -0.0001259030   0.0000068025  -0.0000121802  -0.0000036191
       -0.0000008444   0.0000017629  -0.0000059659   0.0000256923   0.0000040779
        0.0000004457   0.0000020996  -0.0000117546   0.0000019154  -0.0000053908
       -0.0000004419   0.0000014326   0.0000050793  -0.0000083757  -0.0000005969
        0.0000028919   0.0000002819  -0.0000018699   0.0000041799   0.0000000444
        0.0000008702   0.0000043698   0.0000098894   0.0000004855  -0.0000054325
        0.0000003512  -0.0000008971   0.0000025111   0.0000124142  -0.0000013825
        0.0000243257  -0.0000011198  -0.0000035163   0.0000052867  -0.0000053289
       -0.0000001972  -0.0000034249   0.0000118041  -0.0000280347   0.0001022123
       -0.0001055591  -0.0001044508   0.0000419833   0.0000934834  -0.0000892285
       -0.0000112190   0.0000506020  -0.0000551815   0.0007915687   0.0002206608
       -0.0011485511
       -0.0911425576  -0.0363900027   0.0318562888   0.4525623515  -0.0001224171
       -0.0002287159  -0.0910832792   0.0361534271  -0.0320644068  -0.1014493101
       -0.0350572125  -0.0399703289   0.0089328523   0.0005645101   0.0007804354
        0.0006304999   0.0028877077   0.0033271377  -0.0009154972  -0.0000351036
       -0.0001036125  -0.0042688217   0.0010048267   0.0011189460  -0.0219692016
       -0.0146983075  -0.0171023736   0.0047386888   0.0000278124   0.0000276123
       -0.0004204011  -0.0000046581   0.0000003831  -0.0001380113  -0.0001166814
        0.0001881849   0.0005128387  -0.0002606472   0.0002035793  -0.0006911445
       -0.0000019569  -0.0000015172   0.0004327969   0.0000239093  -0.0000262442
       -0.0000053710  -0.0002819415   0.0000311960   0.0003434167   0.0008815015
       -0.0001789726  -0.0003883997  -0.0001095448   0.0000656032   0.0000381670
        0.0001451407   0.0000236347   0.0000329577   0.0000361909   0.0000272212
       -0.0000649584  -0.0001304729   0.0000302179   0.0001909142   0.0001924049
       -0.0000304330  -0.0000939670  -0.0001298818   0.0000171773  -0.0000204419
       -0.0000565757  -0.0000015464   0.0000455487   0.0001748025  -0.0000343184
       -0.0005234212  -0.0000291297   0.0000024066   0.0003058496  -0.0008456593
        0.0001796588  -0.0003661999   0.0001358130  -0.0000643165   0.0000535515
       -0.0001494411   0.0000095002   0.0000093697   0.0000483737   0.0000087480
       -0.0000904670   0.0001498681  -0.0000317474   0.0002188233  -0.0002224885
        0.0000369509  -0.0001473814   0.0001518824  -0.0000151117   0.0000362229
       -0.0000741100  -0.0000224906   0.0000183598  -0.0001391483  -0.0000261261
        0.0000239730   0.0002531041  -0.0000364207   0.0005103919   0.0002617464
       -0.0001990547  -0.0001380657   0.0001161736  -0.0001857910  -0.0223019380
        0.0145294388   0.0169200649  -0.0042392670  -0.0010475375  -0.0011536686
       -0.0009194255   0.0000293791   0.0001004543   0.0007154833  -0.0028710985
       -0.0032977559   0.0088255065  -0.0002766451  -0.0004532939  -0.1026336802
        0.0353874050   0.0403575864   0.0081929294   0.0083041244  -0.0072251490
       -0.0128252111  -0.0097100649   0.0121543037  -0.0126384560  -0.0132006426
        0.0078751653  -0.0126354345   0.0094870091  -0.0121075965   0.0081937141
       -0.0082604372   0.0073014286  -0.0128109745   0.0132814642  -0.0080994754
       -0.0001246888   0.0003885230   0.0004474332   0.0003862253   0.0005151276
        0.0005985313   0.0000118924   0.0000650447   0.0000697437  -0.0007086774
       -0.0006008472  -0.0006931844  -0.0000688808  -0.0000217341   0.0000148728
        0.0000166258  -0.0000262834   0.0000007311   0.0000963273  -0.0000005861
        0.0000148054   0.0000690626   0.0000105423  -0.0000363859  -0.0000432070
       -0.0000258006   0.0000009492   0.0000017506  -0.0000039469   0.0000081089
        0.0000492524  -0.0000489777  -0.0000088429   0.0000454988   0.0000467487
        0.0000115138  -0.0000008664  -0.0000004059  -0.0000054044  -0.0000417351
        0.0000250284   0.0000025155   0.0000661107  -0.0000038014   0.0000397656
        0.0000957114   0.0000050619  -0.0000129322   0.0000158157   0.0000249630
        0.0000014228  -0.0000693085   0.0000191275  -0.0000138126  -0.0007146809
        0.0005934708   0.0006881905   0.0000132579  -0.0000663244  -0.0000701602
        0.0003888410  -0.0005067479  -0.0005873422  -0.0001282504  -0.0003943917
       -0.0004539373
       -0.0429941067  -0.1016422255   0.0351019525  -0.0001224171   0.4524747211
        0.0419902305   0.0427701635  -0.1011029162   0.0352411454  -0.0391107441
       -0.0956124846  -0.0488144846  -0.0071008837  -0.0144412912  -0.0160630401
        0.0024658263   0.0027356560  -0.0045273235  -0.0002462609  -0.0003207893
        0.0001261079   0.0008646328   0.0036077237  -0.0023914990  -0.0060925176
        0.0024800864  -0.0010540167   0.0000289946  -0.0031449961   0.0003856844
        0.0000006733  -0.0006156223   0.0003877100  -0.0001849193   0.0000697475
       -0.0000933360  -0.0000293478  -0.0000710412   0.0000445149  -0.0000018333
       -0.0000008666   0.0000072026   0.0000017263  -0.0000259709   0.0000143569
        0.0000116610   0.0000127704  -0.0000032820  -0.0000091989  -0.0000121660
       -0.0000010725   0.0000099743   0.0000155346  -0.0000019699  -0.0000110481
       -0.0000038712   0.0000017091   0.0000011668   0.0000113848  -0.0000002999
       -0.0000097158  -0.0000118022   0.0000019979   0.0000088875   0.0000147251
       -0.0000024164  -0.0000067699  -0.0000100478   0.0000022537   0.0000081536
        0.0000050599  -0.0000010870  -0.0000036096  -0.0000106811   0.0000014592
       -0.0000050720   0.0000101795   0.0000021728   0.0000140536  -0.0000168534
        0.0000000581  -0.0000129382   0.0000154163  -0.0000023861   0.0000045080
       -0.0000117610   0.0000017104  -0.0000074911   0.0000057051  -0.0000009781
        0.0000095900  -0.0000114886   0.0000018331  -0.0000082852   0.0000141579
       -0.0000023332   0.0000055413  -0.0000086059   0.0000020661  -0.0000011860
        0.0000101741  -0.0000004766   0.0000113207  -0.0000043049   0.0000015472
       -0.0000119056   0.0000162333  -0.0000037766   0.0000328834  -0.0000692272
        0.0000435160   0.0001852939   0.0000711416  -0.0000924336   0.0059153214
        0.0026328274  -0.0008876046  -0.0009086296   0.0035929854  -0.0024043400
        0.0002414353  -0.0003194955   0.0001278083  -0.0024507190   0.0026937621
       -0.0045674649   0.0073964174  -0.0144084558  -0.0160194499   0.0394414292
       -0.0951106082  -0.0482227120  -0.0096183936  -0.0140505610   0.0123051220
        0.0065266521   0.0077579428  -0.0067586238  -0.0126073756  -0.0132450009
        0.0081628505  -0.0066046237   0.0077754283  -0.0068915894   0.0096628093
       -0.0140404778   0.0124307319   0.0125431642  -0.0130744985   0.0082135469
       -0.0006670965  -0.0012882942   0.0017986037  -0.0003729593  -0.0003526097
       -0.0005310387   0.0000128115  -0.0007623298   0.0007601268   0.0001853741
        0.0001179851   0.0000300256  -0.0000225213  -0.0000228205   0.0000412555
       -0.0000258418  -0.0000036422   0.0000021086   0.0000006134  -0.0000017801
        0.0000020037   0.0000002965  -0.0000007016  -0.0000001159  -0.0000004588
        0.0000000488   0.0000001128  -0.0000009498  -0.0000018247  -0.0000002225
        0.0000007900   0.0000001179  -0.0000006360  -0.0000007112   0.0000003740
       -0.0000005714   0.0000008661  -0.0000019457  -0.0000002510   0.0000002110
        0.0000002309   0.0000001246   0.0000001305  -0.0000005850   0.0000000872
        0.0000002719  -0.0000020961   0.0000019210   0.0000258754  -0.0000033935
        0.0000023367   0.0000219272  -0.0000224102   0.0000411788  -0.0001925703
        0.0001214939   0.0000342192  -0.0000124950  -0.0007622683   0.0007595967
        0.0003822729  -0.0003537088  -0.0005327457   0.0006618765  -0.0012850928
        0.0018005880
        0.0376867702   0.0351884050  -0.0921136395  -0.0002287159   0.0419902305
        0.4642476938  -0.0379054367   0.0352348433  -0.0926684832  -0.0443120047
       -0.0487262967  -0.1083122480  -0.0080868217  -0.0159892759  -0.0186777169
        0.0027203054  -0.0046211485   0.0015266006  -0.0002385815   0.0001026244
       -0.0003510981   0.0008700253  -0.0024452937   0.0029963837  -0.0073855060
       -0.0010562771   0.0021677362   0.0000270427   0.0003610819  -0.0031508279
       -0.0000025516   0.0004044635  -0.0004814818   0.0001626413  -0.0001156876
        0.0000128281   0.0000235055   0.0000583594  -0.0000337870  -0.0000031732
        0.0000005433   0.0000007549   0.0000016209   0.0000162415  -0.0000135691
       -0.0000065605  -0.0000119813  -0.0000013799   0.0000073122   0.0000128897
        0.0000041375  -0.0000081291  -0.0000085272   0.0000015078   0.0000048563
        0.0000025868  -0.0000006164  -0.0000013554  -0.0000044849   0.0000009309
        0.0000035969   0.0000055104  -0.0000002684  -0.0000049065  -0.0000062151
        0.0000028715   0.0000009705   0.0000045013  -0.0000021311  -0.0000046720
       -0.0000033847   0.0000001463   0.0000021337   0.0000056523  -0.0000024270
        0.0000011675  -0.0000051131  -0.0000065249  -0.0000079660   0.0000039735
        0.0000058165   0.0000050583  -0.0000071941   0.0000010139  -0.0000019090
        0.0000041224  -0.0000022395   0.0000046951  -0.0000030197   0.0000002512
       -0.0000044972   0.0000069050  -0.0000006939   0.0000069587  -0.0000081575
        0.0000032224  -0.0000022271   0.0000057454  -0.0000022873   0.0000017886
       -0.0000050561   0.0000006842  -0.0000045700   0.0000012109  -0.0000008721
        0.0000068105  -0.0000107727  -0.0000015968  -0.0000193917   0.0000606361
       -0.0000357698  -0.0001633442  -0.0001158284   0.0000099933   0.0072116592
       -0.0008888851   0.0023494390  -0.0009025216  -0.0024616940   0.0029818336
        0.0002329702   0.0001052041  -0.0003477152  -0.0026888127  -0.0046658764
        0.0014841018   0.0084085376  -0.0159301452  -0.0186032601   0.0446991438
       -0.0481462348  -0.1076282804   0.0085252567   0.0124226138  -0.0108852226
        0.0134727474   0.0108521925  -0.0128818464  -0.0082739808  -0.0095714078
        0.0079361119  -0.0135420530   0.0108416138  -0.0130918645  -0.0084496083
        0.0122976594  -0.0108945467   0.0081658351  -0.0094073844   0.0079357857
       -0.0007400787   0.0018133813  -0.0008092723  -0.0004263194  -0.0005194263
       -0.0005061270   0.0000404648   0.0007715272  -0.0005530918   0.0002328523
       -0.0000045342   0.0001258527   0.0000129598   0.0000379210  -0.0000094216
        0.0000214886   0.0000099543   0.0000078340  -0.0000005042   0.0000005641
        0.0000009322   0.0000000228   0.0000005118   0.0000007511  -0.0000006280
        0.0000004157   0.0000004796  -0.0000010660   0.0000009284   0.0000009513
       -0.0000015020  -0.0000006632   0.0000016685   0.0000019484  -0.0000002709
        0.0000017767   0.0000011394   0.0000010792   0.0000009190   0.0000001252
        0.0000005887   0.0000005062   0.0000005033   0.0000004002   0.0000010149
        0.0000011434   0.0000007600   0.0000008210  -0.0000215224   0.0000099696
        0.0000077629  -0.0000136946   0.0000378106  -0.0000095531  -0.0002384241
       -0.0000020152   0.0001289311  -0.0000420471   0.0007707112  -0.0005546470
        0.0004369587  -0.0005199613  -0.0005072278   0.0007320665   0.0018158796
       -0.0008083112
        0.0061272142  -0.0082105131   0.0072619836  -0.0910832792   0.0427701635
       -0.0379054367   0.4966834532   0.0302596163  -0.0268977484  -0.0162041561
        0.0042602294  -0.0174066124  -0.0006135116   0.0016210729   0.0006006095
       -0.0006255119  -0.0006637207   0.0001826889   0.0001022454  -0.0000766073
        0.0000059555  -0.0006299141  -0.0006522454   0.0002967196   0.0002229290
       -0.0011010070  -0.0021967556  -0.0003575849   0.0000459914  -0.0000812694
        0.0002403769   0.0000291637  -0.0000182059   0.0000313526   0.0000375286
       -0.0000333354  -0.0000072676   0.0000114419  -0.0000024526   0.0000493433
       -0.0000100554   0.0000080344  -0.0000002098   0.0000017294  -0.0000034015
       -0.0000050677  -0.0000452179   0.0000001850   0.0000827426  -0.0000741797
        0.0000018254  -0.0000123925   0.0000074494   0.0000043358  -0.0000116136
        0.0000085661   0.0000030737   0.0000068308  -0.0000050217   0.0000035776
       -0.0000000967   0.0000055482   0.0000010160  -0.0000020722  -0.0000073604
       -0.0000001192   0.0000072973   0.0000059768  -0.0000001139  -0.0000057207
       -0.0000083704   0.0000006134   0.0000065947   0.0000043610  -0.0000008879
       -0.0001938240  -0.0000128834   0.0000016723   0.0000822302   0.0000840831
       -0.0000032805  -0.0000089227  -0.0000024084  -0.0000034340   0.0000127847
        0.0000010784  -0.0000012002  -0.0000020377   0.0000101386   0.0000006549
       -0.0000015433  -0.0000046265  -0.0000017549  -0.0000007678   0.0000077368
       -0.0000012540  -0.0000007750  -0.0000056368   0.0000026119   0.0000052708
        0.0000020908  -0.0000034072  -0.0000160844  -0.0000097941  -0.0000033020
        0.0000032387   0.0000419499   0.0000006045   0.0000082857  -0.0000074966
        0.0000011914  -0.0000097696  -0.0000080732   0.0000087474   0.0002861012
        0.0020624415   0.0014108503  -0.0006161618  -0.0003979696   0.0006229743
        0.0000854747  -0.0000318079   0.0000665653  -0.0006016317  -0.0003033040
        0.0006222402  -0.0006048721  -0.0003518264  -0.0016900494  -0.0165730877
        0.0178964009  -0.0021962573  -0.0009918615  -0.0024791250   0.0021737252
        0.0006904473  -0.0004611355   0.0002224321   0.0006847107  -0.0002692580
        0.0004297847  -0.1233803909  -0.0751569148  -0.0869005777  -0.1265307048
       -0.0866418236   0.0757416784  -0.1258425703   0.0772806129   0.0861443040
       -0.0000884780   0.0003880144   0.0001486474   0.0000121113   0.0000289872
       -0.0000320814  -0.0000122255   0.0000846593  -0.0000878427  -0.0001227586
       -0.0000620848  -0.0001124930  -0.0000234428  -0.0000050997  -0.0000005671
       -0.0000145089  -0.0000049478   0.0000074353  -0.0000015391   0.0000033396
       -0.0000017521   0.0000076525   0.0000077181  -0.0000043663  -0.0000040031
       -0.0000006405  -0.0000009984  -0.0000012225   0.0000024581  -0.0000001563
        0.0000025327  -0.0000031019  -0.0000021899   0.0000006572   0.0000029054
        0.0000006964  -0.0000011436  -0.0000051086  -0.0000001136  -0.0000034316
        0.0000005589   0.0000013907   0.0000073847  -0.0000063064   0.0000043968
        0.0000001420  -0.0000047113  -0.0000001800  -0.0000106739  -0.0000014051
       -0.0000009365   0.0000013801  -0.0000337123   0.0000257867  -0.0001308069
        0.0000901819   0.0000800896  -0.0000158456   0.0001001562  -0.0000720952
        0.0000117299   0.0000365607  -0.0000268395  -0.0000990305  -0.0000754103
       -0.0003956303
        0.0082302598  -0.0165151788   0.0159290197   0.0361534271  -0.1011029162
        0.0352348433   0.0302596163   0.4890210696   0.0353649686  -0.0055099655
        0.0087018486  -0.0039456686  -0.0003098383  -0.0010382691  -0.0017493040
        0.0006468289   0.0002754174   0.0007688523  -0.0004517897   0.0000881179
        0.0000044081  -0.0003019848  -0.0002976613   0.0003054516  -0.0011339730
       -0.0016788238  -0.0015645189   0.0002652515   0.0005126893   0.0007829089
       -0.0000859068   0.0001560410  -0.0001301521  -0.0000121306   0.0000222117
        0.0000419212   0.0000602674  -0.0000068009   0.0000089643  -0.0001035573
       -0.0000060588  -0.0000006672   0.0000463185  -0.0000014331  -0.0000004473
        0.0000015267  -0.0000088561   0.0000079025   0.0000151712   0.0001829942
       -0.0000251219  -0.0000343889  -0.0000007243   0.0000020181   0.0000058257
       -0.0000017338   0.0000035415  -0.0000045088   0.0000211789  -0.0000003367
       -0.0000227688  -0.0000364333   0.0000029392   0.0000445932   0.0000624478
       -0.0000105142  -0.0000319823  -0.0000420546   0.0000090451   0.0000110893
        0.0000125139  -0.0000012895  -0.0000045372   0.0000039483  -0.0000002191
       -0.0000068417   0.0000040897   0.0000010665   0.0000171441  -0.0001858543
        0.0000228552  -0.0000370937   0.0000011376  -0.0000010908  -0.0000088791
       -0.0000074253   0.0000013480   0.0000075689  -0.0000125286   0.0000012723
       -0.0000172457   0.0000338529  -0.0000035620   0.0000436552  -0.0000585669
        0.0000089391  -0.0000261948   0.0000408593  -0.0000076295  -0.0000033781
       -0.0000159652   0.0000001762   0.0000101305   0.0000018989  -0.0000022330
       -0.0000028820   0.0000075109  -0.0000022969   0.0000484291   0.0000345669
       -0.0000148272  -0.0000881836  -0.0000242407  -0.0000022234  -0.0005580152
       -0.0022775148  -0.0009552457   0.0005101716   0.0002977256  -0.0007081026
        0.0003273239   0.0000664794  -0.0000208056   0.0001812329   0.0006069688
       -0.0000427978   0.0003500860  -0.0001956963   0.0000334394   0.0162796884
       -0.0146670379   0.0037002223  -0.0018285328  -0.0028198014   0.0029161815
        0.0005158654   0.0006781217  -0.0007754470   0.0009674701   0.0005082433
        0.0000132853  -0.0755871380  -0.1105665615  -0.0809729509  -0.0862665934
       -0.1325547102   0.0767715969   0.0769383209  -0.1159402343  -0.0801549277
       -0.0003433942   0.0000347238  -0.0008117927   0.0000009152   0.0000146631
        0.0000125717  -0.0000114219   0.0000710887  -0.0000368716  -0.0000653708
       -0.0001063505  -0.0000654442  -0.0000015743  -0.0000303575   0.0000016077
        0.0000053592  -0.0000034892  -0.0000091948   0.0000263694   0.0000013730
       -0.0000003453   0.0000011142  -0.0000132637   0.0000015665  -0.0000056473
       -0.0000003957   0.0000011091   0.0000043818  -0.0000089643  -0.0000008131
        0.0000025352   0.0000004974  -0.0000020057   0.0000036709  -0.0000004928
        0.0000004423   0.0000045180   0.0000103749   0.0000000514  -0.0000045483
        0.0000008965  -0.0000015329   0.0000024495   0.0000133478  -0.0000021311
        0.0000244022  -0.0000007015  -0.0000036589  -0.0000013568   0.0000009988
        0.0000070086   0.0000045438   0.0000059454  -0.0000173166   0.0000925969
       -0.0000733274  -0.0001094646   0.0000426398  -0.0000927136   0.0000704605
       -0.0000112719  -0.0000622580   0.0000405388   0.0007301368  -0.0010404472
        0.0000804273
       -0.0072148596   0.0158138083  -0.0124696771  -0.0320644068   0.0352411454
       -0.0926684832  -0.0268977484   0.0353649686   0.4976274662  -0.0170529132
        0.0066621573  -0.0148921571  -0.0003678285  -0.0000851346  -0.0003904958
       -0.0001260373  -0.0001020882   0.0006927825  -0.0003876062  -0.0000219842
        0.0000472107  -0.0005702306  -0.0007878849   0.0002310735   0.0003675514
       -0.0008705306  -0.0025928182  -0.0001773413   0.0007718447   0.0007094047
        0.0000295695  -0.0001414729   0.0001199923   0.0000364636   0.0000418906
        0.0000171629  -0.0000742133   0.0000317297  -0.0000164420   0.0001350165
        0.0000045360  -0.0000065212  -0.0000766194   0.0000031458  -0.0000001686
        0.0000157298   0.0000282860  -0.0000085359  -0.0000335603  -0.0001768142
        0.0000225709   0.0000424503   0.0000081128  -0.0000030781  -0.0000140587
       -0.0000003951  -0.0000017437   0.0000029148  -0.0000095166   0.0000003219
        0.0000129420   0.0000266275  -0.0000014835  -0.0000370423  -0.0000516606
        0.0000079196   0.0000235750   0.0000329458  -0.0000060138   0.0000007203
       -0.0000099215  -0.0000006204   0.0000086019  -0.0000123490   0.0000008828
        0.0000342963   0.0000021957   0.0000017261  -0.0000395428   0.0001788601
       -0.0000257299   0.0000468225  -0.0000118427   0.0000031482   0.0000024985
        0.0000153342  -0.0000005025   0.0000031010   0.0000072451   0.0000019672
        0.0000110708  -0.0000224751   0.0000031666  -0.0000352486   0.0000467685
       -0.0000061806   0.0000204954  -0.0000298588   0.0000068924   0.0000040376
        0.0000056222   0.0000019886  -0.0000165407   0.0000014430   0.0000026282
        0.0000161902  -0.0000325013   0.0000120831  -0.0000765400  -0.0000467120
        0.0000338078   0.0001039073  -0.0000101839   0.0000042902   0.0010404166