      -----------------------------------------------------------      
     |                   =====================                   |     
     |                           x T B                           |     
     |                   =====================                   |     
     |                         S. Grimme                         |     
     |          Mulliken Center for Theoretical Chemistry        |     
     |                    University of Bonn                     |     
      -----------------------------------------------------------      

   * xtb version 6.7.1 (edcfbbe) compiled by 'albert@albert-system' on 2024-07-22

   xtb is free software: you can redistribute it and/or modify it under
   the terms of the GNU Lesser General Public License as published by
   the Free Software Foundation, either version 3 of the License, or
   (at your option) any later version.
   
   xtb is distributed in the hope that it will be useful,
   but WITHOUT ANY WARRANTY; without even the implied warranty of
   MERCHANTABILITY or FITNESS FOR A PARTICULAR PURPOSE.  See the
   GNU Lesser General Public License for more details.
   
   Cite this work as:
   * C. Bannwarth, E. Caldeweyher, S. Ehlert, A. Hansen, P. Pracht,
     J. Seibert, S. Spicher, S. Grimme, WIREs Comput. Mol. Sci., 2020, 11,
     e01493. DOI: 10.1002/wcms.1493
   
   for GFN2-xTB:
   * C. Bannwarth, S. Ehlert and S. Grimme., J. Chem. Theory Comput., 2019,
     15, 1652-1671. DOI: 10.1021/acs.jctc.8b01176
   for GFN1-xTB:
   * S. Grimme, C. Bannwarth, P. Shushkov, J. Chem. Theory Comput., 2017,
     13, 1989-2009. DOI: 10.1021/acs.jctc.7b00118
   for GFN0-xTB:
   * P. Pracht, E. Caldeweyher, S. Ehlert, S. Grimme, ChemRxiv, 2019, preprint.
     DOI: 10.26434/chemrxiv.8326202.v1
   for GFN-FF:
   * S. Spicher and S. Grimme, Angew. Chem. Int. Ed., 2020, 59, 15665-15673.
     DOI: 10.1002/anie.202004239
   
   for ALPB and GBSA implicit solvation:
   * S. Ehlert, M. Stahn, S. Spicher, S. Grimme, J. Chem. Theory Comput.,
     2021, 17, 4250-4261. DOI: 10.1021/acs.jctc.1c00471
   
   for ddCOSMO and CPCM-X implicit solvation:
   * M. Stahn, S. Ehlert, S. Grimme, J. Phys. Chem. A,
     2023, XX, XXXX-XXXX. DOI: 10.1021/acs.jpca.3c04382
   
   for DFT-D4:
   * E. Caldeweyher, C. Bannwarth and S. Grimme, J. Chem. Phys., 2017,
     147, 034112. DOI: 10.1063/1.4993215
   * E. Caldeweyher, S. Ehlert, A. Hansen, H. Neugebauer, S. Spicher,
     C. Bannwarth and S. Grimme, J. Chem. Phys., 2019, 150, 154122.
     DOI: 10.1063/1.5090222
   * E. Caldeweyher, J.-M. Mewes, S. Ehlert and S. Grimme, Phys. Chem. Chem. Phys.
     2020, 22, 8499-8512. DOI: 10.1039/D0CP00502A
   
   for sTDA-xTB:
   * S. Grimme and C. Bannwarth, J. Chem. Phys., 2016, 145, 054103.
     DOI: 10.1063/1.4959605
   
   in the mass-spec context:
   * V. Asgeirsson, C. Bauer and S. Grimme, Chem. Sci., 2017, 8, 4879.
     DOI: 10.1039/c7sc00601b
   * J. Koopman and S. Grimme, ACS Omega 2019, 4, 12, 15120-15133.
     DOI: 10.1021/acsomega.9b02011
   
   for metadynamics refer to:
   * S. Grimme, J. Chem. Theory Comput., 2019, 155, 2847-2862
     DOI: 10.1021/acs.jctc.9b00143
   
   for SPH calculations refer to:
   * S. Spicher and S. Grimme, J. Chem. Theory Comput., 2021, 17, 1701-1714
     DOI: 10.1021/acs.jctc.0c01306
   
   for ONIOM refer to:
   * C. Plett, A. Katbashev, S. Ehlert, S. Grimme, M. Bursch,
     Phys. Chem. Chem. Phys., 2023, 25, 17860-17868. DOI: 10.1039/D3CP02178E
   
   for DIPRO refer to:
   * J. Kohn, N. Gildemeister, S. Grimme, D. Fazzi, A. Hansen,
     J. Chem. Phys., 2023, just accepted.
   
   for PTB refer to:
   * S. Grimme, M. Mueller, A. Hansen, J. Chem. Phys., 2023, 158, 124111.
     DOI: 10.1063/5.0137838
   
   with help from (in alphabetical order)
   P. Atkinson, C. Bannwarth, F. Bohle, G. Brandenburg, E. Caldeweyher
   M. Checinski, S. Dohm, S. Ehlert, S. Ehrlich, I. Gerasimov, C. Hölzer
   A. Katbashev, J. Kohn, J. Koopman, C. Lavigne, S. Lehtola, F. März, M. Müller,
   F. Musil, H. Neugebauer, J. Pisarek, C. Plett, P. Pracht, F. Pultar,
   J. Seibert, P. Shushkov, S. Spicher, M. Stahn, M. Steiner, T. Strunk,
   J. Stückrath, T. Rose, and J. Unsleber
   
 * started run on 2025/06/07 at 01:00:14.960     
   ID    Z sym.   atoms
    1    5 B      1
    2    6 C      2-11, 13-18, 20-29, 31-48, 50-61, 63-68
    3    8 O      12, 19
    4    7 N      30, 49, 62
    5    1 H      69-116

           -------------------------------------------------
          |                Calculation Setup                |
           -------------------------------------------------

          program call               : xtb data250606/gas/TDBA-DI/TDBA-DI_gas_S0_crest.xyz --gfn 2 --ohess vtight --parallel 14 --molden --ceasefiles --namespace data250606/gas/TDBA-DI/TDBA-DI_gas_S0_finalOpt
          calculation namespace      : data250606/gas/TDBA-DI/TDBA-DI_gas_S0_finalOpt
          coordinate file            : data250606/gas/TDBA-DI/TDBA-DI_gas_S0_crest.xyz
          omp threads                :                    14


           -------------------------------------------------
          |                 G F N 2 - x T B                 |
           -------------------------------------------------

        Reference                      10.1021/acs.jctc.8b01176
      * Hamiltonian:
        H0-scaling (s, p, d)           1.850000    2.230000    2.230000
        zeta-weighting                 0.500000
      * Dispersion:
        s8                             2.700000
        a1                             0.520000
        a2                             5.000000
        s9                             5.000000
      * Repulsion:
        kExp                           1.500000    1.000000
        rExp                           1.000000
      * Coulomb:
        alpha                          2.000000
        third order                    shell-resolved
        anisotropic                    true
        a3                             3.000000
        a5                             4.000000
        cn-shift                       1.200000
        cn-exp                         4.000000
        max-rad                        5.000000


          ...................................................
          :                      SETUP                      :
          :.................................................:
          :  # basis functions                 320          :
          :  # atomic orbitals                 320          :
          :  # shells                          184          :
          :  # electrons                       326          :
          :  max. iterations                   250          :
          :  Hamiltonian                  GFN2-xTB          :
          :  restarted?                      false          :
          :  GBSA solvation                  false          :
          :  PC potential                    false          :
          :  electronic temp.          300.0000000     K    :
          :  accuracy                    1.0000000          :
          :  -> integral cutoff          0.2500000E+02      :
          :  -> integral neglect         0.1000000E-07      :
          :  -> SCF convergence          0.1000000E-05 Eh   :
          :  -> wf. convergence          0.1000000E-03 e    :
          :  Broyden damping             0.4000000          :
          :  net charge                          0          :
          :  unpaired electrons                  0          :
          ...................................................

 iter      E             dE          RMSdq      gap      omega  full diag
   1   -178.3477672 -0.178348E+03  0.420E+00    2.35       0.0  T
   2   -178.6006209 -0.252854E+00  0.271E+00    1.71       1.0  T
   3   -178.5907592  0.986174E-02  0.129E+00    2.39       1.0  T
   4   -178.6463635 -0.556043E-01  0.323E-01    1.92       1.0  T
   5   -178.6570198 -0.106563E-01  0.154E-01    2.16       1.0  T
   6   -178.6588388 -0.181900E-02  0.682E-02    2.06       1.0  T
   7   -178.6590188 -0.180097E-03  0.318E-02    2.10       1.0  T
   8   -178.6591270 -0.108190E-03  0.117E-02    2.08       1.0  T
   9   -178.6591376 -0.105388E-04  0.409E-03    2.08       2.3  T
  10   -178.6591385 -0.957475E-06  0.163E-03    2.08       5.7  T
  11   -178.6591387 -0.159875E-06  0.633E-04    2.08      14.7  T
  12   -178.6591387 -0.144656E-07  0.266E-04    2.08      34.9  T

   *** convergence criteria satisfied after 12 iterations ***

         #    Occupation            Energy/Eh            Energy/eV
      -------------------------------------------------------------
         1        2.0000           -0.7271456             -19.7866
       ...           ...                  ...                  ...
       157        2.0000           -0.3835262             -10.4363
       158        2.0000           -0.3831822             -10.4269
       159        2.0000           -0.3815291             -10.3819
       160        2.0000           -0.3650968              -9.9348
       161        2.0000           -0.3643243              -9.9138
       162        2.0000           -0.3454612              -9.4005
       163        2.0000           -0.3452637              -9.3951 (HOMO)
       164                         -0.2688307              -7.3153 (LUMO)
       165                         -0.2415344              -6.5725
       166                         -0.2384787              -6.4893
       167                         -0.2314646              -6.2985
       168                         -0.2297280              -6.2512
       ...                                ...                  ...
       320                          0.7825660              21.2947
      -------------------------------------------------------------
                  HL-Gap            0.0764330 Eh            2.0798 eV
             Fermi-level           -0.3070472 Eh           -8.3552 eV

 SCC (total)                   0 d,  0 h,  0 min,  0.173 sec
 SCC setup                      ...        0 min,  0.001 sec (  0.308%)
 Dispersion                     ...        0 min,  0.003 sec (  1.893%)
 classical contributions        ...        0 min,  0.000 sec (  0.041%)
 integral evaluation            ...        0 min,  0.009 sec (  5.212%)
 iterations                     ...        0 min,  0.133 sec ( 76.657%)
 molecular gradient             ...        0 min,  0.026 sec ( 15.314%)
 printout                       ...        0 min,  0.001 sec (  0.556%)

         :::::::::::::::::::::::::::::::::::::::::::::::::::::
         ::                     SUMMARY                     ::
         :::::::::::::::::::::::::::::::::::::::::::::::::::::
         :: total energy            -175.575870227544 Eh    ::
         :: gradient norm              0.000447079277 Eh/a0 ::
         :: HOMO-LUMO gap              2.079849066429 eV    ::
         ::.................................................::
         :: SCC energy              -178.657971230438 Eh    ::
         :: -> isotropic ES            0.058043585550 Eh    ::
         :: -> anisotropic ES          0.022003529093 Eh    ::
         :: -> anisotropic XC          0.081227004806 Eh    ::
         :: -> dispersion             -0.176971892875 Eh    ::
         :: repulsion energy           3.082101002894 Eh    ::
         :: add. restraining           0.000000000000 Eh    ::
         :: total charge              -0.000000000000 e     ::
         :::::::::::::::::::::::::::::::::::::::::::::::::::::

      ----------------------------------------------------------- 
     |                   =====================                   |
     |                        A N C O P T                        |
     |                   =====================                   |
     |               Approximate Normal Coordinate               |
     |                Rational Function Optimizer                |
      ----------------------------------------------------------- 

Optimization log is written to '/dev/null'
      ----------------------------------------------------------- 
     |                   =====================                   |
     |                        A N C O P T                        |
     |                   =====================                   |
     |               Approximate Normal Coordinate               |
     |                Rational Function Optimizer                |
      ----------------------------------------------------------- 

          ...................................................
          :                      SETUP                      :
          :.................................................:
          :   optimization level         verytight          :
          :   max. optcycles                  2320          :
          :   ANC micro-cycles                  20          :
          :   degrees of freedom               342          :
          :.................................................:
          :   RF solver                   davidson          :
          :   write xtbopt.log                true          :
          :   linear?                        false          :
          :   energy convergence         0.1000000E-06 Eh   :
          :   grad. convergence          0.2000000E-03 Eh/α :
          :   maxmium RF displ.          1.0000000          :
          :   Hlow (freq-cutoff)         0.1000000E-01      :
          :   Hmax (freq-cutoff)         5.0000000          :
          :   S6 in model hess.         20.0000000          :
          ...................................................

generating ANC from exact Hessian ...
Using Lindh-Hessian (1995)
 Shifting diagonal of input Hessian by   9.974881150657675E-003
 Lowest  eigenvalues of input Hessian
    0.000000    0.000000    0.000000    0.000000    0.000000    0.000000
    0.010000    0.010020    0.010025    0.010197    0.010251    0.010311
    0.010351    0.010568    0.010626    0.010839    0.010868    0.010950
 Highest eigenvalues
    2.178068    2.184243    2.188820    2.201241    2.216861    2.224559
 

........................................................................
.............................. CYCLE    1 ..............................
........................................................................

 iter      E             dE          RMSdq      gap      omega  full diag
   1   -178.6591387 -0.178659E+03  0.814E-05    2.08       0.0  T
   2   -178.6591387 -0.106496E-09  0.560E-05    2.08     165.8  T
   3   -178.6591387 -0.199122E-09  0.351E-05    2.08     264.5  T
     SCC iter.                  ...        0 min,  0.037 sec
     gradient                   ...        0 min,  0.026 sec
 * total energy  :  -175.5758702 Eh     change       -0.8618258E-08 Eh
   gradient norm :     0.0004473 Eh/α   predicted     0.0000000E+00 (-100.00%)
   displ. norm   :     0.0144160 α      lambda       -0.1964965E-05
   maximum displ.:     0.0054785 α      in ANC's #2, #5, #1, ...

........................................................................
.............................. CYCLE    2 ..............................
........................................................................

 iter      E             dE          RMSdq      gap      omega  full diag
   1   -178.6591949 -0.178659E+03  0.330E-03    2.08       0.0  T
   2   -178.6591949 -0.605132E-08  0.197E-03    2.08       4.7  T
   3   -178.6591948  0.191667E-07  0.372E-04    2.08      25.0  T
   4   -178.6591949 -0.219285E-07  0.623E-05    2.08     149.1  T
     SCC iter.                  ...        0 min,  0.044 sec
     gradient                   ...        0 min,  0.026 sec
 * total energy  :  -175.5758719 Eh     change       -0.1647278E-05 Eh
   gradient norm :     0.0002827 Eh/α   predicted    -0.9874613E-06 ( -40.05%)
   displ. norm   :     0.0229553 α      lambda       -0.1492292E-05
   maximum displ.:     0.0095462 α      in ANC's #2, #5, #1, ...

........................................................................
.............................. CYCLE    3 ..............................
........................................................................

 iter      E             dE          RMSdq      gap      omega  full diag
   1   -178.6592214 -0.178659E+03  0.272E-03    2.08       0.0  T
   2   -178.6592214 -0.361374E-08  0.160E-03    2.08       5.8  T
   3   -178.6592214  0.148802E-07  0.308E-04    2.08      30.1  T
   4   -178.6592214 -0.167466E-07  0.501E-05    2.08     185.5  T
     SCC iter.                  ...        0 min,  0.043 sec
     gradient                   ...        0 min,  0.025 sec
 * total energy  :  -175.5758739 Eh     change       -0.2023448E-05 Eh
   gradient norm :     0.0002890 Eh/α   predicted    -0.7466081E-06 ( -63.10%)
   displ. norm   :     0.0981033 α      lambda       -0.5613789E-05
   maximum displ.:     0.0408771 α      in ANC's #2, #5, #1, ...

........................................................................
.............................. CYCLE    4 ..............................
........................................................................

 iter      E             dE          RMSdq      gap      omega  full diag
   1   -178.6591455 -0.178659E+03  0.111E-02    2.08       0.0  T
   2   -178.6591455 -0.456171E-07  0.650E-03    2.08       1.4  T
   3   -178.6591454  0.125548E-06  0.928E-04    2.08      10.0  T
   4   -178.6591456 -0.144700E-06  0.182E-04    2.08      51.0  T
     SCC iter.                  ...        0 min,  0.044 sec
     gradient                   ...        0 min,  0.025 sec
 * total energy  :  -175.5758797 Eh     change       -0.5825565E-05 Eh
   gradient norm :     0.0003505 Eh/α   predicted    -0.2819035E-05 ( -51.61%)
   displ. norm   :     0.0743288 α      lambda       -0.2393692E-05
   maximum displ.:     0.0337048 α      in ANC's #2, #5, #1, ...

........................................................................
.............................. CYCLE    5 ..............................
........................................................................

 iter      E             dE          RMSdq      gap      omega  full diag
   1   -178.6590941 -0.178659E+03  0.757E-03    2.08       0.0  T
   2   -178.6590941 -0.176820E-07  0.445E-03    2.08       2.1  T
   3   -178.6590941  0.527399E-07  0.597E-04    2.08      15.5  T
   4   -178.6590941 -0.610798E-07  0.115E-04    2.08      80.6  T
     SCC iter.                  ...        0 min,  0.043 sec
     gradient                   ...        0 min,  0.025 sec
 * total energy  :  -175.5758824 Eh     change       -0.2641186E-05 Eh
   gradient norm :     0.0003096 Eh/α   predicted    -0.1199965E-05 ( -54.57%)
   displ. norm   :     0.0602201 α      lambda       -0.1875765E-05
   maximum displ.:     0.0294401 α      in ANC's #2, #5, #1, ...

........................................................................
.............................. CYCLE    6 ..............................
........................................................................

 iter      E             dE          RMSdq      gap      omega  full diag
   1   -178.6591164 -0.178659E+03  0.560E-03    2.08       0.0  T
   2   -178.6591165 -0.952957E-08  0.329E-03    2.08       2.8  T
   3   -178.6591164  0.211153E-07  0.397E-04    2.08      23.4  T
   4   -178.6591165 -0.249889E-07  0.915E-05    2.08     101.5  T
     SCC iter.                  ...        0 min,  0.043 sec
     gradient                   ...        0 min,  0.025 sec
 * total energy  :  -175.5758848 Eh     change       -0.2423316E-05 Eh
   gradient norm :     0.0002162 Eh/α   predicted    -0.9436001E-06 ( -61.06%)
   displ. norm   :     0.0829570 α      lambda       -0.3058494E-05
   maximum displ.:     0.0422289 α      in ANC's #2, #1, #5, ...

........................................................................
.............................. CYCLE    7 ..............................
........................................................................

 iter      E             dE          RMSdq      gap      omega  full diag
   1   -178.6591365 -0.178659E+03  0.773E-03    2.08       0.0  T
   2   -178.6591366 -0.192246E-07  0.455E-03    2.08       2.0  T
   3   -178.6591365  0.325127E-07  0.519E-04    2.08      17.9  T
   4   -178.6591366 -0.392686E-07  0.141E-04    2.08      65.9  T
     SCC iter.                  ...        0 min,  0.043 sec
     gradient                   ...        0 min,  0.025 sec
 * total energy  :  -175.5758885 Eh     change       -0.3751099E-05 Eh
   gradient norm :     0.0002010 Eh/α   predicted    -0.1538728E-05 ( -58.98%)
   displ. norm   :     0.1020901 α      lambda       -0.3160302E-05
   maximum displ.:     0.0538553 α      in ANC's #2, #1, #5, ...

........................................................................
.............................. CYCLE    8 ..............................
........................................................................

 iter      E             dE          RMSdq      gap      omega  full diag
   1   -178.6591304 -0.178659E+03  0.955E-03    2.08       0.0  T
   2   -178.6591305 -0.257004E-07  0.563E-03    2.08       1.6  T
   3   -178.6591304  0.425095E-07  0.603E-04    2.08      15.4  T
   4   -178.6591305 -0.526107E-07  0.169E-04    2.08      55.1  T
     SCC iter.                  ...        0 min,  0.044 sec
     gradient                   ...        0 min,  0.025 sec
 * total energy  :  -175.5758921 Eh     change       -0.3549028E-05 Eh
   gradient norm :     0.0002679 Eh/α   predicted    -0.1588962E-05 ( -55.23%)
   displ. norm   :     0.0765029 α      lambda       -0.1903365E-05
   maximum displ.:     0.0419672 α      in ANC's #2, #1, #5, ...

........................................................................
.............................. CYCLE    9 ..............................
........................................................................

 iter      E             dE          RMSdq      gap      omega  full diag
   1   -178.6591697 -0.178659E+03  0.709E-03    2.08       0.0  T
   2   -178.6591697 -0.128014E-07  0.418E-03    2.08       2.2  T
   3   -178.6591697  0.236817E-07  0.447E-04    2.08      20.8  T
   4   -178.6591697 -0.294009E-07  0.118E-04    2.08      78.8  T
     SCC iter.                  ...        0 min,  0.043 sec
     gradient                   ...        0 min,  0.025 sec
 * total energy  :  -175.5758944 Eh     change       -0.2316946E-05 Eh
   gradient norm :     0.0002600 Eh/α   predicted    -0.9578242E-06 ( -58.66%)
   displ. norm   :     0.0766894 α      lambda       -0.2108848E-05
   maximum displ.:     0.0430942 α      in ANC's #2, #1, #5, ...

........................................................................
.............................. CYCLE   10 ..............................
........................................................................

 iter      E             dE          RMSdq      gap      omega  full diag
   1   -178.6591901 -0.178659E+03  0.704E-03    2.08       0.0  T
   2   -178.6591902 -0.132780E-07  0.415E-03    2.08       2.2  T
   3   -178.6591901  0.214919E-07  0.443E-04    2.08      21.0  T
   4   -178.6591902 -0.270387E-07  0.108E-04    2.08      85.9  T
     SCC iter.                  ...        0 min,  0.043 sec
     gradient                   ...        0 min,  0.025 sec
 * total energy  :  -175.5758972 Eh     change       -0.2794927E-05 Eh
   gradient norm :     0.0002039 Eh/α   predicted    -0.1062043E-05 ( -62.00%)
   displ. norm   :     0.1128753 α      lambda       -0.3472289E-05
   maximum displ.:     0.0637809 α      in ANC's #2, #1, #5, ...

........................................................................
.............................. CYCLE   11 ..............................
........................................................................

 iter      E             dE          RMSdq      gap      omega  full diag
   1   -178.6591727 -0.178659E+03  0.104E-02    2.08       0.0  T
   2   -178.6591727 -0.316082E-07  0.610E-03    2.08       1.5  T
   3   -178.6591727  0.656074E-07  0.743E-04    2.08      12.5  T
   4   -178.6591727 -0.792098E-07  0.150E-04    2.08      62.0  T
     SCC iter.                  ...        0 min,  0.044 sec
     gradient                   ...        0 min,  0.025 sec
 * total energy  :  -175.5759017 Eh     change       -0.4442324E-05 Eh
   gradient norm :     0.0002016 Eh/α   predicted    -0.1750679E-05 ( -60.59%)
   displ. norm   :     0.1483976 α      lambda       -0.4161672E-05
   maximum displ.:     0.0845641 α      in ANC's #2, #1, #5, ...

........................................................................
.............................. CYCLE   12 ..............................
........................................................................

 iter      E             dE          RMSdq      gap      omega  full diag
   1   -178.6590980 -0.178659E+03  0.133E-02    2.08       0.0  T
   2   -178.6590981 -0.522453E-07  0.781E-03    2.08       1.2  T
   3   -178.6590980  0.130161E-06  0.101E-03    2.08       9.2  T
   4   -178.6590981 -0.154158E-06  0.185E-04    2.08      50.1  T
   5   -178.6590981 -0.166830E-08  0.106E-04    2.08      87.9  T
     SCC iter.                  ...        0 min,  0.054 sec
     gradient                   ...        0 min,  0.025 sec
 * total energy  :  -175.5759065 Eh     change       -0.4894943E-05 Eh
   gradient norm :     0.0002473 Eh/α   predicted    -0.2102012E-05 ( -57.06%)
   displ. norm   :     0.1234814 α      lambda       -0.2690541E-05
   maximum displ.:     0.0716774 α      in ANC's #2, #1, #5, ...

........................................................................
.............................. CYCLE   13 ..............................
........................................................................

 iter      E             dE          RMSdq      gap      omega  full diag
   1   -178.6590784 -0.178659E+03  0.106E-02    2.08       0.0  T
   2   -178.6590785 -0.336830E-07  0.624E-03    2.08       1.5  T
   3   -178.6590784  0.819605E-07  0.815E-04    2.08      11.4  T
   4   -178.6590785 -0.975162E-07  0.143E-04    2.08      65.1  T
     SCC iter.                  ...        0 min,  0.043 sec
     gradient                   ...        0 min,  0.025 sec
 * total energy  :  -175.5759097 Eh     change       -0.3116091E-05 Eh
   gradient norm :     0.0002208 Eh/α   predicted    -0.1358491E-05 ( -56.40%)
   displ. norm   :     0.0771470 α      lambda       -0.1538418E-05
   maximum displ.:     0.0463313 α      in ANC's #2, #1, #5, ...

........................................................................
.............................. CYCLE   14 ..............................
........................................................................

 iter      E             dE          RMSdq      gap      omega  full diag
   1   -178.6590944 -0.178659E+03  0.629E-03    2.08       0.0  T
   2   -178.6590944 -0.103414E-07  0.370E-03    2.08       2.5  T
   3   -178.6590943  0.406631E-07  0.521E-04    2.08      17.8  T
   4   -178.6590944 -0.468505E-07  0.865E-05    2.08     107.4  T
     SCC iter.                  ...        0 min,  0.043 sec
     gradient                   ...        0 min,  0.025 sec
 * total energy  :  -175.5759115 Eh     change       -0.1880473E-05 Eh
   gradient norm :     0.0001460 Eh/α   predicted    -0.7736897E-06 ( -58.86%)
   displ. norm   :     0.0542654 α      lambda       -0.1300423E-05
   maximum displ.:     0.0336862 α      in ANC's #2, #1, #5, ...

........................................................................
.............................. CYCLE   15 ..............................
........................................................................

 iter      E             dE          RMSdq      gap      omega  full diag
   1   -178.6591108 -0.178659E+03  0.438E-03    2.08       0.0  T
   2   -178.6591108 -0.482754E-08  0.258E-03    2.08       3.6  T
   3   -178.6591107  0.201431E-07  0.359E-04    2.08      25.8  T
   4   -178.6591108 -0.230449E-07  0.649E-05    2.08     143.1  T
     SCC iter.                  ...        0 min,  0.043 sec
     gradient                   ...        0 min,  0.025 sec
 * total energy  :  -175.5759132 Eh     change       -0.1664008E-05 Eh
   gradient norm :     0.0001087 Eh/α   predicted    -0.6535867E-06 ( -60.72%)
   displ. norm   :     0.0578325 α      lambda       -0.1588607E-05
   maximum displ.:     0.0358865 α      in ANC's #2, #1, #3, ...

........................................................................
.............................. CYCLE   16 ..............................
........................................................................

 iter      E             dE          RMSdq      gap      omega  full diag
   1   -178.6591046 -0.178659E+03  0.483E-03    2.08       0.0  T
   2   -178.6591046 -0.646739E-08  0.285E-03    2.08       3.3  T
   3   -178.6591046  0.221207E-07  0.381E-04    2.08      24.4  T
   4   -178.6591046 -0.254265E-07  0.769E-05    2.08     120.7  T
     SCC iter.                  ...        0 min,  0.043 sec
     gradient                   ...        0 min,  0.025 sec
 * total energy  :  -175.5759152 Eh     change       -0.2036715E-05 Eh
   gradient norm :     0.0001643 Eh/α   predicted    -0.7959331E-06 ( -60.92%)
   displ. norm   :     0.0760395 α      lambda       -0.2020098E-05
   maximum displ.:     0.0471096 α      in ANC's #2, #1, #3, ...

........................................................................
.............................. CYCLE   17 ..............................
........................................................................

 iter      E             dE          RMSdq      gap      omega  full diag
   1   -178.6590924 -0.178659E+03  0.626E-03    2.08       0.0  T
   2   -178.6590924 -0.108462E-07  0.369E-03    2.08       2.5  T
   3   -178.6590924  0.338081E-07  0.473E-04    2.08      19.6  T
   4   -178.6590924 -0.389937E-07  0.994E-05    2.08      93.4  T
     SCC iter.                  ...        0 min,  0.043 sec
     gradient                   ...        0 min,  0.025 sec
 * total energy  :  -175.5759178 Eh     change       -0.2590644E-05 Eh
   gradient norm :     0.0002358 Eh/α   predicted    -0.1015406E-05 ( -60.80%)
   displ. norm   :     0.0905700 α      lambda       -0.2322246E-05
   maximum displ.:     0.0561157 α      in ANC's #2, #1, #3, ...

........................................................................
.............................. CYCLE   18 ..............................
........................................................................

 iter      E             dE          RMSdq      gap      omega  full diag
   1   -178.6590731 -0.178659E+03  0.716E-03    2.08       0.0  T
   2   -178.6590731 -0.132736E-07  0.422E-03    2.08       2.2  T
   3   -178.6590731  0.426758E-07  0.529E-04    2.08      17.5  T
   4   -178.6590731 -0.493322E-07  0.112E-04    2.08      82.6  T
     SCC iter.                  ...        0 min,  0.043 sec
     gradient                   ...        0 min,  0.025 sec
 * total energy  :  -175.5759209 Eh     change       -0.3017545E-05 Eh
   gradient norm :     0.0002470 Eh/α   predicted    -0.1167516E-05 ( -61.31%)
   displ. norm   :     0.1102708 α      lambda       -0.2785921E-05
   maximum displ.:     0.0686075 α      in ANC's #2, #1, #3, ...

........................................................................
.............................. CYCLE   19 ..............................
........................................................................

 iter      E             dE          RMSdq      gap      omega  full diag
   1   -178.6590533 -0.178659E+03  0.836E-03    2.08       0.0  T
   2   -178.6590533 -0.157640E-07  0.492E-03    2.08       1.9  T
   3   -178.6590533  0.449105E-07  0.554E-04    2.08      16.8  T
   4   -178.6590533 -0.527663E-07  0.128E-04    2.08      72.4  T
     SCC iter.                  ...        0 min,  0.043 sec
     gradient                   ...        0 min,  0.025 sec
 * total energy  :  -175.5759245 Eh     change       -0.3622352E-05 Eh
   gradient norm :     0.0002124 Eh/α   predicted    -0.1402487E-05 ( -61.28%)
   displ. norm   :     0.1339542 α      lambda       -0.3263239E-05
   maximum displ.:     0.0838047 α      in ANC's #2, #1, #3, ...

........................................................................
.............................. CYCLE   20 ..............................
........................................................................

 iter      E             dE          RMSdq      gap      omega  full diag
   1   -178.6590377 -0.178659E+03  0.982E-03    2.08       0.0  T
   2   -178.6590378 -0.180690E-07  0.578E-03    2.08       1.6  T
   3   -178.6590377  0.415470E-07  0.554E-04    2.08      16.8  T
   4   -178.6590378 -0.507277E-07  0.143E-04    2.08      64.8  T
     SCC iter.                  ...        0 min,  0.043 sec
     gradient                   ...        0 min,  0.025 sec
 * total energy  :  -175.5759287 Eh     change       -0.4190151E-05 Eh
   gradient norm :     0.0001595 Eh/α   predicted    -0.1646287E-05 ( -60.71%)
   displ. norm   :     0.1558320 α      lambda       -0.3522514E-05
   maximum displ.:     0.0982880 α      in ANC's #2, #1, #3, ...
 * RMSD in coord.:     0.1384473 α      energy gain  -0.5843666E-04 Eh

generating ANC from exact Hessian ...
Using Lindh-Hessian (1995)
 Shifting diagonal of input Hessian by   9.975768527233831E-003
 Lowest  eigenvalues of input Hessian
    0.000000    0.000000    0.000000    0.000000    0.000000    0.000000
    0.010000    0.010021    0.010026    0.010197    0.010249    0.010310
    0.010351    0.010566    0.010620    0.010837    0.010859    0.010946
 Highest eigenvalues
    2.178738    2.184031    2.189041    2.200880    2.217516    2.224096
 

........................................................................
.............................. CYCLE   21 ..............................
........................................................................

 iter      E             dE          RMSdq      gap      omega  full diag
   1   -178.6590141 -0.178659E+03  0.111E-02    2.08       0.0  T
   2   -178.6590141 -0.204861E-07  0.654E-03    2.08       1.4  T
   3   -178.6590141  0.388001E-07  0.555E-04    2.08      16.7  T
   4   -178.6590142 -0.498878E-07  0.153E-04    2.08      60.8  T
     SCC iter.                  ...        0 min,  0.043 sec
     gradient                   ...        0 min,  0.025 sec
 * total energy  :  -175.5759332 Eh     change       -0.4513009E-05 Eh
   gradient norm :     0.0001718 Eh/α   predicted     0.0000000E+00 (-100.00%)
   displ. norm   :     0.0122485 α      lambda       -0.4035468E-07
   maximum displ.:     0.0049846 α      in ANC's #18, #12, #5, ...

........................................................................
.............................. CYCLE   22 ..............................
........................................................................

 iter      E             dE          RMSdq      gap      omega  full diag
   1   -178.6590917 -0.178659E+03  0.197E-03    2.08       0.0  T
   2   -178.6590917 -0.232572E-08  0.116E-03    2.08       8.0  T
   3   -178.6590917  0.438774E-08  0.180E-04    2.08      51.6  T
   4   -178.6590917 -0.493696E-08  0.403E-05    2.08     230.5  T
     SCC iter.                  ...        0 min,  0.043 sec
     gradient                   ...        0 min,  0.025 sec
 * total energy  :  -175.5759344 Eh     change       -0.1189398E-05 Eh
   gradient norm :     0.0001207 Eh/α   predicted    -0.4373397E-06 ( -63.23%)
   displ. norm   :     0.0771909 α      lambda       -0.4604905E-05
   maximum displ.:     0.0316285 α      in ANC's #18, #12, #2, ...

........................................................................
.............................. CYCLE   23 ..............................
........................................................................

 iter      E             dE          RMSdq      gap      omega  full diag
   1   -178.6592021 -0.178659E+03  0.119E-02    2.08       0.0  T
   2   -178.6592022 -0.686184E-07  0.704E-03    2.08       1.3  T
   3   -178.6592020  0.163664E-06  0.107E-03    2.08       8.6  T
   4   -178.6592022 -0.186463E-06  0.217E-04    2.08      42.8  T
   5   -178.6592022 -0.442171E-08  0.106E-04    2.08      87.9  T
     SCC iter.                  ...        0 min,  0.054 sec
     gradient                   ...        0 min,  0.025 sec
 * total energy  :  -175.5759381 Eh     change       -0.3727136E-05 Eh
   gradient norm :     0.0002668 Eh/α   predicted    -0.2310594E-05 ( -38.01%)
   displ. norm   :     0.0162895 α      lambda       -0.4511124E-06
   maximum displ.:     0.0072966 α      in ANC's #2, #1, #5, ...

........................................................................
.............................. CYCLE   24 ..............................
........................................................................

 iter      E             dE          RMSdq      gap      omega  full diag
   1   -178.6591429 -0.178659E+03  0.196E-03    2.08       0.0  T
   2   -178.6591429 -0.120895E-08  0.116E-03    2.08       8.0  T
   3   -178.6591429  0.222937E-08  0.137E-04    2.08      68.0  T
   4   -178.6591429 -0.267156E-08  0.291E-05    2.08     318.8  T
     SCC iter.                  ...        0 min,  0.043 sec
     gradient                   ...        0 min,  0.025 sec
 * total energy  :  -175.5759386 Eh     change       -0.5471123E-06 Eh
   gradient norm :     0.0001485 Eh/α   predicted    -0.2299688E-06 ( -57.97%)
   displ. norm   :     0.0267823 α      lambda       -0.7527981E-06
   maximum displ.:     0.0129918 α      in ANC's #2, #1, #5, ...

........................................................................
.............................. CYCLE   25 ..............................
........................................................................

 iter      E             dE          RMSdq      gap      omega  full diag
   1   -178.6591242 -0.178659E+03  0.264E-03    2.08       0.0  T
   2   -178.6591242 -0.283302E-08  0.155E-03    2.08       6.0  T
   3   -178.6591242  0.393567E-08  0.210E-04    2.08      44.2  T
   4   -178.6591242 -0.496527E-08  0.416E-05    2.08     223.3  T
     SCC iter.                  ...        0 min,  0.043 sec
     gradient                   ...        0 min,  0.025 sec
 * total energy  :  -175.5759395 Eh     change       -0.9079433E-06 Eh
   gradient norm :     0.0001691 Eh/α   predicted    -0.3775309E-06 ( -58.42%)
   displ. norm   :     0.0390890 α      lambda       -0.8993123E-06
   maximum displ.:     0.0198037 α      in ANC's #2, #1, #5, ...

........................................................................
.............................. CYCLE   26 ..............................
........................................................................

 iter      E             dE          RMSdq      gap      omega  full diag
   1   -178.6591069 -0.178659E+03  0.343E-03    2.08       0.0  T
   2   -178.6591069 -0.464226E-08  0.202E-03    2.08       4.6  T
   3   -178.6591069  0.639491E-08  0.260E-04    2.08      35.7  T
   4   -178.6591069 -0.819816E-08  0.578E-05    2.08     160.5  T
     SCC iter.                  ...        0 min,  0.043 sec
     gradient                   ...        0 min,  0.025 sec
 * total energy  :  -175.5759406 Eh     change       -0.1019208E-05 Eh
   gradient norm :     0.0002688 Eh/α   predicted    -0.4502725E-06 ( -55.82%)
   displ. norm   :     0.0355323 α      lambda       -0.6482728E-06
   maximum displ.:     0.0188321 α      in ANC's #2, #1, #5, ...

........................................................................
.............................. CYCLE   27 ..............................
........................................................................

 iter      E             dE          RMSdq      gap      omega  full diag
   1   -178.6591043 -0.178659E+03  0.272E-03    2.08       0.0  T
   2   -178.6591043 -0.235573E-08  0.160E-03    2.08       5.8  T
   3   -178.6591043  0.343832E-08  0.183E-04    2.08      50.6  T
   4   -178.6591043 -0.447943E-08  0.444E-05    2.08     209.0  T
     SCC iter.                  ...        0 min,  0.039 sec
     gradient                   ...        0 min,  0.023 sec
 * total energy  :  -175.5759414 Eh     change       -0.7895822E-06 Eh
   gradient norm :     0.0002355 Eh/α   predicted    -0.3252196E-06 ( -58.81%)
   displ. norm   :     0.0382654 α      lambda       -0.7027024E-06
   maximum displ.:     0.0209384 α      in ANC's #2, #1, #5, ...

........................................................................
.............................. CYCLE   28 ..............................
........................................................................

 iter      E             dE          RMSdq      gap      omega  full diag
   1   -178.6591248 -0.178659E+03  0.269E-03    2.08       0.0  T
   2   -178.6591248 -0.226899E-08  0.158E-03    2.08       5.9  T
   3   -178.6591248  0.332292E-08  0.183E-04    2.08      50.7  T
   4   -178.6591248 -0.435168E-08  0.411E-05    2.08     225.8  T
     SCC iter.                  ...        0 min,  0.039 sec
     gradient                   ...        0 min,  0.024 sec
 * total energy  :  -175.5759423 Eh     change       -0.9320074E-06 Eh
   gradient norm :     0.0001283 Eh/α   predicted    -0.3562706E-06 ( -61.77%)
   displ. norm   :     0.0501886 α      lambda       -0.9887942E-06
   maximum displ.:     0.0278678 α      in ANC's #2, #1, #5, ...

........................................................................
.............................. CYCLE   29 ..............................
........................................................................

 iter      E             dE          RMSdq      gap      omega  full diag
   1   -178.6591313 -0.178659E+03  0.355E-03    2.08       0.0  T
   2   -178.6591313 -0.342328E-08  0.209E-03    2.08       4.5  T
   3   -178.6591313  0.656129E-08  0.244E-04    2.08      38.0  T
   4   -178.6591314 -0.826222E-08  0.467E-05    2.08     198.9  T
     SCC iter.                  ...        0 min,  0.039 sec
     gradient                   ...        0 min,  0.023 sec
 * total energy  :  -175.5759436 Eh     change       -0.1264228E-05 Eh
   gradient norm :     0.0001729 Eh/α   predicted    -0.4983321E-06 ( -60.58%)
   displ. norm   :     0.0666045 α      lambda       -0.1201913E-05
   maximum displ.:     0.0374480 α      in ANC's #2, #1, #5, ...

........................................................................
.............................. CYCLE   30 ..............................
........................................................................

 iter      E             dE          RMSdq      gap      omega  full diag
   1   -178.6591335 -0.178659E+03  0.485E-03    2.08       0.0  T
   2   -178.6591335 -0.532324E-08  0.285E-03    2.08       3.3  T
   3   -178.6591335  0.120540E-07  0.314E-04    2.08      29.5  T
   4   -178.6591335 -0.149546E-07  0.606E-05    2.08     153.1  T
     SCC iter.                  ...        0 min,  0.039 sec
     gradient                   ...        0 min,  0.023 sec
 * total energy  :  -175.5759450 Eh     change       -0.1477791E-05 Eh
   gradient norm :     0.0002841 Eh/α   predicted    -0.6065247E-06 ( -58.96%)
   displ. norm   :     0.0695298 α      lambda       -0.1053438E-05
   maximum displ.:     0.0398489 α      in ANC's #2, #1, #5, ...

........................................................................
.............................. CYCLE   31 ..............................
........................................................................

 iter      E             dE          RMSdq      gap      omega  full diag
   1   -178.6591111 -0.178659E+03  0.508E-03    2.08       0.0  T
   2   -178.6591111 -0.566320E-08  0.298E-03    2.08       3.1  T
   3   -178.6591111  0.138127E-07  0.323E-04    2.08      28.8  T
   4   -178.6591111 -0.168146E-07  0.642E-05    2.08     144.6  T
     SCC iter.                  ...        0 min,  0.039 sec
     gradient                   ...        0 min,  0.023 sec
 * total energy  :  -175.5759463 Eh     change       -0.1299822E-05 Eh
   gradient norm :     0.0002696 Eh/α   predicted    -0.5309427E-06 ( -59.15%)
   displ. norm   :     0.0583974 α      lambda       -0.8144696E-06
   maximum displ.:     0.0344023 α      in ANC's #2, #1, #5, ...

........................................................................
.............................. CYCLE   32 ..............................
........................................................................

 iter      E             dE          RMSdq      gap      omega  full diag
   1   -178.6591026 -0.178659E+03  0.432E-03    2.08       0.0  T
   2   -178.6591026 -0.459505E-08  0.253E-03    2.08       3.7  T
   3   -178.6591026  0.106449E-07  0.280E-04    2.08      33.2  T
   4   -178.6591026 -0.127241E-07  0.621E-05    2.08     149.4  T
     SCC iter.                  ...        0 min,  0.038 sec
     gradient                   ...        0 min,  0.023 sec
 * total energy  :  -175.5759474 Eh     change       -0.1039211E-05 Eh
   gradient norm :     0.0001632 Eh/α   predicted    -0.4092197E-06 ( -60.62%)
   displ. norm   :     0.0507688 α      lambda       -0.7414904E-06
   maximum displ.:     0.0307569 α      in ANC's #2, #1, #5, ...

........................................................................
.............................. CYCLE   33 ..............................
........................................................................

 iter      E             dE          RMSdq      gap      omega  full diag
   1   -178.6590997 -0.178659E+03  0.381E-03    2.08       0.0  T
   2   -178.6590997 -0.394851E-08  0.223E-03    2.08       4.2  T
   3   -178.6590997  0.102402E-07  0.265E-04    2.08      35.0  T
   4   -178.6590997 -0.119041E-07  0.611E-05    2.08     152.1  T
     SCC iter.                  ...        0 min,  0.039 sec
     gradient                   ...        0 min,  0.023 sec
 * total energy  :  -175.5759484 Eh     change       -0.9839490E-06 Eh
   gradient norm :     0.0000772 Eh/α   predicted    -0.3750918E-06 ( -61.88%)
   displ. norm   :     0.0521170 α      lambda       -0.8452592E-06
   maximum displ.:     0.0320395 α      in ANC's #2, #1, #5, ...

........................................................................
.............................. CYCLE   34 ..............................
........................................................................

 iter      E             dE          RMSdq      gap      omega  full diag
   1   -178.6591032 -0.178659E+03  0.413E-03    2.08       0.0  T
   2   -178.6591033 -0.401388E-08  0.242E-03    2.08       3.8  T
   3   -178.6591032  0.132565E-07  0.290E-04    2.08      32.0  T
   4   -178.6591033 -0.153390E-07  0.631E-05    2.08     147.1  T
     SCC iter.                  ...        0 min,  0.039 sec
     gradient                   ...        0 min,  0.023 sec
 * total energy  :  -175.5759495 Eh     change       -0.1106180E-05 Eh
   gradient norm :     0.0001559 Eh/α   predicted    -0.4245542E-06 ( -61.62%)
   displ. norm   :     0.0623562 α      lambda       -0.1020422E-05
   maximum displ.:     0.0384920 α      in ANC's #2, #1, #5, ...

........................................................................
.............................. CYCLE   35 ..............................
........................................................................

 iter      E             dE          RMSdq      gap      omega  full diag
   1   -178.6591206 -0.178659E+03  0.518E-03    2.08       0.0  T
   2   -178.6591206 -0.531566E-08  0.305E-03    2.08       3.0  T
   3   -178.6591206  0.195425E-07  0.347E-04    2.08      26.7  T
   4   -178.6591207 -0.228346E-07  0.718E-05    2.08     129.2  T
     SCC iter.                  ...        0 min,  0.039 sec
     gradient                   ...        0 min,  0.023 sec
 * total energy  :  -175.5759508 Eh     change       -0.1325490E-05 Eh
   gradient norm :     0.0002377 Eh/α   predicted    -0.5123735E-06 ( -61.34%)
   displ. norm   :     0.0709365 α      lambda       -0.1108102E-05
   maximum displ.:     0.0441764 α      in ANC's #1, #2, #5, ...

........................................................................
.............................. CYCLE   36 ..............................
........................................................................

 iter      E             dE          RMSdq      gap      omega  full diag
   1   -178.6591263 -0.178659E+03  0.600E-03    2.08       0.0  T
   2   -178.6591263 -0.637567E-08  0.353E-03    2.08       2.6  T
   3   -178.6591263  0.243282E-07  0.388E-04    2.08      23.9  T
   4   -178.6591263 -0.286506E-07  0.768E-05    2.08     121.0  T
     SCC iter.                  ...        0 min,  0.039 sec
     gradient                   ...        0 min,  0.023 sec
 * total energy  :  -175.5759522 Eh     change       -0.1425042E-05 Eh
   gradient norm :     0.0002481 Eh/α   predicted    -0.5565623E-06 ( -60.94%)
   displ. norm   :     0.0724870 α      lambda       -0.1039947E-05
   maximum displ.:     0.0457260 α      in ANC's #1, #2, #5, ...

........................................................................
.............................. CYCLE   37 ..............................
........................................................................

 iter      E             dE          RMSdq      gap      omega  full diag
   1   -178.6591300 -0.178659E+03  0.613E-03    2.08       0.0  T
   2   -178.6591301 -0.631334E-08  0.361E-03    2.08       2.6  T
   3   -178.6591300  0.212868E-07  0.373E-04    2.08      24.9  T
   4   -178.6591301 -0.255144E-07  0.755E-05    2.08     123.0  T
     SCC iter.                  ...        0 min,  0.039 sec
     gradient                   ...        0 min,  0.023 sec
 * total energy  :  -175.5759536 Eh     change       -0.1345125E-05 Eh
   gradient norm :     0.0001919 Eh/α   predicted    -0.5248375E-06 ( -60.98%)
   displ. norm   :     0.0659720 α      lambda       -0.8874112E-06
   maximum displ.:     0.0423987 α      in ANC's #1, #2, #5, ...

........................................................................
.............................. CYCLE   38 ..............................
........................................................................

 iter      E             dE          RMSdq      gap      omega  full diag
   1   -178.6591346 -0.178659E+03  0.540E-03    2.08       0.0  T
   2   -178.6591346 -0.499543E-08  0.317E-03    2.08       2.9  T
   3   -178.6591346  0.167762E-07  0.335E-04    2.08      27.7  T
   4   -178.6591346 -0.201126E-07  0.648E-05    2.08     143.4  T
     SCC iter.                  ...        0 min,  0.039 sec
     gradient                   ...        0 min,  0.023 sec
 * total energy  :  -175.5759547 Eh     change       -0.1132591E-05 Eh
   gradient norm :     0.0000974 Eh/α   predicted    -0.4456423E-06 ( -60.65%)
   displ. norm   :     0.0552136 α      lambda       -0.7106819E-06
   maximum displ.:     0.0363013 α      in ANC's #1, #2, #9, ...

........................................................................
.............................. CYCLE   39 ..............................
........................................................................

 iter      E             dE          RMSdq      gap      omega  full diag
   1   -178.6591336 -0.178659E+03  0.428E-03    2.08       0.0  T
   2   -178.6591336 -0.336792E-08  0.252E-03    2.08       3.7  T
   3   -178.6591336  0.137477E-07  0.300E-04    2.08      30.9  T
   4   -178.6591336 -0.161569E-07  0.530E-05    2.08     175.3  T
     SCC iter.                  ...        0 min,  0.039 sec
     gradient                   ...        0 min,  0.024 sec
 * total energy  :  -175.5759556 Eh     change       -0.9162497E-06 Eh
   gradient norm :     0.0000741 Eh/α   predicted    -0.3574730E-06 ( -60.99%)
   displ. norm   :     0.0484510 α      lambda       -0.6295019E-06
   maximum displ.:     0.0324661 α      in ANC's #1, #2, #4, ...

........................................................................
.............................. CYCLE   40 ..............................
........................................................................

 iter      E             dE          RMSdq      gap      omega  full diag
   1   -178.6591324 -0.178659E+03  0.352E-03    2.08       0.0  T
   2   -178.6591324 -0.254607E-08  0.207E-03    2.08       4.5  T
   3   -178.6591324  0.143801E-07  0.296E-04    2.08      31.4  T
   4   -178.6591324 -0.164403E-07  0.445E-05    2.08     208.6  T
     SCC iter.                  ...        0 min,  0.039 sec
     gradient                   ...        0 min,  0.023 sec
 * total energy  :  -175.5759564 Eh     change       -0.8370789E-06 Eh
   gradient norm :     0.0001241 Eh/α   predicted    -0.3174369E-06 ( -62.08%)
   displ. norm   :     0.0512450 α      lambda       -0.6851111E-06
   maximum displ.:     0.0346685 α      in ANC's #1, #2, #4, ...

........................................................................
.............................. CYCLE   41 ..............................
........................................................................

 iter      E             dE          RMSdq      gap      omega  full diag
   1   -178.6591137 -0.178659E+03  0.362E-03    2.08       0.0  T
   2   -178.6591137 -0.304604E-08  0.213E-03    2.08       4.4  T
   3   -178.6591136  0.187711E-07  0.331E-04    2.08      28.0  T
   4   -178.6591137 -0.212562E-07  0.468E-05    2.08     198.5  T
     SCC iter.                  ...        0 min,  0.039 sec
     gradient                   ...        0 min,  0.023 sec
 * total energy  :  -175.5759574 Eh     change       -0.9293559E-06 Eh
   gradient norm :     0.0001582 Eh/α   predicted    -0.3467201E-06 ( -62.69%)
   displ. norm   :     0.0625879 α      lambda       -0.8423723E-06
   maximum displ.:     0.0425313 α      in ANC's #1, #2, #4, ...

........................................................................
.............................. CYCLE   42 ..............................
........................................................................

 iter      E             dE          RMSdq      gap      omega  full diag
   1   -178.6590989 -0.178659E+03  0.444E-03    2.08       0.0  T
   2   -178.6590989 -0.486656E-08  0.261E-03    2.08       3.6  T
   3   -178.6590988  0.265964E-07  0.396E-04    2.08      23.4  T
   4   -178.6590989 -0.301863E-07  0.583E-05    2.08     159.3  T
     SCC iter.                  ...        0 min,  0.039 sec
     gradient                   ...        0 min,  0.024 sec
 * total energy  :  -175.5759585 Eh     change       -0.1133561E-05 Eh
   gradient norm :     0.0001573 Eh/α   predicted    -0.4259213E-06 ( -62.43%)
   displ. norm   :     0.0781749 α      lambda       -0.1020958E-05
   maximum displ.:     0.0533081 α      in ANC's #1, #2, #4, ...
 * RMSD in coord.:     0.0909831 α      energy gain  -0.2984107E-04 Eh

generating ANC from exact Hessian ...
Using Lindh-Hessian (1995)
 Shifting diagonal of input Hessian by   9.976602344111015E-003
 Lowest  eigenvalues of input Hessian
    0.000000    0.000000    0.000000    0.000000    0.000000    0.000000
    0.010000    0.010021    0.010026    0.010197    0.010250    0.010311
    0.010352    0.010569    0.010617    0.010836    0.010855    0.010942
 Highest eigenvalues
    2.178500    2.184153    2.188887    2.201008    2.217348    2.224258
 

........................................................................
.............................. CYCLE   43 ..............................
........................................................................

 iter      E             dE          RMSdq      gap      omega  full diag
   1   -178.6590810 -0.178659E+03  0.563E-03    2.07       0.0  T
   2   -178.6590810 -0.768563E-08  0.331E-03    2.07       2.8  T
   3   -178.6590810  0.336006E-07  0.455E-04    2.07      20.4  T
   4   -178.6590810 -0.385672E-07  0.732E-05    2.07     126.9  T
     SCC iter.                  ...        0 min,  0.038 sec
     gradient                   ...        0 min,  0.023 sec
 * total energy  :  -175.5759599 Eh     change       -0.1352609E-05 Eh
   gradient norm :     0.0001279 Eh/α   predicted     0.0000000E+00 (-100.00%)
   displ. norm   :     0.0067224 α      lambda       -0.1281206E-07
   maximum displ.:     0.0028634 α      in ANC's #5, #1, #19, ...

........................................................................
.............................. CYCLE   44 ..............................
........................................................................

 iter      E             dE          RMSdq      gap      omega  full diag
   1   -178.6590902 -0.178659E+03  0.104E-03    2.07       0.0  T
   2   -178.6590902 -0.418623E-09  0.617E-04    2.07      15.0  T
   3   -178.6590902  0.160514E-08  0.103E-04    2.07      89.8  T
     SCC iter.                  ...        0 min,  0.029 sec
     gradient                   ...        0 min,  0.024 sec
 * total energy  :  -175.5759602 Eh     change       -0.3566121E-06 Eh
   gradient norm :     0.0000954 Eh/α   predicted    -0.1341727E-06 ( -62.38%)
   displ. norm   :     0.0367870 α      lambda       -0.1194679E-05
   maximum displ.:     0.0155286 α      in ANC's #5, #1, #11, ...

........................................................................
.............................. CYCLE   45 ..............................
........................................................................

 iter      E             dE          RMSdq      gap      omega  full diag
   1   -178.6591250 -0.178659E+03  0.552E-03    2.07       0.0  T
   2   -178.6591250 -0.121082E-07  0.326E-03    2.07       2.8  T
   3   -178.6591249  0.584263E-07  0.608E-04    2.07      15.3  T
   4   -178.6591250 -0.655527E-07  0.101E-04    2.07      91.6  T
     SCC iter.                  ...        0 min,  0.039 sec
     gradient                   ...        0 min,  0.023 sec
 * total energy  :  -175.5759613 Eh     change       -0.1079281E-05 Eh
   gradient norm :     0.0001211 Eh/α   predicted    -0.5981987E-06 ( -44.57%)
   displ. norm   :     0.0167295 α      lambda       -0.2600338E-06
   maximum displ.:     0.0083412 α      in ANC's #5, #1, #11, ...

........................................................................
.............................. CYCLE   46 ..............................
........................................................................

 iter      E             dE          RMSdq      gap      omega  full diag
   1   -178.6591583 -0.178659E+03  0.219E-03    2.07       0.0  T
   2   -178.6591583 -0.145232E-08  0.129E-03    2.07       7.2  T
   3   -178.6591583  0.779622E-08  0.216E-04    2.07      42.9  T
   4   -178.6591583 -0.878066E-08  0.350E-05    2.07     265.0  T
     SCC iter.                  ...        0 min,  0.039 sec
     gradient                   ...        0 min,  0.023 sec
 * total energy  :  -175.5759616 Eh     change       -0.3208987E-06 Eh
   gradient norm :     0.0001164 Eh/α   predicted    -0.1392510E-06 ( -56.61%)
   displ. norm   :     0.0190425 α      lambda       -0.3331475E-06
   maximum displ.:     0.0099568 α      in ANC's #5, #1, #11, ...

........................................................................
.............................. CYCLE   47 ..............................
........................................................................

 iter      E             dE          RMSdq      gap      omega  full diag
   1   -178.6591742 -0.178659E+03  0.212E-03    2.07       0.0  T
   2   -178.6591742 -0.180879E-08  0.125E-03    2.07       7.4  T
   3   -178.6591742  0.448040E-08  0.180E-04    2.07      51.7  T
   4   -178.6591742 -0.515760E-08  0.360E-05    2.07     258.1  T
     SCC iter.                  ...        0 min,  0.039 sec
     gradient                   ...        0 min,  0.023 sec
 * total energy  :  -175.5759621 Eh     change       -0.4357232E-06 Eh
   gradient norm :     0.0001066 Eh/α   predicted    -0.1669409E-06 ( -61.69%)
   displ. norm   :     0.0330983 α      lambda       -0.6010877E-06
   maximum displ.:     0.0176613 α      in ANC's #5, #1, #2, ...

........................................................................
.............................. CYCLE   48 ..............................
........................................................................

 iter      E             dE          RMSdq      gap      omega  full diag
   1   -178.6591512 -0.178659E+03  0.332E-03    2.07       0.0  T
   2   -178.6591512 -0.466912E-08  0.195E-03    2.07       4.8  T
   3   -178.6591512  0.942438E-08  0.274E-04    2.07      33.9  T
   4   -178.6591512 -0.110876E-07  0.561E-05    2.07     165.5  T
     SCC iter.                  ...        0 min,  0.039 sec
     gradient                   ...        0 min,  0.024 sec
 * total energy  :  -175.5759628 Eh     change       -0.7100925E-06 Eh
   gradient norm :     0.0001030 Eh/α   predicted    -0.3023120E-06 ( -57.43%)
   displ. norm   :     0.0367320 α      lambda       -0.4843086E-06
   maximum displ.:     0.0200808 α      in ANC's #5, #1, #2, ...

........................................................................
.............................. CYCLE   49 ..............................
........................................................................

 iter      E             dE          RMSdq      gap      omega  full diag
   1   -178.6591165 -0.178659E+03  0.351E-03    2.07       0.0  T
   2   -178.6591165 -0.395357E-08  0.206E-03    2.07       4.5  T
   3   -178.6591165  0.924291E-08  0.266E-04    2.07      34.9  T
   4   -178.6591165 -0.110248E-07  0.515E-05    2.07     180.2  T
     SCC iter.                  ...        0 min,  0.039 sec
     gradient                   ...        0 min,  0.024 sec
 * total energy  :  -175.5759633 Eh     change       -0.5699575E-06 Eh
   gradient norm :     0.0001154 Eh/α   predicted    -0.2476331E-06 ( -56.55%)
   displ. norm   :     0.0300358 α      lambda       -0.3407039E-06
   maximum displ.:     0.0167760 α      in ANC's #5, #1, #2, ...

........................................................................
.............................. CYCLE   50 ..............................
........................................................................

 iter      E             dE          RMSdq      gap      omega  full diag
   1   -178.6590865 -0.178659E+03  0.273E-03    2.07       0.0  T
   2   -178.6590865 -0.184198E-08  0.161E-03    2.07       5.8  T
   3   -178.6590865  0.539995E-08  0.196E-04    2.07      47.4  T
   4   -178.6590865 -0.648072E-08  0.367E-05    2.07     253.0  T
     SCC iter.                  ...        0 min,  0.039 sec
     gradient                   ...        0 min,  0.023 sec
 * total energy  :  -175.5759638 Eh     change       -0.4338660E-06 Eh
   gradient norm :     0.0001025 Eh/α   predicted    -0.1712778E-06 ( -60.52%)
   displ. norm   :     0.0302111 α      lambda       -0.3646256E-06
   maximum displ.:     0.0172461 α      in ANC's #1, #5, #2, ...

........................................................................
.............................. CYCLE   51 ..............................
........................................................................

 iter      E             dE          RMSdq      gap      omega  full diag
   1   -178.6590621 -0.178659E+03  0.267E-03    2.07       0.0  T
   2   -178.6590621 -0.170783E-08  0.157E-03    2.07       5.9  T
   3   -178.6590621  0.764035E-08  0.220E-04    2.07      42.2  T
   4   -178.6590621 -0.885908E-08  0.362E-05    2.07     256.3  T
     SCC iter.                  ...        0 min,  0.038 sec
     gradient                   ...        0 min,  0.023 sec
 * total energy  :  -175.5759642 Eh     change       -0.4678587E-06 Eh
   gradient norm :     0.0000696 Eh/α   predicted    -0.1833000E-06 ( -60.82%)
   displ. norm   :     0.0355844 α      lambda       -0.3950724E-06
   maximum displ.:     0.0208952 α      in ANC's #1, #5, #2, ...

........................................................................
.............................. CYCLE   52 ..............................
........................................................................

 iter      E             dE          RMSdq      gap      omega  full diag
   1   -178.6590437 -0.178659E+03  0.304E-03    2.07       0.0  T
   2   -178.6590437 -0.235849E-08  0.179E-03    2.07       5.2  T
   3   -178.6590436  0.112598E-07  0.265E-04    2.07      35.0  T
   4   -178.6590437 -0.129624E-07  0.429E-05    2.07     216.6  T
     SCC iter.                  ...        0 min,  0.039 sec
     gradient                   ...        0 min,  0.024 sec
 * total energy  :  -175.5759647 Eh     change       -0.4710507E-06 Eh
   gradient norm :     0.0000570 Eh/α   predicted    -0.1982109E-06 ( -57.92%)
   displ. norm   :     0.0325062 α      lambda       -0.2951913E-06
   maximum displ.:     0.0196359 α      in ANC's #1, #5, #2, ...

........................................................................
.............................. CYCLE   53 ..............................
........................................................................

 iter      E             dE          RMSdq      gap      omega  full diag
   1   -178.6590396 -0.178659E+03  0.268E-03    2.07       0.0  T
   2   -178.6590396 -0.174384E-08  0.158E-03    2.07       5.9  T
   3   -178.6590396  0.863787E-08  0.232E-04    2.07      40.0  T
   4   -178.6590396 -0.993404E-08  0.370E-05    2.07     251.0  T
     SCC iter.                  ...        0 min,  0.038 sec
     gradient                   ...        0 min,  0.023 sec
 * total energy  :  -175.5759651 Eh     change       -0.3540240E-06 Eh
   gradient norm :     0.0000739 Eh/α   predicted    -0.1480456E-06 ( -58.18%)
   displ. norm   :     0.0284085 α      lambda       -0.2552311E-06
   maximum displ.:     0.0174049 α      in ANC's #1, #5, #2, ...

........................................................................
.............................. CYCLE   54 ..............................
........................................................................

 iter      E             dE          RMSdq      gap      omega  full diag
   1   -178.6590487 -0.178659E+03  0.226E-03    2.07       0.0  T
   2   -178.6590487 -0.132374E-08  0.133E-03    2.07       7.0  T
   3   -178.6590487  0.526430E-08  0.187E-04    2.07      49.7  T
   4   -178.6590487 -0.611598E-08  0.324E-05    2.07     286.6  T
     SCC iter.                  ...        0 min,  0.039 sec
     gradient                   ...        0 min,  0.024 sec
 * total energy  :  -175.5759654 Eh     change       -0.3405664E-06 Eh
   gradient norm :     0.0000766 Eh/α   predicted    -0.1287011E-06 ( -62.21%)
   displ. norm   :     0.0365965 α      lambda       -0.3780132E-06
   maximum displ.:     0.0224661 α      in ANC's #1, #5, #2, ...

........................................................................
.............................. CYCLE   55 ..............................
........................................................................

 iter      E             dE          RMSdq      gap      omega  full diag
   1   -178.6590664 -0.178659E+03  0.296E-03    2.07       0.0  T
   2   -178.6590664 -0.248943E-08  0.174E-03    2.07       5.3  T
   3   -178.6590664  0.721101E-08  0.230E-04    2.07      40.3  T
   4   -178.6590664 -0.850781E-08  0.424E-05    2.07     219.1  T
     SCC iter.                  ...        0 min,  0.039 sec
     gradient                   ...        0 min,  0.023 sec
 * total energy  :  -175.5759659 Eh     change       -0.5120138E-06 Eh
   gradient norm :     0.0000716 Eh/α   predicted    -0.1903483E-06 ( -62.82%)
   displ. norm   :     0.0526669 α      lambda       -0.5596133E-06
   maximum displ.:     0.0322127 α      in ANC's #1, #2, #5, ...

........................................................................
.............................. CYCLE   56 ..............................
........................................................................

 iter      E             dE          RMSdq      gap      omega  full diag
   1   -178.6590876 -0.178659E+03  0.432E-03    2.07       0.0  T
   2   -178.6590876 -0.564344E-08  0.254E-03    2.07       3.7  T
   3   -178.6590876  0.145302E-07  0.335E-04    2.07      27.7  T
   4   -178.6590876 -0.172726E-07  0.615E-05    2.07     150.9  T
     SCC iter.                  ...        0 min,  0.039 sec
     gradient                   ...        0 min,  0.024 sec
 * total energy  :  -175.5759666 Eh     change       -0.7175506E-06 Eh
   gradient norm :     0.0000648 Eh/α   predicted    -0.2823912E-06 ( -60.65%)
   displ. norm   :     0.0602377 α      lambda       -0.5341817E-06
   maximum displ.:     0.0370151 α      in ANC's #1, #2, #5, ...

........................................................................
.............................. CYCLE   57 ..............................
........................................................................

 iter      E             dE          RMSdq      gap      omega  full diag
   1   -178.6591049 -0.178659E+03  0.483E-03    2.07       0.0  T
   2   -178.6591049 -0.690400E-08  0.284E-03    2.07       3.3  T
   3   -178.6591049  0.167949E-07  0.364E-04    2.07      25.5  T
   4   -178.6591049 -0.201498E-07  0.679E-05    2.07     136.7  T
     SCC iter.                  ...        0 min,  0.039 sec
     gradient                   ...        0 min,  0.023 sec
 * total energy  :  -175.5759673 Eh     change       -0.6335962E-06 Eh
   gradient norm :     0.0000630 Eh/α   predicted    -0.2720751E-06 ( -57.06%)
   displ. norm   :     0.0430950 α      lambda       -0.2887590E-06
   maximum displ.:     0.0269013 α      in ANC's #1, #2, #5, ...

........................................................................
.............................. CYCLE   58 ..............................
........................................................................

 iter      E             dE          RMSdq      gap      omega  full diag
   1   -178.6591094 -0.178659E+03  0.328E-03    2.07       0.0  T
   2   -178.6591094 -0.293943E-08  0.193E-03    2.07       4.8  T
   3   -178.6591094  0.921355E-08  0.259E-04    2.07      35.8  T
   4   -178.6591094 -0.108748E-07  0.473E-05    2.07     196.2  T
     SCC iter.                  ...        0 min,  0.038 sec
     gradient                   ...        0 min,  0.023 sec
 * total energy  :  -175.5759676 Eh     change       -0.3398110E-06 Eh
   gradient norm :     0.0000535 Eh/α   predicted    -0.1455898E-06 ( -57.16%)
   displ. norm   :     0.0225058 α      lambda       -0.1442977E-06
   maximum displ.:     0.0144514 α      in ANC's #1, #2, #5, ...

........................................................................
.............................. CYCLE   59 ..............................
........................................................................

 iter      E             dE          RMSdq      gap      omega  full diag
   1   -178.6591081 -0.178659E+03  0.157E-03    2.07       0.0  T
   2   -178.6591081 -0.600721E-09  0.923E-04    2.07      10.1  T
   3   -178.6591081  0.229974E-08  0.125E-04    2.07      74.0  T
     SCC iter.                  ...        0 min,  0.029 sec
     gradient                   ...        0 min,  0.023 sec
 * total energy  :  -175.5759678 Eh     change       -0.1882225E-06 Eh
   gradient norm :     0.0000404 Eh/α   predicted    -0.7509847E-07 ( -60.10%)
   displ. norm   :     0.0159281 α      lambda       -0.1394177E-06
   maximum displ.:     0.0103133 α      in ANC's #1, #2, #9, ...

........................................................................
.............................. CYCLE   60 ..............................
........................................................................

 iter      E             dE          RMSdq      gap      omega  full diag
   1   -178.6590980 -0.178659E+03  0.117E-03    2.07       0.0  T
   2   -178.6590980 -0.483254E-09  0.689E-04    2.07      13.5  T
   3   -178.6590980  0.796803E-09  0.794E-05    2.07     117.0  T
     SCC iter.                  ...        0 min,  0.029 sec
     gradient                   ...        0 min,  0.023 sec
 * total energy  :  -175.5759680 Eh     change       -0.1952614E-06 Eh
   gradient norm :     0.0000347 Eh/α   predicted    -0.7270976E-07 ( -62.76%)
   displ. norm   :     0.0222203 α      lambda       -0.2113381E-06
   maximum displ.:     0.0141485 α      in ANC's #1, #2, #8, ...

........................................................................
.............................. CYCLE   61 ..............................
........................................................................

 iter      E             dE          RMSdq      gap      omega  full diag
   1   -178.6590781 -0.178659E+03  0.190E-03    2.07       0.0  T
   2   -178.6590781 -0.114844E-08  0.112E-03    2.07       8.3  T
   3   -178.6590781  0.957783E-09  0.972E-05    2.07      95.5  T
   4   -178.6590781 -0.122353E-08  0.314E-05    2.07     295.3  T
     SCC iter.                  ...        0 min,  0.039 sec
     gradient                   ...        0 min,  0.023 sec
 * total energy  :  -175.5759683 Eh     change       -0.2754871E-06 Eh
   gradient norm :     0.0000442 Eh/α   predicted    -0.1070890E-06 ( -61.13%)
   displ. norm   :     0.0242939 α      lambda       -0.2010926E-06
   maximum displ.:     0.0153583 α      in ANC's #1, #2, #8, ...

........................................................................
.............................. CYCLE   62 ..............................
........................................................................

 iter      E             dE          RMSdq      gap      omega  full diag
   1   -178.6590660 -0.178659E+03  0.215E-03    2.07       0.0  T
   2   -178.6590660 -0.125894E-08  0.126E-03    2.07       7.3  T
   3   -178.6590660  0.234417E-08  0.136E-04    2.07      68.4  T
   4   -178.6590660 -0.282353E-08  0.322E-05    2.07     288.0  T
     SCC iter.                  ...        0 min,  0.039 sec
     gradient                   ...        0 min,  0.024 sec
 * total energy  :  -175.5759685 Eh     change       -0.2545824E-06 Eh
   gradient norm :     0.0000563 Eh/α   predicted    -0.1038324E-06 ( -59.21%)
   displ. norm   :     0.0225776 α      lambda       -0.1732473E-06
   maximum displ.:     0.0144596 α      in ANC's #1, #2, #8, ...

........................................................................
.............................. CYCLE   63 ..............................
........................................................................

 iter      E             dE          RMSdq      gap      omega  full diag
   1   -178.6590614 -0.178659E+03  0.194E-03    2.07       0.0  T
   2   -178.6590614 -0.103739E-08  0.114E-03    2.07       8.1  T
   3   -178.6590614  0.306912E-08  0.145E-04    2.07      63.9  T
   4   -178.6590614 -0.356985E-08  0.284E-05    2.07     327.3  T
     SCC iter.                  ...        0 min,  0.039 sec
     gradient                   ...        0 min,  0.024 sec
 * total energy  :  -175.5759687 Eh     change       -0.2281395E-06 Eh
   gradient norm :     0.0000497 Eh/α   predicted    -0.8947651E-07 ( -60.78%)
   displ. norm   :     0.0217872 α      lambda       -0.1790087E-06
   maximum displ.:     0.0140542 α      in ANC's #1, #2, #6, ...

........................................................................
.............................. CYCLE   64 ..............................
........................................................................

 iter      E             dE          RMSdq      gap      omega  full diag
   1   -178.6590671 -0.178659E+03  0.175E-03    2.07       0.0  T
   2   -178.6590671 -0.813770E-09  0.103E-03    2.07       9.0  T
   3   -178.6590671  0.243963E-08  0.130E-04    2.07      71.5  T
   4   -178.6590671 -0.285877E-08  0.252E-05    2.07     368.4  T
     SCC iter.                  ...        0 min,  0.039 sec
     gradient                   ...        0 min,  0.023 sec
 * total energy  :  -175.5759690 Eh     change       -0.2452412E-06 Eh
   gradient norm :     0.0000386 Eh/α   predicted    -0.9204225E-07 ( -62.47%)
   displ. norm   :     0.0276125 α      lambda       -0.2437300E-06
   maximum displ.:     0.0178270 α      in ANC's #1, #2, #6, ...

........................................................................
.............................. CYCLE   65 ..............................
........................................................................

 iter      E             dE          RMSdq      gap      omega  full diag
   1   -178.6590809 -0.178659E+03  0.204E-03    2.07       0.0  T
   2   -178.6590809 -0.100883E-08  0.120E-03    2.07       7.7  T
   3   -178.6590809  0.328311E-08  0.150E-04    2.07      61.9  T
   4   -178.6590809 -0.386052E-08  0.286E-05    2.07     325.0  T
     SCC iter.                  ...        0 min,  0.039 sec
     gradient                   ...        0 min,  0.023 sec
 * total energy  :  -175.5759693 Eh     change       -0.3355383E-06 Eh
   gradient norm :     0.0000372 Eh/α   predicted    -0.1262580E-06 ( -62.37%)
   displ. norm   :     0.0403382 α      lambda       -0.3609763E-06
   maximum displ.:     0.0261572 α      in ANC's #1, #2, #6, ...

........................................................................
.............................. CYCLE   66 ..............................
........................................................................

 iter      E             dE          RMSdq      gap      omega  full diag
   1   -178.6590903 -0.178659E+03  0.282E-03    2.07       0.0  T
   2   -178.6590903 -0.168885E-08  0.166E-03    2.07       5.6  T
   3   -178.6590903  0.496865E-08  0.186E-04    2.07      49.9  T
   4   -178.6590903 -0.597856E-08  0.380E-05    2.07     244.6  T
     SCC iter.                  ...        0 min,  0.039 sec
     gradient                   ...        0 min,  0.024 sec
 * total energy  :  -175.5759698 Eh     change       -0.4759017E-06 Eh
   gradient norm :     0.0000572 Eh/α   predicted    -0.1817927E-06 ( -61.80%)
   displ. norm   :     0.0527503 α      lambda       -0.4380547E-06
   maximum displ.:     0.0342610 α      in ANC's #1, #2, #6, ...
 * RMSD in coord.:     0.0562803 α      energy gain  -0.1129389E-04 Eh

generating ANC from exact Hessian ...
Using Lindh-Hessian (1995)
 Shifting diagonal of input Hessian by   9.977000424917603E-003
 Lowest  eigenvalues of input Hessian
    0.000000    0.000000    0.000000    0.000000    0.000000    0.000000
    0.010000    0.010022    0.010027    0.010197    0.010249    0.010310
    0.010353    0.010568    0.010617    0.010833    0.010852    0.010940
 Highest eigenvalues
    2.178562    2.183897    2.189082    2.200719    2.217505    2.224384
 

........................................................................
.............................. CYCLE   67 ..............................
........................................................................

 iter      E             dE          RMSdq      gap      omega  full diag
   1   -178.6591028 -0.178659E+03  0.354E-03    2.07       0.0  T
   2   -178.6591028 -0.232475E-08  0.208E-03    2.07       4.5  T
   3   -178.6591028  0.557640E-08  0.202E-04    2.07      46.0  T
   4   -178.6591028 -0.696170E-08  0.451E-05    2.07     205.8  T
     SCC iter.                  ...        0 min,  0.039 sec
     gradient                   ...        0 min,  0.024 sec
 * total energy  :  -175.5759704 Eh     change       -0.5781670E-06 Eh
[...]
eigval :     3082.89  3083.70  3084.12  3084.18  3084.67  3085.97
eigval :     3090.46  3091.59  3094.15  3094.54  3095.13  3095.74
eigval :     3096.56  3096.82  3097.69  3100.17  3100.58  3111.31
eigval :     3118.03  3121.31  3136.09  3139.94  3147.29  3147.52
 reduced masses (amu)
   1: 11.46   2: 11.34   3: 11.16   4: 11.39   5: 11.39   6: 11.39   7: 10.75   8: 10.86
   9: 11.10  10: 10.79  11: 10.61  12:  8.63  13: 10.06  14: 10.29  15: 10.73  16: 10.91
  17: 10.81  18: 10.96  19: 10.55  20: 10.28  21: 10.23  22: 10.39  23: 10.18  24: 10.53
  25: 10.85  26: 11.40  27: 10.83  28: 10.55  29: 10.89  30: 10.49  31:  9.59  32: 10.44
  33: 10.52  34: 10.65  35:  6.66  36:  6.80  37:  4.19  38: 10.85  39:  8.37  40:  7.97
  41: 10.49  42:  1.48  43:  8.24  44:  7.74  45: 10.01  46: 10.07  47:  9.96  48: 10.56
  49: 10.68  50: 11.71  51: 11.10  52: 10.75  53: 10.82  54: 10.78  55: 10.33  56: 10.83
  57:  2.32  58:  1.71  59:  9.41  60: 10.02  61: 10.78  62: 11.05  63: 11.00  64:  8.67
  65:  8.71  66: 10.64  67:  9.32  68:  9.09  69:  9.91  70: 10.60  71: 10.72  72: 10.58
  73: 10.62  74: 11.13  75: 10.92  76:  9.38  77: 10.07  78: 10.12  79: 10.16  80:  9.92
  81:  9.92  82: 10.66  83: 10.45  84: 10.22  85: 10.30  86: 10.18  87: 10.13  88: 10.07
  89: 10.64  90: 11.03  91: 10.97  92: 10.99  93: 10.97  94: 11.13  95: 11.29  96: 11.58
  97: 10.52  98: 11.42  99: 11.21 100: 11.46 101: 11.25 102: 11.44 103: 11.28 104: 11.52
 105: 11.49 106: 10.98 107: 11.66 108: 11.83 109: 11.36 110: 11.39 111: 11.29 112: 11.49
 113: 11.06 114:  9.81 115: 10.63 116: 11.56 117: 11.42 118: 13.05 119: 11.79 120: 11.82
 121: 11.74 122: 11.70 123: 11.43 124: 11.65 125: 10.99 126: 11.31 127:  7.97 128:  4.90
 129:  7.48 130:  3.64 131:  3.78 132:  3.67 133: 11.50 134:  4.95 135:  6.03 136: 10.65
 137:  4.48 138: 10.96 139: 10.93 140: 11.37 141:  3.69 142:  3.43 143:  3.77 144: 10.18
 145:  4.19 146:  8.30 147:  4.11 148:  3.72 149:  3.34 150:  3.54 151: 10.14 152:  3.88
 153:  4.01 154:  3.88 155:  3.92 156:  3.81 157: 11.21 158:  3.09 159:  3.47 160:  3.46
 161:  3.63 162: 10.96 163:  3.27 164:  3.61 165:  3.37 166:  3.18 167:  3.17 168:  9.16
 169:  6.00 170:  5.17 171:  5.21 172:  3.25 173:  3.03 174:  5.20 175:  8.21 176: 10.98
 177: 11.07 178: 11.36 179: 10.43 180:  4.17 181:  4.13 182:  4.05 183:  4.06 184:  9.58
 185:  7.04 186:  7.08 187:  8.08 188:  9.73 189:  6.53 190:  8.56 191:  8.43 192:  8.07
 193:  3.99 194:  3.95 195:  5.72 196:  6.27 197:  5.60 198:  5.93 199:  6.37 200:  6.50
 201:  5.36 202:  3.21 203:  4.76 204:  2.38 205:  1.46 206:  2.05 207:  2.97 208:  2.29
 209:  2.05 210:  3.21 211:  6.21 212:  6.17 213:  9.62 214:  9.09 215:  9.19 216:  9.18
 217:  8.11 218:  7.64 219:  7.75 220:  4.24 221:  8.89 222:  7.55 223:  7.46 224:  8.49
 225:  4.57 226:  4.10 227:  6.57 228: 10.00 229:  8.76 230:  7.70 231:  9.32 232:  8.35
 233:  9.55 234: 11.81 235: 11.83 236: 11.37 237: 11.82 238: 10.95 239: 11.74 240: 11.86
 241: 11.61 242: 10.87 243: 10.67 244: 10.57 245: 11.50 246: 11.27 247: 11.46 248:  6.16
 249:  6.17 250:  9.46 251:  3.82 252:  3.19 253:  8.61 254:  8.65 255:  2.96 256:  9.58
 257:  3.00 258: 10.53 259:  9.50 260: 10.01 261:  9.76 262:  9.90 263:  9.62 264:  9.79
 265: 10.94 266: 10.28 267: 10.39 268: 10.14 269: 10.35 270: 10.39 271:  1.61 272:  1.61
 273:  1.58 274:  1.58 275:  1.75 276:  1.83 277:  1.73 278:  1.77 279:  1.58 280:  1.60
 281:  1.72 282:  1.72 283: 11.48 284: 11.43 285: 11.70 286: 11.75 287: 11.76 288: 11.71
 289: 11.52 290: 11.52 291: 11.57 292: 11.75 293: 11.77 294: 11.52 295: 11.51 296: 11.57
 297: 11.57 298: 11.65 299: 11.71 300: 11.71 301:  1.93 302:  1.93 303:  1.90 304:  1.91
 305:  1.88 306:  1.87 307:  1.87 308:  1.84 309:  1.69 310:  1.66 311:  1.83 312:  1.81
 313:  1.31 314:  1.33 315:  1.48 316:  1.49 317:  1.55 318:  1.55 319:  1.76 320:  1.76
 321:  1.76 322:  1.76 323:  1.76 324:  1.79 325:  1.78 326:  1.82 327:  1.78 328:  1.78
 329:  1.82 330:  1.83 331:  1.84 332:  1.84 333:  1.89 334:  1.89 335:  1.88 336:  1.88
 337:  1.89 338:  1.88 339:  1.87 340:  1.92 341:  1.92 342:  1.83 343:  1.83 344:  1.84
 345:  1.83 346:  1.82 347:  1.82 348:  1.79
 IR intensities (km·mol⁻¹)
   1:  0.00   2:  0.01   3:  0.00   4:  0.00   5:  0.01   6:  0.01   7:  0.04   8:  0.05
   9:  0.09  10:  0.09  11:  0.09  12:  0.02  13:  0.24  14:  0.12  15:  0.09  16:  0.05
  17:  0.06  18:  0.11  19:  0.40  20:  0.27  21:  0.47  22:  0.08  23:  0.27  24:  0.66
  25:  0.23  26:  0.88  27:  0.38  28:  0.58  29:  1.11  30:  0.02  31:  0.85  32:  0.41
  33:  0.41  34:  0.13  35:  0.14  36:  0.16  37:  0.03  38:  0.34  39:  0.72  40:  0.74
  41:  0.52  42:  0.02  43:  1.06  44:  0.27  45:  0.12  46:  0.36  47:  3.03  48:  0.53
  49:  0.21  50:  2.60  51:  1.50  52:  1.64  53:  1.42  54:  0.43  55:  0.26  56:  0.20
  57:  0.09  58:  0.01  59:  0.14  60:  0.27  61:  0.86  62:  0.29  63:  4.43  64:  1.15
  65:  0.41  66:  2.26  67:  0.96  68:  2.75  69:  0.19  70:  0.93  71:  0.42  72:  1.14
  73:  0.62  74:  3.83  75:  1.05  76:  0.05  77:  0.92  78:  0.59  79:  0.00  80:  3.66
  81:  0.66  82:  4.29  83:  0.50  84:  2.96  85:  3.58  86:  1.63  87:  0.60  88:  5.85
  89:  1.99  90:  1.20  91:  1.71  92:  1.62  93:  0.91  94:  2.77  95:  2.78  96:  6.29
  97:  0.16  98:  0.52  99:  1.56 100:  8.62 101:  0.35 102:  1.90 103:  0.56 104:  1.96
 105:  3.13 106:  2.39 107:  7.49 108:  0.74 109:  2.60 110:  0.38 111:  0.05 112:  1.19
 113:  2.70 114:  5.52 115:  1.78 116: 10.27 117:  1.01 118:  7.87 119:  1.26 120:  2.19
 121:  2.23 122:  0.20 123: 13.16 124: 34.32 125:  1.58 126:  1.76 127:  2.86 128: 37.67
 129:  1.46 130: 30.05 131: 28.43 132: 13.63 133:  4.23 134:  0.38 135: 20.23 136: 16.45
 137: 16.44 138:  7.43 139:  5.67 140: 20.59 141:  0.02 142:  0.30 143:  0.84 144: 14.61
 145:  0.59 146:  5.78 147:  4.90 148:  2.98 149:  0.21 150:  0.06 151:  0.67 152:  0.29
 153:  1.19 154:  0.38 155:  0.20 156:  1.53 157:  3.32 158:  0.42 159:  0.03 160:  0.26
 161:  0.85 162:  0.80 163:  1.51 164:  0.54 165:  0.91 166:  0.08 167:  0.53 168:  1.41
 169:  0.19 170:  2.60 171:  0.30 172:  0.29 173:  0.03 174:  3.51 175:  1.67 176:  1.51
 177:  3.73 178:  0.89 179:  0.51 180:  0.75 181:  1.49 182:  0.38 183:  0.60 184: 36.32
 185:  8.79 186:  3.80 187: 37.12 188: 54.42 189:  1.25 190: 32.17 191: 15.85 192: 21.41
 193:  3.13 194:  0.25 195:  4.72 196:  0.63 197: 72.81 198:  2.16 199:  9.00 200: 16.58
 201: 12.15 202: 12.69 203:  1.47 204: 11.89 205:  0.13 206:  8.76 207:  7.45 208:  3.86
 209:  6.31 210: 18.23 211:  3.03 212: 10.79 213:  2.42 214: 48.98 215: 22.01 216:  1.74
 217: 13.18 218:  6.98 219: 13.26 220:  4.94 221:116.92 222: 20.22 223: 48.05 224: 37.94
 225:  9.80 226: 14.17 227:  3.48 228:395.17 229: 33.22 230: 29.39 231: 96.95 232: 84.40
 233:206.33 234:  1.18 235:  1.11 236:  5.37 237: 20.30 238:131.01 239:136.87 240: 33.70
 241:  5.12 242:  4.96 243: 57.15 244: 31.51 245:  0.95 246:306.40 247:248.74 248:  5.89
 249: 12.86 250:310.68 251: 33.54 252: 15.19 253: 41.87 254: 87.17 255:  0.41 256:  0.53
 257:  2.28 258:  9.10 259: 34.62 260: 20.94 261: 35.41 262: 46.72 263: 38.72 264:364.77
 265: 70.58 266: 17.84 267:  8.49 268:220.54 269: 57.46 270: 56.54 271:  0.04 272:  0.07
 273:  0.01 274:  0.32 275:  0.08 276:  5.05 277:  7.05 278:  1.05 279:  0.12 280:  3.85
 281:  2.44 282: 11.13 283: 25.03 284: 61.97 285:223.90 286:124.91 287:181.80 288:618.40
 289:  0.87 290:  6.35 291:  1.74 292: 75.84 293: 37.03 294:102.47 295: 63.50 296: 12.30
 297:  1.63 298:  2.52 299: 41.64 300: 41.78 301:  8.22 302:  3.77 303:  3.28 304:  4.57
 305:  0.14 306:  1.02 307: 70.36 308:241.93 309:  2.49 310:  5.65 311:  0.03 312:147.36
 313: 83.93 314: 18.07 315: 10.40 316:  7.81 317: 61.93 318:  2.29 319:  6.40 320:  3.32
 321:  5.76 322: 11.87 323:  9.86 324:  7.62 325:  7.19 326: 52.57 327: 30.49 328: 23.38
 329: 51.69 330: 59.02 331: 49.90 332: 62.66 333: 33.26 334: 39.19 335:139.49 336: 91.87
 337: 42.77 338: 75.63 339: 25.72 340: 33.35 341: 23.80 342: 10.32 343: 18.03 344: 17.07
 345: 17.44 346:  8.06 347: 10.37 348:  8.06
 Raman intensities (Ä⁴*amu⁻¹)
   1:  0.00   2:  0.00   3:  0.00   4:  0.00   5:  0.00   6:  0.00   7:  0.00   8:  0.00
   9:  0.00  10:  0.00  11:  0.00  12:  0.00  13:  0.00  14:  0.00  15:  0.00  16:  0.00
  17:  0.00  18:  0.00  19:  0.00  20:  0.00  21:  0.00  22:  0.00  23:  0.00  24:  0.00
  25:  0.00  26:  0.00  27:  0.00  28:  0.00  29:  0.00  30:  0.00  31:  0.00  32:  0.00
  33:  0.00  34:  0.00  35:  0.00  36:  0.00  37:  0.00  38:  0.00  39:  0.00  40:  0.00
  41:  0.00  42:  0.00  43:  0.00  44:  0.00  45:  0.00  46:  0.00  47:  0.00  48:  0.00
  49:  0.00  50:  0.00  51:  0.00  52:  0.00  53:  0.00  54:  0.00  55:  0.00  56:  0.00
  57:  0.00  58:  0.00  59:  0.00  60:  0.00  61:  0.00  62:  0.00  63:  0.00  64:  0.00
  65:  0.00  66:  0.00  67:  0.00  68:  0.00  69:  0.00  70:  0.00  71:  0.00  72:  0.00
  73:  0.00  74:  0.00  75:  0.00  76:  0.00  77:  0.00  78:  0.00  79:  0.00  80:  0.00
  81:  0.00  82:  0.00  83:  0.00  84:  0.00  85:  0.00  86:  0.00  87:  0.00  88:  0.00
  89:  0.00  90:  0.00  91:  0.00  92:  0.00  93:  0.00  94:  0.00  95:  0.00  96:  0.00
  97:  0.00  98:  0.00  99:  0.00 100:  0.00 101:  0.00 102:  0.00 103:  0.00 104:  0.00
 105:  0.00 106:  0.00 107:  0.00 108:  0.00 109:  0.00 110:  0.00 111:  0.00 112:  0.00
 113:  0.00 114:  0.00 115:  0.00 116:  0.00 117:  0.00 118:  0.00 119:  0.00 120:  0.00
 121:  0.00 122:  0.00 123:  0.00 124:  0.00 125:  0.00 126:  0.00 127:  0.00 128:  0.00
 129:  0.00 130:  0.00 131:  0.00 132:  0.00 133:  0.00 134:  0.00 135:  0.00 136:  0.00
 137:  0.00 138:  0.00 139:  0.00 140:  0.00 141:  0.00 142:  0.00 143:  0.00 144:  0.00
 145:  0.00 146:  0.00 147:  0.00 148:  0.00 149:  0.00 150:  0.00 151:  0.00 152:  0.00
 153:  0.00 154:  0.00 155:  0.00 156:  0.00 157:  0.00 158:  0.00 159:  0.00 160:  0.00
 161:  0.00 162:  0.00 163:  0.00 164:  0.00 165:  0.00 166:  0.00 167:  0.00 168:  0.00
 169:  0.00 170:  0.00 171:  0.00 172:  0.00 173:  0.00 174:  0.00 175:  0.00 176:  0.00
 177:  0.00 178:  0.00 179:  0.00 180:  0.00 181:  0.00 182:  0.00 183:  0.00 184:  0.00
 185:  0.00 186:  0.00 187:  0.00 188:  0.00 189:  0.00 190:  0.00 191:  0.00 192:  0.00
 193:  0.00 194:  0.00 195:  0.00 196:  0.00 197:  0.00 198:  0.00 199:  0.00 200:  0.00
 201:  0.00 202:  0.00 203:  0.00 204:  0.00 205:  0.00 206:  0.00 207:  0.00 208:  0.00
 209:  0.00 210:  0.00 211:  0.00 212:  0.00 213:  0.00 214:  0.00 215:  0.00 216:  0.00
 217:  0.00 218:  0.00 219:  0.00 220:  0.00 221:  0.00 222:  0.00 223:  0.00 224:  0.00
 225:  0.00 226:  0.00 227:  0.00 228:  0.00 229:  0.00 230:  0.00 231:  0.00 232:  0.00
 233:  0.00 234:  0.00 235:  0.00 236:  0.00 237:  0.00 238:  0.00 239:  0.00 240:  0.00
 241:  0.00 242:  0.00 243:  0.00 244:  0.00 245:  0.00 246:  0.00 247:  0.00 248:  0.00
 249:  0.00 250:  0.00 251:  0.00 252:  0.00 253:  0.00 254:  0.00 255:  0.00 256:  0.00
 257:  0.00 258:  0.00 259:  0.00 260:  0.00 261:  0.00 262:  0.00 263:  0.00 264:  0.00
 265:  0.00 266:  0.00 267:  0.00 268:  0.00 269:  0.00 270:  0.00 271:  0.00 272:  0.00
 273:  0.00 274:  0.00 275:  0.00 276:  0.00 277:  0.00 278:  0.00 279:  0.00 280:  0.00
 281:  0.00 282:  0.00 283:  0.00 284:  0.00 285:  0.00 286:  0.00 287:  0.00 288:  0.00
 289:  0.00 290:  0.00 291:  0.00 292:  0.00 293:  0.00 294:  0.00 295:  0.00 296:  0.00
 297:  0.00 298:  0.00 299:  0.00 300:  0.00 301:  0.00 302:  0.00 303:  0.00 304:  0.00
 305:  0.00 306:  0.00 307:  0.00 308:  0.00 309:  0.00 310:  0.00 311:  0.00 312:  0.00
 313:  0.00 314:  0.00 315:  0.00 316:  0.00 317:  0.00 318:  0.00 319:  0.00 320:  0.00
 321:  0.00 322:  0.00 323:  0.00 324:  0.00 325:  0.00 326:  0.00 327:  0.00 328:  0.00
 329:  0.00 330:  0.00 331:  0.00 332:  0.00 333:  0.00 334:  0.00 335:  0.00 336:  0.00
 337:  0.00 338:  0.00 339:  0.00 340:  0.00 341:  0.00 342:  0.00 343:  0.00 344:  0.00
 345:  0.00 346:  0.00 347:  0.00 348:  0.00
 output can be read by thermo (or use thermo option).
 writing <g98.out> molden fake output.
 recommended (thermochemical) frequency scaling factor: 1.0
           -------------------------------------------------
          |             Thermodynamic Functions             |
           -------------------------------------------------

Refinement of some symmetry elements was terminated before convergence was reached.
Some symmetry elements may remain unidentified.
Molecule has no symmetry elements
It seems to be the C1 point group
c1  symmetry found (for desy threshold:  0.10E+00) used in thermo

          ...................................................
          :                      SETUP                      :
          :.................................................:
          :  # frequencies                         342      :
          :  # imaginary freq.                       0      :
          :  linear?                             false      :
          :  only rotor calc.                    false      :
          :  symmetry                               c1      :
          :  rotational number                       1      :
          :  scaling factor                  1.0000000      :
          :  rotor cutoff                   50.0000000 cm⁻¹ :
          :  imag. cutoff                  -20.0000000 cm⁻¹ :
          :.................................................:

    mode    ω/cm⁻¹     T·S(HO)/kcal·mol⁻¹    T·S(FR)/kcal·mol⁻¹   T·S(vib)
   ------------------------------------------------------------------------
       1      8.06    -2.51608 (  0.07%)    -1.59711 ( 99.93%)    -1.59773
       2     10.47    -2.36121 (  0.19%)    -1.51967 ( 99.81%)    -1.52128
       3     12.07    -2.27723 (  0.34%)    -1.47767 ( 99.66%)    -1.48038
       4     23.66    -1.87853 (  4.77%)    -1.27821 ( 95.23%)    -1.30687
       5     25.64    -1.83092 (  6.47%)    -1.25438 ( 93.53%)    -1.29168
       6     28.58    -1.76670 (  9.65%)    -1.22223 ( 90.35%)    -1.27475
       7     31.20    -1.71481 ( 13.17%)    -1.19624 ( 86.83%)    -1.26452
       8     37.42    -1.60732 ( 23.89%)    -1.14237 ( 76.11%)    -1.25344
       9     39.95    -1.56876 ( 28.95%)    -1.12303 ( 71.05%)    -1.25208
      10     44.42    -1.50615 ( 38.38%)    -1.09162 ( 61.62%)    -1.25070
      11     48.21    -1.45774 ( 46.37%)    -1.06732 ( 53.63%)    -1.24836
      12     54.30    -1.38768 ( 58.18%)    -1.03211 ( 41.82%)    -1.23896
      13     61.76    -1.31188 ( 69.95%)    -0.99396 ( 30.05%)    -1.21635
      14     63.45    -1.29602 ( 72.17%)    -0.98597 ( 27.83%)    -1.20974
      15     69.81    -1.23989 ( 79.17%)    -0.95766 ( 20.83%)    -1.18110
      16     76.29    -1.18783 ( 84.43%)    -0.93136 ( 15.57%)    -1.14789
      17     79.17    -1.16620 ( 86.27%)    -0.92042 ( 13.73%)    -1.13246
      18     82.69    -1.14072 ( 88.21%)    -0.90752 ( 11.79%)    -1.11322
      19     93.92    -1.06639 ( 92.57%)    -0.86979 (  7.43%)    -1.05177
      20     99.50    -1.03283 ( 94.01%)    -0.85270 (  5.99%)    -1.02203
      21    112.17    -0.96332 ( 96.20%)    -0.81719 (  3.80%)    -0.95777
      22    115.07    -0.94855 ( 96.56%)    -0.80961 (  3.44%)    -0.94377
      23    124.31    -0.90405 ( 97.45%)    -0.78674 (  2.55%)    -0.90105
      24    125.53    -0.89846 ( 97.54%)    -0.78386 (  2.46%)    -0.89564
      25    138.64    -0.84156 ( 98.34%)    -0.75443 (  1.66%)    -0.84011
      26    143.10    -0.82348 ( 98.53%)    -0.74504 (  1.47%)    -0.82233
      27    155.39    -0.77674 ( 98.94%)    -0.72064 (  1.06%)    -0.77614
      28    161.16    -0.75616 ( 99.08%)    -0.70984 (  0.92%)    -0.75573
      29    171.07    -0.72262 ( 99.28%)    -0.69215 (  0.72%)    -0.72240
      30    175.54    -0.70820 ( 99.35%)    -0.68451 (  0.65%)    -0.70805
      31    177.54    -0.70187 ( 99.37%)    -0.68115 (  0.63%)    -0.70174
      32    196.16    -0.64664 ( 99.58%)    -0.65162 (  0.42%)    -0.64666
      33    208.26    -0.61386 ( 99.67%)    -0.63388 (  0.33%)    -0.61392
      34    210.98    -0.60678 ( 99.69%)    -0.63004 (  0.31%)    -0.60686
      35    216.44    -0.59291 ( 99.72%)    -0.62246 (  0.28%)    -0.59299
      36    220.41    -0.58310 ( 99.74%)    -0.61709 (  0.26%)    -0.58319
      37    224.76    -0.57256 ( 99.76%)    -0.61129 (  0.24%)    -0.57266
      38    225.54    -0.57070 ( 99.76%)    -0.61026 (  0.24%)    -0.57079
      39    229.08    -0.56236 ( 99.77%)    -0.60566 (  0.23%)    -0.56245
      40    231.84    -0.55595 ( 99.78%)    -0.60211 (  0.22%)    -0.55605
      41    232.38    -0.55471 ( 99.79%)    -0.60142 (  0.21%)    -0.55481
      42    243.11    -0.53070 ( 99.82%)    -0.58804 (  0.18%)    -0.53080
      43    252.85    -0.51002 ( 99.85%)    -0.57641 (  0.15%)    -0.51012
      44    261.36    -0.49275 ( 99.87%)    -0.56661 (  0.13%)    -0.49285
      45    267.48    -0.48074 ( 99.88%)    -0.55974 (  0.12%)    -0.48083
      46    270.72    -0.47454 ( 99.88%)    -0.55618 (  0.12%)    -0.47463
      47    274.80    -0.46685 ( 99.89%)    -0.55175 (  0.11%)    -0.46694
      48    286.42    -0.44574 ( 99.91%)    -0.53948 (  0.09%)    -0.44583
      49    293.33    -0.43371 ( 99.92%)    -0.53242 (  0.08%)    -0.43379
   ------------------------------------------------------------------------

   temp. (K)  partition function   enthalpy   heat capacity  entropy
                                   cal/mol     cal/K/mol   cal/K/mol   J/K/mol
 298.15  VIB  0.152E+26            33460.980    212.152    206.411
         ROT  0.216E+09              888.752      2.981     41.119
         INT  0.329E+34            34349.732    215.133    247.530
         TR   0.252E+29             1481.254      4.968     46.172
         TOT                       35830.9861   220.1015   293.7019  1228.8486

       T/K    H(0)-H(T)+PV         H(T)/Eh          T*S/Eh         G(T)/Eh
   ------------------------------------------------------------------------
    298.15    0.571003E-01    0.970935E+00    0.139547E+00    0.831388E+00
   ------------------------------------------------------------------------

         :::::::::::::::::::::::::::::::::::::::::::::::::::::
         ::                  THERMODYNAMIC                  ::
         :::::::::::::::::::::::::::::::::::::::::::::::::::::
         :: total free energy        -174.744582446102 Eh   ::
         ::.................................................::
         :: total energy             -175.575970383524 Eh   ::
         :: zero point energy           0.913834864414 Eh   ::
         :: G(RRHO) w/o ZPVE           -0.082446926993 Eh   ::
         :: G(RRHO) contrib.            0.831387937421 Eh   ::
         :::::::::::::::::::::::::::::::::::::::::::::::::::::

optimized geometry written to: xtbopt.xyz


           -------------------------------------------------
          | TOTAL ENERGY             -175.575970383524 Eh   |
          | TOTAL ENTHALPY           -174.605035208136 Eh   |
          | TOTAL FREE ENERGY        -174.744582446102 Eh   |
          | GRADIENT NORM               0.000056323335 Eh/α |
          | HOMO-LUMO GAP               2.074030202893 eV   |
           -------------------------------------------------

------------------------------------------------------------------------
 * finished run on 2025/06/07 at 01:00:44.560     
------------------------------------------------------------------------
 total:
 * wall-time:     0 d,  0 h,  0 min, 29.599 sec
 *  cpu-time:     0 d,  0 h,  6 min, 33.175 sec
 * ratio c/w:    13.283 speedup
 SCF:
 * wall-time:     0 d,  0 h,  0 min,  0.174 sec
 *  cpu-time:     0 d,  0 h,  0 min,  2.438 sec
 * ratio c/w:    13.984 speedup
 ANC optimizer:
 * wall-time:     0 d,  0 h,  0 min,  5.265 sec
 *  cpu-time:     0 d,  0 h,  1 min, 13.659 sec
 * ratio c/w:    13.992 speedup
 analytical hessian:
 * wall-time:     0 d,  0 h,  0 min, 23.946 sec
 *  cpu-time:     0 d,  0 h,  5 min, 14.181 sec
 * ratio c/w:    13.120 speedup

