$hessian                                                                        
        0.7018604007   0.0148235013  -0.0002143885  -0.0922711949   0.0384842641
        0.0000704428   0.0235568114   0.0245724192   0.0000287020  -0.0140786803
       -0.0139657535  -0.0000198651   0.0076919737  -0.0015221818  -0.0000010551
       -0.0036857356  -0.0068339635  -0.0000058519   0.0002581571  -0.0001854400
        0.0000006745  -0.0001670567   0.0001444196   0.0000000312   0.0003901148
        0.0000144633  -0.0000003191  -0.0001882270  -0.0005487461   0.0000000927
       -0.0004148870   0.0006364115  -0.0000004469   0.0002895943  -0.0010464322
        0.0000007313  -0.0001839900   0.0011747493   0.0000000112  -0.0003533978
       -0.0005095039  -0.0000002170  -0.0002356018   0.0005704800  -0.0000002193
        0.0006162539  -0.0000308440   0.0000006909  -0.0002526999  -0.0005612494
       -0.0000007271   0.0010773200   0.0010274085  -0.0000005952  -0.0093139965
        0.0076467365   0.0000107923   0.0114820717   0.0057312391   0.0000029420
       -0.0694286211   0.0076984339   0.0000439021  -0.3089743293  -0.1622331424
       -0.0001423573  -0.2405006356   0.1096972739   0.0002597467  -0.0020444176
       -0.0259546653  -0.0000388508  -0.0039923217   0.0032152344   0.0000092458
       -0.0000116044   0.0000188177   0.0000004663   0.0000092348   0.0000155160
       -0.0000000536  -0.0000067896   0.0000049869   0.0000001108  -0.0000097261
        0.0000072572  -0.0000000378   0.0000043820  -0.0000150777  -0.0000001336
       -0.0000502098  -0.0000179630   0.0000000977  -0.0010721919  -0.0020586498
       -0.0000035619
        0.0148235013   0.6172334259   0.0007768511  -0.0384365785  -0.2805824506
       -0.0003510398   0.0754240598  -0.0390987911  -0.0000822185  -0.0331848387
       -0.0202094356  -0.0000245882   0.0183015127  -0.0015216496  -0.0000010131
       -0.0100303882  -0.0127230070  -0.0000130314   0.0015690911  -0.0009813365
        0.0000010047  -0.0005008953   0.0006345686   0.0000002204   0.0009337732
       -0.0000052658   0.0000006146  -0.0002880838  -0.0010279477  -0.0000001245
       -0.0007402745   0.0010730196  -0.0000002763   0.0000953368  -0.0021724276
        0.0000008019  -0.0000495700   0.0021587583   0.0000002975  -0.0006662985
       -0.0010354941   0.0000001627  -0.0003884149   0.0010332963  -0.0000013057
        0.0010306642   0.0000700228   0.0000002086  -0.0005486928  -0.0008819199
       -0.0000005512   0.0023782103   0.0011530094  -0.0000002092  -0.0113807974
        0.0137506469   0.0000157277   0.0279149858   0.0018799499  -0.0000193003
       -0.0381531240   0.0305929757   0.0000684007  -0.0920394875  -0.1692703979
       -0.0001549783   0.1094977759  -0.1046479547  -0.0001639087  -0.0024549425
       -0.0169434296  -0.0000229521   0.0025073006  -0.0005239868  -0.0000128142
       -0.0000221035   0.0001038526   0.0000005417   0.0000031326   0.0000462253
        0.0000004067  -0.0000055127   0.0000288291   0.0000002928  -0.0000057102
       -0.0000061425  -0.0000002790   0.0000000797  -0.0000479235  -0.0000001852
        0.0000129042  -0.0001558747  -0.0000003588  -0.0255966153  -0.0179231452
       -0.0000163965
       -0.0002143885   0.0007768511   0.1153299816  -0.0000439993  -0.0003763500
       -0.0500706108   0.0001049408  -0.0000693208   0.0009356163  -0.0000443013
       -0.0000136167  -0.0054722549   0.0000214994  -0.0000014229  -0.0009591214
       -0.0000132292  -0.0000161918   0.0009779784   0.0000027886  -0.0000020121
       -0.0000050696  -0.0000003317  -0.0000000367   0.0000209762   0.0000009073
        0.0000003904  -0.0000079436  -0.0000003990  -0.0000012202   0.0000130905
       -0.0000005985   0.0000006857  -0.0000151812   0.0000003597  -0.0000028441
       -0.0000184784  -0.0000004627   0.0000026587  -0.0000637912  -0.0000002536
       -0.0000009575   0.0001509458  -0.0000008322   0.0000018418  -0.0000207353
        0.0000008990  -0.0000005337   0.0001279081  -0.0000000013  -0.0000002211
        0.0000522409   0.0000030117   0.0000022504  -0.0010682513  -0.0000128742
        0.0000160495   0.0005534611   0.0000359570  -0.0000077669   0.0054091592
       -0.0000248011   0.0000429657   0.0002371651  -0.0000376374  -0.0001281130
       -0.0427974783   0.0002581227  -0.0001567226  -0.0351320409  -0.0000025519
       -0.0000229481   0.0016184745   0.0000064557  -0.0000162531   0.0094607896
        0.0000000764   0.0000003204   0.0000047986  -0.0000000048   0.0000001727
       -0.0000090720  -0.0000001479   0.0000002147   0.0000062873   0.0000000508
       -0.0000002519  -0.0000484610   0.0000000454  -0.0000001263  -0.0000039471
        0.0000000805  -0.0000004869  -0.0000546476  -0.0000383806  -0.0000270046
        0.0008482114
       -0.0922711949  -0.0384365785  -0.0000439993   0.7018889366  -0.0147996486
       -0.0001434369  -0.3090664802   0.1621992558   0.0003069912  -0.0694374135
       -0.0077272951  -0.0000020800   0.0114902945  -0.0057289883  -0.0000053217
       -0.0093153889  -0.0076526854  -0.0000071385   0.0010781984  -0.0010275700
       -0.0000006215  -0.0002528810   0.0005614481  -0.0000000401   0.0006165083
        0.0000309437   0.0000002219  -0.0002355942  -0.0005707851   0.0000000259
       -0.0003536323   0.0005096855   0.0000000883  -0.0001838348  -0.0011754121
        0.0000003490   0.0002894122   0.0010470272  -0.0000001732  -0.0004149879
       -0.0006367850  -0.0000001842  -0.0001884096   0.0005489883   0.0000003487
        0.0003903882  -0.0000143840   0.0000006374  -0.0001672038  -0.0001446484
       -0.0000005867   0.0002585312   0.0001857532  -0.0000012962  -0.0036901619
        0.0068365527   0.0000076824   0.0076967449   0.0015244046  -0.0000032913
       -0.0140910479   0.0139676967   0.0000244619   0.0235855225  -0.0245528830
       -0.0000429089  -0.0020524496   0.0259594452   0.0000413761  -0.2404386880
       -0.1097370665  -0.0001364278  -0.0010799495   0.0020633009   0.0000055039
       -0.0000502308   0.0000179978   0.0000003569   0.0000043779   0.0000150842
        0.0000000729  -0.0000097310  -0.0000072644   0.0000002338  -0.0000067833
       -0.0000050003   0.0000000510   0.0000092448  -0.0000155279  -0.0000001695
       -0.0000116066  -0.0000188406   0.0000002669  -0.0039904895  -0.0032162205
       -0.0000009925
        0.0384842641  -0.2805824506  -0.0003763500  -0.0147996486   0.6172210031
        0.0007858099   0.0920069915  -0.1691973537  -0.0002095390   0.0381230926
        0.0306014494   0.0000468734  -0.0279123471   0.0018714033  -0.0000049971
        0.0113748382   0.0137512112   0.0000116003  -0.0023782353   0.0011523430
        0.0000006250   0.0005486829  -0.0008817007  -0.0000001961  -0.0010304859
        0.0000698375  -0.0000010679   0.0003881474   0.0010331647   0.0000002593
        0.0006663458  -0.0010351836  -0.0000003866   0.0000491521   0.0021585714
       -0.0000002918  -0.0000948534  -0.0021721163  -0.0000000779   0.0007400184
        0.0010730194  -0.0000000140   0.0002882406  -0.0010277757   0.0000007987
       -0.0009337007  -0.0000054502  -0.0000001936   0.0005008266   0.0006346568
        0.0000006515  -0.0015688339  -0.0009815599   0.0000018367   0.0100325655
       -0.0127188163  -0.0000159474  -0.0182994601  -0.0015256945   0.0000062056
        0.0331875524  -0.0201954341  -0.0000427325  -0.0754041970  -0.0391260144
       -0.0000347007   0.0024592105  -0.0169365080  -0.0000236330  -0.1095373086
       -0.1047113234  -0.0000976323   0.0256004396  -0.0179124275  -0.0000336650
       -0.0000129221  -0.0001558943  -0.0000005100  -0.0000000750  -0.0000479242
       -0.0000005316   0.0000057281  -0.0000061503  -0.0000002804   0.0000055011
        0.0000288336   0.0000003676  -0.0000031543   0.0000462284   0.0000003221
        0.0000220639   0.0001038423   0.0000000479  -0.0025084393  -0.0005257863
       -0.0000126512
        0.0000704428  -0.0003510398  -0.0500706108  -0.0001434369   0.0007858099
        0.1153269171   0.0002031279  -0.0002271628  -0.0427958301   0.0000661594
        0.0000483529   0.0002376412  -0.0000393161  -0.0000046080   0.0054097821
        0.0000190064   0.0000214483   0.0005527024  -0.0000037922   0.0000025534
       -0.0010679861   0.0000001315  -0.0000002685   0.0000522623  -0.0000013615
       -0.0000008326   0.0001278974   0.0000010919   0.0000021337  -0.0000207761
        0.0000003087  -0.0000012828   0.0001509108   0.0000001512   0.0000034444
       -0.0000637401  -0.0000007634  -0.0000032601  -0.0000184855   0.0000009115
        0.0000010164  -0.0000152018   0.0000006086  -0.0000015896   0.0000131163
       -0.0000009781   0.0000006071  -0.0000079900   0.0000001047  -0.0000003427
        0.0000209643  -0.0000029686  -0.0000022685  -0.0000048832   0.0000151146
       -0.0000204896   0.0009773891  -0.0000263883  -0.0000026397  -0.0009584301
        0.0000496633  -0.0000224347  -0.0054721398  -0.0001187588  -0.0000546287
        0.0009356526   0.0000048566  -0.0000392918   0.0016189494  -0.0001344462
       -0.0000905805  -0.0351315795   0.0000385997  -0.0000277280   0.0008477639
        0.0000000318  -0.0000004958  -0.0000546226   0.0000000715  -0.0000001558
       -0.0000039570  -0.0000000074  -0.0000002503  -0.0000485000   0.0000001251
        0.0000002469   0.0000062882   0.0000000926   0.0000002239  -0.0000090555
        0.0000000100   0.0000003978   0.0000048455   0.0000016075  -0.0000148844
        0.0094607056
        0.0235568114   0.0754240598   0.0001049408  -0.3090664802   0.0920069915
        0.0002031279   0.6581451070  -0.0574476127  -0.0001922212  -0.1953421940
       -0.0851212361  -0.0000847153  -0.0854369543  -0.0037393909  -0.0000027298
        0.0142685544   0.0220004780   0.0000173318  -0.0050459616   0.0011487539
        0.0000001126   0.0008988033  -0.0014683513   0.0000001848  -0.0014168359
       -0.0000310886  -0.0000004490   0.0005695940   0.0011183673   0.0000005878
        0.0003554724  -0.0010548672   0.0000004116   0.0003563749   0.0029091792
       -0.0000007361  -0.0006980209  -0.0022252244   0.0000001552   0.0009877363
        0.0013708665  -0.0000003194   0.0002802115  -0.0012140781   0.0000004962
       -0.0007787088   0.0000109655  -0.0000011190   0.0003577350   0.0002199471
        0.0000004828  -0.0000760547  -0.0002417455   0.0000014942   0.0067751583
       -0.0139316376  -0.0000149956  -0.0118236009  -0.0003330157   0.0000041379
        0.0236496489  -0.0420494022  -0.0000742823  -0.0500530663  -0.0037455236
        0.0000118183   0.0010397494  -0.0000856890   0.0000000599  -0.0276536040
        0.0122966308   0.0000249823  -0.0435200530   0.0045699679  -0.0000014708
        0.0000229750  -0.0003326481  -0.0000003744  -0.0000211332  -0.0000254854
        0.0000002146  -0.0000153502  -0.0000243226   0.0000000135   0.0000079898
        0.0000088655   0.0000001593  -0.0000055223   0.0000256973  -0.0000001161
        0.0000226152   0.0000539924   0.0000000024  -0.0003409966  -0.0000934438
        0.0000028150
        0.0245724192  -0.0390987911  -0.0000693208   0.1621992558  -0.1691973537
       -0.0002271628  -0.0574476127   0.6715821078   0.0008548377  -0.1127464643
       -0.1457265937  -0.0001127194   0.0050783314   0.0136930961   0.0000199295
        0.0069419123   0.0012373475  -0.0000111234   0.0002306881   0.0007934825
       -0.0000008125   0.0002909230   0.0000097325  -0.0000002523  -0.0002217589
        0.0000547228   0.0000000734  -0.0000008887   0.0001386013  -0.0000001508
        0.0002703876  -0.0001605746   0.0000007637   0.0001575683   0.0001845564
        0.0000002492  -0.0001093057  -0.0003203196   0.0000003033   0.0001575885
        0.0001951646  -0.0000010390  -0.0000554222  -0.0001267202   0.0000006772
       -0.0000519984  -0.0000239949  -0.0000003634   0.0001020139  -0.0001057712
       -0.0000004145   0.0000022396  -0.0001125729   0.0000038921   0.0014188228
       -0.0016061606  -0.0000031657  -0.0038008654  -0.0089195089  -0.0000117771
       -0.0232527319  -0.0230158902  -0.0000332934   0.0037293047   0.0034963057
        0.0000109613   0.0003382622  -0.0061377176  -0.0000176227  -0.0118047638
        0.0068193943   0.0000133542   0.0038393298  -0.3044372861  -0.0004155263
        0.0000795681  -0.0000275072  -0.0000000022   0.0000201540  -0.0000452164
        0.0000001669  -0.0000034734  -0.0000372175  -0.0000000368   0.0000012415
        0.0000123552   0.0000002068   0.0000109043   0.0000326499  -0.0000000572
        0.0000402633   0.0001292776   0.0000002984   0.0000141070   0.0007204023
       -0.0000008737
        0.0000287020  -0.0000822185   0.0009356163   0.0003069912  -0.0002095390
       -0.0427958301  -0.0001922212   0.0008548377   0.1115972915  -0.0001365508
       -0.0001349007  -0.0517001448   0.0000049619   0.0000288493  -0.0048129051
        0.0000043868  -0.0000108421   0.0099261560   0.0000026280  -0.0000000055
        0.0006278875   0.0000001958   0.0000005061   0.0002189203  -0.0000001853
        0.0000000363  -0.0000758509  -0.0000001005   0.0000000020   0.0001106051
        0.0000002642  -0.0000000783  -0.0001509431   0.0000003160  -0.0000001645
       -0.0004144049   0.0000004326   0.0000001375  -0.0001953269  -0.0000007663
        0.0000007140   0.0003958164  -0.0000000039  -0.0000009303  -0.0000088558
       -0.0000000995   0.0000003179   0.0002171725   0.0000008316   0.0000007071
        0.0001880288  -0.0000009532   0.0000005808  -0.0025191571   0.0000057501
       -0.0000030474   0.0008878394  -0.0000057946  -0.0000204601   0.0035935384
       -0.0000333906  -0.0000151408   0.0026214406   0.0000160557   0.0000136617
       -0.0021622178   0.0000029402  -0.0000177500   0.0055499420  -0.0000117642
        0.0000060138   0.0012354223   0.0000069294  -0.0004122720  -0.0332298326
        0.0000001996  -0.0000000017  -0.0000251763   0.0000001317  -0.0000000235
       -0.0000700501  -0.0000000976  -0.0000000652   0.0000436708  -0.0000000766
       -0.0000000028  -0.0000782013  -0.0000000495  -0.0000000400  -0.0000347941
        0.0000001213   0.0000001758  -0.0000561155   0.0000002157   0.0000009424
        0.0001804584
       -0.0140786803  -0.0331848387  -0.0000443013  -0.0694374135   0.0381230926
        0.0000661594  -0.1953421940  -0.1127464643  -0.0001365508   0.6676556294
        0.0062454655  -0.0000076631  -0.2131752012   0.1206766826   0.0001110142
       -0.1048564213  -0.0293440759  -0.0000324846   0.0057404437  -0.0091834368
       -0.0000017619  -0.0014410789   0.0030578529  -0.0000002480   0.0034246324
        0.0000632281   0.0000022638  -0.0011065775  -0.0023951516  -0.0000012429
       -0.0014923237   0.0017663971   0.0000012245  -0.0032724092  -0.0051018283
       -0.0000013861   0.0013960034   0.0045994405   0.0000002715  -0.0018419806
       -0.0025751341  -0.0000001912  -0.0006619159   0.0022901580  -0.0000003317
        0.0015823496   0.0002231366   0.0000015302  -0.0006481604  -0.0005727049
       -0.0000022423   0.0007323454   0.0012207189  -0.0000036890  -0.0120062298
        0.0347230218   0.0000294388   0.0171853157  -0.0380280720  -0.0000426239
       -0.0953460655  -0.0058234137   0.0000224416   0.0236297516   0.0232683186
        0.0000220427   0.0003285550  -0.0007995949  -0.0000013486  -0.0032477776
        0.0024873972   0.0000065810   0.0001388688  -0.0027970615   0.0000043442
       -0.0001633364   0.0010681059   0.0000009708   0.0000772639   0.0000436900
        0.0000005608   0.0000849671   0.0000470961   0.0000001305  -0.0000295362
       -0.0000092203  -0.0000002639   0.0000368197  -0.0000485387  -0.0000000805
        0.0000758858   0.0001599220   0.0000000916  -0.0039415296   0.0025458116
        0.0000073439
       -0.0139657535  -0.0202094356  -0.0000136167  -0.0077272951   0.0306014494
        0.0000483529  -0.0851212361  -0.1457265937  -0.0001349007   0.0062454655
        0.5972991104   0.0005368974   0.1140917358  -0.1774052269  -0.0001074133
        0.0145388693   0.0413063155   0.0000354776  -0.0095474758   0.0014011792
       -0.0000069985   0.0018132041  -0.0020893438   0.0000012201  -0.0020565334
       -0.0000179937  -0.0000002213   0.0008078198   0.0015067828   0.0000007222
        0.0006160451  -0.0014142992   0.0000004888   0.0006343254   0.0041285078
       -0.0000013241   0.0003154422  -0.0034569806  -0.0000003947   0.0011320531
        0.0013701902   0.0000008137   0.0004607555  -0.0013186614  -0.0000005064
       -0.0014478900   0.0000242587  -0.0000011392   0.0009068232   0.0011725513
        0.0000019597  -0.0031182890  -0.0015199480   0.0000002352   0.0241769503
       -0.0289331746  -0.0000328099  -0.0678348094  -0.0315295919  -0.0000183697
        0.0058522056  -0.2219276196  -0.0002167610   0.0420654808  -0.0230002245
       -0.0000414077  -0.0007417840  -0.0001663632  -0.0000035131   0.0034189598
       -0.0008714010  -0.0000154650  -0.0265835214  -0.0198168968  -0.0000226574
       -0.0000279391  -0.0001592714  -0.0000009290   0.0000655075  -0.0001631364
       -0.0000001539   0.0000215869  -0.0000555660  -0.0000006390   0.0000441106
        0.0000836892  -0.0000001467   0.0000078477   0.0001241420   0.0000000129
       -0.0000932245   0.0002633519  -0.0000005955   0.0010505634   0.0005002001
       -0.0000062179
       -0.0000198651  -0.0000245882  -0.0054722549  -0.0000020800   0.0000468734
        0.0002376412  -0.0000847153  -0.0001127194  -0.0517001448  -0.0000076631
        0.0005368974   0.1377308821   0.0001101228  -0.0001083626  -0.0501768686
        0.0000038929   0.0000304827  -0.0017189836  -0.0000153557  -0.0000039767
        0.0123098749   0.0000018205  -0.0000030490  -0.0006844204  -0.0000009614
        0.0000012764  -0.0010893915   0.0000004430   0.0000011878   0.0001710481
        0.0000006194  -0.0000018472  -0.0014541501   0.0000010763   0.0000035341
        0.0007691322   0.0000016913  -0.0000030869   0.0003782060   0.0000003967
        0.0000017539  -0.0000048347  -0.0000001596  -0.0000018098  -0.0001362938
       -0.0000017998  -0.0000004103   0.0000423096   0.0000025356   0.0000020970
       -0.0005046237  -0.0000036835  -0.0000013372   0.0004636066   0.0000203073
        0.0000006270  -0.0135538708  -0.0000364864  -0.0000467236   0.0201492092
       -0.0000075666  -0.0002138622  -0.0662973081   0.0000635838  -0.0000468045
        0.0026213930  -0.0000013605   0.0000006464  -0.0002133457   0.0000069546
       -0.0000171627   0.0098486981  -0.0000384709  -0.0000303517   0.0017280717
        0.0000002330  -0.0000001423   0.0003994090  -0.0000001099  -0.0000001560
        0.0000740775  -0.0000003317   0.0000000777   0.0003698422   0.0000000451
       -0.0000000211  -0.0000309019  -0.0000001431   0.0000001817   0.0001501122
       -0.0000000759   0.0000004240   0.0000350664   0.0000071058  -0.0000096480
        0.0055588124
        0.0076919737   0.0183015127   0.0000214994   0.0114902945  -0.0279123471
       -0.0000393161  -0.0854369543   0.0050783314   0.0000049619  -0.2131752012
        0.1140917358   0.0001101228   0.6454698058   0.0206175243   0.0000290186
       -0.2583776715  -0.1222668355  -0.0001174630  -0.0686682011   0.0040607266
       -0.0000177491   0.0021999247  -0.0098119988  -0.0000015586  -0.0058236956
       -0.0007408879  -0.0000035639   0.0024374212   0.0029236584   0.0000013982
       -0.0019971216  -0.0020179971  -0.0000016474   0.0031246990   0.0139878852
       -0.0000011606  -0.0017054765  -0.0069524826   0.0000003718   0.0030445319
        0.0039798777   0.0000002735   0.0010796419  -0.0032286786   0.0000008022
       -0.0021111502  -0.0002744511  -0.0000016074  -0.0001323917   0.0000219652
        0.0000029758  -0.0000005337  -0.0035438509   0.0000061681   0.0117742693
       -0.0815923242  -0.0000862318  -0.0560143202   0.0009921607   0.0000376437
        0.0171592511   0.0678472529   0.0000366979  -0.0118236096   0.0037993592
        0.0000141495   0.0000838411   0.0000689647  -0.0000012954  -0.0013466883
        0.0005653210   0.0000021897   0.0021553043   0.0012863866   0.0000030973
       -0.0001644898   0.0001699202  -0.0000016409   0.0001161629  -0.0001543839
        0.0000000147   0.0000840035  -0.0000381308  -0.0000003669  -0.0000006372
        0.0000035515   0.0000003420  -0.0001001484   0.0000273286   0.0000006792
       -0.0001207676   0.0002313003  -0.0000000150  -0.0009120662   0.0004796057
        0.0000012097
       -0.0015221818  -0.0015216496  -0.0000014229  -0.0057289883   0.0018714033
       -0.0000046080  -0.0037393909   0.0136930961   0.0000288493   0.1206766826
       -0.1774052269  -0.0001083626   0.0206175243   0.4235281005   0.0003059476
       -0.1421027239  -0.1954965575  -0.0001334071   0.0042929116   0.0164047963
        0.0000049896   0.0020685476  -0.0039260134  -0.0000020980  -0.0012220267
        0.0008714967  -0.0000007696   0.0004804297   0.0001908414   0.0000003973
        0.0013937836   0.0007148152   0.0000026064   0.0034088178  -0.0002290194
       -0.0000014215   0.0010584416  -0.0010856532   0.0000002709  -0.0000751764
        0.0004403696  -0.0000008798   0.0003354909  -0.0002723057   0.0000018091
       -0.0001738004  -0.0005158105   0.0000009641  -0.0023123542  -0.0012802669
        0.0000001927   0.0004516814  -0.0090438729   0.0000033981  -0.0387944810
       -0.0357386457  -0.0000396729  -0.0010075864   0.0083001042   0.0000246076
        0.0380404689  -0.0315038516  -0.0000637189   0.0003326957  -0.0089188652
       -0.0000213565   0.0000204363   0.0000878338   0.0000030828  -0.0006954095
        0.0003240318   0.0000007555   0.0010134378   0.0018101680   0.0000053309
        0.0012471959   0.0002377369   0.0000011047  -0.0001280745   0.0001771287
        0.0000005637   0.0001549989   0.0000731353   0.0000005083  -0.0000860067
       -0.0000297427  -0.0000000099  -0.0002293738  -0.0002122004  -0.0000001891
       -0.0000151456   0.0003293886   0.0000002314   0.0022391752  -0.0018747647
       -0.0000076934
       -0.0000010551  -0.0000010131  -0.0009591214  -0.0000053217  -0.0000049971
        0.0054097821  -0.0000027298   0.0000199295  -0.0048129051   0.0001110142
       -0.0001074133  -0.0501768686   0.0000290186   0.0003059476   0.0684044675
       -0.0001222048  -0.0001304562  -0.0465823581  -0.0000161444   0.0000148440
       -0.0064821270   0.0000011293  -0.0000041582   0.0008994829  -0.0000013843
       -0.0000007816  -0.0001566818   0.0000006438   0.0000009585  -0.0002377946
       -0.0000017544   0.0000006461   0.0011621404   0.0000042670   0.0000024271
        0.0017911266   0.0000006299  -0.0000010797  -0.0005921240   0.0000009494
        0.0000001272  -0.0005116299   0.0000007189  -0.0000000846   0.0001531048
       -0.0000001637  -0.0000010445  -0.0003843880  -0.0000037275  -0.0000013386
        0.0005972337   0.0000035232  -0.0000083434   0.0028641895  -0.0000261944
       -0.0000538271   0.0254875019  -0.0000234752   0.0000283208  -0.0189628547
        0.0000469134  -0.0000461924   0.0201487343   0.0000027164  -0.0000138031
        0.0035948112  -0.0000003432   0.0000018455  -0.0011590932  -0.0000000845
       -0.0000011170   0.0008981871   0.0000022280   0.0000044939  -0.0014190802
       -0.0000004483   0.0000002255  -0.0002358335  -0.0000000871   0.0000001823
       -0.0000044103   0.0000000102  -0.0000002077   0.0000476001  -0.0000000885
        0.0000000787   0.0001739069  -0.0000001933  -0.0000003005  -0.0001970642
       -0.0000002711  -0.0000000395   0.0000702921   0.0000019089  -0.0000038290
        0.0011717735
       -0.0036857356  -0.0100303882  -0.0000132292  -0.0093153889   0.0113748382
        0.0000190064   0.0142685544   0.0069419123   0.0000043868  -0.1048564213
        0.0145388693   0.0000038929  -0.2583776715  -0.1421027239  -0.0001222048
        0.6642510269   0.0228134558   0.0001258508  -0.1776879151   0.0664025859
       -0.0000284182  -0.0091073724   0.0304212625   0.0000083794   0.0126432343
       -0.0006458773   0.0000071018  -0.0044800443  -0.0052653873  -0.0000035948
       -0.0066734571  -0.0004474333  -0.0000079983  -0.0394613245  -0.0096584910
       -0.0000139294   0.0030140456   0.0108666467   0.0000013677  -0.0042683182
       -0.0049595142   0.0000010517  -0.0017511175   0.0049432275  -0.0000035966
        0.0039989192  -0.0010665638   0.0000027103  -0.0059854401  -0.0051795215
        0.0000008169   0.0032914031  -0.0190247274  -0.0000103419  -0.0826041516
        0.0192621325   0.0000273546   0.0117455403   0.0388059728   0.0000278826
       -0.0119921355  -0.0241735919  -0.0000176413   0.0067716763  -0.0014161925
       -0.0000098679   0.0001646845  -0.0001362096   0.0000005933  -0.0002626829
        0.0002703422  -0.0000004180   0.0000038066  -0.0000793304   0.0000018482
        0.0002245973  -0.0015424644   0.0000005241   0.0002076683  -0.0004822587
       -0.0000008748  -0.0000563668  -0.0001431301  -0.0000002494   0.0000565283
        0.0001395706  -0.0000003205  -0.0003175893  -0.0002317954   0.0000003949
       -0.0001799550   0.0001683657  -0.0000003178   0.0004214024  -0.0003635808
       -0.0000001598
       -0.0068339635  -0.0127230070  -0.0000161918  -0.0076526854   0.0137512112
        0.0000214483   0.0220004780   0.0012373475  -0.0000108421  -0.0293440759
        0.0413063155   0.0000304827  -0.1222668355  -0.1954965575  -0.0001304562
        0.0228134558   0.5925032415   0.0002218771   0.0750440415  -0.1148391737
        0.0000159469   0.0315084639  -0.0291974267   0.0000061348  -0.0041159333
       -0.0064634293  -0.0000091957   0.0017037188   0.0007997214   0.0000020074
       -0.0061821605  -0.0004590536  -0.0000076944  -0.0006496819   0.0146751617
        0.0000025366   0.0027013885  -0.0042636801  -0.0000016891   0.0017306982
        0.0006804357   0.0000024664   0.0015550402  -0.0019032191  -0.0000000077
       -0.0034645126  -0.0004921949   0.0000023852   0.0009360906   0.0056749728
       -0.0000036003  -0.0221579753  -0.0258897112  -0.0000181953  -0.0192325844
       -0.2126310533  -0.0000356042   0.0816046206  -0.0357107683  -0.0000803388
       -0.0347187078  -0.0289479613   0.0000126036   0.0139333158  -0.0016021462
       -0.0000086238  -0.0001410645  -0.0000528576  -0.0000003215   0.0000053466
        0.0000422820   0.0000003542  -0.0002843408  -0.0004477123  -0.0000000702
        0.0002072291   0.0007669928   0.0000024531   0.0013867258  -0.0006758331
        0.0000010735  -0.0001750194   0.0000646778   0.0000010949   0.0000810940
       -0.0000247917  -0.0000007197  -0.0000178175   0.0000051903  -0.0000002109
        0.0002069448  -0.0002351350  -0.0000013471  -0.0001812938   0.0005481620
        0.0000022442
       -0.0000058519  -0.0000130314   0.0009779784  -0.0000071385   0.0000116003
        0.0005527024   0.0000173318  -0.0000111234   0.0099261560  -0.0000324846
        0.0000354776  -0.0017189836  -0.0001174630  -0.0001334071  -0.0465823581
        0.0001258508   0.0002218771   0.1338899154  -0.0000020720  -0.0000062190
       -0.0529274143   0.0000003379   0.0000080269   0.0004199346  -0.0000003030
       -0.0000031405   0.0088275459  -0.0000026679  -0.0000029445  -0.0007840722
       -0.0000080791   0.0000013397   0.0071870763  -0.0000220855  -0.0000035617
       -0.0002246306   0.0000040961   0.0000077998  -0.0012641001  -0.0000029639
       -0.0000036302  -0.0007246758  -0.0000012515   0.0000035180   0.0002582540
        0.0000036222   0.0000004018  -0.0001345230   0.0000013407  -0.0000009307
        0.0024948064   0.0000022422   0.0000057541   0.0044795433  -0.0000327375
       -0.0000442926  -0.0682775754   0.0000960280  -0.0000514000   0.0254870871
       -0.0000328939  -0.0000258221  -0.0135520364   0.0000134502  -0.0000027993
        0.0008864901  -0.0000001414   0.0000000273  -0.0000789587  -0.0000006839
        0.0000024693  -0.0014474653  -0.0000005502   0.0000014005  -0.0009869979
        0.0000023192   0.0000004263  -0.0029188274  -0.0000000133  -0.0000002271
        0.0002354027   0.0000021772   0.0000002867  -0.0024798327   0.0000000006
        0.0000001115   0.0000535005   0.0000002327  -0.0000001586  -0.0002853578
        0.0000003205   0.0000000820  -0.0000810411   0.0000000310   0.0000020893
       -0.0012075429
        0.0002581571   0.0015690911   0.0000027886   0.0010781984  -0.0023782353
       -0.0000037922  -0.0050459616   0.0002306881   0.0000026280   0.0057404437
       -0.0095474758  -0.0000153557  -0.0686682011   0.0042929116  -0.0000161444
       -0.1776879151   0.0750440415  -0.0000020720   0.6236409280  -0.0007305080
        0.0002262470  -0.0861936709   0.0165261274  -0.0000303707   0.0106800372
        0.0306207363   0.0000147676  -0.0048888232  -0.0256489799   0.0000011062
       -0.0795197780   0.0292305482  -0.0000638329  -0.2106852196  -0.0938982166
       -0.0000952521  -0.0035434858  -0.0295322620  -0.0000053273   0.0066038711
        0.0076369474  -0.0000022212   0.0022167401  -0.0062446798   0.0000040549
       -0.0045083337   0.0007674279  -0.0000011162   0.0013886301   0.0033948459
        0.0000006851  -0.0108509640  -0.0029251564   0.0000003461   0.0032834510
        0.0221626389   0.0000001583  -0.0000013520  -0.0004499457  -0.0000041264
        0.0007319246   0.0031188967   0.0000019967  -0.0000760060  -0.0000022409
        0.0000022662   0.0000016517   0.0000434045   0.0000000046  -0.0001176695
        0.0000378847   0.0000001219   0.0001716150   0.0002109452  -0.0000010074
       -0.0006032359  -0.0264722219  -0.0000087121  -0.0045214779   0.0032482427
       -0.0000077748   0.0011439626  -0.0005463514   0.0000011218   0.0000316352
        0.0000716372  -0.0000000999  -0.0000542416   0.0000462254  -0.0000006981
       -0.0000289734   0.0000879186  -0.0000003530   0.0000240634   0.0000351143
       -0.0000000369
       -0.0001854400  -0.0009813365  -0.0000020121  -0.0010275700   0.0011523430
        0.0000025534   0.0011487539   0.0007934825  -0.0000000055  -0.0091834368
        0.0014011792  -0.0000039767   0.0040607266   0.0164047963   0.0000148440