$hessian                                                                        
        0.5029348915  -0.0145593880  -0.0322519706  -0.0835882588  -0.0181126138
       -0.0475782470   0.0058773151   0.0046221291   0.0129857849  -0.0181792662
        0.0009165680  -0.0202667288  -0.0005538214  -0.0011116576  -0.0007948909
       -0.0004540288   0.0001309238   0.0006512571  -0.0000058932   0.0000451865
        0.0001175512  -0.0006913952   0.0002195471   0.0008871925  -0.0004213298
        0.0025983455  -0.0016195359   0.0000436924  -0.0005915521   0.0001714279
        0.0001797034   0.0000571432   0.0000722897   0.0000101959  -0.0000096168
       -0.0000117090   0.0000199854   0.0000240794   0.0000178724  -0.0000452550
       -0.0000029112   0.0000236659   0.0000826263   0.0000298386  -0.0000037431
       -0.0000556561  -0.0000267373  -0.0000041369   0.0000570419   0.0000087845
       -0.0000130086  -0.0000075971  -0.0000076240  -0.0000025868   0.0000097984
       -0.0000007130  -0.0000061695   0.0000010248   0.0000025220  -0.0000005634
        0.0000010033   0.0000008932  -0.0000009834  -0.0000015234   0.0000015330
        0.0000018232  -0.0000022711   0.0000064007   0.0000053778  -0.0000380608
        0.0000066008   0.0000140850   0.0000416375  -0.0000058338  -0.0000170463
       -0.0000096943   0.0000065810   0.0000078594   0.0000088823   0.0000057959
        0.0000009931   0.0000019646   0.0000030498   0.0000020086   0.0000049594
        0.0000026995   0.0000010962  -0.0000012944  -0.0000027821  -0.0000004686
        0.0000030899  -0.0000023567  -0.0000006032  -0.0000458822   0.0000028018
        0.0000199987   0.0000290860  -0.0000037515  -0.0000115679  -0.0000060453
       -0.0000010698   0.0000040893   0.0001670203  -0.0014837673  -0.0003583667
       -0.0004368956  -0.0001693160   0.0005173352  -0.0000031115   0.0001735838
        0.0001091579  -0.0002544306  -0.0002067138   0.0005411174  -0.0009344374
        0.0009340265  -0.0011841432  -0.0092123971  -0.0133608914  -0.0089313636
       -0.0000178238   0.0001336518  -0.0000409728  -0.0000135792  -0.0000643204
        0.0000050770  -0.0000144844  -0.0000134150   0.0000026336  -0.0000097228
       -0.0000076711   0.0000046237   0.0000151154   0.0000039946  -0.0000003860
       -0.0000911089  -0.0000432135  -0.0000294594   0.0000918739  -0.0000923895
       -0.0000087964   0.0000083849  -0.0000048803  -0.0000137887  -0.0000075749
        0.0000086121   0.0000157958   0.0000121634   0.0000005704   0.0000014196
        0.0000069255   0.0000032144   0.0000018683  -0.0000111005   0.0000049926
        0.0000080212  -0.0000058840   0.0000024520   0.0000016427  -0.1443900483
        0.0181852307   0.1163797054  -0.1615212425   0.1124597680  -0.0450874189
       -0.0883712975  -0.0920682918   0.0217500254   0.0005719537   0.0003839989
        0.0003625352  -0.0014321260   0.0007261319   0.0038411402   0.0008249386
        0.0000956532   0.0005859215  -0.0000759038  -0.0002710140  -0.0003245029
        0.0000160858  -0.0000139119  -0.0000053377   0.0000181603  -0.0000351396
       -0.0001754608  -0.0001326911   0.0000894761  -0.0001743285  -0.0000409989
       -0.0000041761  -0.0000117891  -0.0000261668  -0.0000049588   0.0000104133
        0.0000020448   0.0000006006  -0.0000023614  -0.0000014111   0.0000025441
        0.0000018161  -0.0000039704  -0.0000018562   0.0000005549  -0.0000023129
       -0.0000017948  -0.0000014705   0.0000006929  -0.0000013413  -0.0000027354
        0.0000017670   0.0000010925   0.0000009129  -0.0000009941  -0.0000016538
       -0.0000015988  -0.0000050067   0.0000011079   0.0000010434  -0.0000042310
        0.0000029572   0.0000027096  -0.0000008437   0.0000046534   0.0000022845
        0.0000001375  -0.0000021108  -0.0000038513  -0.0000199648  -0.0000061297
       -0.0000103692   0.0000000007   0.0000091177   0.0000177553  -0.0000202814
       -0.0001078551  -0.0000659410   0.0001052651   0.0004876148  -0.0001108214
        0.0000040931   0.0000471958   0.0000020235   0.0000177191  -0.0000052137
        0.0000023680   0.0000113302  -0.0000063432   0.0000014081   0.0000041286
       -0.0000033267  -0.0000004859   0.0000010011  -0.0000161587  -0.0000175747
       -0.0000071763  -0.0000028324  -0.0000002766  -0.0000108645  -0.0000060323
       -0.0000034414  -0.0000037418  -0.0000095657  -0.0000046375   0.0000033973
        0.0000012284  -0.0000000430
       -0.0145593880   0.5169513643  -0.0266443668  -0.0160041946  -0.0736829597
       -0.0295515947  -0.0012311199  -0.0010139347  -0.0060255938   0.0098556962
        0.0057617764   0.0126636541   0.0004203728  -0.0013938307   0.0009068936
       -0.0000873583   0.0005991521  -0.0005680791   0.0000368069  -0.0002655165
        0.0001639151   0.0002869220   0.0002930893  -0.0008952609   0.0004818036
       -0.0035935476   0.0012843365  -0.0004566615   0.0025581179  -0.0007564980
       -0.0000217193   0.0000273131   0.0000330922  -0.0000030511   0.0000190287
       -0.0000145482  -0.0000121940   0.0000014612   0.0000080430  -0.0000067114
       -0.0000025061   0.0000042375   0.0000149203  -0.0000052938   0.0000019260
       -0.0000014167  -0.0000022874  -0.0000064507   0.0000101203  -0.0000046134
       -0.0000034522   0.0000000979   0.0000006706  -0.0000016705   0.0000000617
        0.0000012215  -0.0000024588   0.0000009853   0.0000006375  -0.0000005968
        0.0000005121   0.0000023793  -0.0000016522   0.0000008119   0.0000016111
       -0.0000001793  -0.0000003055   0.0000033259  -0.0000024420  -0.0000111057
        0.0000103616   0.0000071023   0.0000113905  -0.0000079007  -0.0000029632
       -0.0000030960   0.0000028288   0.0000029344   0.0000030992   0.0000012580
        0.0000009301   0.0000016040   0.0000015493   0.0000004702  -0.0000007033
        0.0000005443   0.0000001936   0.0000004061  -0.0000015300  -0.0000014168
       -0.0000019701  -0.0000012038  -0.0000012719  -0.0000142232   0.0000124689
        0.0000042535   0.0000103461   0.0000018504  -0.0000045172   0.0000138415
        0.0000149768  -0.0000344045   0.0016922438  -0.0040957539   0.0001547112
       -0.0007661840   0.0000243978   0.0009111453   0.0001591094   0.0004526722
       -0.0000324755  -0.0006000231   0.0004801957   0.0005047875  -0.0002891502
       -0.0006634105  -0.0007442166  -0.0177680531  -0.0163034888  -0.0177861452
       -0.0000295564   0.0001498756   0.0000918590  -0.0000339788   0.0000180279
        0.0000110734   0.0000235942   0.0000602791  -0.0000282834  -0.0000425848
        0.0000095155   0.0000002035   0.0000649264  -0.0000507135   0.0000101057
       -0.0002148976   0.0000476663  -0.0001171423  -0.0001367198  -0.0006895970
        0.0000614547   0.0002303930   0.0000675524  -0.0000111843  -0.0000613707
       -0.0000083816   0.0000190580   0.0000434185   0.0000117949  -0.0000061650
        0.0000003930  -0.0000080292  -0.0000088270   0.0000142804   0.0000109020
        0.0000100759  -0.0000549321  -0.0000309171  -0.0000001900   0.0180781702
       -0.0473477368  -0.0197926872   0.1123956869  -0.1475327587   0.0438295133
       -0.0918348865  -0.2295111883   0.0420830283   0.0001166759   0.0003779325
        0.0007231811   0.0004122482   0.0003816758  -0.0008006649  -0.0005099599
        0.0001557245  -0.0002021889   0.0009139762  -0.0004867800   0.0011802127
        0.0000239802  -0.0000450076  -0.0000633857   0.0000922489   0.0000146391
        0.0001424928   0.0001981260  -0.0000867242   0.0001020251   0.0000025263
       -0.0000142383   0.0000141021  -0.0000027427  -0.0000037030   0.0000050803
        0.0000058075  -0.0000011881   0.0000026009  -0.0000004841   0.0000003456
        0.0000013794  -0.0000017098   0.0000000788   0.0000000874  -0.0000007486
       -0.0000005731  -0.0000009773   0.0000007271   0.0000007587  -0.0000008527
        0.0000010740   0.0000000026   0.0000006103   0.0000013080   0.0000008746
        0.0000002438  -0.0000003027   0.0000002797   0.0000008604  -0.0000001257
        0.0000009138   0.0000020110   0.0000013550   0.0000004117   0.0000034149
        0.0000004293  -0.0000019852   0.0000009390  -0.0000008421   0.0000004346
        0.0000025013   0.0000025662  -0.0000098505   0.0000203190  -0.0001144436
       -0.0002009488   0.0000245502  -0.0007097742  -0.0012933309  -0.0008834554
       -0.0000112945  -0.0000452756   0.0000054821   0.0000225260  -0.0000338038
        0.0000081247   0.0000025147  -0.0000355334   0.0000078483  -0.0000124374
       -0.0000264602   0.0000026266   0.0000076639  -0.0000064218  -0.0000155447
       -0.0000180092  -0.0000011675   0.0000071576  -0.0000179507  -0.0000077088
       -0.0000036422  -0.0000125373  -0.0000158347  -0.0000093760   0.0000031502
       -0.0000003031  -0.0000000268
       -0.0322519706  -0.0266443668   0.4601662734  -0.0408781316  -0.0285747875
       -0.1327446739  -0.0073162740  -0.0098252779  -0.0278309643  -0.0123748338
        0.0024401245  -0.0098246916   0.0000752066  -0.0004960312   0.0000445222
       -0.0002357928  -0.0000547496   0.0003148697  -0.0001630865  -0.0000227365
        0.0000251192  -0.0004202664   0.0003457648   0.0003093057   0.0008458580
        0.0008718526  -0.0009744364   0.0001861910  -0.0007299497   0.0000028305
       -0.0001076303   0.0000051268   0.0001077791   0.0000060164  -0.0000099388
       -0.0000063795  -0.0000349586  -0.0000089174   0.0000047323   0.0000135715
       -0.0000020727  -0.0000126822  -0.0000188040  -0.0000031480   0.0000054954
        0.0000173073  -0.0000004684   0.0000009115  -0.0000089457  -0.0000048298
        0.0000005071  -0.0000003039   0.0000015500   0.0000013217   0.0000007996
        0.0000011516   0.0000032606  -0.0000008601   0.0000011147   0.0000017600
        0.0000022222   0.0000004109   0.0000006459  -0.0000005989   0.0000027337
        0.0000009004   0.0000089029   0.0000031633  -0.0000022835  -0.0000035856
        0.0000029196   0.0000086004   0.0000009671  -0.0000038954  -0.0000021561
       -0.0000052211   0.0000043336   0.0000014474   0.0000024480   0.0000022436
        0.0000061321   0.0000026477  -0.0000000196   0.0000035412   0.0000015109
       -0.0000016401   0.0000051902  -0.0000011990  -0.0000024269  -0.0000002615
        0.0000016217  -0.0000015783   0.0000018045  -0.0000045098   0.0000009535
        0.0000062673  -0.0000188770  -0.0000008678   0.0000030057   0.0000700582
       -0.0000077564  -0.0000465184   0.0004400407   0.0012080043  -0.0007121758
        0.0000380508  -0.0002665900  -0.0000635238  -0.0002910657  -0.0002970406
        0.0000907112  -0.0000017307  -0.0000682643   0.0000049344  -0.0001567722
        0.0010092934   0.0000292482  -0.0015547870  -0.0046986582   0.0032532899
        0.0000358596  -0.0000860166  -0.0000538166   0.0000681863  -0.0000069723
        0.0000034289  -0.0000083441  -0.0000103793   0.0000114900  -0.0000028703
       -0.0000016744  -0.0000088512  -0.0000015508  -0.0000459875   0.0000138381
        0.0000901729   0.0000195275   0.0000417966   0.0001528683   0.0003931862
       -0.0000861787  -0.0002074383  -0.0000894197  -0.0000165003   0.0000409020
        0.0000090864   0.0000024972  -0.0000376937  -0.0000228828  -0.0000021515
        0.0000182744   0.0000007248   0.0000010574  -0.0000193622  -0.0000009141
        0.0000021835   0.0000448987   0.0000140765  -0.0000078803   0.1161472440
       -0.0198705905  -0.1770827787  -0.0445204880   0.0435657665  -0.0599273434
        0.0220695304   0.0424924749  -0.0515444468  -0.0009861309  -0.0003582468
        0.0007218203   0.0027219177  -0.0009671632  -0.0046143021  -0.0009798768
        0.0003666182   0.0008928519  -0.0005411840   0.0000543679  -0.0006014430
       -0.0000085497  -0.0000552436  -0.0000045367   0.0000081976  -0.0000565654
       -0.0000628109  -0.0000018721   0.0000490992   0.0000120508   0.0000358122
        0.0000118433   0.0000076116   0.0000015271   0.0000049172   0.0000064314
       -0.0000012824   0.0000037461   0.0000012472  -0.0000019785   0.0000010068
        0.0000052197  -0.0000034125  -0.0000001102   0.0000045369  -0.0000039510
       -0.0000011481   0.0000008197  -0.0000006417   0.0000012924   0.0000008346
       -0.0000022534   0.0000012154   0.0000007634   0.0000017856   0.0000006118
        0.0000038685   0.0000001975   0.0000002685   0.0000047531   0.0000019933
        0.0000017743   0.0000046617   0.0000040325   0.0000026327   0.0000035678
        0.0000043468   0.0000017458   0.0000020821   0.0000054850   0.0000062662
        0.0000088362  -0.0000036837   0.0000145700   0.0000272492   0.0000793539
        0.0000795970   0.0000407485  -0.0000535688   0.0002160322   0.0000333172
       -0.0000158161   0.0000070329  -0.0000118797  -0.0000132148   0.0000120546
       -0.0000087768  -0.0000026705   0.0000175059  -0.0000079244   0.0000158788
        0.0000241538  -0.0000055224  -0.0000011398   0.0000023164  -0.0000024697
        0.0000109920   0.0000010164  -0.0000023220   0.0000024668   0.0000055812
        0.0000024263   0.0000034438   0.0000063740   0.0000035995  -0.0000096083
        0.0000101027   0.0000026857
       -0.0835882588  -0.0160041946  -0.0408781316   0.4570192628  -0.0070325964
        0.0052474696  -0.1011491265   0.0072953661   0.0506896201  -0.1231270561
        0.0553859522  -0.0212046248   0.0062212017   0.0034275799  -0.0002795912
        0.0000312499  -0.0024704091   0.0000838933  -0.0003189602   0.0009998531
       -0.0003061169  -0.0035994348  -0.0030405707  -0.0000598726  -0.0257472054
        0.0167035351  -0.0070337527   0.0036019800   0.0012858596   0.0002458734
       -0.0002837767  -0.0000084363   0.0000220342   0.0002593944   0.0000286884
       -0.0000943126  -0.0000132412  -0.0000189466  -0.0000096860   0.0000988372
        0.0000277987  -0.0000017980  -0.0000798089  -0.0000249443   0.0000018213
        0.0000644538   0.0000207676  -0.0000032429  -0.0000526657  -0.0000111424
        0.0000071333   0.0000041482   0.0000068021   0.0000022116  -0.0000013921
        0.0000057812   0.0000034923  -0.0000018480   0.0000037889   0.0000048480
       -0.0000003049  -0.0000016365  -0.0000024707   0.0000053599   0.0000046306
       -0.0000021175   0.0000110965   0.0000023881  -0.0000026004   0.0000190919
       -0.0000142503  -0.0000138178  -0.0000281228   0.0000184630   0.0000154435
        0.0000053492  -0.0000021645  -0.0000036763  -0.0000028184  -0.0000021543
       -0.0000025590  -0.0000006165  -0.0000015056  -0.0000023664   0.0000029471
        0.0000045767   0.0000017245   0.0000069550   0.0000012999  -0.0000017667
        0.0000125437   0.0000072851   0.0000018706   0.0000389245  -0.0000078132
       -0.0000118821  -0.0000157048   0.0000104663   0.0000160506   0.0002676254
        0.0000847508   0.0000614863  -0.0140442376  -0.0250496999   0.0054173627
       -0.0045125054   0.0009219354  -0.0012265213   0.0001049253  -0.0010913182
        0.0002423924  -0.0022344474   0.0025297470  -0.0014702841   0.0083247710
        0.0116424006  -0.0023231107  -0.0828535812  -0.0418465911   0.0086662941
        0.0003033333   0.0007112153  -0.0002375175   0.0002724484  -0.0000385825
        0.0000385555   0.0000327587   0.0001453665  -0.0000301960  -0.0001555466
       -0.0000482055  -0.0000075604   0.0001073068  -0.0001410602   0.0000600501
       -0.0002281553   0.0002715923  -0.0000147066   0.0001759008   0.0003915367
       -0.0000154517  -0.0002257514  -0.0001031517   0.0000080092   0.0000527112
        0.0000462778   0.0000559246  -0.0000365519  -0.0000322888  -0.0000100344
        0.0000305834   0.0000143356   0.0000010799  -0.0000283760   0.0000035930
        0.0000066046   0.0000571640   0.0000184362  -0.0000124121   0.0080520307
        0.0055083858   0.0133483892  -0.0133567689  -0.0046453100  -0.0184392096
       -0.0081119748  -0.0070281814  -0.0104215391  -0.0101513612  -0.0015039472
        0.0110485428   0.0077497253  -0.0010151308  -0.0085791728  -0.0174840778
        0.0050097129   0.0164891378  -0.0002823571  -0.0008325542   0.0004749574
        0.0002619888  -0.0007556572   0.0002084164   0.0001619788  -0.0001533619
        0.0001745698  -0.0007902182   0.0008158963  -0.0002496934  -0.0000586577
       -0.0000073270   0.0000042832   0.0000150315   0.0000007776  -0.0000060776
       -0.0000044062   0.0000029441   0.0000049960  -0.0000013503  -0.0000001933
        0.0000003229  -0.0000001954   0.0000010349  -0.0000007224  -0.0000006399
        0.0000010882  -0.0000005247  -0.0000001347   0.0000000744  -0.0000009370
       -0.0000013885  -0.0000006976  -0.0000015501  -0.0000013764   0.0000023706
        0.0000004226   0.0000007162   0.0000030918  -0.0000001427   0.0000004709
        0.0000026171  -0.0000000952   0.0000006179   0.0000027332   0.0000000285
       -0.0000005267   0.0000037681  -0.0000000613   0.0000228645   0.0000158319
        0.0000119621  -0.0000401760  -0.0000117026   0.0000194759  -0.0005412960
       -0.0010781100   0.0002549144  -0.0001856426   0.0005367830   0.0000916622
       -0.0000525897   0.0000067638  -0.0000078245  -0.0000275572   0.0000314019
       -0.0000131443  -0.0000070358   0.0000257602  -0.0000113144   0.0000263234
        0.0000623861  -0.0000105533  -0.0000005912  -0.0000346417  -0.0000286986
        0.0000152162  -0.0000076077  -0.0000073174  -0.0000019877   0.0000017011
        0.0000003154   0.0000047379   0.0000015101   0.0000059598  -0.0000122212
        0.0000073824   0.0000011575
       -0.0181126138  -0.0736829597  -0.0285747875  -0.0070325964   0.4904585040
       -0.0182944428   0.0090407710  -0.0627381671  -0.0086907603   0.0581127155
       -0.1192358399   0.0228945874   0.0174196938  -0.0270709477   0.0088251313
       -0.0030919179  -0.0030645636   0.0023762083   0.0003493233   0.0000070574
        0.0000269539  -0.0019941918   0.0002556096   0.0015151589   0.0035126508
        0.0069213072  -0.0010689789   0.0012959681  -0.0029556268   0.0000192633
       -0.0000169038  -0.0001049434   0.0000640074   0.0000648737  -0.0000535048
        0.0000104111   0.0000098014   0.0000029107  -0.0000052426   0.0000121458
        0.0000011797  -0.0000173320  -0.0000160089  -0.0000040541  -0.0000035729
        0.0000139538  -0.0000025481  -0.0000020666  -0.0000068631  -0.0000019680
       -0.0000024488   0.0000015043   0.0000019578   0.0000021301  -0.0000017574
        0.0000017641   0.0000016001  -0.0000001879  -0.0000008016   0.0000007819
        0.0000005054  -0.0000006538  -0.0000015887   0.0000026030  -0.0000001672
        0.0000002757   0.0000048379  -0.0000007879  -0.0000012088   0.0000011452
        0.0000040979   0.0000001521  -0.0000028598   0.0000035064  -0.0000015634
       -0.0000002200  -0.0000000530   0.0000007095  -0.0000007974   0.0000000929
        0.0000003244   0.0000004618  -0.0000004024  -0.0000029425  -0.0000027686
       -0.0000000891  -0.0000018053   0.0000006632   0.0000013505  -0.0000007833
       -0.0000001499  -0.0000020087   0.0000000941   0.0000034641  -0.0000005725
        0.0000022548  -0.0000133328  -0.0000036421  -0.0000060592   0.0000516777
       -0.0000474460   0.0000474266  -0.0120303338  -0.0052635586   0.0005391021
       -0.0000746006   0.0014501591   0.0009664918  -0.0002272567  -0.0009654514
        0.0003056054   0.0031498789  -0.0007166157   0.0022584954  -0.0025718344
       -0.0303358760   0.0076948445  -0.0438666507  -0.1601163689   0.0250267736
       -0.0004710228  -0.0007180712   0.0003433551   0.0000517728   0.0000047439
       -0.0000105452   0.0000201863   0.0000240876  -0.0000237156  -0.0000457183
        0.0000324026  -0.0000088877  -0.0000527250  -0.0001151991   0.0000033154
        0.0002111127  -0.0001841569   0.0000097333   0.0002743778   0.0006841609
       -0.0003747921  -0.0002650137  -0.0000929161  -0.0000445101   0.0000445612
        0.0000283821   0.0000392799  -0.0000248880  -0.0000116287   0.0000144171
        0.0000303581  -0.0000048940  -0.0000072150  -0.0000409493  -0.0000023330
        0.0000070364   0.0000647557   0.0000259516  -0.0000115593  -0.0015054255
       -0.0016240733  -0.0045634582   0.0091067403   0.0051916145   0.0149122749
       -0.0143686433  -0.0118864142  -0.0207307667  -0.0164943463   0.0004498358
        0.0199418631   0.0058592434  -0.0013826260  -0.0086585306   0.0135699902
       -0.0034282857  -0.0144370569   0.0008729911   0.0005623969  -0.0008511363
        0.0007648103  -0.0009475701   0.0003595307  -0.0000422136   0.0000161105
       -0.0004260495  -0.0005468296   0.0001589275  -0.0002483259   0.0000072015
        0.0000210735  -0.0000159566   0.0000048238   0.0000079639  -0.0000040016
       -0.0000004371   0.0000033357   0.0000019562  -0.0000003487   0.0000004979
        0.0000007214  -0.0000013951   0.0000006973   0.0000006192  -0.0000013309
       -0.0000009572   0.0000002845  -0.0000008016  -0.0000004741   0.0000000003
       -0.0000009902   0.0000010956   0.0000000970   0.0000004088   0.0000019402
        0.0000002510   0.0000008803   0.0000016526  -0.0000004280   0.0000017798
        0.0000019954  -0.0000010278   0.0000026527   0.0000005376  -0.0000011166
        0.0000021508   0.0000035199   0.0000000393  -0.0000018256   0.0000096460
        0.0000008917  -0.0000271684   0.0000110526  -0.0000145107   0.0001912987
       -0.0000095874  -0.0000579794  -0.0011094810   0.0004502012  -0.0010471190
       -0.0000487344  -0.0000240821   0.0000177515  -0.0000100198   0.0000100908
        0.0000000507  -0.0000070567   0.0000094794  -0.0000049867   0.0000192793
        0.0000028552  -0.0000045804  -0.0000173545  -0.0000279864  -0.0000158038
        0.0000129517  -0.0000088762  -0.0000073694  -0.0000030677   0.0000056294
        0.0000008561   0.0000005074   0.0000024998   0.0000077299  -0.0000118408
        0.0000058750   0.0000061742
       -0.0475782470  -0.0295515947  -0.1327446739   0.0052474696  -0.0182944428
        0.4292668836   0.0575043515  -0.0075376368  -0.1257977992  -0.0218009630
        0.0226591007  -0.0623210201  -0.0041570300   0.0075204854  -0.0031144607
        0.0002396041   0.0024318328   0.0060494323  -0.0001174759   0.0001195214
       -0.0000784165  -0.0003429555   0.0014022761   0.0060328558  -0.0036178368
       -0.0000411195   0.0014801443   0.0002989826  -0.0000160637  -0.0032430243
       -0.0000581664   0.0000445291   0.0001059590   0.0000566287   0.0000443910
        0.0000168545  -0.0000059316  -0.0000092541  -0.0000330772   0.0000147525
       -0.0000035277  -0.0000176223  -0.0000084576  -0.0000062972   0.0000029402
        0.0000025778   0.0000058669   0.0000009295  -0.0000044546  -0.0000038244
        0.0000044412   0.0000006167   0.0000022602  -0.0000015736   0.0000012183
        0.0000014311   0.0000006553  -0.0000009496  -0.0000008384  -0.0000018853
        0.0000023938  -0.0000008408  -0.0000021031   0.0000007578   0.0000018886
       -0.0000012065   0.0000007655  -0.0000004639  -0.0000016773   0.0000037753
        0.0000006029  -0.0000020548   0.0000020474  -0.0000011212   0.0000059078
       -0.0000038355   0.0000026396  -0.0000038163   0.0000001371   0.0000012387
        0.0000017113   0.0000005845  -0.0000017475  -0.0000015238  -0.0000001486
       -0.0000018085   0.0000007468  -0.0000015098  -0.0000002254  -0.0000026822
        0.0000013165  -0.0000004177  -0.0000026311  -0.0000018424  -0.0000034168
       -0.0000101961  -0.0000100649   0.0000011148  -0.0000224255  -0.0000306110
        0.0000521004   0.0000191685   0.0016973144  -0.0006201529   0.0012456375
       -0.0008739026   0.0010420354   0.0047059666   0.0000910959   0.0003096346
        0.0003210605  -0.0016733390   0.0021204257   0.0059133576   0.0014966559
        0.0090456044  -0.0034358142   0.0094531293   0.0252136263  -0.0593499652
        0.0000731690   0.0004788230   0.0005579039   0.0000298340  -0.0000293183
       -0.0000273844   0.0000159504   0.0000146962  -0.0000570502  -0.0000296916
       -0.0000147170   0.0000293242   0.0000478456  -0.0000166771  -0.0000624090
       -0.0000782899   0.0000204640  -0.0003824689   0.0001493599  -0.0003479883
       -0.0006930238  -0.0000876572  -0.0000209441  -0.0001066900  -0.0000216685
       -0.0000653809   0.0000330686   0.0000343219   0.0000202993   0.0000253984
        0.0000147898  -0.0000471284  -0.0000382439  -0.0000506084  -0.0000157710
        0.0000137948  -0.0000082186   0.0000450997   0.0000023836  -0.0096196672
       -0.0086746503  -0.0230460922  -0.0075573339  -0.0016577449  -0.0093358780
        0.0003549889  -0.0004325938   0.0026623254   0.0071059428   0.0014557979
       -0.0075912609   0.0143043394  -0.0039605992  -0.0231046294  -0.0011424696
       -0.0003245445   0.0034038989   0.0000009968  -0.0010096907  -0.0025555489
       -0.0002024019   0.0002422675   0.0001007536   0.0001765429  -0.0004449837
       -0.0014076514   0.0001399147  -0.0001071893  -0.0004614722   0.0000441463
       -0.0000221030  -0.0000406487   0.0000099178   0.0000019168  -0.0000021068
       -0.0000012527  -0.0000021771   0.0000007733  -0.0000004293  -0.0000005695
        0.0000001491  -0.0000005781   0.0000001495   0.0000003223  -0.0000015038
       -0.0000007610  -0.0000007274  -0.0000005989  -0.0000009367  -0.0000008900
       -0.0000008956   0.0000004314   0.0000000224   0.0000005057   0.0000005486
        0.0000015457   0.0000005300  -0.0000003319   0.0000003852   0.0000013181
       -0.0000003786  -0.0000006634   0.0000008773  -0.0000012913  -0.0000013339
        0.0000001302   0.0000012778   0.0000026511  -0.0000039828  -0.0000048633
       -0.0000007100  -0.0000330482  -0.0000316471  -0.0000360768  -0.0000471865
       -0.0001010510  -0.0002108338   0.0005325722  -0.0008936153  -0.0026863061
        0.0000080018   0.0000150002   0.0000303521  -0.0000011167   0.0000037709
        0.0000157771   0.0000002763   0.0000038131   0.0000153902   0.0000025797
       -0.0000039172  -0.0000305439   0.0000092174   0.0000117341  -0.0000061671
        0.0000049704   0.0000014797   0.0000068141  -0.0000000868   0.0000016485
       -0.0000029931  -0.0000035289  -0.0000055965   0.0000021373   0.0000007220
       -0.0000078698  -0.0000003700
        0.0058773151  -0.0012311199  -0.0073162740  -0.1011491265   0.0090407710
        0.0575043515   0.4886783954   0.0047511159   0.0422654081  -0.0228275623
        0.0111105205   0.0137856341  -0.0006538224  -0.0008323414   0.0012490677
       -0.0003552759  -0.0002312683  -0.0007128547   0.0000006465  -0.0000496710
       -0.0001289262  -0.0005709926  -0.0002462068  -0.0010219102  -0.0002866726
        0.0031992262   0.0001417282  -0.0000109532  -0.0006061869   0.0001486077
        0.0001838486   0.0000218600  -0.0000676510  -0.0000047568   0.0000065027
        0.0000151764   0.0000270782   0.0000219128   0.0000084756  -0.0000463029
       -0.0000178851  -0.0000178383   0.0000827758   0.0000350749   0.0000018482
       -0.0000593219  -0.0000283010  -0.0000061912   0.0000604616   0.0000094596
       -0.0000097967  -0.0000080289  -0.0000082339  -0.0000036551   0.0000109312
       -0.0000006577  -0.0000051580   0.0000012200   0.0000004463  -0.0000009648
        0.0000026405  -0.0000002874  -0.0000015364  -0.0000012468   0.0000016491
        0.0000034525  -0.0000038780   0.0000044556   0.0000053648  -0.0000402650
        0.0000024585   0.0000093301   0.0000456084  -0.0000024273  -0.0000099853
       -0.0000114926   0.0000068285   0.0000062048   0.0000081815   0.0000056683
        0.0000020364   0.0000022933   0.0000009073   0.0000010463   0.0000042133
        0.0000012799   0.0000007486  -0.0000026005  -0.0000014532  -0.0000007762
        0.0000054161  -0.0000025031  -0.0000038014  -0.0000483735  -0.0000018056
        0.0000102473   0.0000201398  -0.0000138939  -0.0000171589   0.0000047776
       -0.0000045132   0.0000219977   0.0002257707  -0.0010378749   0.0011536835
       -0.0003586271  -0.0004520639  -0.0004483675  -0.0000065965   0.0000257133
       -0.0001981404  -0.0002218983  -0.0004846193  -0.0004177302  -0.0010760386
        0.0014021890   0.0003486184  -0.0121295474  -0.0086726728   0.0134126152
       -0.0000119877   0.0001266859  -0.0000264465  -0.0000038084  -0.0000564620
        0.0000203766  -0.0000156458  -0.0000150955   0.0000015360  -0.0000067024
       -0.0000083037  -0.0000034519   0.0000137636  -0.0000011190   0.0000041753
       -0.0000810509  -0.0000314086   0.0000346425   0.0000802597  -0.0000167174
        0.0000698763  -0.0000004283  -0.0000163168   0.0000094298  -0.0000000017
        0.0000339183   0.0000192123  -0.0000005328  -0.0000084633  -0.0000064968
        0.0000078012   0.0000050859   0.0000023058  -0.0000068721   0.0000044799
        0.0000039345  -0.0000031405   0.0000006238  -0.0000036062  -0.0004107289
       -0.0010450325  -0.0029615238   0.0007045018  -0.0001940079  -0.0005683361
        0.0005408257   0.0000770484  -0.0004947349  -0.0825628536  -0.0878477234
        0.0213713310  -0.1040803435  -0.0410231414  -0.0960360342  -0.1691598920
        0.1137583998  -0.0417958385  -0.0001985035  -0.0000437070   0.0004222567
        0.0000115444  -0.0000155883   0.0000228158  -0.0000104718   0.0000525138
        0.0001655024  -0.0001529363   0.0001526142   0.0000724097   0.0000033353
       -0.0000048543  -0.0000299457  -0.0000133571  -0.0000048976   0.0000090064
        0.0000013410  -0.0000014641  -0.0000011123  -0.0000005282   0.0000019867
        0.0000021768  -0.0000037667  -0.0000027251   0.0000016665  -0.0000029150
       -0.0000037200  -0.0000006859   0.0000001092  -0.0000038543  -0.0000033046
        0.0000009290   0.0000008512   0.0000021467  -0.0000012375  -0.0000026083
       -0.0000011376  -0.0000054215   0.0000002006   0.0000013865  -0.0000033754
        0.0000027114   0.0000026175   0.0000014401   0.0000029942   0.0000009280
        0.0000021428  -0.0000008372  -0.0000017067  -0.0000281874  -0.0000093451
       -0.0000111884  -0.0000318694  -0.0000041864   0.0000065868  -0.0000347692
       -0.0000715748   0.0001017180   0.0000604748   0.0004874723  -0.0000716372