$hessian                                                                        
        0.4969467373   0.0056890260  -0.0401354177  -0.0888645445   0.0098554812
       -0.0550456527   0.0059060789  -0.0022358103   0.0111037334  -0.0195466642
        0.0120963947  -0.0144927959  -0.0006194642  -0.0011004486  -0.0012142016
       -0.0005552283  -0.0000679658   0.0007148294   0.0000318070   0.0000231093
        0.0000645873  -0.0006864083  -0.0001419529   0.0008049784   0.0000618972
        0.0030166726   0.0001098012  -0.0002866891  -0.0004142529  -0.0002330567
        0.0001848174   0.0000344015  -0.0000192326   0.0000478801  -0.0000134922
       -0.0000036813  -0.0000281616  -0.0000111204  -0.0000047794   0.0000523985
        0.0000233497  -0.0000165262   0.0000302347  -0.0000322600   0.0000770742
        0.0000000882  -0.0000082131   0.0000075903  -0.0001640451  -0.0000534717
        0.0000143773   0.0000494745   0.0000085702   0.0000093288  -0.0000005126
        0.0000010467  -0.0000002286   0.0000154186  -0.0000016118   0.0000072386
       -0.0000020594   0.0000001386  -0.0000034778   0.0000112906   0.0000002824
        0.0000066378   0.0000025302   0.0000032332  -0.0000050422   0.0004133094
        0.0000995644  -0.0000016883  -0.0001008259  -0.0001183651   0.0001381176
        0.0000010148   0.0000024405  -0.0000044851   0.0000028239  -0.0000028114
       -0.0000016598  -0.0000046812   0.0000011468  -0.0000049490   0.0000026606
       -0.0000031266   0.0000004517   0.0000056390   0.0000028152  -0.0000047769
        0.0000035773  -0.0000018450   0.0000027001  -0.0002618276   0.0000967929
       -0.0002380414  -0.0000248997  -0.0000047409   0.0000069266  -0.0000038389
        0.0000218683  -0.0000129807   0.0007302785  -0.0013732362  -0.0008832414
       -0.0006011188  -0.0005480232   0.0003110428   0.0003794154   0.0002678346
        0.0001424776  -0.0006188593  -0.0009291899   0.0003728496  -0.0010140691
        0.0019898440  -0.0003651969  -0.0125949468  -0.0081494360  -0.0149747238
       -0.0000438240   0.0004611616   0.0001237339   0.0001098013  -0.0001862348
       -0.0000455962   0.0001004455   0.0001997319   0.0000548890  -0.0002833371
       -0.0000680923  -0.0000193029   0.0001284306  -0.0001962069  -0.0000430672
       -0.0004914597   0.0001588914  -0.0000359979   0.0002041594  -0.0004999855
       -0.0001427912   0.0000108294  -0.0000114509  -0.0000162959  -0.0000049982
        0.0000125512   0.0000217552   0.0000089381   0.0000036074   0.0000032095
       -0.0000048566   0.0000021372   0.0000008041  -0.0000075758  -0.0000021958
       -0.0000014478  -0.0000016663  -0.0000066699  -0.0000028467  -0.1563483802
        0.1190731553   0.0278095257  -0.0948982076  -0.0972793446  -0.0259765088
       -0.1274777662  -0.0389861506   0.1084633526   0.0006593265   0.0001235221
        0.0004314259  -0.0009603853  -0.0010045963   0.0032640438   0.0007618100
       -0.0002070683   0.0004399324  -0.0001102790  -0.0001389208  -0.0003679448
        0.0000071950   0.0000015029  -0.0000588539   0.0000018528   0.0000455265
       -0.0001342743  -0.0001357105   0.0001335529   0.0000493587  -0.0000446570
        0.0000013438  -0.0000212597  -0.0000317976  -0.0000061771   0.0000068755
       -0.0000013873  -0.0000048368   0.0000076814  -0.0000052759  -0.0000068405
        0.0000037352  -0.0000054428  -0.0000016612  -0.0000019715  -0.0000040041
        0.0000018720  -0.0000052183   0.0000001027   0.0000031716  -0.0000039764
       -0.0000014513   0.0000033461  -0.0000042957  -0.0000031668   0.0000006305
       -0.0000043925  -0.0000039473  -0.0000017469  -0.0000018714  -0.0000043317
       -0.0000026086  -0.0000015062  -0.0000033852  -0.0000029720  -0.0000001119
       -0.0000005868  -0.0000002811  -0.0000031870  -0.0000089844  -0.0000048051
        0.0000020064  -0.0000005958  -0.0000145512   0.0000389868  -0.0000645725
       -0.0001115550  -0.0000442404   0.0000403335   0.0004736049   0.0000067493
       -0.0000034045   0.0000376271   0.0000155308   0.0000100809  -0.0000012842
        0.0000003613   0.0000081219   0.0000006904   0.0000007019   0.0000113871
       -0.0000003817  -0.0000036704   0.0000019681  -0.0000073861  -0.0000211607
       -0.0000037796  -0.0000043421  -0.0000020313  -0.0000065368  -0.0000040629
       -0.0000066766  -0.0000014789  -0.0000021600  -0.0000064687   0.0000019226
        0.0000043040   0.0000033998
        0.0056890260   0.5272263684   0.0127659987   0.0079910266  -0.0627484077
        0.0107754547   0.0029858550  -0.0005550965   0.0087990915   0.0157652123
       -0.0052999616   0.0146653749   0.0003948130  -0.0014133282  -0.0000499016
       -0.0004509217   0.0008910352  -0.0002887717   0.0005712050   0.0001373853
        0.0000290680   0.0006222405  -0.0000556916  -0.0008402173   0.0004647780
       -0.0029000203   0.0000311380   0.0000295021   0.0011173886   0.0003991911
       -0.0000954051   0.0000256426  -0.0000565349   0.0000334929   0.0000688739
        0.0000203613   0.0000006721   0.0000208692  -0.0000117969   0.0000299102
       -0.0000005252  -0.0000009687  -0.0000348348  -0.0000068302  -0.0000208876
        0.0000241995  -0.0000068190   0.0000321734  -0.0000220594   0.0000016936
       -0.0000013339   0.0000288299  -0.0000140530   0.0000248498  -0.0000193441
        0.0000029965  -0.0000082883   0.0000089275  -0.0000036701   0.0000126029
       -0.0000056591   0.0000068266  -0.0000051854   0.0000101785  -0.0000008228
        0.0000089218  -0.0000136858   0.0000092064  -0.0000134582   0.0000002436
       -0.0000139005   0.0000110784  -0.0000026410   0.0000251762  -0.0000403887
       -0.0000016485  -0.0000024868   0.0000051446   0.0000050182   0.0000005710
        0.0000019817   0.0000023546  -0.0000017680   0.0000018752   0.0000012545
       -0.0000012526  -0.0000021840  -0.0000028502  -0.0000019793  -0.0000000145
       -0.0000014316   0.0000003151  -0.0000033038   0.0000112750   0.0000020516
        0.0000106852  -0.0000260892  -0.0000026674   0.0000163259   0.0000259018
       -0.0000389972   0.0000469042  -0.0005968351  -0.0032973379  -0.0014771159
       -0.0006336842  -0.0003755903   0.0004810203  -0.0005302064   0.0003036452
        0.0000981355   0.0001859275   0.0005931769   0.0008495431  -0.0001826467
       -0.0014239398  -0.0009819098  -0.0150805158  -0.0007415858  -0.0183197150
       -0.0000316910  -0.0001332348  -0.0000438596  -0.0001009438   0.0001659621
        0.0000469780  -0.0000651758  -0.0002083354  -0.0000386868   0.0003605292
        0.0000403550   0.0000259503  -0.0001929431   0.0002859952   0.0000704847
        0.0002330759  -0.0001862866  -0.0001423042  -0.0003937484  -0.0001143546
       -0.0000834822   0.0001834032   0.0000539795   0.0000072831  -0.0000387922
       -0.0000336446   0.0000036693   0.0000466391   0.0000074974  -0.0000001996
        0.0000023107  -0.0000015098  -0.0000143497   0.0000087484   0.0000010168
        0.0000125682  -0.0000477492   0.0000068156   0.0000150178   0.1188076468
       -0.1669220415  -0.0275637892  -0.0971613083  -0.2204908778  -0.0499230956
       -0.0389572978  -0.0624138602   0.0495098146   0.0006453152   0.0003141233
        0.0003919618  -0.0007747457   0.0000073056   0.0017355697  -0.0000586602
        0.0002294615  -0.0005557855   0.0010461108  -0.0009769726   0.0008085944
        0.0000101403   0.0000001751   0.0000642085   0.0000827104  -0.0000287492
        0.0001320821   0.0001451189  -0.0001229095  -0.0000877332  -0.0000125272
       -0.0000214352  -0.0000175355  -0.0000014103  -0.0000070648  -0.0000055643
        0.0000000919   0.0000042936  -0.0000082397   0.0000022757   0.0000013756
       -0.0000006778  -0.0000022036   0.0000012056  -0.0000006388  -0.0000018269
        0.0000024033  -0.0000014474   0.0000003224   0.0000056154  -0.0000021183
        0.0000045467   0.0000010285   0.0000000451   0.0000004744  -0.0000000752
       -0.0000025762  -0.0000028929  -0.0000013219  -0.0000012969  -0.0000019262
       -0.0000029239  -0.0000007268  -0.0000004896  -0.0000027294  -0.0000016693
       -0.0000026539  -0.0000013520  -0.0000041142  -0.0000098438   0.0000060082
       -0.0000056008  -0.0000058337  -0.0000033624  -0.0000210531  -0.0000862666
       -0.0002150734   0.0000342115  -0.0007446104  -0.0006380282  -0.0011884883
       -0.0000117470  -0.0000358451  -0.0000208924   0.0000103512  -0.0000295037
       -0.0000094515   0.0000011968  -0.0000281745  -0.0000182209  -0.0000162936
       -0.0000194676  -0.0000092118  -0.0000012778  -0.0000000514  -0.0000227259
       -0.0000188568  -0.0000043066   0.0000043741  -0.0000175913  -0.0000021536
       -0.0000082443  -0.0000139597  -0.0000095985  -0.0000157415   0.0000028735
       -0.0000058635  -0.0000082361
       -0.0401354177   0.0127659987   0.4558482299  -0.0463413318   0.0114022611
       -0.1320156294  -0.0099914874   0.0062239235  -0.0283536843  -0.0047202101
        0.0053152164   0.0018025729   0.0002167699  -0.0016989318  -0.0002109500
       -0.0007961561   0.0004453946   0.0001484262   0.0003096238   0.0001465236
        0.0001257727  -0.0000409485   0.0000590772  -0.0000044295   0.0014261288
       -0.0001970410  -0.0008248931  -0.0003764811   0.0000994436  -0.0001461137
        0.0000149112  -0.0000843477   0.0002783298  -0.0000122208   0.0000240957
       -0.0000567805  -0.0001178230  -0.0000230786  -0.0000244961   0.0000947012
        0.0000637428  -0.0000744893   0.0001270038  -0.0000258160   0.0000991256
        0.0000169917   0.0000177481  -0.0000275802  -0.0001343897   0.0000144780
       -0.0000965861   0.0000154506   0.0000376926  -0.0000445340   0.0000122411
       -0.0000156132   0.0000353972  -0.0000133932   0.0000101711  -0.0000184786
       -0.0000001818  -0.0000061441   0.0000088903  -0.0000062465   0.0000110391
       -0.0000142497   0.0000525639   0.0000160400   0.0000001223   0.0004821413
        0.0000755272   0.0000592962  -0.0001114131  -0.0002717087   0.0003801956
       -0.0000027550   0.0000137854  -0.0000269204  -0.0000210580  -0.0000051447
       -0.0000018762  -0.0000235404   0.0000064896  -0.0000131582  -0.0000066969
       -0.0000028792   0.0000036634   0.0000192652  -0.0000027264  -0.0000043674
        0.0000180634  -0.0000042052   0.0000097954  -0.0004257531   0.0001516718
       -0.0003765513  -0.0000706574  -0.0000305303   0.0000367579   0.0000876330
        0.0000602953  -0.0000477462   0.0013209642  -0.0002208887  -0.0011373695
       -0.0003571434  -0.0005830660   0.0001877618   0.0001012405   0.0001624452
        0.0001549737  -0.0005098232  -0.0004711268   0.0002024004  -0.0003506969
        0.0011018115   0.0002042260  -0.0104860880  -0.0070569357  -0.0096550722
       -0.0000318539   0.0003957366   0.0000683240   0.0001749917  -0.0001342084
       -0.0000308621   0.0001181354   0.0002085925   0.0000637599  -0.0002471894
       -0.0000648700  -0.0000236119   0.0000905134  -0.0001802660  -0.0000336209
       -0.0004175017   0.0001394386  -0.0000038302   0.0001456981  -0.0003817542
       -0.0001385844  -0.0000169904  -0.0000228654  -0.0000103405  -0.0000034870
        0.0000076197   0.0000065805  -0.0000072864   0.0000019236  -0.0000062198
       -0.0000084416  -0.0000022129  -0.0000064213  -0.0000052404  -0.0000030618
       -0.0000058530   0.0000112156  -0.0000119065  -0.0000073796   0.0281712072
       -0.0276879412  -0.0479451931  -0.0255994705  -0.0497754152  -0.0559919021
        0.1082765046   0.0495256299  -0.1789558068  -0.0008663444  -0.0006111882
        0.0009102625   0.0023306322   0.0015889724  -0.0046817729  -0.0010526685
        0.0000061349   0.0008331854   0.0000012194  -0.0002076682   0.0000069838
       -0.0000057772  -0.0000092539  -0.0000457600   0.0000313377  -0.0000195279
        0.0000024458   0.0000734121  -0.0000107156  -0.0000329932   0.0000309160
        0.0000096814  -0.0000064884  -0.0000044299  -0.0000103663   0.0000203044
       -0.0000061095  -0.0000261758   0.0000409620  -0.0000202731  -0.0000121006
        0.0000001329   0.0000094261   0.0000022817   0.0000046473   0.0000047936
       -0.0000015791   0.0000055134   0.0000002484  -0.0000079700   0.0000104620
       -0.0000212228  -0.0000047462  -0.0000018964  -0.0000139370  -0.0000030104
        0.0000047491   0.0000077688   0.0000009774  -0.0000037272   0.0000025968
        0.0000042112  -0.0000086849  -0.0000037716   0.0000032347  -0.0000080004
        0.0000059494  -0.0000075511   0.0000082419   0.0000250591  -0.0000120462
        0.0000223829  -0.0000022767  -0.0000232945   0.0000519157  -0.0000112088
       -0.0000425936  -0.0000156134  -0.0004193122  -0.0001591315  -0.0005030385
       -0.0000211512  -0.0000049828  -0.0000152501  -0.0000060540  -0.0000001091
        0.0000024013  -0.0000025523   0.0000040102   0.0000023076   0.0000118550
        0.0000060605  -0.0000004478   0.0000146397   0.0000060589  -0.0000037343
        0.0000042438  -0.0000033901   0.0000023566  -0.0000036557  -0.0000013695
       -0.0000006476  -0.0000003169   0.0000011719  -0.0000006835  -0.0000076215
        0.0000068480   0.0000104643
       -0.0888645445   0.0079910266  -0.0463413318   0.4499724476  -0.0073337162
       -0.0015682395  -0.0914410603  -0.0152492173   0.0456106431  -0.1155921339
        0.0556328472   0.0132789449   0.0071600336   0.0043184176   0.0010207698
        0.0020352987  -0.0037383603  -0.0010735826  -0.0014497113  -0.0001662121
       -0.0000370086  -0.0040620368  -0.0014763491  -0.0004595374  -0.0263000800
        0.0175013323   0.0043221832   0.0045994824   0.0021618432   0.0006782676
       -0.0003119251   0.0000453054  -0.0000438520   0.0000520995   0.0000433586
        0.0000673661   0.0002650571   0.0000270028   0.0001050067  -0.0002118804
       -0.0001390767   0.0001477709  -0.0002246355  -0.0000852514   0.0000519895
       -0.0000998268  -0.0000615299   0.0000849951   0.0003897326   0.0000102557
        0.0002413543  -0.0001010287  -0.0000736127   0.0000576948  -0.0000227695
       -0.0000194449  -0.0000164059   0.0000201519  -0.0000207158   0.0000280208
        0.0000022395   0.0000233488  -0.0000412389   0.0000112363  -0.0000228589
        0.0000069818  -0.0000548597  -0.0000385772   0.0000351657  -0.0011967623
       -0.0001082987  -0.0002413295   0.0005844705   0.0006033712  -0.0006077949
        0.0000337969  -0.0000201810   0.0000189412   0.0000234521   0.0000113244
       -0.0000042559   0.0000612971  -0.0000068850  -0.0000030391   0.0000123661
        0.0000041284  -0.0000110402  -0.0000444709   0.0000040894   0.0000017619
       -0.0000358929   0.0000494349  -0.0000346117   0.0006710741  -0.0001761902
        0.0004558893   0.0002072047   0.0000395080  -0.0000197433   0.0001101646
       -0.0000613735  -0.0000139894  -0.0191437865  -0.0254000210  -0.0069922443
       -0.0041113336   0.0028265506   0.0005262549  -0.0018991577  -0.0024648745
       -0.0007701049   0.0000874619   0.0061328560   0.0014641777   0.0094201493
        0.0051086835   0.0015749167  -0.0870545075  -0.0429658174  -0.0111062577
        0.0006074271  -0.0015914932  -0.0004517390  -0.0006345820   0.0008355136
        0.0002154587  -0.0006991630  -0.0012567929  -0.0003132210   0.0015215733
        0.0002838921   0.0001299674  -0.0006117937   0.0010177933   0.0002349627
        0.0023381518  -0.0005818328  -0.0000158214  -0.0006788052   0.0030587231
        0.0007442477  -0.0002048445  -0.0000122562  -0.0000052017   0.0000865023
       -0.0000840920  -0.0000025861   0.0000170416  -0.0000260264   0.0000040674
        0.0000504176   0.0000090025  -0.0000190318  -0.0000022553   0.0000109738
        0.0000209261   0.0000781524   0.0000821998   0.0000553143  -0.0145024865
        0.0053470594  -0.0170498501  -0.0100432888  -0.0005762817  -0.0130429613
        0.0080238900  -0.0017491337   0.0111770036  -0.0108336015  -0.0067847819
        0.0114060288   0.0080174974   0.0035634624  -0.0099280187  -0.0148127189
       -0.0030973044   0.0169939242  -0.0002275598  -0.0006978505  -0.0001727663
        0.0003196977  -0.0008561900  -0.0001757745   0.0001005089  -0.0001848185
       -0.0000196638  -0.0007602520   0.0007973168   0.0002349989  -0.0000670633
       -0.0000494106   0.0000394316   0.0000149373   0.0000148692  -0.0000637634
        0.0000113435   0.0000749801  -0.0000867189   0.0000960697   0.0000485052
       -0.0000014814  -0.0000055629   0.0000061588  -0.0000280116   0.0000127437
        0.0000002096  -0.0000034130   0.0000026700  -0.0000008161  -0.0000048287
        0.0000496220   0.0000164860   0.0000035153   0.0000490104   0.0000088333
       -0.0000264555  -0.0000092235  -0.0000152966   0.0000141720   0.0000022378
       -0.0000207996   0.0000175724   0.0000128472  -0.0000114071   0.0000139357
       -0.0000025641   0.0000102326  -0.0000138608  -0.0000291272   0.0000366612
       -0.0000280810  -0.0000884137   0.0000163651  -0.0000470084  -0.0004903661
       -0.0010012415  -0.0002568201  -0.0001541064   0.0003940632   0.0001214076
        0.0000091796   0.0000209723   0.0000137533   0.0000029352   0.0000116035
       -0.0000052935   0.0000219936  -0.0000126521  -0.0000266611  -0.0000156385
        0.0000543147   0.0000085218  -0.0000239145  -0.0000033958  -0.0000433777
       -0.0000160399   0.0000173558   0.0000103992  -0.0000240260  -0.0000052106
       -0.0000025527  -0.0000026087  -0.0000120801  -0.0000150880  -0.0000032570
       -0.0000125040  -0.0000030459
        0.0098554812  -0.0627484077   0.0114022611  -0.0073337162   0.4936159620
        0.0205317100  -0.0175498738  -0.0686584777   0.0214547302   0.0622173127
       -0.1315614132  -0.0192469623   0.0153424140  -0.0287209289  -0.0070539382
       -0.0029343895  -0.0028337167  -0.0023502758   0.0002476592  -0.0002711580
        0.0000398973  -0.0018149905   0.0008259485  -0.0011394194   0.0056374965
        0.0044989824   0.0002366608   0.0007073980  -0.0019481398   0.0002603674
        0.0000122016  -0.0002001701   0.0002092105  -0.0000682646  -0.0000613467
       -0.0000101545   0.0000390030  -0.0000238426   0.0000649459  -0.0000683885
       -0.0000231253   0.0000226586   0.0000180834  -0.0000341472   0.0000634931
       -0.0000752129  -0.0000080749  -0.0000220511   0.0000100383  -0.0000707268
        0.0001242333  -0.0000412949   0.0000079799  -0.0000313961   0.0000350036
        0.0000084099   0.0000039732   0.0000014323   0.0000051629  -0.0000057306
        0.0000096893  -0.0000010675   0.0000067509  -0.0000144167  -0.0000049811
       -0.0000037875  -0.0000086109  -0.0000306387   0.0000347161   0.0000444052
        0.0000705106  -0.0000900170  -0.0000246718   0.0000423004  -0.0000473443
        0.0000070269  -0.0000019737  -0.0000003486   0.0000021187   0.0000040832
       -0.0000017591   0.0000060876  -0.0000003534  -0.0000005702   0.0000022220
        0.0000003530  -0.0000004391  -0.0000025309  -0.0000015138   0.0000000763
       -0.0000023087   0.0000015072  -0.0000019098   0.0000345753   0.0000133376
       -0.0000138505   0.0000562887   0.0000087145  -0.0000031175   0.0000419368
       -0.0000379661  -0.0000708951  -0.0110612229  -0.0029998116  -0.0017473458
        0.0007572782   0.0017754571  -0.0005055285  -0.0006139846  -0.0012132847
       -0.0003387875   0.0038311340  -0.0004322302  -0.0017608417  -0.0050696115
       -0.0323949012  -0.0079554603  -0.0491486624  -0.1553483463  -0.0267101981
       -0.0004354593  -0.0013109136  -0.0005200145  -0.0002398840   0.0002641462
        0.0000621855  -0.0001739651  -0.0003706047  -0.0000855049   0.0003933325
        0.0000869535   0.0000286224  -0.0002600065   0.0002273849   0.0000586001
        0.0008319016  -0.0004646742   0.0000443372  -0.0000376047   0.0012349484
        0.0004713258  -0.0001051764  -0.0000308145   0.0000162707   0.0000425803
        0.0000215506   0.0000149729  -0.0000190019  -0.0000145936   0.0000066241
        0.0000032881   0.0000091925   0.0000083632   0.0000019680   0.0000030593
       -0.0000031038   0.0000512148   0.0000113797  -0.0000022137   0.0131881340
       -0.0044951566   0.0170312460  -0.0138226704   0.0012761721  -0.0200868710
        0.0040913359  -0.0013313778   0.0074789889  -0.0160321724  -0.0094832910
        0.0189838408  -0.0024123203  -0.0015034017   0.0047210041   0.0117070835
        0.0041278734  -0.0154027858   0.0008189849   0.0005662358   0.0008682609
        0.0006980990  -0.0009196508  -0.0002786806  -0.0000687434   0.0000339571
        0.0003563425  -0.0004173730   0.0002001325   0.0000485714  -0.0000389604
        0.0000156272   0.0000076830  -0.0000025545   0.0000096010  -0.0000097097
        0.0000008349   0.0000101645  -0.0000105537   0.0000097691   0.0000034563
        0.0000021959  -0.0000025378   0.0000015481  -0.0000033715  -0.0000001163
        0.0000010578  -0.0000019918   0.0000006976   0.0000028013  -0.0000024365
        0.0000105940   0.0000063715  -0.0000017956   0.0000056899   0.0000009843
       -0.0000027441  -0.0000016643  -0.0000010716   0.0000013858  -0.0000006369
       -0.0000015356   0.0000015203   0.0000000048  -0.0000011353   0.0000011174
       -0.0000015870   0.0000030902  -0.0000022199   0.0000109266   0.0000124596
        0.0000043360   0.0000051928   0.0000227161   0.0000116653   0.0002010423
        0.0000824004  -0.0000184037  -0.0010343535   0.0004895457   0.0008909912
       -0.0000228021  -0.0000178972  -0.0000053066  -0.0000083114  -0.0000027426
       -0.0000051934   0.0000021345   0.0000005140  -0.0000037385   0.0000099722
       -0.0000112320   0.0000026908  -0.0000164933  -0.0000141449  -0.0000286063
        0.0000005162   0.0000024458  -0.0000023779  -0.0000073079  -0.0000005257
       -0.0000000643   0.0000017004   0.0000001090  -0.0000020683  -0.0000094306
       -0.0000010806   0.0000130580
       -0.0550456527   0.0107754547  -0.1320156294  -0.0015682395   0.0205317100
        0.4193739661   0.0541807029   0.0222984691  -0.1234213203   0.0145270225
       -0.0191813818  -0.0572399865   0.0039266892  -0.0070473265  -0.0022099539
       -0.0006580561  -0.0025401126   0.0061112211   0.0000110141  -0.0000293559
       -0.0004605607  -0.0003781345  -0.0013058758   0.0054410288   0.0018123537
        0.0005368730   0.0037411832   0.0002638930   0.0001270485  -0.0033130632
       -0.0000238210   0.0002355754  -0.0009006926   0.0002024532  -0.0000552643
        0.0001032865   0.0000316039   0.0000682811  -0.0000946372  -0.0000051450
        0.0000033258  -0.0000244403   0.0000211525  -0.0000447146   0.0000569779
       -0.0000054471  -0.0000040840   0.0000036802   0.0000359811   0.0000399363
       -0.0000552543   0.0000030544  -0.0000011138   0.0000053732  -0.0000141592
       -0.0000062913   0.0000029995  -0.0000032583  -0.0000001223  -0.0000002646
       -0.0000026425   0.0000018541  -0.0000030528   0.0000049324  -0.0000004839
       -0.0000003171   0.0000072809   0.0000090444  -0.0000107432  -0.0000708598
       -0.0000095595  -0.0000052179   0.0001809227  -0.0000178686   0.0001020001
       -0.0000004433  -0.0000011970  -0.0000055589  -0.0000061186  -0.0000020923
        0.0000044337  -0.0000017210   0.0000000506  -0.0000026356  -0.0000032276
        0.0000002497   0.0000018211   0.0000020742   0.0000004012  -0.0000051568
        0.0000007698   0.0000019377  -0.0000025288  -0.0001061214   0.0000423540
       -0.0001050774  -0.0000359907   0.0000472452  -0.0000691983  -0.0001969451
       -0.0001077619   0.0000658691  -0.0039049361  -0.0019176601   0.0021111756
       -0.0001119654  -0.0005222952   0.0039735226  -0.0000738702  -0.0003724738
       -0.0002406316   0.0007622792  -0.0020588459   0.0063993293  -0.0011312242
       -0.0074595912  -0.0028622392  -0.0122272945  -0.0267673096  -0.0584402610
       -0.0001616951  -0.0003842757   0.0004985119  -0.0000233740   0.0000436201
        0.0000128289  -0.0000363249  -0.0000875220  -0.0000447358   0.0001324522
        0.0000055210   0.0000449195  -0.0000972704   0.0001067007  -0.0000205218
        0.0002187021  -0.0000287188  -0.0004687030   0.0001065472   0.0005526692
       -0.0004349786  -0.0001658140   0.0000095943  -0.0001207959  -0.0000021092
       -0.0000639580   0.0000232099   0.0000332609  -0.0000029884   0.0000260873
        0.0000166370  -0.0000154927  -0.0000500924  -0.0000512049  -0.0000197010
        0.0000095898   0.0000172614   0.0000466411   0.0000235268  -0.0010856296
        0.0008200187   0.0009857389  -0.0072799783  -0.0009451928  -0.0089668360
       -0.0117275722   0.0042338452  -0.0232336093  -0.0004955397   0.0003033831
        0.0024258631   0.0129973443   0.0075004302  -0.0230347128   0.0071721740
        0.0007880802  -0.0073014264   0.0001938562   0.0008772122  -0.0026352569
        0.0001790170  -0.0002629950   0.0000103140  -0.0000441353   0.0003852641
       -0.0013444286  -0.0001421561  -0.0000015251   0.0001433809   0.0000384300
        0.0000130976  -0.0000212775   0.0000106807   0.0000154314   0.0000087822
        0.0000003140  -0.0000002296   0.0000041759   0.0000004022   0.0000002338
        0.0000007751   0.0000008795  -0.0000002724   0.0000013741   0.0000004281
       -0.0000000226   0.0000017943  -0.0000006705  -0.0000013986   0.0000020054
       -0.0000030509  -0.0000013783   0.0000035082  -0.0000014728   0.0000002010
       -0.0000001140   0.0000011498  -0.0000004739   0.0000005066   0.0000011180
        0.0000004241  -0.0000006947   0.0000003538   0.0000009005  -0.0000008731
       -0.0000024251  -0.0000010660   0.0000033995  -0.0000364191   0.0000077974
        0.0000041094  -0.0000331052   0.0000018880  -0.0000176360   0.0000904814
       -0.0000842353   0.0003955104  -0.0002135397   0.0009287131  -0.0029051435
       -0.0000034617  -0.0000023588  -0.0000035771  -0.0000026310  -0.0000025616
        0.0000077493   0.0000013623  -0.0000007418   0.0000018089   0.0000070556
        0.0000076704  -0.0000338467  -0.0000032726   0.0000012020  -0.0000132916
        0.0000073526  -0.0000024508   0.0000032450  -0.0000046643   0.0000040334
       -0.0000012580  -0.0000027852  -0.0000071451   0.0000007063  -0.0000058645
       -0.0000048977   0.0000009415
        0.0059060789   0.0029858550  -0.0099914874  -0.0914410603  -0.0175498738
        0.0541807029   0.4946802270  -0.0141585683   0.0385962790  -0.0198593160
        0.0039576437   0.0180790794  -0.0005122299  -0.0016913382   0.0005400642
       -0.0006387182   0.0003231220  -0.0006421287   0.0000628617   0.0001045123
       -0.0000399211  -0.0007250578   0.0002376818  -0.0007633111  -0.0001398781
        0.0026686410   0.0013354121  -0.0003033074  -0.0003492213  -0.0000044555
        0.0001775437  -0.0000005919   0.0000548677   0.0000041580  -0.0000081871
        0.0000016545  -0.0000353374  -0.0000124108  -0.0000082094   0.0000589828
        0.0000397010  -0.0000422961   0.0000267124  -0.0000296316   0.0000737983
        0.0000035114  -0.0000107058   0.0000129714  -0.0001708620  -0.0000571958
        0.0000211402   0.0000515688   0.0000063330   0.0000111867  -0.0000002016
        0.0000004020   0.0000004246   0.0000156893  -0.0000031796   0.0000085785
       -0.0000015287   0.0000003280  -0.0000046535   0.0000110626  -0.0000022144
        0.0000066448   0.0000017107   0.0000009109  -0.0000059518   0.0004305334
        0.0001006301  -0.0000023112  -0.0001245202  -0.0001168122   0.0001384030
       -0.0000001137   0.0000027581  -0.0000027271   0.0000023497  -0.0000019868
       -0.0000004554  -0.0000044441   0.0000043532  -0.0000048813   0.0000025126
       -0.0000001897   0.0000014969   0.0000061191   0.0000026171  -0.0000012944
        0.0000050836   0.0000003298   0.0000017464  -0.0002609587   0.0000987708
       -0.0002464975  -0.0000305503  -0.0000113943   0.0000088490   0.0000543085
        0.0000176319  -0.0000023690   0.0010106640  -0.0016468664   0.0002246963
       -0.0005495407  -0.0003554366  -0.0005819860   0.0003548601   0.0003223403
        0.0000473766  -0.0005789023  -0.0005742137  -0.0007698945  -0.0010441495
        0.0016224733   0.0012677835  -0.0132920122  -0.0144061824   0.0090947472
       -0.0000330135   0.0004432193   0.0001246262   0.0001027741  -0.0001835702
       -0.0000448338   0.0001003309   0.0002027729   0.0000485459  -0.0002936385
       -0.0000649518  -0.0000280196   0.0001369943  -0.0002082605  -0.0000460054
       -0.0004948948   0.0001446313   0.0000626877   0.0001883166  -0.0005306448
       -0.0001045173   0.0000318934  -0.0000221082   0.0000114842  -0.0000024832
        0.0000312281   0.0000296296  -0.0000035014   0.0000023781  -0.0000045484
       -0.0000075926   0.0000019212   0.0000055340  -0.0000004219   0.0000005102
       -0.0000047408  -0.0000050178  -0.0000134813  -0.0000077927   0.0008053428
        0.0000302476  -0.0004825290   0.0006085072   0.0003016525  -0.0003374534
       -0.0008174699   0.0006220067  -0.0032462193  -0.0992031119  -0.1001063538
       -0.0263226726  -0.1226631718   0.0197343438  -0.1116267146  -0.1512441938
        0.1180414873   0.0307249295  -0.0001094565  -0.0003305323   0.0002620283
        0.0000088363  -0.0000278258   0.0000529863   0.0000070000  -0.0000285391
        0.0001405009  -0.0001253916   0.0001469621   0.0000476844  -0.0000090512
        0.0000191794  -0.0000386530  -0.0000235265  -0.0000065394   0.0000030349
       -0.0000036783  -0.0000048487   0.0000074459  -0.0000048053  -0.0000067055
        0.0000050106  -0.0000059067  -0.0000025364  -0.0000006911  -0.0000051093
        0.0000002609  -0.0000051237  -0.0000016947   0.0000018983  -0.0000054225
       -0.0000022434   0.0000026878  -0.0000044797  -0.0000033443   0.0000018270
       -0.0000030838  -0.0000032943   0.0000002917   0.0000003949  -0.0000022062
        0.0000006323   0.0000007165  -0.0000014624   0.0000014264   0.0000000132
        0.0000029121   0.0000008837   0.0000006383  -0.0000120370  -0.0000072266
       -0.0000002192  -0.0000383792  -0.0000075036   0.0000237952  -0.0000817666
       -0.0001078554  -0.0000594517   0.0000278315   0.0003998943   0.0002289602