154
 energy: -221.974137712443 gnorm: 0.000130137071 xtb: 6.7.1 (edcfbbe)
C            3.42638190454617       -0.87497153734185       -5.39074073935761
C            2.62772050052066       -0.94088871609780       -4.08144593829872
C            2.90285185488254       -2.27107583419507       -3.36579620622148
C            1.13472789297011       -0.88940652300916       -4.41750645396742
C            3.05665010727101        0.20185946089311       -3.17491152513308
C            4.36915541022678        0.22041898533749       -2.68521171246509
C            4.82098230388312        1.17258399411929       -1.79410748476023
C            3.91908772020138        2.13602795142563       -1.36845440780634
C            2.62312800994791        2.19653504634087       -1.91758281635309
C            2.19326872589373        1.22512858564532       -2.80723193840360
C            1.97430467264086        3.32367471584573       -1.29932647156624
C            0.70343539904682        3.86265664415708       -1.41606836248037
C            0.34171187919117        4.94596465907736       -0.62654746679361
C           -1.03762866023789        5.58227108633965       -0.69746470222834
C           -1.98244283461254        4.83681771600224       -1.64467143272836
C           -1.66770635858315        5.58634699184146        0.70247029936170
C           -0.89127232124577        7.02588075480918       -1.20082562409319
C            1.28300495654634        5.46698886019693        0.27147419721369
C            2.55257259215426        4.94394356388600        0.41417998732648
C            2.90290409801831        3.86644384424103       -0.38459947447276
N            4.07324180440982        3.13738988255522       -0.42883626775514
C            5.10918606434380        3.20320467973863        0.51172191505430
C            5.81305513369842        4.38795887844622        0.69262387353348
C            6.85318566366376        4.45035998251595        1.60261035465792
C            7.21591801919085        3.32469849595895        2.32476455248426
C            6.52370492571919        2.14021623163975        2.14984741444431
C            5.45423833998132        2.07232018011025        1.26809440680173
C            4.69763098948244        0.81967182174005        1.09922556613460
N            5.40472806438668       -0.30994940726556        1.04438082931466
C            4.69096804150766       -1.38797500263042        0.66977291145622
C            5.43327035789549       -2.63906948368742        0.50785157504751
C            6.69101476125799       -2.78338758755405        1.08953932710536
C            7.39616443179207       -3.96055532685715        0.93112880112957
C            6.86142053330094       -4.99681148573297        0.18166081649423
C            5.61620388319962       -4.85175805928503       -0.40970860585839
C            4.90071189993669       -3.68167132399833       -0.24640000086073
N            3.40661978886645       -1.37564883228742        0.40224882788316
C            2.73509812744489       -0.21846874489105        0.57856275288262
C            1.34785007954563       -0.13055200060299        0.29754187611712
C            0.65012775574639        1.07843717184413        0.51551643708830
C           -0.66547365363598        1.19702857169908        0.17974283112133
C           -1.37396336104244        0.10765929541025       -0.37061509848016
C           -2.76621244739982        0.18699549861455       -0.62995858635153
N           -3.43957227261881        1.34387867593568       -0.46270452740633
C           -4.73037314241110        1.34380957485235       -0.69879978674281
C           -5.47466859031013        2.59559605142036       -0.55537776025647
C           -6.76416345329447        2.70182066998719       -1.07282815178682
C           -7.47093203653169        3.88050924340018       -0.93504361764014
C           -6.90511338941647        4.95779235242979       -0.27112516464910
C           -5.62747199965446        4.85171702222007        0.25595052150415
C           -4.91131356743815        3.67942430943437        0.11391684020570
N           -5.44717399311356        0.25188316229832       -1.02566176895182
C           -4.73432211561983       -0.87368366778158       -1.07758767332841
C           -5.48549135096104       -2.13544329279758       -1.19742417322781
C           -6.57503505668571       -2.23390815273808       -2.05107891241505
C           -7.26059384728780       -3.42821101253508       -2.18001553047525
C           -6.87037961142698       -4.53266932462734       -1.43973183771826
C           -5.80935305030562       -4.43917610230003       -0.55689408188760
C           -5.11231899098329       -3.24434502881078       -0.42200138867006
N           -4.05539462133593       -3.14546709283959        0.49196518438479
C           -2.87819743796697       -3.86278191500370        0.43820833693926
C           -2.53547657654854       -4.95718643528170       -0.34055433688296
C           -1.25719387562929       -5.46313015302203       -0.21512519107541
C           -0.30037589729851       -4.90891449360794        0.64582265959097
C            1.08700417815347       -5.52916167624804        0.69956129674327
C            1.68239352555765       -5.56627273760700       -0.71494908387240
C            2.04778307319401       -4.74906944994046        1.60171762433361
C            0.96805091396949       -6.95976113152114        1.24559914863887
C           -0.65500705920758       -3.80906298806536        1.41565716600230
C           -1.93414953552152       -3.28654177057741        1.31587847709707
C           -2.58087928293356       -2.15069267722232        1.92058425026994
C           -2.14133587828449       -1.15110010868767        2.77348439890497
C           -3.00795796632970       -0.12822690461999        3.13515676845168
C           -2.57095688077772        1.04392624232206        3.99925153259827
C           -1.06669071904151        1.02764416740703        4.28500396531276
C           -2.89565911150446        2.35117658754508        3.26219403439835
C           -3.32413128505804        0.99506806716082        5.33594701490677
C           -4.33201351824191       -0.17538122178776        2.67974558854760
C           -4.79363737730530       -1.15553902721883        1.82481778257892
C           -3.89039536549127       -2.11890312596974        1.40185221356936
N           -3.43180523229563       -0.94263635319251       -0.96798638771591
C           -0.67509063777589       -1.09979592711896       -0.59296851636736
C            0.64155153433593       -1.21710047931650       -0.26117961405791
N            3.39945772952583        0.90009290008418        0.95291885410724
H            3.13402022897339       -1.68989619181884       -6.04977780362409
H            4.49443630011790       -0.95153475789301       -5.20489721786734
H            3.23617775740885        0.06734234698131       -5.90061650448770
H            2.40676745428238       -2.27077119011815       -2.39834121475108
H            3.96586699309669       -2.42944040025763       -3.20600747163943
H            2.52067677435676       -3.10183330780835       -3.95592126214089
H            0.87069983978853       -1.75064206168988       -5.02830357298468
H            0.53318805463654       -0.91845178495458       -3.51138777029497
H            0.88879528235411        0.00673352043560       -4.98257341350250
H            5.06315862701268       -0.54595952087754       -2.99496221268666
H            5.83470243499869        1.14437662379112       -1.42142951415180
H            1.18180459853568        1.27048312243563       -3.17355471065513
H            0.01307892362526        3.41428825639299       -2.10985553552671
H           -1.60934125438664        4.86000830113513       -2.66608854039001
H           -2.95976018968239        5.31591095832090       -1.63576531551106
H           -2.11694243935967        3.80193651531424       -1.33905541014112
H           -1.10306082562120        6.20423117157083        1.39514024394280
H           -2.68141703894603        5.97642118098669        0.65138679376220
H           -1.70320876385819        4.57577372269584        1.10259390912586
H           -0.26445533824375        7.61480075773278       -0.53627416221486
H           -1.86780670335095        7.50165375406567       -1.26237955304924
H           -0.44001015868210        7.03486079179623       -2.19086099840308
H            1.01459323897180        6.30942688914651        0.89028819131513
H            3.24170688303834        5.35637594062632        1.13587662113404
H            5.55056009134094        5.25089293932479        0.09843624510251
H            7.39164938460145        5.37680222114096        1.73591112628035
H            8.03716675009971        3.37173521443442        3.02370271663579
H            6.78921690500362        1.25480873729399        2.70639205829662
H            7.09607977059593       -1.96343090872416        1.66167359297886
H            8.36835521767288       -4.07258865361556        1.38890263107116
H            7.41692766354406       -5.91475066585304        0.05456719476691
H            5.20703484058158       -5.65565077244474       -1.00506738480796
H            3.93436229165103       -3.55201339253174       -0.70501806988686
H            1.18818955964847        1.90419054874476        0.95629924774997
H           -1.19450853996090        2.12459690070971        0.33751122064156
H           -7.19205048979303        1.85077283584704       -1.57913303928092
H           -8.46821220035371        3.96206449283946       -1.34254738723626
H           -7.46118312535740        5.87755509664627       -0.16077084720193
H           -5.19334559837568        5.68865445278971        0.78425897100585
H           -3.91985474910146        3.58030599591685        0.52374771281938
H           -6.86171348203374       -1.36493597614281       -2.62286173611103
H           -8.09796281041805       -3.49938556720295       -2.85745696552719
H           -7.40339730114698       -5.46666791574382       -1.53747277721020
H           -5.52490690566961       -5.28496583014033        0.05166103481734
H           -3.23727860777857       -5.39553511540106       -1.03423500980248
H           -0.99454177037595       -6.31875262074847       -0.81811095953076
H            1.69823556144106       -4.56674416477841       -1.14315975117472
H            1.10717085085191       -6.20829426722059       -1.37628353902642
H            2.70085428958106       -5.94511914383998       -0.67737263555124
H            2.16776609376338       -3.72285790448042        1.26254651762943
H            3.02833887716200       -5.22136558989011        1.58328512910096
H            1.69931467848170       -4.74494095444410        2.63206193632380
H            0.54301193169002       -6.94577570454592        2.24711500819699
H            1.95061096735369       -7.42449347185615        1.29412310032144
H            0.32991003716451       -7.57242220859340        0.61408091464248
H            0.04726266644200       -3.33567388921825        2.08027039917406
H           -1.12067388286088       -1.17476900690422        3.11557127195356
H           -0.78547495056943        0.15235407022261        4.86604771283108
H           -0.79755195983231        1.91018021402488        4.86224895372605
H           -0.49697955088183        1.04071008162048        3.35818949482025
H           -3.96659977277708        2.49402318597128        3.14703164349207
H           -2.44531254949545        2.33005435647405        2.27300491721451
H           -2.49727616983567        3.20188783749041        3.81170713140318
H           -4.39923456321702        1.04225884913660        5.18375494534988
H           -3.09516331071446        0.07133311517443        5.86356962613213
H           -3.02944568784135        1.83386118664106        5.96323623083395
H           -5.02760698032943        0.59039772360445        2.98722891491713
H           -5.81642905957783       -1.14911251127025        1.47678408146646
H           -1.21350851196628       -1.92616554030247       -1.03221396433642
H            1.17152912521957       -2.14351791635792       -0.42227916894510
