      -----------------------------------------------------------      
     |                   =====================                   |     
     |                           x T B                           |     
     |                   =====================                   |     
     |                         S. Grimme                         |     
     |          Mulliken Center for Theoretical Chemistry        |     
     |                    University of Bonn                     |     
      -----------------------------------------------------------      

   * xtb version 6.7.1 (edcfbbe) compiled by 'albert@albert-system' on 2024-07-22

   xtb is free software: you can redistribute it and/or modify it under
   the terms of the GNU Lesser General Public License as published by
   the Free Software Foundation, either version 3 of the License, or
   (at your option) any later version.
   
   xtb is distributed in the hope that it will be useful,
   but WITHOUT ANY WARRANTY; without even the implied warranty of
   MERCHANTABILITY or FITNESS FOR A PARTICULAR PURPOSE.  See the
   GNU Lesser General Public License for more details.
   
   Cite this work as:
   * C. Bannwarth, E. Caldeweyher, S. Ehlert, A. Hansen, P. Pracht,
     J. Seibert, S. Spicher, S. Grimme, WIREs Comput. Mol. Sci., 2020, 11,
     e01493. DOI: 10.1002/wcms.1493
   
   for GFN2-xTB:
   * C. Bannwarth, S. Ehlert and S. Grimme., J. Chem. Theory Comput., 2019,
     15, 1652-1671. DOI: 10.1021/acs.jctc.8b01176
   for GFN1-xTB:
   * S. Grimme, C. Bannwarth, P. Shushkov, J. Chem. Theory Comput., 2017,
     13, 1989-2009. DOI: 10.1021/acs.jctc.7b00118
   for GFN0-xTB:
   * P. Pracht, E. Caldeweyher, S. Ehlert, S. Grimme, ChemRxiv, 2019, preprint.
     DOI: 10.26434/chemrxiv.8326202.v1
   for GFN-FF:
   * S. Spicher and S. Grimme, Angew. Chem. Int. Ed., 2020, 59, 15665-15673.
     DOI: 10.1002/anie.202004239
   
   for ALPB and GBSA implicit solvation:
   * S. Ehlert, M. Stahn, S. Spicher, S. Grimme, J. Chem. Theory Comput.,
     2021, 17, 4250-4261. DOI: 10.1021/acs.jctc.1c00471
   
   for ddCOSMO and CPCM-X implicit solvation:
   * M. Stahn, S. Ehlert, S. Grimme, J. Phys. Chem. A,
     2023, XX, XXXX-XXXX. DOI: 10.1021/acs.jpca.3c04382
   
   for DFT-D4:
   * E. Caldeweyher, C. Bannwarth and S. Grimme, J. Chem. Phys., 2017,
     147, 034112. DOI: 10.1063/1.4993215
   * E. Caldeweyher, S. Ehlert, A. Hansen, H. Neugebauer, S. Spicher,
     C. Bannwarth and S. Grimme, J. Chem. Phys., 2019, 150, 154122.
     DOI: 10.1063/1.5090222
   * E. Caldeweyher, J.-M. Mewes, S. Ehlert and S. Grimme, Phys. Chem. Chem. Phys.
     2020, 22, 8499-8512. DOI: 10.1039/D0CP00502A
   
   for sTDA-xTB:
   * S. Grimme and C. Bannwarth, J. Chem. Phys., 2016, 145, 054103.
     DOI: 10.1063/1.4959605
   
   in the mass-spec context:
   * V. Asgeirsson, C. Bauer and S. Grimme, Chem. Sci., 2017, 8, 4879.
     DOI: 10.1039/c7sc00601b
   * J. Koopman and S. Grimme, ACS Omega 2019, 4, 12, 15120-15133.
     DOI: 10.1021/acsomega.9b02011
   
   for metadynamics refer to:
   * S. Grimme, J. Chem. Theory Comput., 2019, 155, 2847-2862
     DOI: 10.1021/acs.jctc.9b00143
   
   for SPH calculations refer to:
   * S. Spicher and S. Grimme, J. Chem. Theory Comput., 2021, 17, 1701-1714
     DOI: 10.1021/acs.jctc.0c01306
   
   for ONIOM refer to:
   * C. Plett, A. Katbashev, S. Ehlert, S. Grimme, M. Bursch,
     Phys. Chem. Chem. Phys., 2023, 25, 17860-17868. DOI: 10.1039/D3CP02178E
   
   for DIPRO refer to:
   * J. Kohn, N. Gildemeister, S. Grimme, D. Fazzi, A. Hansen,
     J. Chem. Phys., 2023, just accepted.
   
   for PTB refer to:
   * S. Grimme, M. Mueller, A. Hansen, J. Chem. Phys., 2023, 158, 124111.
     DOI: 10.1063/5.0137838
   
   with help from (in alphabetical order)
   P. Atkinson, C. Bannwarth, F. Bohle, G. Brandenburg, E. Caldeweyher
   M. Checinski, S. Dohm, S. Ehlert, S. Ehrlich, I. Gerasimov, C. Hölzer
   A. Katbashev, J. Kohn, J. Koopman, C. Lavigne, S. Lehtola, F. März, M. Müller,
   F. Musil, H. Neugebauer, J. Pisarek, C. Plett, P. Pracht, F. Pultar,
   J. Seibert, P. Shushkov, S. Spicher, M. Stahn, M. Steiner, T. Strunk,
   J. Stückrath, T. Rose, and J. Unsleber
   
 * started run on 2025/09/04 at 00:39:19.607     
   ID    Z sym.   atoms
    1    6 C      1-4, 6-12, 14-19, 21-33, 35-40, 42-52
    2    8 O      5, 20, 41, 53
    3    7 N      13, 34
    4    1 H      54-85

           -------------------------------------------------
          |                Calculation Setup                |
           -------------------------------------------------

          program call               : xtb data2507/toluene/5,6PXZ-PIDO/5,6PXZ-PIDO.xyz --gfn 2 --gbsa toluene --ohess vtight --parallel 40 --molden --ceasefiles --namespace data2507/toluene/5,6PXZ-PIDO/5,6PXZ-PIDO_toluene_S0_preOpt
          calculation namespace      : data2507/toluene/5,6PXZ-PIDO/5,6PXZ-PIDO_toluene_S0_preOpt
          coordinate file            : data2507/toluene/5,6PXZ-PIDO/5,6PXZ-PIDO.xyz
          omp threads                :                    40


           -------------------------------------------------
          |                 G F N 2 - x T B                 |
           -------------------------------------------------

        Reference                      10.1021/acs.jctc.8b01176
      * Hamiltonian:
        H0-scaling (s, p, d)           1.850000    2.230000    2.230000
        zeta-weighting                 0.500000
      * Dispersion:
        s8                             2.700000
        a1                             0.520000
        a2                             5.000000
        s9                             5.000000
      * Repulsion:
        kExp                           1.500000    1.000000
        rExp                           1.000000
      * Coulomb:
        alpha                          2.000000
        third order                    shell-resolved
        anisotropic                    true
        a3                             3.000000
        a5                             4.000000
        cn-shift                       1.200000
        cn-exp                         4.000000
        max-rad                        5.000000

      * Solvation model:               GBSA
        Solvent                        toluene
        Parameter file                 internal GFN2-xTB/GBSA
        Dielectric constant                7.0000E+00
        Reference state                gsolv [1 M gas/solution]
        Free energy shift                  4.5239E-03 Eh       2.8388E+00 kcal/mol
        Temperature                        2.9815E+02 K
        Density                            8.6700E-01 kg/L
        Solvent mass                       9.2140E+01 g/mol
        Interaction kernel             Still
        Born radius scaling (c1)           1.5686E+00
        Born radii integrator          GBOBC
        Born offset                        0.0000E+00 a0       0.0000E+00 AA
        H-bond correction              false
        Ion screening                  false
        Surface tension                    1.0000E-05 Eh       1.5569E+01 dyn/cm
        Grid points                               230 per atom

          ...................................................
          :                      SETUP                      :
          :.................................................:
          :  # basis functions                 244          :
          :  # atomic orbitals                 244          :
          :  # shells                          138          :
          :  # electrons                       254          :
          :  max. iterations                   250          :
          :  Hamiltonian                  GFN2-xTB          :
          :  restarted?                      false          :
          :  GBSA solvation                   true          :
          :  PC potential                    false          :
          :  electronic temp.          300.0000000     K    :
          :  accuracy                    1.0000000          :
          :  -> integral cutoff          0.2500000E+02      :
          :  -> integral neglect         0.1000000E-07      :
          :  -> SCF convergence          0.1000000E-05 Eh   :
          :  -> wf. convergence          0.1000000E-03 e    :
          :  Broyden damping             0.4000000          :
          :  net charge                          0          :
          :  unpaired electrons                  0          :
          ...................................................

 iter      E             dE          RMSdq      gap      omega  full diag
   1   -141.2596403 -0.141260E+03  0.473E+00    0.96       0.0  T
   2   -141.3539201 -0.942797E-01  0.273E+00    0.73       1.0  T
   3   -141.3367825  0.171376E-01  0.102E+00    0.96       1.0  T
   4   -141.3669939 -0.302114E-01  0.201E-01    0.68       1.0  T
   5   -141.3684262 -0.143222E-02  0.829E-02    0.70       1.0  T
   6   -141.3687367 -0.310556E-03  0.364E-02    0.69       1.0  T
   7   -141.3687568 -0.200771E-04  0.155E-02    0.69       1.0  T
   8   -141.3687625 -0.570079E-05  0.690E-03    0.70       1.6  T
   9   -141.3687643 -0.182338E-05  0.266E-03    0.70       4.1  T
  10   -141.3687646 -0.257997E-06  0.959E-04    0.70      11.3  T
  11   -141.3687646 -0.282791E-07  0.562E-04    0.70      19.3  T

   *** convergence criteria satisfied after 11 iterations ***

         #    Occupation            Energy/Eh            Energy/eV
      -------------------------------------------------------------
         1        2.0000           -0.7283363             -19.8190
       ...           ...                  ...                  ...
       121        2.0000           -0.4097874             -11.1509
       122        2.0000           -0.4093364             -11.1386
       123        2.0000           -0.4004050             -10.8956
       124        2.0000           -0.3894873             -10.5985
       125        2.0000           -0.3883998             -10.5689
       126        2.0000           -0.3430591              -9.3351
       127        2.0000           -0.3429009              -9.3308 (HOMO)
       128        0.0000           -0.3173048              -8.6343 (LUMO)
       129                         -0.2891606              -7.8685
       130                         -0.2521950              -6.8626
       131                         -0.2478282              -6.7437
       132                         -0.2446061              -6.6561
       ...                                ...                  ...
       244                          0.7118355              19.3700
      -------------------------------------------------------------
                  HL-Gap            0.0255961 Eh            0.6965 eV
             Fermi-level           -0.3298115 Eh           -8.9746 eV

 SCC (total)                   0 d,  0 h,  0 min,  0.155 sec
 SCC setup                      ...        0 min,  0.008 sec (  4.965%)
 Dispersion                     ...        0 min,  0.004 sec (  2.302%)
 classical contributions        ...        0 min,  0.000 sec (  0.075%)
 integral evaluation            ...        0 min,  0.009 sec (  5.524%)
 iterations                     ...        0 min,  0.121 sec ( 78.388%)
 molecular gradient             ...        0 min,  0.013 sec (  8.325%)
 printout                       ...        0 min,  0.001 sec (  0.357%)

         :::::::::::::::::::::::::::::::::::::::::::::::::::::
         ::                     SUMMARY                     ::
         :::::::::::::::::::::::::::::::::::::::::::::::::::::
         :: total energy            -139.172657445027 Eh    ::
         :: total w/o Gsasa/hb      -139.123765013823 Eh    ::
         :: gradient norm              0.085634288821 Eh/a0 ::
         :: HOMO-LUMO gap              0.696506176867 eV    ::
         ::.................................................::
         :: SCC energy              -141.367164692399 Eh    ::
         :: -> isotropic ES            0.097108890216 Eh    ::
         :: -> anisotropic ES          0.010415240162 Eh    ::
         :: -> anisotropic XC          0.064708191014 Eh    ::
         :: -> dispersion             -0.120635111542 Eh    ::
         :: -> Gsolv                  -0.059075909023 Eh    ::
         ::    -> Gelec               -0.010183477819 Eh    ::
         ::    -> Gsasa               -0.053416311076 Eh    ::
         ::    -> Ghb                  0.000000000000 Eh    ::
         ::    -> Gshift               0.004523879872 Eh    ::
         :: repulsion energy           2.194507247372 Eh    ::
         :: add. restraining           0.000000000000 Eh    ::
         :: total charge               0.000000000002 e     ::
         :::::::::::::::::::::::::::::::::::::::::::::::::::::

      ----------------------------------------------------------- 
     |                   =====================                   |
     |                        A N C O P T                        |
     |                   =====================                   |
     |               Approximate Normal Coordinate               |
     |                Rational Function Optimizer                |
      ----------------------------------------------------------- 

Optimization log is written to '/dev/null'
      ----------------------------------------------------------- 
     |                   =====================                   |
     |                        A N C O P T                        |
     |                   =====================                   |
     |               Approximate Normal Coordinate               |
     |                Rational Function Optimizer                |
      ----------------------------------------------------------- 

          ...................................................
          :                      SETUP                      :
          :.................................................:
          :   optimization level         verytight          :
          :   max. optcycles                  1700          :
          :   ANC micro-cycles                  20          :
          :   degrees of freedom               249          :
          :.................................................:
          :   RF solver                   davidson          :
          :   write xtbopt.log                true          :
          :   linear?                        false          :
          :   energy convergence         0.1000000E-06 Eh   :
          :   grad. convergence          0.2000000E-03 Eh/α :
          :   maxmium RF displ.          1.0000000          :
          :   Hlow (freq-cutoff)         0.1000000E-01      :
          :   Hmax (freq-cutoff)         5.0000000          :
          :   S6 in model hess.         20.0000000          :
          ...................................................

generating ANC from exact Hessian ...
Using Lindh-Hessian (1995)
 Shifting diagonal of input Hessian by   9.922207987938247E-003
 Lowest  eigenvalues of input Hessian
    0.000000    0.000000    0.000000    0.000000    0.000000    0.000000
    0.010000    0.010040    0.010106    0.010238    0.010323    0.010455
    0.010617    0.011024    0.011127    0.011354    0.011846    0.011861
 Highest eigenvalues
    2.085257    2.086505    2.103883    2.103889    2.206824    2.231599
 

........................................................................
.............................. CYCLE    1 ..............................
........................................................................

 iter      E             dE          RMSdq      gap      omega  full diag
   1   -141.3687646 -0.141369E+03  0.218E-04    0.70       0.0  T
   2   -141.3687646 -0.499455E-09  0.154E-04    0.70      70.5  T
   3   -141.3687646 -0.212054E-09  0.107E-04    0.70     101.0  T
     SCC iter.                  ...        0 min,  0.035 sec
     gradient                   ...        0 min,  0.012 sec
 * total energy  :  -139.1726575 Eh     change       -0.6864411E-08 Eh
   gradient norm :     0.0856312 Eh/α   predicted     0.0000000E+00 (-100.00%)
   displ. norm   :     0.3924293 α      lambda       -0.1758741E-01
   maximum displ.:     0.2123449 α      in ANC's #56, #27, #19, ...

........................................................................
.............................. CYCLE    2 ..............................
........................................................................

 iter      E             dE          RMSdq      gap      omega  full diag
   1   -141.4679502 -0.141468E+03  0.149E-01    0.67       0.0  T
   2   -141.4681061 -0.155895E-03  0.944E-02    0.70       1.0  T
   3   -141.4680602  0.459068E-04  0.532E-02    0.68       1.0  T
   4   -141.4681999 -0.139653E-03  0.870E-03    0.69       1.2  T
   5   -141.4682047 -0.481388E-05  0.285E-03    0.69       3.8  T
   6   -141.4682051 -0.419383E-06  0.134E-03    0.69       8.1  T
   7   -141.4682051 -0.337113E-07  0.600E-04    0.69      18.1  T
   8   -141.4682051 -0.118923E-07  0.240E-04    0.69      45.1  T
     SCC iter.                  ...        0 min,  0.082 sec
     gradient                   ...        0 min,  0.012 sec
 * total energy  :  -139.1851949 Eh     change       -0.1253740E-01 Eh
   gradient norm :     0.0379203 Eh/α   predicted    -0.1015640E-01 ( -18.99%)
   displ. norm   :     0.4104704 α      lambda       -0.6616935E-02
   maximum displ.:     0.1881512 α      in ANC's #56, #27, #19, ...

........................................................................
.............................. CYCLE    3 ..............................
........................................................................

 iter      E             dE          RMSdq      gap      omega  full diag
   1   -141.5226863 -0.141523E+03  0.107E-01    0.67       0.0  T
   2   -141.5228793 -0.192986E-03  0.755E-02    0.70       1.0  T
   3   -141.5229642 -0.849029E-04  0.405E-02    0.68       1.0  T
   4   -141.5229896 -0.253481E-04  0.114E-02    0.69       1.0  T
   5   -141.5229960 -0.645606E-05  0.282E-03    0.69       3.8  T
   6   -141.5229966 -0.560954E-06  0.108E-03    0.69      10.0  T
   7   -141.5229966 -0.221696E-07  0.526E-04    0.69      20.6  T
   8   -141.5229966 -0.649490E-08  0.229E-04    0.69      47.4  T
     SCC iter.                  ...        0 min,  0.083 sec
     gradient                   ...        0 min,  0.012 sec
 * total energy  :  -139.1893221 Eh     change       -0.4127225E-02 Eh
   gradient norm :     0.0094867 Eh/α   predicted    -0.3866987E-02 (  -6.31%)
   displ. norm   :     0.3168914 α      lambda       -0.1487822E-02
   maximum displ.:     0.1786782 α      in ANC's #19, #20, #27, ...

........................................................................
.............................. CYCLE    4 ..............................
........................................................................

 iter      E             dE          RMSdq      gap      omega  full diag
   1   -141.5311871 -0.141531E+03  0.543E-02    0.67       0.0  T
   2   -141.5312258 -0.387170E-04  0.385E-02    0.68       1.0  T
   3   -141.5312383 -0.124378E-04  0.206E-02    0.68       1.0  T
   4   -141.5312474 -0.912907E-05  0.487E-03    0.68       2.2  T
   5   -141.5312487 -0.136339E-05  0.132E-03    0.68       8.2  T
   6   -141.5312489 -0.144948E-06  0.456E-04    0.68      23.8  T
   7   -141.5312489 -0.456211E-08  0.242E-04    0.68      44.9  T
     SCC iter.                  ...        0 min,  0.073 sec
     gradient                   ...        0 min,  0.012 sec
 * total energy  :  -139.1904188 Eh     change       -0.1096739E-02 Eh
   gradient norm :     0.0080105 Eh/α   predicted    -0.8186225E-03 ( -25.36%)
   displ. norm   :     0.3711855 α      lambda       -0.1030418E-02
   maximum displ.:     0.2161515 α      in ANC's #20, #19, #27, ...

........................................................................
.............................. CYCLE    5 ..............................
........................................................................

 iter      E             dE          RMSdq      gap      omega  full diag
   1   -141.5316262 -0.141532E+03  0.574E-02    0.67       0.0  T
   2   -141.5316411 -0.149503E-04  0.369E-02    0.68       1.0  T
   3   -141.5316272  0.139378E-04  0.190E-02    0.67       1.0  T
   4   -141.5316492 -0.219526E-04  0.244E-03    0.68       4.4  T
   5   -141.5316496 -0.412202E-06  0.981E-04    0.68      11.1  T
   6   -141.5316496 -0.809554E-07  0.378E-04    0.68      28.7  T
     SCC iter.                  ...        0 min,  0.063 sec
     gradient                   ...        0 min,  0.013 sec
 * total energy  :  -139.1911206 Eh     change       -0.7018010E-03 Eh
   gradient norm :     0.0062759 Eh/α   predicted    -0.5861939E-03 ( -16.47%)
   displ. norm   :     0.2624023 α      lambda       -0.3896066E-03
   maximum displ.:     0.1633187 α      in ANC's #20, #19, #6, ...

........................................................................
.............................. CYCLE    6 ..............................
........................................................................

 iter      E             dE          RMSdq      gap      omega  full diag
   1   -141.5320269 -0.141532E+03  0.401E-02    0.67       0.0  T
   2   -141.5320288 -0.189777E-05  0.242E-02    0.67       1.0  T
   3   -141.5320240  0.481105E-05  0.812E-03    0.67       1.3  T
   4   -141.5320297 -0.566781E-05  0.879E-04    0.67      12.3  T
   5   -141.5320297 -0.315947E-07  0.412E-04    0.67      26.3  T
   6   -141.5320297 -0.825958E-08  0.203E-04    0.67      53.5  T
     SCC iter.                  ...        0 min,  0.063 sec
     gradient                   ...        0 min,  0.012 sec
 * total energy  :  -139.1913907 Eh     change       -0.2700736E-03 Eh
   gradient norm :     0.0039458 Eh/α   predicted    -0.2082169E-03 ( -22.90%)
   displ. norm   :     0.2192875 α      lambda       -0.2149638E-03
   maximum displ.:     0.1281540 α      in ANC's #20, #11, #6, ...

........................................................................
.............................. CYCLE    7 ..............................
........................................................................

 iter      E             dE          RMSdq      gap      omega  full diag
   1   -141.5335494 -0.141534E+03  0.370E-02    0.67       0.0  T
   2   -141.5335504 -0.958494E-06  0.219E-02    0.67       1.0  T
   3   -141.5335487  0.170383E-05  0.438E-03    0.67       2.5  T
   4   -141.5335507 -0.195897E-05  0.891E-04    0.67      12.2  T
   5   -141.5335507 -0.614245E-07  0.315E-04    0.67      34.4  T
   6   -141.5335507 -0.109409E-08  0.164E-04    0.67      66.1  T
     SCC iter.                  ...        0 min,  0.061 sec
     gradient                   ...        0 min,  0.013 sec
 * total energy  :  -139.1915504 Eh     change       -0.1597059E-03 Eh
   gradient norm :     0.0027335 Eh/α   predicted    -0.1126509E-03 ( -29.46%)
   displ. norm   :     0.2663365 α      lambda       -0.2085015E-03
   maximum displ.:     0.1387828 α      in ANC's #11, #20, #6, ...

........................................................................
.............................. CYCLE    8 ..............................
........................................................................

 iter      E             dE          RMSdq      gap      omega  full diag
   1   -141.5353377 -0.141535E+03  0.500E-02    0.67       0.0  T
   2   -141.5353386 -0.922776E-06  0.294E-02    0.67       1.0  T
   3   -141.5353373  0.132978E-05  0.415E-03    0.67       2.6  T
   4   -141.5353389 -0.159909E-05  0.874E-04    0.67      12.4  T
   5   -141.5353389 -0.486815E-07  0.387E-04    0.67      28.0  T
   6   -141.5353389 -0.148722E-08  0.207E-04    0.67      52.3  T
     SCC iter.                  ...        0 min,  0.062 sec
     gradient                   ...        0 min,  0.012 sec
 * total energy  :  -139.1917149 Eh     change       -0.1645367E-03 Eh
   gradient norm :     0.0035565 Eh/α   predicted    -0.1116497E-03 ( -32.14%)
   displ. norm   :     0.3448704 α      lambda       -0.2497610E-03
   maximum displ.:     0.1935396 α      in ANC's #11, #6, #13, ...

........................................................................
.............................. CYCLE    9 ..............................
........................................................................

 iter      E             dE          RMSdq      gap      omega  full diag
   1   -141.5363925 -0.141536E+03  0.680E-02    0.67       0.0  T
   2   -141.5363934 -0.894637E-06  0.399E-02    0.67       1.0  T
   3   -141.5363922  0.119443E-05  0.429E-03    0.67       2.5  T
   4   -141.5363938 -0.159673E-05  0.806E-04    0.67      13.5  T
   5   -141.5363939 -0.129779E-07  0.463E-04    0.67      23.4  T
   6   -141.5363939 -0.165889E-08  0.210E-04    0.67      51.7  T
     SCC iter.                  ...        0 min,  0.062 sec
     gradient                   ...        0 min,  0.012 sec
 * total energy  :  -139.1919262 Eh     change       -0.2112410E-03 Eh
   gradient norm :     0.0048196 Eh/α   predicted    -0.1397355E-03 ( -33.85%)
   displ. norm   :     0.4503868 α      lambda       -0.3310050E-03
   maximum displ.:     0.2589224 α      in ANC's #11, #6, #13, ...

........................................................................
.............................. CYCLE   10 ..............................
........................................................................

 iter      E             dE          RMSdq      gap      omega  full diag
   1   -141.5359643 -0.141536E+03  0.909E-02    0.66       0.0  T
   2   -141.5359654 -0.117058E-05  0.533E-02    0.66       1.0  T
   3   -141.5359639  0.152423E-05  0.480E-03    0.66       2.3  T
   4   -141.5359661 -0.215655E-05  0.983E-04    0.66      11.0  T
   5   -141.5359661 -0.647142E-08  0.508E-04    0.66      21.4  T
   6   -141.5359661 -0.408738E-08  0.189E-04    0.66      57.3  T
     SCC iter.                  ...        0 min,  0.066 sec
     gradient                   ...        0 min,  0.012 sec
 * total energy  :  -139.1922109 Eh     change       -0.2846870E-03 Eh
   gradient norm :     0.0053446 Eh/α   predicted    -0.1990780E-03 ( -30.07%)
   displ. norm   :     0.5184606 α      lambda       -0.3783114E-03
   maximum displ.:     0.3064420 α      in ANC's #11, #6, #13, ...

........................................................................
.............................. CYCLE   11 ..............................
........................................................................

 iter      E             dE          RMSdq      gap      omega  full diag
   1   -141.5340672 -0.141534E+03  0.107E-01    0.66       0.0  T
   2   -141.5340689 -0.170236E-05  0.628E-02    0.66       1.0  T
   3   -141.5340673  0.163483E-05  0.523E-03    0.66       2.1  T
   4   -141.5340697 -0.242232E-05  0.123E-03    0.66       8.8  T
   5   -141.5340697 -0.299057E-07  0.664E-04    0.66      16.3  T
   6   -141.5340697 -0.333003E-08  0.278E-04    0.66      38.9  T
     SCC iter.                  ...        0 min,  0.063 sec
     gradient                   ...        0 min,  0.013 sec
 * total energy  :  -139.1925200 Eh     change       -0.3090986E-03 Eh
   gradient norm :     0.0050824 Eh/α   predicted    -0.2400041E-03 ( -22.35%)
   displ. norm   :     0.4509610 α      lambda       -0.2976161E-03
   maximum displ.:     0.2797334 α      in ANC's #11, #13, #6, ...

........................................................................
.............................. CYCLE   12 ..............................
........................................................................

 iter      E             dE          RMSdq      gap      omega  full diag
   1   -141.5327726 -0.141533E+03  0.962E-02    0.66       0.0  T
   2   -141.5327741 -0.152867E-05  0.565E-02    0.66       1.0  T
   3   -141.5327729  0.117595E-05  0.496E-03    0.66       2.2  T
   4   -141.5327747 -0.181778E-05  0.112E-03    0.66       9.6  T
   5   -141.5327748 -0.214212E-07  0.630E-04    0.66      17.2  T
   6   -141.5327748 -0.372361E-08  0.276E-04    0.66      39.3  T
     SCC iter.                  ...        0 min,  0.062 sec
     gradient                   ...        0 min,  0.013 sec
 * total energy  :  -139.1927516 Eh     change       -0.2315902E-03 Eh
   gradient norm :     0.0041658 Eh/α   predicted    -0.1790768E-03 ( -22.68%)
   displ. norm   :     0.3560274 α      lambda       -0.1936761E-03
   maximum displ.:     0.2374628 α      in ANC's #11, #13, #6, ...

........................................................................
.............................. CYCLE   13 ..............................
........................................................................

 iter      E             dE          RMSdq      gap      omega  full diag
   1   -141.5323494 -0.141532E+03  0.797E-02    0.66       0.0  T
   2   -141.5323504 -0.101286E-05  0.467E-02    0.66       1.0  T
   3   -141.5323493  0.116088E-05  0.462E-03    0.66       2.3  T
   4   -141.5323509 -0.165903E-05  0.909E-04    0.66      11.9  T
   5   -141.5323510 -0.726178E-08  0.509E-04    0.66      21.3  T
   6   -141.5323510 -0.421682E-08  0.187E-04    0.66      58.1  T
     SCC iter.                  ...        0 min,  0.062 sec
     gradient                   ...        0 min,  0.013 sec
 * total energy  :  -139.1929040 Eh     change       -0.1524630E-03 Eh
   gradient norm :     0.0033118 Eh/α   predicted    -0.1091179E-03 ( -28.43%)
   displ. norm   :     0.2845963 α      lambda       -0.1433078E-03
   maximum displ.:     0.2044020 α      in ANC's #11, #13, #6, ...

........................................................................
.............................. CYCLE   14 ..............................
........................................................................

 iter      E             dE          RMSdq      gap      omega  full diag
   1   -141.5327824 -0.141533E+03  0.677E-02    0.66       0.0  T
   2   -141.5327831 -0.729810E-06  0.397E-02    0.66       1.0  T
   3   -141.5327819  0.125749E-05  0.432E-03    0.67       2.5  T
   4   -141.5327835 -0.166336E-05  0.789E-04    0.66      13.7  T
   5   -141.5327836 -0.463166E-08  0.420E-04    0.66      25.8  T
   6   -141.5327836 -0.406135E-08  0.153E-04    0.66      70.9  T
     SCC iter.                  ...        0 min,  0.063 sec
     gradient                   ...        0 min,  0.013 sec
 * total energy  :  -139.1930201 Eh     change       -0.1160935E-03 Eh
   gradient norm :     0.0027358 Eh/α   predicted    -0.7745849E-04 ( -33.28%)
   displ. norm   :     0.2405274 α      lambda       -0.1296566E-03
   maximum displ.:     0.1828650 α      in ANC's #11, #13, #17, ...

........................................................................
.............................. CYCLE   15 ..............................
........................................................................

 iter      E             dE          RMSdq      gap      omega  full diag
   1   -141.5340487 -0.141534E+03  0.606E-02    0.66       0.0  T
   2   -141.5340493 -0.620914E-06  0.356E-02    0.67       1.0  T
   3   -141.5340482  0.105406E-05  0.386E-03    0.67       2.8  T
   4   -141.5340496 -0.138248E-05  0.732E-04    0.67      14.8  T
   5   -141.5340496 -0.683323E-08  0.370E-04    0.67      29.3  T
   6   -141.5340496 -0.181615E-08  0.155E-04    0.67      69.8  T
     SCC iter.                  ...        0 min,  0.062 sec
     gradient                   ...        0 min,  0.013 sec
 * total energy  :  -139.1931278 Eh     change       -0.1076903E-03 Eh
   gradient norm :     0.0025215 Eh/α   predicted    -0.6858367E-04 ( -36.31%)
   displ. norm   :     0.2606099 α      lambda       -0.1399269E-03
   maximum displ.:     0.1979172 α      in ANC's #11, #13, #7, ...

........................................................................
.............................. CYCLE   16 ..............................
........................................................................

 iter      E             dE          RMSdq      gap      omega  full diag
   1   -141.5348509 -0.141535E+03  0.662E-02    0.67       0.0  T
   2   -141.5348516 -0.748603E-06  0.389E-02    0.67       1.0  T
   3   -141.5348507  0.863347E-06  0.375E-03    0.67       2.9  T
   4   -141.5348520 -0.120939E-05  0.801E-04    0.67      13.5  T
   5   -141.5348520 -0.894391E-08  0.405E-04    0.67      26.8  T
   6   -141.5348520 -0.222195E-08  0.177E-04    0.67      61.3  T
     SCC iter.                  ...        0 min,  0.062 sec
     gradient                   ...        0 min,  0.013 sec
 * total energy  :  -139.1932442 Eh     change       -0.1163962E-03 Eh
   gradient norm :     0.0025824 Eh/α   predicted    -0.7471550E-04 ( -35.81%)
   displ. norm   :     0.3022722 α      lambda       -0.1414382E-03
   maximum displ.:     0.2199728 α      in ANC's #11, #13, #7, ...

........................................................................
.............................. CYCLE   17 ..............................
........................................................................

 iter      E             dE          RMSdq      gap      omega  full diag
   1   -141.5352690 -0.141535E+03  0.749E-02    0.67       0.0  T
   2   -141.5352699 -0.968754E-06  0.439E-02    0.67       1.0  T
   3   -141.5352689  0.101105E-05  0.413E-03    0.67       2.6  T
   4   -141.5352703 -0.142369E-05  0.900E-04    0.67      12.0  T
   5   -141.5352704 -0.117238E-07  0.483E-04    0.67      22.5  T
   6   -141.5352704 -0.633983E-08  0.222E-04    0.67      48.8  T
     SCC iter.                  ...        0 min,  0.061 sec
     gradient                   ...        0 min,  0.013 sec
 * total energy  :  -139.1933565 Eh     change       -0.1123193E-03 Eh
   gradient norm :     0.0025491 Eh/α   predicted    -0.7718294E-04 ( -31.28%)
   displ. norm   :     0.3261781 α      lambda       -0.1171035E-03
   maximum displ.:     0.2289128 α      in ANC's #11, #13, #7, ...

........................................................................
.............................. CYCLE   18 ..............................
........................................................................

 iter      E             dE          RMSdq      gap      omega  full diag
   1   -141.5347408 -0.141535E+03  0.786E-02    0.67       0.0  T
   2   -141.5347419 -0.112378E-05  0.461E-02    0.68       1.0  T
   3   -141.5347402  0.168520E-05  0.486E-03    0.68       2.2  T
   4   -141.5347424 -0.216385E-05  0.963E-04    0.68      11.3  T
   5   -141.5347424 -0.224315E-07  0.524E-04    0.68      20.7  T
   6   -141.5347424 -0.799312E-08  0.245E-04    0.68      44.3  T
     SCC iter.                  ...        0 min,  0.064 sec
     gradient                   ...        0 min,  0.013 sec
 * total energy  :  -139.1934448 Eh     change       -0.8830747E-04 Eh
   gradient norm :     0.0024260 Eh/α   predicted    -0.6478180E-04 ( -26.64%)
   displ. norm   :     0.2871092 α      lambda       -0.8608760E-04
   maximum displ.:     0.1861587 α      in ANC's #11, #13, #6, ...

........................................................................
.............................. CYCLE   19 ..............................
........................................................................

 iter      E             dE          RMSdq      gap      omega  full diag
   1   -141.5351185 -0.141535E+03  0.654E-02    0.68       0.0  T
   2   -141.5351195 -0.961386E-06  0.384E-02    0.68       1.0  T
   3   -141.5351174  0.205013E-05  0.492E-03    0.68       2.2  T
   4   -141.5351198 -0.243827E-05  0.853E-04    0.68      12.7  T
   5   -141.5351199 -0.322679E-07  0.432E-04    0.68      25.1  T
   6   -141.5351199 -0.477300E-08  0.217E-04    0.68      49.9  T
     SCC iter.                  ...        0 min,  0.062 sec
     gradient                   ...        0 min,  0.013 sec
 * total energy  :  -139.1935117 Eh     change       -0.6685697E-04 Eh
   gradient norm :     0.0022309 Eh/α   predicted    -0.4659416E-04 ( -30.31%)
   displ. norm   :     0.2593583 α      lambda       -0.8100023E-04
   maximum displ.:     0.1554612 α      in ANC's #11, #6, #7, ...

........................................................................
.............................. CYCLE   20 ..............................
........................................................................

 iter      E             dE          RMSdq      gap      omega  full diag
   1   -141.5346760 -0.141535E+03  0.563E-02    0.68       0.0  T
   2   -141.5346767 -0.756617E-06  0.330E-02    0.69       1.0  T
   3   -141.5346749  0.182953E-05  0.459E-03    0.69       2.4  T
   4   -141.5346770 -0.213768E-05  0.754E-04    0.69      14.4  T
   5   -141.5346770 -0.290367E-07  0.370E-04    0.69      29.3  T
   6   -141.5346771 -0.354294E-08  0.187E-04    0.69      57.9  T
     SCC iter.                  ...        0 min,  0.062 sec
     gradient                   ...        0 min,  0.013 sec
 * total energy  :  -139.1935792 Eh     change       -0.6752351E-04 Eh
   gradient norm :     0.0024226 Eh/α   predicted    -0.4322536E-04 ( -35.98%)
   displ. norm   :     0.2684331 α      lambda       -0.1057342E-03
   maximum displ.:     0.1551090 α      in ANC's #6, #11, #7, ...
 * RMSD in coord.:     0.4916836 α      energy gain  -0.2092176E-01 Eh

generating ANC from exact Hessian ...
Using Lindh-Hessian (1995)
 Shifting diagonal of input Hessian by   9.905487306797245E-003
 Lowest  eigenvalues of input Hessian
    0.000000    0.000000    0.000000    0.000000    0.000000    0.000000
    0.010000    0.010030    0.010091    0.010312    0.010392    0.010540
    0.010688    0.011032    0.011277    0.011512    0.012140    0.012188
 Highest eigenvalues
    2.196637    2.197001    2.216154    2.216160    2.235448    2.245882
 

........................................................................
.............................. CYCLE   21 ..............................
........................................................................

 iter      E             dE          RMSdq      gap      omega  full diag
   1   -141.5358729 -0.141536E+03  0.496E-02    0.69       0.0  T
   2   -141.5358736 -0.770382E-06  0.291E-02    0.69       1.0  T
   3   -141.5358716  0.200370E-05  0.466E-03    0.69       2.3  T
   4   -141.5358739 -0.229831E-05  0.757E-04    0.69      14.3  T
   5   -141.5358740 -0.366963E-07  0.353E-04    0.69      30.7  T
   6   -141.5358740 -0.399515E-08  0.178E-04    0.69      61.0  T
     SCC iter.                  ...        0 min,  0.065 sec
     gradient                   ...        0 min,  0.013 sec
 * total energy  :  -139.1936635 Eh     change       -0.8430874E-04 Eh
   gradient norm :     0.0031302 Eh/α   predicted     0.0000000E+00 (-100.00%)
   displ. norm   :     0.0437254 α      lambda       -0.2195600E-04
   maximum displ.:     0.0261343 α      in ANC's #6, #5, #20, ...

........................................................................
.............................. CYCLE   22 ..............................
........................................................................

 iter      E             dE          RMSdq      gap      omega  full diag
   1   -141.5350241 -0.141535E+03  0.902E-03    0.69       0.0  T
   2   -141.5350242 -0.127651E-06  0.535E-03    0.69       2.0  T
   3   -141.5350239  0.256118E-06  0.181E-03    0.69       6.0  T
   4   -141.5350242 -0.302635E-06  0.290E-04    0.69      37.4  T
   5   -141.5350242 -0.586223E-08  0.113E-04    0.69      96.1  T
     SCC iter.                  ...        0 min,  0.052 sec
     gradient                   ...        0 min,  0.013 sec
 * total energy  :  -139.1936945 Eh     change       -0.3094903E-04 Eh
   gradient norm :     0.0014752 Eh/α   predicted    -0.1796368E-04 ( -41.96%)
   displ. norm   :     0.2237986 α      lambda       -0.8585442E-04
   maximum displ.:     0.1331942 α      in ANC's #6, #5, #20, ...

........................................................................
.............................. CYCLE   23 ..............................
........................................................................

 iter      E             dE          RMSdq      gap      omega  full diag
   1   -141.5326805 -0.141533E+03  0.435E-02    0.68       0.0  T
   2   -141.5326817 -0.120757E-05  0.257E-02    0.68       1.0  T
   3   -141.5326784  0.333693E-05  0.619E-03    0.69       1.8  T
   4   -141.5326823 -0.391800E-05  0.951E-04    0.68      11.4  T
   5   -141.5326823 -0.375549E-07  0.474E-04    0.68      22.9  T
   6   -141.5326823 -0.294463E-08  0.234E-04    0.68      46.3  T
     SCC iter.                  ...        0 min,  0.062 sec
     gradient                   ...        0 min,  0.013 sec
 * total energy  :  -139.1937627 Eh     change       -0.6825907E-04 Eh
   gradient norm :     0.0043713 Eh/α   predicted    -0.4388625E-04 ( -35.71%)
   displ. norm   :     0.0613435 α      lambda       -0.2785357E-04
   maximum displ.:     0.0409467 α      in ANC's #6, #5, #20, ...

........................................................................
.............................. CYCLE   24 ..............................
........................................................................

 iter      E             dE          RMSdq      gap      omega  full diag
   1   -141.5331876 -0.141533E+03  0.105E-02    0.68       0.0  T
   2   -141.5331877 -0.762005E-07  0.617E-03    0.69       1.8  T
   3   -141.5331876  0.112703E-06  0.116E-03    0.68       9.3  T
   4   -141.5331877 -0.133212E-06  0.267E-04    0.69      40.6  T
   5   -141.5331877 -0.452908E-08  0.126E-04    0.69      86.2  T
     SCC iter.                  ...        0 min,  0.053 sec
     gradient                   ...        0 min,  0.013 sec
 * total energy  :  -139.1937888 Eh     change       -0.2605543E-04 Eh
   gradient norm :     0.0034137 Eh/α   predicted    -0.1398276E-04 ( -46.33%)
   displ. norm   :     0.1727399 α      lambda       -0.8267188E-04
   maximum displ.:     0.1118513 α      in ANC's #6, #5, #1, ...

........................................................................
.............................. CYCLE   25 ..............................
........................................................................

 iter      E             dE          RMSdq      gap      omega  full diag
   1   -141.5346509 -0.141535E+03  0.292E-02    0.69       0.0  T
   2   -141.5346517 -0.806070E-06  0.172E-02    0.69       1.0  T
   3   -141.5346498  0.189458E-05  0.465E-03    0.69       2.3  T
   4   -141.5346520 -0.219039E-05  0.796E-04    0.69      13.6  T
   5   -141.5346520 -0.414801E-07  0.356E-04    0.69      30.4  T
   6   -141.5346520 -0.229912E-08  0.192E-04    0.69      56.6  T
     SCC iter.                  ...        0 min,  0.062 sec
     gradient                   ...        0 min,  0.013 sec
 * total energy  :  -139.1938554 Eh     change       -0.6662071E-04 Eh
   gradient norm :     0.0010229 Eh/α   predicted    -0.4256950E-04 ( -36.10%)
   displ. norm   :     0.3707215 α      lambda       -0.7659137E-04
   maximum displ.:     0.2394968 α      in ANC's #6, #5, #1, ...

........................................................................
.............................. CYCLE   26 ..............................
........................................................................

 iter      E             dE          RMSdq      gap      omega  full diag
   1   -141.5353026 -0.141535E+03  0.610E-02    0.69       0.0  T
   2   -141.5353042 -0.161169E-05  0.359E-02    0.69       1.0  T
   3   -141.5353004  0.379625E-05  0.656E-03    0.69       1.7  T
   4   -141.5353050 -0.451558E-05  0.126E-03    0.69       8.6  T
   5   -141.5353050 -0.625556E-07  0.675E-04    0.69      16.1  T
   6   -141.5353050 -0.584097E-08  0.330E-04    0.69      32.9  T
     SCC iter.                  ...        0 min,  0.063 sec
     gradient                   ...        0 min,  0.012 sec
 * total energy  :  -139.1939365 Eh     change       -0.8106155E-04 Eh
   gradient norm :     0.0038410 Eh/α   predicted    -0.4064040E-04 ( -49.86%)
   displ. norm   :     0.1733859 α      lambda       -0.4666499E-04
   maximum displ.:     0.1118756 α      in ANC's #6, #5, #1, ...

........................................................................
.............................. CYCLE   27 ..............................
........................................................................

 iter      E             dE          RMSdq      gap      omega  full diag
   1   -141.5351630 -0.141535E+03  0.277E-02    0.69       0.0  T
   2   -141.5351632 -0.177757E-06  0.163E-02    0.69       1.0  T
   3   -141.5351630  0.138843E-06  0.156E-03    0.69       7.0  T
   4   -141.5351633 -0.222713E-06  0.476E-04    0.69      22.8  T
   5   -141.5351633 -0.254533E-08  0.251E-04    0.69      43.1  T
     SCC iter.                  ...        0 min,  0.053 sec
     gradient                   ...        0 min,  0.013 sec
 * total energy  :  -139.1939807 Eh     change       -0.4420072E-04 Eh
   gradient norm :     0.0035321 Eh/α   predicted    -0.2403774E-04 ( -45.62%)
   displ. norm   :     0.3000288 α      lambda       -0.9665787E-04
   maximum displ.:     0.1894853 α      in ANC's #6, #5, #1, ...

........................................................................
.............................. CYCLE   28 ..............................
........................................................................

 iter      E             dE          RMSdq      gap      omega  full diag
   1   -141.5346547 -0.141535E+03  0.483E-02    0.69       0.0  T
   2   -141.5346553 -0.556904E-06  0.284E-02    0.69       1.0  T
   3   -141.5346548  0.474390E-06  0.284E-03    0.69       3.8  T
   4   -141.5346555 -0.721517E-06  0.755E-04    0.69      14.4  T
   5   -141.5346555 -0.645045E-08  0.397E-04    0.69      27.3  T
     SCC iter.                  ...        0 min,  0.052 sec
     gradient                   ...        0 min,  0.012 sec
 * total energy  :  -139.1940683 Eh     change       -0.8766214E-04 Eh
   gradient norm :     0.0020492 Eh/α   predicted    -0.5268242E-04 ( -39.90%)
   displ. norm   :     0.5034457 α      lambda       -0.1457220E-03
   maximum displ.:     0.3134603 α      in ANC's #6, #5, #12, ...

........................................................................
.............................. CYCLE   29 ..............................
........................................................................

 iter      E             dE          RMSdq      gap      omega  full diag
   1   -141.5328409 -0.141533E+03  0.823E-02    0.69       0.0  T
   2   -141.5328426 -0.163905E-05  0.484E-02    0.69       1.0  T
   3   -141.5328410  0.157386E-05  0.499E-03    0.70       2.2  T
   4   -141.5328433 -0.226627E-05  0.123E-03    0.69       8.9  T
   5   -141.5328433 -0.223210E-07  0.657E-04    0.69      16.5  T
   6   -141.5328433 -0.632795E-08  0.271E-04    0.69      40.1  T
     SCC iter.                  ...        0 min,  0.062 sec
     gradient                   ...        0 min,  0.012 sec
 * total energy  :  -139.1941870 Eh     change       -0.1187132E-03 Eh
   gradient norm :     0.0018553 Eh/α   predicted    -0.9133118E-04 ( -23.07%)
   displ. norm   :     0.8021009 α      lambda       -0.1106285E-03
   maximum displ.:     0.4955036 α      in ANC's #6, #5, #12, ...

........................................................................
.............................. CYCLE   30 ..............................
........................................................................

 iter      E             dE          RMSdq      gap      omega  full diag
   1   -141.5293054 -0.141529E+03  0.132E-01    0.69       0.0  T
   2   -141.5293097 -0.432401E-05  0.775E-02    0.70       1.0  T
   3   -141.5293045  0.519716E-05  0.868E-03    0.70       1.2  T
   4   -141.5293115 -0.700367E-05  0.188E-03    0.70       5.8  T
   5   -141.5293116 -0.615889E-07  0.993E-04    0.70      10.9  T
   6   -141.5293116 -0.115455E-07  0.449E-04    0.70      24.2  T
     SCC iter.                  ...        0 min,  0.061 sec
     gradient                   ...        0 min,  0.012 sec
 * total energy  :  -139.1942743 Eh     change       -0.8729941E-04 Eh
   gradient norm :     0.0045271 Eh/α   predicted    -0.7113609E-04 ( -18.51%)
   displ. norm   :     0.0660329 α      lambda       -0.3979285E-04
   maximum displ.:     0.0328030 α      in ANC's #6, #12, #5, ...

........................................................................
.............................. CYCLE   31 ..............................
........................................................................

 iter      E             dE          RMSdq      gap      omega  full diag
   1   -141.5328255 -0.141533E+03  0.139E-02    0.70       0.0  T
   2   -141.5328258 -0.270172E-06  0.821E-03    0.71       1.3  T
   3   -141.5328251  0.632805E-06  0.269E-03    0.70       4.0  T
   4   -141.5328259 -0.728519E-06  0.411E-04    0.71      26.4  T
   5   -141.5328259 -0.134699E-07  0.152E-04    0.71      71.3  T
     SCC iter.                  ...        0 min,  0.054 sec
     gradient                   ...        0 min,  0.012 sec
 * total energy  :  -139.1943037 Eh     change       -0.2935617E-04 Eh
   gradient norm :     0.0025360 Eh/α   predicted    -0.1998798E-04 ( -31.91%)
   displ. norm   :     0.1779062 α      lambda       -0.3808350E-04
   maximum displ.:     0.1029049 α      in ANC's #6, #5, #1, ...

........................................................................
.............................. CYCLE   32 ..............................
........................................................................

 iter      E             dE          RMSdq      gap      omega  full diag
   1   -141.5353984 -0.141535E+03  0.327E-02    0.71       0.0  T
   2   -141.5353990 -0.622701E-06  0.192E-02    0.71       1.0  T
   3   -141.5353974  0.159468E-05  0.412E-03    0.71       2.6  T
   4   -141.5353992 -0.179960E-05  0.668E-04    0.71      16.2  T
   5   -141.5353993 -0.359404E-07  0.250E-04    0.71      43.4  T
   6   -141.5353993 -0.152451E-08  0.138E-04    0.71      78.4  T
     SCC iter.                  ...        0 min,  0.062 sec
     gradient                   ...        0 min,  0.012 sec
 * total energy  :  -139.1943307 Eh     change       -0.2696262E-04 Eh
   gradient norm :     0.0013784 Eh/α   predicted    -0.1964549E-04 ( -27.14%)
   displ. norm   :     0.3170504 α      lambda       -0.2669744E-04
   maximum displ.:     0.1832890 α      in ANC's #6, #5, #1, ...

........................................................................
.............................. CYCLE   33 ..............................
........................................................................

 iter      E             dE          RMSdq      gap      omega  full diag
   1   -141.5359807 -0.141536E+03  0.584E-02    0.71       0.0  T
   2   -141.5359821 -0.143620E-05  0.343E-02    0.71       1.0  T
   3   -141.5359798  0.227372E-05  0.524E-03    0.71       2.1  T
   4   -141.5359825 -0.263080E-05  0.105E-03    0.72      10.3  T
   5   -141.5359825 -0.805530E-07  0.428E-04    0.72      25.3  T
   6   -141.5359825 -0.363312E-08  0.245E-04    0.72      44.3  T
     SCC iter.                  ...        0 min,  0.062 sec
     gradient                   ...        0 min,  0.014 sec
 * total energy  :  -139.1943582 Eh     change       -0.2750452E-04 Eh
   gradient norm :     0.0019335 Eh/α   predicted    -0.1394633E-04 ( -49.29%)
   displ. norm   :     0.2439311 α      lambda       -0.1961041E-04
   maximum displ.:     0.1342630 α      in ANC's #6, #5, #1, ...

........................................................................
.............................. CYCLE   34 ..............................
........................................................................

 iter      E             dE          RMSdq      gap      omega  full diag
   1   -141.5345038 -0.141535E+03  0.461E-02    0.71       0.0  T
   2   -141.5345045 -0.690842E-06  0.270E-02    0.72       1.0  T
   3   -141.5345037  0.824668E-06  0.357E-03    0.72       3.0  T
   4   -141.5345047 -0.103678E-05  0.663E-04    0.72      16.3  T
   5   -141.5345047 -0.154024E-07  0.327E-04    0.72      33.2  T
   6   -141.5345047 -0.130453E-08  0.188E-04    0.72      57.7  T
     SCC iter.                  ...        0 min,  0.062 sec
     gradient                   ...        0 min,  0.013 sec
 * total energy  :  -139.1943800 Eh     change       -0.2188509E-04 Eh
   gradient norm :     0.0016530 Eh/α   predicted    -0.1006824E-04 ( -54.00%)
   displ. norm   :     0.1289722 α      lambda       -0.1674688E-04
   maximum displ.:     0.0644379 α      in ANC's #14, #1, #7, ...

........................................................................
.............................. CYCLE   35 ..............................
........................................................................

 iter      E             dE          RMSdq      gap      omega  full diag
   1   -141.5342985 -0.141534E+03  0.271E-02    0.72       0.0  T
   2   -141.5342987 -0.244908E-06  0.159E-02    0.72       1.0  T
   3   -141.5342984  0.324627E-06  0.234E-03    0.72       4.6  T
   4   -141.5342988 -0.413892E-06  0.410E-04    0.72      26.4  T
   5   -141.5342988 -0.367058E-08  0.210E-04    0.72      51.6  T
     SCC iter.                  ...        0 min,  0.051 sec
     gradient                   ...        0 min,  0.012 sec
 * total energy  :  -139.1943980 Eh     change       -0.1795337E-04 Eh
   gradient norm :     0.0009857 Eh/α   predicted    -0.8436124E-05 ( -53.01%)
   displ. norm   :     0.0805959 α      lambda       -0.9427726E-05
   maximum displ.:     0.0565010 α      in ANC's #14, #7, #1, ...

........................................................................
.............................. CYCLE   36 ..............................
........................................................................

 iter      E             dE          RMSdq      gap      omega  full diag
   1   -141.5341703 -0.141534E+03  0.163E-02    0.72       0.0  T
   2   -141.5341704 -0.961246E-07  0.962E-03    0.72       1.1  T
   3   -141.5341703  0.817166E-07  0.130E-03    0.72       8.3  T
   4   -141.5341705 -0.117771E-06  0.302E-04    0.72      35.9  T
   5   -141.5341705 -0.129927E-08  0.146E-04    0.72      74.3  T
     SCC iter.                  ...        0 min,  0.052 sec
     gradient                   ...        0 min,  0.012 sec
 * total energy  :  -139.1944069 Eh     change       -0.8944052E-05 Eh
   gradient norm :     0.0007689 Eh/α   predicted    -0.4727715E-05 ( -47.14%)
   displ. norm   :     0.0624632 α      lambda       -0.5485505E-05
   maximum displ.:     0.0411310 α      in ANC's #14, #7, #6, ...

........................................................................
.............................. CYCLE   37 ..............................
........................................................................

 iter      E             dE          RMSdq      gap      omega  full diag
   1   -141.5341205 -0.141534E+03  0.113E-02    0.72       0.0  T
   2   -141.5341205 -0.519785E-07  0.668E-03    0.72       1.6  T
   3   -141.5341205  0.178410E-07  0.689E-04    0.72      15.7  T
   4   -141.5341206 -0.348528E-07  0.222E-04    0.72      48.8  T
     SCC iter.                  ...        0 min,  0.041 sec
     gradient                   ...        0 min,  0.012 sec
 * total energy  :  -139.1944125 Eh     change       -0.5513148E-05 Eh
   gradient norm :     0.0007952 Eh/α   predicted    -0.2749853E-05 ( -50.12%)
   displ. norm   :     0.0698836 α      lambda       -0.4674147E-05
   maximum displ.:     0.0413228 α      in ANC's #14, #6, #7, ...

........................................................................
.............................. CYCLE   38 ..............................
........................................................................

 iter      E             dE          RMSdq      gap      omega  full diag
   1   -141.5340785 -0.141534E+03  0.122E-02    0.72       0.0  T
   2   -141.5340785 -0.394132E-07  0.721E-03    0.72       1.5  T
   3   -141.5340785  0.303727E-07  0.748E-04    0.72      14.5  T
   4   -141.5340786 -0.500905E-07  0.227E-04    0.72      47.9  T
     SCC iter.                  ...        0 min,  0.041 sec
     gradient                   ...        0 min,  0.012 sec
 * total energy  :  -139.1944181 Eh     change       -0.5678943E-05 Eh
   gradient norm :     0.0007142 Eh/α   predicted    -0.2345257E-05 ( -58.70%)
   displ. norm   :     0.1071578 α      lambda       -0.6699073E-05
   maximum displ.:     0.0562198 α      in ANC's #14, #6, #1, ...

........................................................................
.............................. CYCLE   39 ..............................
........................................................................

 iter      E             dE          RMSdq      gap      omega  full diag
   1   -141.5339194 -0.141534E+03  0.188E-02    0.72       0.0  T
   2   -141.5339195 -0.929290E-07  0.111E-02    0.72       1.0  T
   3   -141.5339195  0.744749E-07  0.121E-03    0.72       8.9  T
   4   -141.5339196 -0.120705E-06  0.347E-04    0.72      31.3  T
   5   -141.5339196 -0.646594E-09  0.160E-04    0.72      67.8  T
     SCC iter.                  ...        0 min,  0.052 sec
     gradient                   ...        0 min,  0.012 sec
 * total energy  :  -139.1944249 Eh     change       -0.6809013E-05 Eh
   gradient norm :     0.0005052 Eh/α   predicted    -0.3367591E-05 ( -50.54%)
   displ. norm   :     0.0560872 α      lambda       -0.2738884E-05
   maximum displ.:     0.0282902 α      in ANC's #1, #12, #6, ...

........................................................................
.............................. CYCLE   40 ..............................
........................................................................

 iter      E             dE          RMSdq      gap      omega  full diag
   1   -141.5338480 -0.141534E+03  0.924E-03    0.72       0.0  T
   2   -141.5338480 -0.323820E-07  0.544E-03    0.72       2.0  T
   3   -141.5338480  0.288949E-07  0.731E-04    0.72      14.8  T
   4   -141.5338481 -0.412773E-07  0.172E-04    0.72      63.2  T
     SCC iter.                  ...        0 min,  0.041 sec
     gradient                   ...        0 min,  0.012 sec
 * total energy  :  -139.1944279 Eh     change       -0.2957160E-05 Eh
   gradient norm :     0.0003858 Eh/α   predicted    -0.1375564E-05 ( -53.48%)
   displ. norm   :     0.0379085 α      lambda       -0.2142139E-05
   maximum displ.:     0.0232555 α      in ANC's #1, #12, #6, ...

........................................................................
.............................. CYCLE   41 ..............................
........................................................................

 iter      E             dE          RMSdq      gap      omega  full diag
   1   -141.5339095 -0.141534E+03  0.600E-03    0.72       0.0  T
   2   -141.5339095 -0.111938E-07  0.352E-03    0.72       3.1  T
   3   -141.5339094  0.172101E-07  0.520E-04    0.72      20.8  T
   4   -141.5339095 -0.218297E-07  0.101E-04    0.72     107.4  T
     SCC iter.                  ...        0 min,  0.041 sec
     gradient                   ...        0 min,  0.012 sec
 * total energy  :  -139.1944305 Eh     change       -0.2591699E-05 Eh
   gradient norm :     0.0003871 Eh/α   predicted    -0.1076400E-05 ( -58.47%)
   displ. norm   :     0.0494198 α      lambda       -0.2749898E-05
   maximum displ.:     0.0305781 α      in ANC's #1, #12, #5, ...

........................................................................
.............................. CYCLE   42 ..............................
........................................................................

 iter      E             dE          RMSdq      gap      omega  full diag
   1   -141.5338920 -0.141534E+03  0.741E-03    0.72       0.0  T
   2   -141.5338920 -0.162518E-07  0.435E-03    0.72       2.5  T
   3   -141.5338920  0.279379E-07  0.614E-04    0.72      17.7  T
   4   -141.5338921 -0.334809E-07  0.108E-04    0.72     100.5  T
     SCC iter.                  ...        0 min,  0.041 sec
     gradient                   ...        0 min,  0.012 sec
 * total energy  :  -139.1944338 Eh     change       -0.3336789E-05 Eh
   gradient norm :     0.0005306 Eh/α   predicted    -0.1378102E-05 ( -58.70%)
   displ. norm   :     0.0646560 α      lambda       -0.3075373E-05
   maximum displ.:     0.0418093 α      in ANC's #1, #5, #12, ...
 * RMSD in coord.:     0.3589342 α      energy gain  -0.8546226E-03 Eh

generating ANC from exact Hessian ...
Using Lindh-Hessian (1995)
 Shifting diagonal of input Hessian by   9.902601813767974E-003
 Lowest  eigenvalues of input Hessian
    0.000000    0.000000    0.000000    0.000000    0.000000    0.000000
    0.010000    0.010023    0.010090    0.010290    0.010404    0.010589
    0.010709    0.011047    0.011264    0.011537    0.012106    0.012224
 Highest eigenvalues
    2.197203    2.197515    2.214929    2.214948    2.232205    2.242749
 

........................................................................
.............................. CYCLE   43 ..............................
........................................................................

 iter      E             dE          RMSdq      gap      omega  full diag
   1   -141.5338653 -0.141534E+03  0.892E-03    0.72       0.0  T
   2   -141.5338653 -0.204853E-07  0.524E-03    0.72       2.1  T
   3   -141.5338653  0.294711E-07  0.652E-04    0.72      16.6  T
   4   -141.5338653 -0.367110E-07  0.126E-04    0.72      86.0  T
     SCC iter.                  ...        0 min,  0.042 sec
     gradient                   ...        0 min,  0.012 sec
 * total energy  :  -139.1944375 Eh     change       -0.3658026E-05 Eh
   gradient norm :     0.0005008 Eh/α   predicted     0.0000000E+00 (-100.00%)
   displ. norm   :     0.0125399 α      lambda       -0.9061724E-06
   maximum displ.:     0.0086166 α      in ANC's #1, #6, #31, ...

........................................................................
.............................. CYCLE   44 ..............................
........................................................................

 iter      E             dE          RMSdq      gap      omega  full diag
   1   -141.5340828 -0.141534E+03  0.208E-03    0.72       0.0  T
   2   -141.5340828 -0.820845E-08  0.123E-03    0.72       8.8  T
   3   -141.5340828  0.552231E-08  0.318E-04    0.72      34.1  T
   4   -141.5340828 -0.697904E-08  0.678E-05    0.72     159.9  T
     SCC iter.                  ...        0 min,  0.041 sec
     gradient                   ...        0 min,  0.012 sec
 * total energy  :  -139.1944390 Eh     change       -0.1471849E-05 Eh
   gradient norm :     0.0001827 Eh/α   predicted    -0.6078862E-06 ( -58.70%)
   displ. norm   :     0.0309953 α      lambda       -0.1976651E-05
   maximum displ.:     0.0208489 α      in ANC's #1, #6, #31, ...

........................................................................
.............................. CYCLE   45 ..............................
........................................................................

 iter      E             dE          RMSdq      gap      omega  full diag
   1   -141.5341922 -0.141534E+03  0.427E-03    0.72       0.0  T
   2   -141.5341922 -0.809820E-08  0.252E-03    0.72       4.3  T
   3   -141.5341922  0.174344E-07  0.475E-04    0.72      22.8  T
   4   -141.5341922 -0.212666E-07  0.837E-05    0.72     129.6  T
     SCC iter.                  ...        0 min,  0.041 sec
     gradient                   ...        0 min,  0.012 sec
 * total energy  :  -139.1944411 Eh     change       -0.2140105E-05 Eh
   gradient norm :     0.0003673 Eh/α   predicted    -0.9889006E-06 ( -53.79%)
   displ. norm   :     0.0310322 α      lambda       -0.1282092E-05
   maximum displ.:     0.0220836 α      in ANC's #1, #6, #5, ...

........................................................................
.............................. CYCLE   46 ..............................
........................................................................

 iter      E             dE          RMSdq      gap      omega  full diag
   1   -141.5341783 -0.141534E+03  0.349E-03    0.72       0.0  T
   2   -141.5341783 -0.382110E-08  0.206E-03    0.72       5.3  T
   3   -141.5341783  0.637451E-08  0.299E-04    0.72      36.2  T
   4   -141.5341783 -0.844128E-08  0.697E-05    0.72     155.5  T
     SCC iter.                  ...        0 min,  0.042 sec
     gradient                   ...        0 min,  0.012 sec
 * total energy  :  -139.1944427 Eh     change       -0.1622301E-05 Eh
   gradient norm :     0.0003785 Eh/α   predicted    -0.6525172E-06 ( -59.78%)
   displ. norm   :     0.0333514 α      lambda       -0.1413578E-05
   maximum displ.:     0.0234819 α      in ANC's #1, #6, #5, ...

........................................................................
.............................. CYCLE   47 ..............................
........................................................................

 iter      E             dE          RMSdq      gap      omega  full diag
   1   -141.5341490 -0.141534E+03  0.365E-03    0.72       0.0  T
   2   -141.5341490 -0.389818E-08  0.215E-03    0.72       5.1  T
   3   -141.5341490  0.556000E-08  0.282E-04    0.72      38.4  T
   4   -141.5341490 -0.746201E-08  0.682E-05    0.72     159.1  T
     SCC iter.                  ...        0 min,  0.041 sec
     gradient                   ...        0 min,  0.012 sec
 * total energy  :  -139.1944446 Eh     change       -0.1925439E-05 Eh
   gradient norm :     0.0002912 Eh/α   predicted    -0.7092844E-06 ( -63.16%)
   displ. norm   :     0.0482863 α      lambda       -0.2131713E-05
   maximum displ.:     0.0336017 α      in ANC's #1, #6, #5, ...

........................................................................
.............................. CYCLE   48 ..............................
........................................................................

 iter      E             dE          RMSdq      gap      omega  full diag
   1   -141.5340527 -0.141534E+03  0.565E-03    0.72       0.0  T
   2   -141.5340528 -0.873922E-08  0.332E-03    0.72       3.3  T
   3   -141.5340527  0.103535E-07  0.399E-04    0.72      27.2  T
   4   -141.5340528 -0.144354E-07  0.955E-05    0.72     113.5  T
     SCC iter.                  ...        0 min,  0.040 sec
     gradient                   ...        0 min,  0.012 sec
 * total energy  :  -139.1944475 Eh     change       -0.2806319E-05 Eh
   gradient norm :     0.0001542 Eh/α   predicted    -0.1071613E-05 ( -61.81%)
   displ. norm   :     0.0607293 α      lambda       -0.2380814E-05
   maximum displ.:     0.0427343 α      in ANC's #1, #6, #5, ...

........................................................................
.............................. CYCLE   49 ..............................
........................................................................

 iter      E             dE          RMSdq      gap      omega  full diag
   1   -141.5339544 -0.141534E+03  0.729E-03    0.72       0.0  T
   2   -141.5339544 -0.123974E-07  0.429E-03    0.72       2.5  T
   3   -141.5339544  0.132978E-07  0.463E-04    0.72      23.4  T
   4   -141.5339544 -0.197525E-07  0.118E-04    0.72      91.8  T
     SCC iter.                  ...        0 min,  0.042 sec
     gradient                   ...        0 min,  0.012 sec
 * total energy  :  -139.1944505 Eh     change       -0.3094952E-05 Eh
   gradient norm :     0.0002344 Eh/α   predicted    -0.1193919E-05 ( -61.42%)
   displ. norm   :     0.0591320 α      lambda       -0.2056966E-05
   maximum displ.:     0.0420898 α      in ANC's #1, #5, #6, ...

........................................................................
.............................. CYCLE   50 ..............................
........................................................................

 iter      E             dE          RMSdq      gap      omega  full diag
   1   -141.5339267 -0.141534E+03  0.718E-03    0.72       0.0  T
   2   -141.5339267 -0.100709E-07  0.422E-03    0.72       2.6  T
   3   -141.5339267  0.102763E-07  0.407E-04    0.72      26.6  T
   4   -141.5339267 -0.159199E-07  0.109E-04    0.72      99.6  T
     SCC iter.                  ...        0 min,  0.041 sec
     gradient                   ...        0 min,  0.012 sec
 * total energy  :  -139.1944534 Eh     change       -0.2811930E-05 Eh
   gradient norm :     0.0002500 Eh/α   predicted    -0.1031120E-05 ( -63.33%)
   displ. norm   :     0.0540876 α      lambda       -0.1894924E-05
   maximum displ.:     0.0388140 α      in ANC's #1, #5, #6, ...

........................................................................
.............................. CYCLE   51 ..............................
........................................................................

 iter      E             dE          RMSdq      gap      omega  full diag
   1   -141.5339055 -0.141534E+03  0.676E-03    0.72       0.0  T
   2   -141.5339055 -0.801040E-08  0.397E-03    0.72       2.7  T
   3   -141.5339055  0.562267E-08  0.330E-04    0.72      32.9  T
   4   -141.5339055 -0.102089E-07  0.993E-05    0.72     109.2  T
     SCC iter.                  ...        0 min,  0.041 sec
     gradient                   ...        0 min,  0.012 sec
 * total energy  :  -139.1944561 Eh     change       -0.2704983E-05 Eh
   gradient norm :     0.0002441 Eh/α   predicted    -0.9497516E-06 ( -64.89%)
   displ. norm   :     0.0550359 α      lambda       -0.2068650E-05
   maximum displ.:     0.0394693 α      in ANC's #1, #5, #9, ...

........................................................................
.............................. CYCLE   52 ..............................
........................................................................

 iter      E             dE          RMSdq      gap      omega  full diag
   1   -141.5339404 -0.141534E+03  0.718E-03    0.72       0.0  T
   2   -141.5339404 -0.891706E-08  0.422E-03    0.72       2.6  T
   3   -141.5339404  0.499676E-08  0.337E-04    0.72      32.2  T
   4   -141.5339404 -0.100004E-07  0.104E-04    0.72     104.7  T
     SCC iter.                  ...        0 min,  0.042 sec
     gradient                   ...        0 min,  0.012 sec
 * total energy  :  -139.1944590 Eh     change       -0.2971887E-05 Eh
   gradient norm :     0.0001629 Eh/α   predicted    -0.1037287E-05 ( -65.10%)
   displ. norm   :     0.0641472 α      lambda       -0.2472156E-05
   maximum displ.:     0.0458663 α      in ANC's #1, #5, #9, ...

........................................................................
.............................. CYCLE   53 ..............................
........................................................................

 iter      E             dE          RMSdq      gap      omega  full diag
   1   -141.5339547 -0.141534E+03  0.870E-03    0.72       0.0  T
   2   -141.5339547 -0.125281E-07  0.511E-03    0.72       2.1  T
   3   -141.5339547  0.417211E-08  0.375E-04    0.72      29.0  T
   4   -141.5339547 -0.112852E-07  0.126E-04    0.72      86.0  T
     SCC iter.                  ...        0 min,  0.041 sec
     gradient                   ...        0 min,  0.012 sec
 * total energy  :  -139.1944625 Eh     change       -0.3502402E-05 Eh
   gradient norm :     0.0001223 Eh/α   predicted    -0.1239351E-05 ( -64.61%)
   displ. norm   :     0.0739572 α      lambda       -0.2735335E-05
   maximum displ.:     0.0528640 α      in ANC's #1, #5, #9, ...

........................................................................
.............................. CYCLE   54 ..............................
........................................................................

 iter      E             dE          RMSdq      gap      omega  full diag
   1   -141.5339750 -0.141534E+03  0.103E-02    0.72       0.0  T
   2   -141.5339750 -0.174075E-07  0.605E-03    0.72       1.8  T
   3   -141.5339750  0.350175E-08  0.422E-04    0.72      25.7  T
   4   -141.5339750 -0.134535E-07  0.152E-04    0.72      71.4  T
     SCC iter.                  ...        0 min,  0.042 sec
     gradient                   ...        0 min,  0.012 sec
 * total energy  :  -139.1944663 Eh     change       -0.3801131E-05 Eh
   gradient norm :     0.0001252 Eh/α   predicted    -0.1372339E-05 ( -63.90%)
   displ. norm   :     0.0748393 α      lambda       -0.2547630E-05
   maximum displ.:     0.0539685 α      in ANC's #1, #5, #9, ...

........................................................................
.............................. CYCLE   55 ..............................
........................................................................

 iter      E             dE          RMSdq      gap      omega  full diag
   1   -141.5339764 -0.141534E+03  0.105E-02    0.72       0.0  T
   2   -141.5339764 -0.175579E-07  0.617E-03    0.72       1.8  T
   3   -141.5339764  0.168234E-08  0.401E-04    0.72      27.1  T
   4   -141.5339764 -0.118278E-07  0.156E-04    0.72      69.4  T
     SCC iter.                  ...        0 min,  0.042 sec
     gradient                   ...        0 min,  0.013 sec
 * total energy  :  -139.1944698 Eh     change       -0.3502823E-05 Eh
   gradient norm :     0.0001720 Eh/α   predicted    -0.1277902E-05 ( -63.52%)
   displ. norm   :     0.0649660 α      lambda       -0.2060406E-05
   maximum displ.:     0.0476026 α      in ANC's #1, #5, #9, ...

........................................................................
.............................. CYCLE   56 ..............................
........................................................................

 iter      E             dE          RMSdq      gap      omega  full diag
   1   -141.5339675 -0.141534E+03  0.903E-03    0.72       0.0  T
   2   -141.5339675 -0.128767E-07  0.531E-03    0.72       2.0  T
   3   -141.5339675  0.195325E-08  0.342E-04    0.72      31.7  T
   4   -141.5339675 -0.941952E-08  0.137E-04    0.72      79.4  T
     SCC iter.                  ...        0 min,  0.041 sec
     gradient                   ...        0 min,  0.012 sec
 * total energy  :  -139.1944726 Eh     change       -0.2801810E-05 Eh
   gradient norm :     0.0001583 Eh/α   predicted    -0.1032966E-05 ( -63.13%)
   displ. norm   :     0.0485588 α      lambda       -0.1474138E-05
   maximum displ.:     0.0366045 α      in ANC's #1, #5, #6, ...

........................................................................
.............................. CYCLE   57 ..............................
........................................................................

 iter      E             dE          RMSdq      gap      omega  full diag
   1   -141.5339745 -0.141534E+03  0.651E-03    0.72       0.0  T
   2   -141.5339745 -0.692930E-08  0.383E-03    0.72       2.8  T
   3   -141.5339745  0.415503E-08  0.291E-04    0.72      37.3  T
   4   -141.5339745 -0.836255E-08  0.103E-04    0.72     105.4  T
     SCC iter.                  ...        0 min,  0.042 sec
     gradient                   ...        0 min,  0.013 sec
 * total energy  :  -139.1944747 Eh     change       -0.2040866E-05 Eh
   gradient norm :     0.0001282 Eh/α   predicted    -0.7404455E-06 ( -63.72%)
   displ. norm   :     0.0331070 α      lambda       -0.1018135E-05
   maximum displ.:     0.0261343 α      in ANC's #1, #5, #6, ...

........................................................................
.............................. CYCLE   58 ..............................
........................................................................

 iter      E             dE          RMSdq      gap      omega  full diag
   1   -141.5339594 -0.141534E+03  0.404E-03    0.72       0.0  T
   2   -141.5339594 -0.268750E-08  0.238E-03    0.72       4.6  T
   3   -141.5339594  0.227934E-08  0.197E-04    0.72      55.2  T
   4   -141.5339594 -0.387789E-08  0.639E-05    0.72     169.9  T
     SCC iter.                  ...        0 min,  0.041 sec
     gradient                   ...        0 min,  0.012 sec
 * total energy  :  -139.1944761 Eh     change       -0.1458096E-05 Eh
   gradient norm :     0.0000957 Eh/α   predicted    -0.5120482E-06 ( -64.88%)
   displ. norm   :     0.0232471 α      lambda       -0.7894100E-06
   maximum displ.:     0.0192998 α      in ANC's #1, #5, #14, ...

........................................................................
.............................. CYCLE   59 ..............................
........................................................................

 iter      E             dE          RMSdq      gap      omega  full diag
   1   -141.5339379 -0.141534E+03  0.240E-03    0.72       0.0  T
   2   -141.5339379 -0.130191E-08  0.141E-03    0.72       7.7  T
   3   -141.5339379  0.231447E-08  0.171E-04    0.72      63.4  T
   4   -141.5339379 -0.301480E-08  0.406E-05    0.72     267.4  T
     SCC iter.                  ...        0 min,  0.042 sec
     gradient                   ...        0 min,  0.012 sec
 * total energy  :  -139.1944773 Eh     change       -0.1146807E-05 Eh
   gradient norm :     0.0000791 Eh/α   predicted    -0.3965493E-06 ( -65.42%)
   displ. norm   :     0.0192470 α      lambda       -0.7279527E-06
   maximum displ.:     0.0164039 α      in ANC's #1, #5, #7, ...

........................................................................
.............................. CYCLE   60 ..............................
........................................................................

 iter      E             dE          RMSdq      gap      omega  full diag
   1   -141.5339264 -0.141534E+03  0.172E-03    0.72       0.0  T
   2   -141.5339264 -0.991804E-09  0.101E-03    0.72      10.7  T
   3   -141.5339264  0.202809E-08  0.159E-04    0.72      68.1  T
   4   -141.5339264 -0.246388E-08  0.316E-05    0.72     343.2  T
     SCC iter.                  ...        0 min,  0.042 sec
     gradient                   ...        0 min,  0.012 sec
 * total energy  :  -139.1944783 Eh     change       -0.1057232E-05 Eh
   gradient norm :     0.0000771 Eh/α   predicted    -0.3646488E-06 ( -65.51%)
   displ. norm   :     0.0193021 α      lambda       -0.7648198E-06
   maximum displ.:     0.0162432 α      in ANC's #1, #12, #9, ...

........................................................................
.............................. CYCLE   61 ..............................
........................................................................

 iter      E             dE          RMSdq      gap      omega  full diag
   1   -141.5339044 -0.141534E+03  0.184E-03    0.72       0.0  T
   2   -141.5339044 -0.135975E-08  0.108E-03    0.72      10.0  T
   3   -141.5339044  0.270694E-08  0.188E-04    0.72      57.7  T
   4   -141.5339044 -0.326415E-08  0.349E-05    0.72     310.5  T
     SCC iter.                  ...        0 min,  0.041 sec
     gradient                   ...        0 min,  0.012 sec
 * total energy  :  -139.1944795 Eh     change       -0.1111747E-05 Eh
   gradient norm :     0.0000811 Eh/α   predicted    -0.3832249E-06 ( -65.53%)
   displ. norm   :     0.0216980 α      lambda       -0.8573935E-06
   maximum displ.:     0.0176226 α      in ANC's #1, #9, #12, ...

........................................................................
.............................. CYCLE   62 ..............................
[...]
    36   6 C       75   1 H                                       1.0786810
    37   6 C       76   1 H                                       1.0793259
    38   6 C       77   1 H                                       1.0786688
    39   6 C       78   1 H                                       1.0789091
    43   6 C       79   1 H                                       1.0788548
    44   6 C       80   1 H                                       1.0785480
    45   6 C       81   1 H                                       1.0787986
    46   6 C       82   1 H                                       1.0783059
    48   6 C       83   1 H                                       1.0796889
    49   6 C       84   1 H                                       1.0790654
    50   6 C       85   1 H                                       1.0796287

 * 4 distinct bonds (by element types)

   Z      Z             #   av. dist./Å        max./Å        min./Å
   1 H    6 C          32     1.0807662     1.0889150     1.0783055
   6 C    6 C          44     1.3956602     1.5329557     1.3798395
   6 C    7 N           6     1.4016993     1.4148698     1.3946977
   6 C    8 O           6     1.3215298     1.3770709     1.2104901

           -------------------------------------------------
          |               Frequency Printout                |
           -------------------------------------------------
 projected vibrational frequencies (cm⁻¹)
eigval :       -0.00    -0.00    -0.00    -0.00     0.00     0.00
eigval :        1.16     9.16    11.22    20.34    22.35    26.17
eigval :       30.53    39.65    43.60    46.33    55.52    63.56
eigval :       64.69    70.28    78.18   109.70   115.45   116.26
eigval :      123.23   135.96   140.30   175.19   175.53   181.52
eigval :      187.29   191.89   198.10   201.28   226.52   237.34
eigval :      238.21   250.90   251.72   253.43   272.53   273.80
eigval :      275.07   282.64   287.99   324.73   346.24   361.28
eigval :      365.73   380.14   380.91   384.74   386.81   394.24
eigval :      398.30   414.92   422.24   427.05   428.55   432.86
eigval :      441.38   444.59   450.59   493.66   504.15   509.72
eigval :      510.42   517.12   522.06   522.50   531.34   532.24
eigval :      548.77   556.21   558.84   577.31   588.87   592.31
eigval :      602.50   604.57   613.48   614.18   644.01   659.52
eigval :      659.78   661.44   661.52   668.52   680.50   686.61
eigval :      700.91   703.34   718.86   720.17   728.42   735.00
eigval :      744.13   775.38   776.16   778.39   778.59   795.91
eigval :      800.26   820.34   821.25   851.35   851.76   858.82
eigval :      862.43   862.48   864.83   869.63   873.83   875.34
eigval :      881.80   892.45   894.55   895.32   896.83   896.96
eigval :      909.57   911.23   912.99   913.10   914.84   914.90
eigval :      916.40   917.03   922.21   924.55   925.87   933.16
eigval :      933.52   960.30   975.29  1005.97  1009.52  1024.47
eigval :     1030.40  1073.30  1088.13  1088.17  1090.28  1090.47
eigval :     1105.11  1105.47  1116.38  1117.52  1118.38  1130.83
eigval :     1132.08  1160.80  1169.85  1170.21  1174.55  1174.57
eigval :     1178.91  1179.99  1182.11  1186.82  1189.72  1195.12
eigval :     1195.25  1205.10  1209.87  1216.59  1219.97  1240.86
eigval :     1240.89  1243.33  1248.85  1258.38  1258.62  1262.23
eigval :     1263.07  1295.63  1304.05  1304.70  1305.59  1308.95
eigval :     1312.28  1315.37  1335.46  1335.92  1344.50  1354.65
eigval :     1356.49  1387.30  1392.21  1401.44  1404.13  1417.03
eigval :     1422.75  1423.59  1437.42  1442.09  1442.50  1472.55
eigval :     1480.51  1480.82  1482.54  1483.55  1484.28  1487.53
eigval :     1492.21  1504.45  1505.01  1550.35  1551.39  1557.37
eigval :     1561.06  1565.77  1565.83  1579.60  1579.68  1585.38
eigval :     1586.44  1589.92  1591.50  1602.95  1603.08  1717.41
eigval :     1739.14  3023.29  3025.75  3036.15  3036.82  3037.78
eigval :     3039.98  3082.25  3082.39  3085.93  3085.94  3087.46
eigval :     3087.89  3089.32  3089.79  3093.01  3093.41  3094.84
eigval :     3094.84  3095.12  3095.53  3096.09  3096.77  3099.86
eigval :     3100.20  3102.83  3102.84  3104.07  3104.89  3107.68
eigval :     3107.70  3109.62  3110.89
 reduced masses (amu)
   1: 11.97   2: 11.96   3: 11.95   4: 11.86   5: 11.97   6: 11.94   7: 11.71   8: 11.00
   9: 11.05  10: 10.35  11: 12.39  12: 11.95  13: 11.88  14: 12.14  15: 11.94  16: 11.22
  17: 11.88  18: 11.21  19: 11.46  20: 10.69  21: 10.46  22: 10.59  23: 10.91  24: 10.31
  25: 11.19  26: 11.42  27: 12.19  28: 10.94  29:  8.46  30:  3.26  31: 10.67  32: 11.47
  33: 11.23  34:  4.91  35: 11.52  36: 11.12  37: 10.91  38: 10.46  39: 10.50  40: 11.49
  41:  9.35  42: 10.81  43: 11.38  44: 11.01  45: 10.43  46: 13.18  47: 11.81  48: 11.08
  49: 10.98  50:  9.24  51: 10.88  52: 10.22  53:  9.67  54: 11.26  55: 11.18  56: 10.62
  57: 10.86  58:  9.71  59:  9.90  60: 11.26  61: 10.66  62: 10.70  63: 11.09  64: 11.04
  65: 10.90  66: 10.24  67: 10.26  68: 11.66  69: 10.84  70: 10.72  71: 11.86  72: 12.15
  73: 12.64  74: 11.40  75: 10.84  76: 11.41  77: 11.07  78: 11.25  79: 10.98  80: 11.45
  81: 11.58  82: 11.28  83: 11.58  84: 11.68  85: 11.68  86: 11.78  87: 11.79  88: 11.38
  89: 11.25  90: 11.30  91: 11.38  92: 11.71  93: 11.46  94: 11.44  95: 10.90  96: 11.45
  97: 11.62  98:  3.28  99:  3.21 100:  3.24 101:  3.25 102: 12.40 103: 12.33 104:  5.17
 105:  5.35 106: 12.46 107: 12.47 108:  3.37 109:  3.31 110:  3.31 111:  3.31 112:  9.44
 113:  4.04 114:  3.25 115:  4.42 116:  3.34 117:  3.88 118:  3.86 119:  3.85 120:  3.87
 121: 10.68 122: 10.81 123:  3.14 124:  3.11 125:  3.48 126:  3.19 127: 10.33 128: 11.24
 129: 10.39 130:  3.78 131:  3.05 132:  3.98 133:  3.97 134: 11.26 135:  4.04 136:  9.69
 137:  3.53 138:  8.25 139:  6.99 140:  6.16 141:  5.48 142:  5.51 143:  5.79 144:  5.78
 145:  8.77 146:  8.75 147:  9.01 148:  8.70 149: 10.61 150:  3.05 151:  3.52 152: 10.49
 153:  3.37 154:  3.64 155:  1.80 156:  1.80 157:  2.86 158:  2.93 159:  7.21 160:  3.94
 161:  3.56 162:  7.12 163:  7.13 164:  5.40 165:  6.61 166:  7.56 167:  8.21 168:  4.66
 169:  4.66 170:  9.70 171: 10.00 172:  4.59 173:  4.55 174:  3.32 175:  3.35 176: 10.46
 177: 11.40 178: 11.61 179: 11.52 180: 11.51 181: 11.59 182: 11.52 183: 10.38 184: 10.39
 185: 11.58 186: 11.01 187: 11.17 188:  2.91 189: 10.46 190:  9.78 191:  3.23 192: 10.80
 193:  9.33 194:  9.48 195:  9.88 196:  9.53 197:  9.72 198:  1.58 199:  1.59 200: 10.62
 201: 10.66 202:  9.90 203:  1.66 204: 10.06 205:  1.62 206: 10.56 207: 10.58 208: 11.80
 209: 11.66 210: 11.66 211: 11.76 212: 11.50 213: 11.51 214: 11.58 215: 11.57 216: 11.56
 217: 11.59 218: 11.59 219: 11.57 220: 11.73 221: 11.72 222: 13.41 223: 13.39 224:  1.90
 225:  1.79 226:  1.97 227:  1.29 228:  1.96 229:  1.38 230:  1.79 231:  1.79 232:  1.77
 233:  1.77 234:  1.79 235:  1.79 236:  1.76 237:  1.76 238:  1.88 239:  1.88 240:  1.81
 241:  1.81 242:  1.83 243:  1.84 244:  1.81 245:  1.81 246:  1.88 247:  1.88 248:  1.85
 249:  1.85 250:  1.85 251:  1.86 252:  1.91 253:  1.91 254:  1.91 255:  1.90
 IR intensities (km·mol⁻¹)
   1:  0.00   2:  0.00   3:  0.00   4:  0.00   5:  0.01   6:  0.00   7:  0.07   8:  0.03
   9:  0.17  10:  2.91  11:  0.39  12:  3.30  13:  0.15  14:  0.36  15:  0.05  16:  0.19
  17:  5.35  18:  4.09  19:  1.10  20:  2.58  21:  7.85  22:  0.08  23:  1.47  24:  0.03
  25:  3.07  26:  3.61  27:  3.19  28:  0.01  29:  0.03  30:  0.00  31:  0.23  32:  5.13
  33:  0.14  34:  1.20  35:  2.17  36:  0.74  37:  3.48  38:  1.49  39:  3.80  40:  0.30
  41:  2.14  42:  1.98  43:  1.55  44:  0.00  45:  7.38  46: 26.86  47:  2.80  48:  1.48
  49:  0.13  50:  2.33  51:  0.25  52:  4.71  53:  1.69  54:  2.84  55:  0.08  56:  0.38
  57:  0.04  58:  2.83  59:  6.10  60:  7.40  61:  7.41  62:  0.00  63:  3.21  64:  3.23
  65:  0.83  66:  2.06  67:  4.19  68:  0.25  69:  0.03  70:  0.18  71:  0.21  72: 20.76
  73:  2.83  74:  5.44  75:  3.12  76:  1.24  77:  2.49  78: 14.86  79:  6.25  80:  0.56
  81:  1.37  82:  0.02  83:  0.01  84:  3.66  85:  2.34  86:  0.32  87:  0.98  88: 10.07
  89:  0.00  90:  4.19  91:  7.97  92:  4.20  93: 21.43  94:  0.72  95:  0.26  96:  5.72
  97:  0.00  98: 58.70  99:  2.06 100:  1.71 101: 95.56 102: 21.38 103: 45.83 104: 10.82
 105:  0.57 106: 38.63 107:  9.92 108:  1.43 109:  0.33 110:  0.69 111:  0.00 112:  2.98
 113: 23.75 114: 31.52 115:  7.17 116:  0.01 117:  1.22 118:  0.40 119:  5.83 120:  0.18
 121: 32.70 122:  3.37 123:  0.03 124:  0.40 125:  3.95 126:  0.85 127: 16.73 128: 81.43
 129: 32.26 130:  0.15 131:  2.40 132:  3.97 133:  9.35 134:  1.84 135:  1.48 136:  0.01
 137:  0.09 138:  0.03 139:267.36 140:  7.96 141:  6.81 142:  0.22 143:  9.94 144:  6.56
 145: 11.89 146:  1.24 147: 40.70 148:100.02 149:  0.17 150:  0.18 151:  3.00 152:  0.16
 153:  0.15 154:  8.64 155:  1.83 156:  1.53 157:  3.20 158:  0.17 159:438.37 160: 56.90
 161: 66.29 162: 22.76 163: 64.45 164:  0.91 165: 26.75 166: 17.11 167: 44.24 168:  7.88
 169: 61.01 170:201.30 171:  0.59 172:  2.33 173:  1.32 174:  1.47 175: 13.79 176:  0.82
 177:156.29 178:537.66 179:180.70 180:  5.27 181:318.98 182:520.77 183:550.97 184:208.81
 185:377.47 186: 21.88 187:294.80 188:  2.48 189:  0.77 190:  2.54 191: 24.94 192: 11.55
 193:  1.91 194: 12.31 195:  0.52 196:  0.58 197:  0.04 198:  5.17 199:  0.69 200:******
 201:348.92 202: 12.02 203: 14.03 204: 24.37 205:  0.51 206: 48.81 207: 69.76 208: 37.70
 209:384.62 210: 36.30 211: 27.39 212: 32.96 213:  3.66 214: 16.33 215: 37.88 216:352.25
 217: 57.18 218: 11.84 219:  1.97 220: 15.60 221:  7.45 222:****** 223:946.77 224: 42.36
 225: 10.66 226:  0.05 227: 11.73 228: 35.02 229: 79.06 230:  4.98 231: 23.34 232:  6.96
 233: 15.54 234:  8.53 235: 44.85 236: 21.25 237:  2.19 238:106.02 239:  1.07 240: 22.13
 241: 65.58 242: 41.59 243:  0.86 244: 78.93 245:  7.67 246: 29.98 247:  3.25 248: 25.18
 249:130.59 250: 49.97 251:202.18 252:144.41 253:  3.78 254: 31.21 255: 16.06
 Raman intensities (Ä⁴*amu⁻¹)
   1:  0.00   2:  0.00   3:  0.00   4:  0.00   5:  0.00   6:  0.00   7:  0.00   8:  0.00
   9:  0.00  10:  0.00  11:  0.00  12:  0.00  13:  0.00  14:  0.00  15:  0.00  16:  0.00
  17:  0.00  18:  0.00  19:  0.00  20:  0.00  21:  0.00  22:  0.00  23:  0.00  24:  0.00
  25:  0.00  26:  0.00  27:  0.00  28:  0.00  29:  0.00  30:  0.00  31:  0.00  32:  0.00
  33:  0.00  34:  0.00  35:  0.00  36:  0.00  37:  0.00  38:  0.00  39:  0.00  40:  0.00
  41:  0.00  42:  0.00  43:  0.00  44:  0.00  45:  0.00  46:  0.00  47:  0.00  48:  0.00
  49:  0.00  50:  0.00  51:  0.00  52:  0.00  53:  0.00  54:  0.00  55:  0.00  56:  0.00
  57:  0.00  58:  0.00  59:  0.00  60:  0.00  61:  0.00  62:  0.00  63:  0.00  64:  0.00
  65:  0.00  66:  0.00  67:  0.00  68:  0.00  69:  0.00  70:  0.00  71:  0.00  72:  0.00
  73:  0.00  74:  0.00  75:  0.00  76:  0.00  77:  0.00  78:  0.00  79:  0.00  80:  0.00
  81:  0.00  82:  0.00  83:  0.00  84:  0.00  85:  0.00  86:  0.00  87:  0.00  88:  0.00
  89:  0.00  90:  0.00  91:  0.00  92:  0.00  93:  0.00  94:  0.00  95:  0.00  96:  0.00
  97:  0.00  98:  0.00  99:  0.00 100:  0.00 101:  0.00 102:  0.00 103:  0.00 104:  0.00
 105:  0.00 106:  0.00 107:  0.00 108:  0.00 109:  0.00 110:  0.00 111:  0.00 112:  0.00
 113:  0.00 114:  0.00 115:  0.00 116:  0.00 117:  0.00 118:  0.00 119:  0.00 120:  0.00
 121:  0.00 122:  0.00 123:  0.00 124:  0.00 125:  0.00 126:  0.00 127:  0.00 128:  0.00
 129:  0.00 130:  0.00 131:  0.00 132:  0.00 133:  0.00 134:  0.00 135:  0.00 136:  0.00
 137:  0.00 138:  0.00 139:  0.00 140:  0.00 141:  0.00 142:  0.00 143:  0.00 144:  0.00
 145:  0.00 146:  0.00 147:  0.00 148:  0.00 149:  0.00 150:  0.00 151:  0.00 152:  0.00
 153:  0.00 154:  0.00 155:  0.00 156:  0.00 157:  0.00 158:  0.00 159:  0.00 160:  0.00
 161:  0.00 162:  0.00 163:  0.00 164:  0.00 165:  0.00 166:  0.00 167:  0.00 168:  0.00
 169:  0.00 170:  0.00 171:  0.00 172:  0.00 173:  0.00 174:  0.00 175:  0.00 176:  0.00
 177:  0.00 178:  0.00 179:  0.00 180:  0.00 181:  0.00 182:  0.00 183:  0.00 184:  0.00
 185:  0.00 186:  0.00 187:  0.00 188:  0.00 189:  0.00 190:  0.00 191:  0.00 192:  0.00
 193:  0.00 194:  0.00 195:  0.00 196:  0.00 197:  0.00 198:  0.00 199:  0.00 200:  0.00
 201:  0.00 202:  0.00 203:  0.00 204:  0.00 205:  0.00 206:  0.00 207:  0.00 208:  0.00
 209:  0.00 210:  0.00 211:  0.00 212:  0.00 213:  0.00 214:  0.00 215:  0.00 216:  0.00
 217:  0.00 218:  0.00 219:  0.00 220:  0.00 221:  0.00 222:  0.00 223:  0.00 224:  0.00
 225:  0.00 226:  0.00 227:  0.00 228:  0.00 229:  0.00 230:  0.00 231:  0.00 232:  0.00
 233:  0.00 234:  0.00 235:  0.00 236:  0.00 237:  0.00 238:  0.00 239:  0.00 240:  0.00
 241:  0.00 242:  0.00 243:  0.00 244:  0.00 245:  0.00 246:  0.00 247:  0.00 248:  0.00
 249:  0.00 250:  0.00 251:  0.00 252:  0.00 253:  0.00 254:  0.00 255:  0.00
 output can be read by thermo (or use thermo option).
 writing <g98.out> molden fake output.
 recommended (thermochemical) frequency scaling factor: 1.0
           -------------------------------------------------
          |             Thermodynamic Functions             |
           -------------------------------------------------

Molecule has the following symmetry elements: (C2) 
It seems to be the C2 point group
c2  symmetry found (for desy threshold:  0.10E+00) used in thermo

          ...................................................
          :                      SETUP                      :
          :.................................................:
          :  # frequencies                         249      :
          :  # imaginary freq.                       0      :
          :  linear?                             false      :
          :  only rotor calc.                    false      :
          :  symmetry                               c2      :
          :  rotational number                       2      :
          :  scaling factor                  1.0000000      :
          :  rotor cutoff                   50.0000000 cm⁻¹ :
          :  imag. cutoff                  -20.0000000 cm⁻¹ :
          :.................................................:

    mode    ω/cm⁻¹     T·S(HO)/kcal·mol⁻¹    T·S(FR)/kcal·mol⁻¹   T·S(vib)
   ------------------------------------------------------------------------
       1      1.16    -3.66601 (  0.00%)    -2.17182 (100.00%)    -2.17182
       2      9.16    -2.44048 (  0.11%)    -1.55929 ( 99.89%)    -1.56029
       3     11.22    -2.32034 (  0.25%)    -1.49922 ( 99.75%)    -1.50130
       4     20.34    -1.96802 (  2.67%)    -1.32299 ( 97.33%)    -1.34018
       5     22.35    -1.91233 (  3.84%)    -1.29512 ( 96.16%)    -1.31880
       6     26.17    -1.81882 (  6.98%)    -1.24832 ( 93.02%)    -1.28815
       7     30.53    -1.72773 ( 12.20%)    -1.20270 ( 87.80%)    -1.26676
       8     39.65    -1.57323 ( 28.33%)    -1.12527 ( 71.67%)    -1.25219
       9     43.60    -1.51717 ( 36.63%)    -1.09715 ( 63.37%)    -1.25099
      10     46.33    -1.48126 ( 42.44%)    -1.07912 ( 57.56%)    -1.24977
      11     55.52    -1.37461 ( 60.32%)    -1.02553 ( 39.68%)    -1.23609
      12     63.56    -1.29497 ( 72.32%)    -0.98544 ( 27.68%)    -1.20927
      13     64.69    -1.28468 ( 73.69%)    -0.98025 ( 26.31%)    -1.20460
      14     70.28    -1.23600 ( 79.60%)    -0.95569 ( 20.40%)    -1.17883
      15     78.18    -1.17354 ( 85.67%)    -0.92413 ( 14.33%)    -1.13779
      16    109.70    -0.97619 ( 95.86%)    -0.82377 (  4.14%)    -0.96988
      17    115.45    -0.94666 ( 96.60%)    -0.80864 (  3.40%)    -0.94197
      18    116.26    -0.94265 ( 96.69%)    -0.80658 (  3.31%)    -0.93815
      19    123.23    -0.90908 ( 97.36%)    -0.78933 (  2.64%)    -0.90592
      20    135.96    -0.85268 ( 98.20%)    -0.76020 (  1.80%)    -0.85102
      21    140.30    -0.83474 ( 98.41%)    -0.75089 (  1.59%)    -0.83341
      22    175.19    -0.70931 ( 99.34%)    -0.68510 (  0.66%)    -0.70915
      23    175.53    -0.70824 ( 99.35%)    -0.68454 (  0.65%)    -0.70809
      24    181.52    -0.68953 ( 99.43%)    -0.67459 (  0.57%)    -0.68944
      25    187.29    -0.67217 ( 99.49%)    -0.66532 (  0.51%)    -0.67213
      26    191.89    -0.65877 ( 99.54%)    -0.65814 (  0.46%)    -0.65877
      27    198.10    -0.64123 ( 99.60%)    -0.64870 (  0.40%)    -0.64126
      28    201.28    -0.63248 ( 99.62%)    -0.64398 (  0.38%)    -0.63252
      29    226.52    -0.56838 ( 99.76%)    -0.60898 (  0.24%)    -0.56848
      30    237.34    -0.54345 ( 99.80%)    -0.59516 (  0.20%)    -0.54355
      31    238.21    -0.54151 ( 99.81%)    -0.59408 (  0.19%)    -0.54161
      32    250.90    -0.51408 ( 99.84%)    -0.57870 (  0.16%)    -0.51418
      33    251.72    -0.51238 ( 99.84%)    -0.57774 (  0.16%)    -0.51248
      34    253.43    -0.50881 ( 99.85%)    -0.57573 (  0.15%)    -0.50892
      35    272.53    -0.47110 ( 99.89%)    -0.55420 (  0.11%)    -0.47120
      36    273.80    -0.46872 ( 99.89%)    -0.55283 (  0.11%)    -0.46881
      37    275.07    -0.46634 ( 99.89%)    -0.55145 (  0.11%)    -0.46643
      38    282.64    -0.45249 ( 99.90%)    -0.54342 (  0.10%)    -0.45258
      39    287.99    -0.44298 ( 99.91%)    -0.53786 (  0.09%)    -0.44307
   ------------------------------------------------------------------------

   temp. (K)  partition function   enthalpy   heat capacity  entropy
                                   cal/mol     cal/K/mol   cal/K/mol   J/K/mol
 298.15  VIB  0.280E+22            25526.039    158.342    161.474
         ROT  0.603E+08              888.752      2.981     38.583
         INT  0.169E+30            26414.791    161.322    200.057
         TR   0.175E+29             1481.254      4.968     45.450
         TOT                       27896.0451   166.2906   245.5061  1027.1977

       T/K    H(0)-H(T)+PV         H(T)/Eh          T*S/Eh         G(T)/Eh
   ------------------------------------------------------------------------
    298.15    0.444552E-01    0.687809E+00    0.116648E+00    0.571162E+00
   ------------------------------------------------------------------------

         :::::::::::::::::::::::::::::::::::::::::::::::::::::
         ::                  THERMODYNAMIC                  ::
         :::::::::::::::::::::::::::::::::::::::::::::::::::::
         :: total free energy        -138.623347908255 Eh   ::
         ::.................................................::
         :: total energy             -139.194509487698 Eh   ::
         :: zero point energy           0.643354294916 Eh   ::
         :: G(RRHO) w/o ZPVE           -0.072192715474 Eh   ::
         :: G(RRHO) contrib.            0.571161579443 Eh   ::
         :::::::::::::::::::::::::::::::::::::::::::::::::::::

optimized geometry written to: xtbopt.xyz


           -------------------------------------------------
          | TOTAL ENERGY             -139.194509487698 Eh   |
          | TOTAL ENTHALPY           -138.506700015174 Eh   |
          | TOTAL FREE ENERGY        -138.623347908255 Eh   |
          | GRADIENT NORM               0.000064071100 Eh/α |
          | HOMO-LUMO GAP               0.721565197640 eV   |
           -------------------------------------------------

------------------------------------------------------------------------
 * finished run on 2025/09/04 at 00:39:31.154     
------------------------------------------------------------------------
 total:
 * wall-time:     0 d,  0 h,  0 min, 11.545 sec
 *  cpu-time:     0 d,  0 h,  7 min, 18.747 sec
 * ratio c/w:    38.002 speedup
 SCF:
 * wall-time:     0 d,  0 h,  0 min,  0.156 sec
 *  cpu-time:     0 d,  0 h,  0 min,  6.188 sec
 * ratio c/w:    39.727 speedup
 ANC optimizer:
 * wall-time:     0 d,  0 h,  0 min,  6.770 sec
 *  cpu-time:     0 d,  0 h,  4 min, 30.766 sec
 * ratio c/w:    39.996 speedup
 analytical hessian:
 * wall-time:     0 d,  0 h,  0 min,  4.414 sec
 *  cpu-time:     0 d,  0 h,  2 min, 34.314 sec
 * ratio c/w:    34.956 speedup

