      -----------------------------------------------------------      
     |                   =====================                   |     
     |                           x T B                           |     
     |                   =====================                   |     
     |                         S. Grimme                         |     
     |          Mulliken Center for Theoretical Chemistry        |     
     |                    University of Bonn                     |     
      -----------------------------------------------------------      

   * xtb version 6.7.1 (edcfbbe) compiled by 'albert@albert-system' on 2024-07-22

   xtb is free software: you can redistribute it and/or modify it under
   the terms of the GNU Lesser General Public License as published by
   the Free Software Foundation, either version 3 of the License, or
   (at your option) any later version.
   
   xtb is distributed in the hope that it will be useful,
   but WITHOUT ANY WARRANTY; without even the implied warranty of
   MERCHANTABILITY or FITNESS FOR A PARTICULAR PURPOSE.  See the
   GNU Lesser General Public License for more details.
   
   Cite this work as:
   * C. Bannwarth, E. Caldeweyher, S. Ehlert, A. Hansen, P. Pracht,
     J. Seibert, S. Spicher, S. Grimme, WIREs Comput. Mol. Sci., 2020, 11,
     e01493. DOI: 10.1002/wcms.1493
   
   for GFN2-xTB:
   * C. Bannwarth, S. Ehlert and S. Grimme., J. Chem. Theory Comput., 2019,
     15, 1652-1671. DOI: 10.1021/acs.jctc.8b01176
   for GFN1-xTB:
   * S. Grimme, C. Bannwarth, P. Shushkov, J. Chem. Theory Comput., 2017,
     13, 1989-2009. DOI: 10.1021/acs.jctc.7b00118
   for GFN0-xTB:
   * P. Pracht, E. Caldeweyher, S. Ehlert, S. Grimme, ChemRxiv, 2019, preprint.
     DOI: 10.26434/chemrxiv.8326202.v1
   for GFN-FF:
   * S. Spicher and S. Grimme, Angew. Chem. Int. Ed., 2020, 59, 15665-15673.
     DOI: 10.1002/anie.202004239
   
   for ALPB and GBSA implicit solvation:
   * S. Ehlert, M. Stahn, S. Spicher, S. Grimme, J. Chem. Theory Comput.,
     2021, 17, 4250-4261. DOI: 10.1021/acs.jctc.1c00471
   
   for ddCOSMO and CPCM-X implicit solvation:
   * M. Stahn, S. Ehlert, S. Grimme, J. Phys. Chem. A,
     2023, XX, XXXX-XXXX. DOI: 10.1021/acs.jpca.3c04382
   
   for DFT-D4:
   * E. Caldeweyher, C. Bannwarth and S. Grimme, J. Chem. Phys., 2017,
     147, 034112. DOI: 10.1063/1.4993215
   * E. Caldeweyher, S. Ehlert, A. Hansen, H. Neugebauer, S. Spicher,
     C. Bannwarth and S. Grimme, J. Chem. Phys., 2019, 150, 154122.
     DOI: 10.1063/1.5090222
   * E. Caldeweyher, J.-M. Mewes, S. Ehlert and S. Grimme, Phys. Chem. Chem. Phys.
     2020, 22, 8499-8512. DOI: 10.1039/D0CP00502A
   
   for sTDA-xTB:
   * S. Grimme and C. Bannwarth, J. Chem. Phys., 2016, 145, 054103.
     DOI: 10.1063/1.4959605
   
   in the mass-spec context:
   * V. Asgeirsson, C. Bauer and S. Grimme, Chem. Sci., 2017, 8, 4879.
     DOI: 10.1039/c7sc00601b
   * J. Koopman and S. Grimme, ACS Omega 2019, 4, 12, 15120-15133.
     DOI: 10.1021/acsomega.9b02011
   
   for metadynamics refer to:
   * S. Grimme, J. Chem. Theory Comput., 2019, 155, 2847-2862
     DOI: 10.1021/acs.jctc.9b00143
   
   for SPH calculations refer to:
   * S. Spicher and S. Grimme, J. Chem. Theory Comput., 2021, 17, 1701-1714
     DOI: 10.1021/acs.jctc.0c01306
   
   for ONIOM refer to:
   * C. Plett, A. Katbashev, S. Ehlert, S. Grimme, M. Bursch,
     Phys. Chem. Chem. Phys., 2023, 25, 17860-17868. DOI: 10.1039/D3CP02178E
   
   for DIPRO refer to:
   * J. Kohn, N. Gildemeister, S. Grimme, D. Fazzi, A. Hansen,
     J. Chem. Phys., 2023, just accepted.
   
   for PTB refer to:
   * S. Grimme, M. Mueller, A. Hansen, J. Chem. Phys., 2023, 158, 124111.
     DOI: 10.1063/5.0137838
   
   with help from (in alphabetical order)
   P. Atkinson, C. Bannwarth, F. Bohle, G. Brandenburg, E. Caldeweyher
   M. Checinski, S. Dohm, S. Ehlert, S. Ehrlich, I. Gerasimov, C. Hölzer
   A. Katbashev, J. Kohn, J. Koopman, C. Lavigne, S. Lehtola, F. März, M. Müller,
   F. Musil, H. Neugebauer, J. Pisarek, C. Plett, P. Pracht, F. Pultar,
   J. Seibert, P. Shushkov, S. Spicher, M. Stahn, M. Steiner, T. Strunk,
   J. Stückrath, T. Rose, and J. Unsleber
   
 * started run on 2025/08/24 at 15:05:12.798     
   ID    Z sym.   atoms
    1    6 C      1-12, 14, 16-18, 20-38, 40-58
    2    7 N      13, 19, 39
    3    8 O      15, 59
    4    1 H      60-108

           -------------------------------------------------
          |                Calculation Setup                |
           -------------------------------------------------

          program call               : xtb data2507/gas/2DN/2DN_gas_T1_crest.xyz --gfn 2 --spinpol --tblite --uhf 2 --ohess vtight --parallel 40 --molden --ceasefiles --namespace data2507/gas/2DN/2DN_gas_T1_finalOpt
          calculation namespace      : data2507/gas/2DN/2DN_gas_T1_finalOpt
          coordinate file            : data2507/gas/2DN/2DN_gas_T1_crest.xyz
          omp threads                :                    40

repulsion energy          2.6835759533996E+00 Eh
dispersion energy         2.5062029437358E-03 Eh
interaction energy        0.0000000000000E+00 Eh
number of electrons       2.9200000000000E+02 e
integral cutoff           1.7347787504999E+01 bohr

------------------------------------------------------------
  cycle        total energy    energy error   density error
------------------------------------------------------------
      1     -157.2895840933  -1.5997567E+02   9.4506239E-02
      2     -157.5659170794  -2.7633299E-01   5.0732079E-02
      3     -157.5034253600   6.2491719E-02   2.7196649E-02
      4     -157.5138800326  -1.0454673E-02   1.8890839E-02
      5     -157.5630147875  -4.9134755E-02   1.3013636E-02
      6     -157.5672282111  -4.2134236E-03   1.4868739E-02
      7     -157.6043468880  -3.7118677E-02   8.3033088E-03
      8     -157.6231874747  -1.8840587E-02   4.0487003E-03
      9     -157.6262090122  -3.0215375E-03   1.8526849E-03
     10     -157.6237526688   2.4563434E-03   3.1837864E-03
     11     -157.6267862944  -3.0336255E-03   8.5980845E-04
     12     -157.6268689265  -8.2632120E-05   5.6286433E-04
     13     -157.6267122811   1.5664540E-04   8.5842877E-04
     14     -157.6269246525  -2.1237142E-04   3.3267226E-04
     15     -157.6269331018  -8.4492826E-06   2.5577074E-04
     16     -157.6269374976  -4.3958362E-06   2.0378009E-04
     17     -157.6269412951  -3.7974559E-06   1.6284969E-04
     18     -157.6269447076  -3.4125464E-06   1.1393040E-04
     19     -157.6269458756  -1.1679282E-06   8.4691222E-05
     20     -157.6269474123  -1.5367715E-06   4.2549564E-05
     21     -157.6269476512  -2.3891687E-07   2.7350139E-05
     22     -157.6269478017  -1.5045146E-07   1.1508253E-05
------------------------------------------------------------

electronic energy        -1.6031302995804E+02 Eh
total energy             -1.5762694780169E+02 Eh

 total:                                   0.554 sec
 - repulsion                              0.001 sec (  0%)
 - dispersion                             0.021 sec (  3%)
 - coulomb                                0.010 sec (  1%)
 - hamiltonian                            0.021 sec (  3%)
 - scc                                    0.501 sec ( 90%)

      ----------------------------------------------------------- 
     |                   =====================                   |
     |                        A N C O P T                        |
     |                   =====================                   |
     |               Approximate Normal Coordinate               |
     |                Rational Function Optimizer                |
      ----------------------------------------------------------- 

Optimization log is written to '/dev/null'
      ----------------------------------------------------------- 
     |                   =====================                   |
     |                        A N C O P T                        |
     |                   =====================                   |
     |               Approximate Normal Coordinate               |
     |                Rational Function Optimizer                |
      ----------------------------------------------------------- 

          ...................................................
          :                      SETUP                      :
          :.................................................:
          :   optimization level         verytight          :
          :   max. optcycles                  2160          :
          :   ANC micro-cycles                  20          :
          :   degrees of freedom               318          :
          :.................................................:
          :   RF solver                   davidson          :
          :   write xtbopt.log                true          :
          :   linear?                        false          :
          :   energy convergence         0.1000000E-06 Eh   :
          :   grad. convergence          0.2000000E-03 Eh/α :
          :   maxmium RF displ.          1.0000000          :
          :   Hlow (freq-cutoff)         0.1000000E-01      :
          :   Hmax (freq-cutoff)         5.0000000          :
          :   S6 in model hess.         20.0000000          :
          ...................................................

generating ANC from exact Hessian ...
Using Lindh-Hessian (1995)
 Shifting diagonal of input Hessian by   9.938239265566685E-003
 Lowest  eigenvalues of input Hessian
    0.000000    0.000000    0.000000    0.000000    0.000000    0.000000
    0.010000    0.010016    0.010027    0.010058    0.010113    0.010225
    0.010382    0.010505    0.010594    0.010706    0.010900    0.011266
 Highest eigenvalues
    2.154547    2.168990    2.172447    2.172648    2.288752    2.384911
 

........................................................................
.............................. CYCLE    1 ..............................
........................................................................
------------------------------------------------------------
  cycle        total energy    energy error   density error
------------------------------------------------------------
      1     -157.6269319795  -1.6031301E+02   2.0828160E-04
      2     -157.6250724825   1.8594970E-03   2.2307858E-03
      3     -157.6269416326  -1.8691501E-03   1.3446811E-04
      4     -157.6269477466  -6.1140576E-06   1.6470385E-05
      5     -157.6269478129  -6.6250351E-08   7.6097676E-06
------------------------------------------------------------

 total:                                   0.145 sec
 * total energy  :  -157.6269478 Eh     change       -0.1118599E-07 Eh
   gradient norm :     0.0033528 Eh/α   predicted     0.0000000E+00 (-100.00%)
   displ. norm   :     0.0098236 α      lambda       -0.6830153E-05
   maximum displ.:     0.0032495 α      in ANC's #13, #5, #25, ...

........................................................................
.............................. CYCLE    2 ..............................
........................................................................
------------------------------------------------------------
  cycle        total energy    energy error   density error
------------------------------------------------------------
      1     -157.6269445665  -1.6031297E+02   1.9571284E-04
      2     -157.6257808276   1.1637388E-03   1.7582928E-03
      3     -157.6269500148  -1.1691872E-03   1.3294268E-04
      4     -157.6269519326  -1.9177361E-06   1.0438417E-04
      5     -157.6269539386  -2.0060208E-06   6.6276504E-05
      6     -157.6269549720  -1.0334285E-06   1.4949661E-05
      7     -157.6269549981  -2.6054096E-08   9.0976445E-06
------------------------------------------------------------

 total:                                   0.174 sec
 * total energy  :  -157.6269550 Eh     change       -0.7185176E-05 Eh
   gradient norm :     0.0017829 Eh/α   predicted    -0.4833263E-05 ( -32.73%)
   displ. norm   :     0.0267915 α      lambda       -0.6328870E-05
   maximum displ.:     0.0100196 α      in ANC's #5, #13, #25, ...

........................................................................
.............................. CYCLE    3 ..............................
........................................................................
------------------------------------------------------------
  cycle        total energy    energy error   density error
------------------------------------------------------------
      1     -157.6269467380  -1.6031275E+02   2.5687497E-04
      2     -157.6259087567   1.0379813E-03   1.6656609E-03
      3     -157.6269300626  -1.0213058E-03   3.0133504E-04
      4     -157.6269495926  -1.9530050E-05   1.8167700E-04
      5     -157.6269569984  -7.4057814E-06   9.9232791E-05
      6     -157.6269587878  -1.7893963E-06   2.2564059E-05
      7     -157.6269588432  -5.5428302E-08   1.3954941E-05
------------------------------------------------------------

 total:                                   0.180 sec
 * total energy  :  -157.6269588 Eh     change       -0.3845157E-05 Eh
   gradient norm :     0.0011360 Eh/α   predicted    -0.3271316E-05 ( -14.92%)
   displ. norm   :     0.0098430 α      lambda       -0.1213108E-05
   maximum displ.:     0.0042646 α      in ANC's #5, #25, #13, ...

........................................................................
.............................. CYCLE    4 ..............................
........................................................................
------------------------------------------------------------
  cycle        total energy    energy error   density error
------------------------------------------------------------
      1     -157.6269483739  -1.6031274E+02   1.8160547E-04
      2     -157.6255811422   1.3672317E-03   1.9068126E-03
      3     -157.6269565349  -1.3753927E-03   1.1214127E-04
      4     -157.6269601445  -3.6095793E-06   3.8449913E-05
      5     -157.6269602754  -1.3094311E-07   2.7809334E-05
      6     -157.6269605217  -2.4628977E-07   5.7990672E-06
------------------------------------------------------------

 total:                                   0.154 sec
 * total energy  :  -157.6269605 Eh     change       -0.1678477E-05 Eh
   gradient norm :     0.0005426 Eh/α   predicted    -0.6873620E-06 ( -59.05%)
   displ. norm   :     0.0383719 α      lambda       -0.2420214E-05
   maximum displ.:     0.0166826 α      in ANC's #5, #13, #8, ...

........................................................................
.............................. CYCLE    5 ..............................
........................................................................
------------------------------------------------------------
  cycle        total energy    energy error   density error
------------------------------------------------------------
      1     -157.6269612658  -1.6031271E+02   1.3450517E-04
      2     -157.6267622742   1.9899152E-04   7.2920764E-04
      3     -157.6269602487  -1.9797446E-04   1.0955089E-04
      4     -157.6269565278   3.7209307E-06   1.4463998E-04
      5     -157.6269627239  -6.1961797E-06   3.1904648E-05
      6     -157.6269630570  -3.3303118E-07   6.4513788E-06
------------------------------------------------------------

 total:                                   0.152 sec
 * total energy  :  -157.6269631 Eh     change       -0.2535283E-05 Eh
   gradient norm :     0.0003677 Eh/α   predicted    -0.1233492E-05 ( -51.35%)
   displ. norm   :     0.0390404 α      lambda       -0.1330823E-05
   maximum displ.:     0.0181572 α      in ANC's #5, #8, #13, ...

........................................................................
.............................. CYCLE    6 ..............................
........................................................................
------------------------------------------------------------
  cycle        total energy    energy error   density error
------------------------------------------------------------
      1     -157.6269625187  -1.6031261E+02   1.3615693E-04
      2     -157.6267483734   2.1414528E-04   7.5657198E-04
      3     -157.6269603935  -2.1202011E-04   1.2584204E-04
      4     -157.6269602305   1.6308886E-07   1.2467286E-04
      5     -157.6269635565  -3.3259918E-06   5.6998030E-05
      6     -157.6269646052  -1.0487004E-06   5.5734543E-06
      7     -157.6269646106  -5.4297402E-09   3.4261757E-06
------------------------------------------------------------

 total:                                   0.179 sec
 * total energy  :  -157.6269646 Eh     change       -0.1553610E-05 Eh
   gradient norm :     0.0005010 Eh/α   predicted    -0.6764527E-06 ( -56.46%)
   displ. norm   :     0.0442799 α      lambda       -0.1334699E-05
   maximum displ.:     0.0219578 α      in ANC's #5, #8, #13, ...

........................................................................
.............................. CYCLE    7 ..............................
........................................................................
------------------------------------------------------------
  cycle        total energy    energy error   density error
------------------------------------------------------------
      1     -157.6269639288  -1.6031258E+02   1.4571578E-04
      2     -157.6267565162   2.0741251E-04   7.4456402E-04
      3     -157.6269606346  -2.0411833E-04   1.3791891E-04
      4     -157.6269617535  -1.1189592E-06   1.1931899E-04
      5     -157.6269649056  -3.1520877E-06   5.4667749E-05
      6     -157.6269658151  -9.0946784E-07   4.1623504E-06
------------------------------------------------------------

 total:                                   0.156 sec
 * total energy  :  -157.6269658 Eh     change       -0.1204511E-05 Eh
   gradient norm :     0.0003681 Eh/α   predicted    -0.6691890E-06 ( -44.44%)
   displ. norm   :     0.0474376 α      lambda       -0.1340584E-05
   maximum displ.:     0.0250213 α      in ANC's #5, #8, #13, ...

........................................................................
.............................. CYCLE    8 ..............................
........................................................................
------------------------------------------------------------
  cycle        total energy    energy error   density error
------------------------------------------------------------
      1     -157.6269662660  -1.6031257E+02   1.4439088E-04
      2     -157.6268413169   1.2494905E-04   5.7905276E-04
      3     -157.6269597768  -1.1845994E-04   1.6208917E-04
      4     -157.6269645760  -4.7991781E-06   9.4243593E-05
      5     -157.6269667350  -2.1589756E-06   4.6738937E-05
      6     -157.6269674223  -6.8728102E-07   4.2912872E-06
------------------------------------------------------------

 total:                                   0.155 sec
 * total energy  :  -157.6269674 Eh     change       -0.1607188E-05 Eh
   gradient norm :     0.0001525 Eh/α   predicted    -0.6727473E-06 ( -58.14%)
   displ. norm   :     0.0516195 α      lambda       -0.1348894E-05
   maximum displ.:     0.0283952 α      in ANC's #5, #8, #13, ...

........................................................................
.............................. CYCLE    9 ..............................
........................................................................
------------------------------------------------------------
  cycle        total energy    energy error   density error
------------------------------------------------------------
      1     -157.6269678047  -1.6031259E+02   1.5611342E-04
      2     -157.6268202217   1.4758296E-04   6.2960586E-04
      3     -157.6269607435  -1.4052182E-04   1.7095143E-04
      4     -157.6269620578  -1.3142824E-06   1.4774721E-04
      5     -157.6269686940  -6.6362009E-06   3.2598499E-05
      6     -157.6269690806  -3.8660582E-07   3.1767893E-06
------------------------------------------------------------

 total:                                   0.170 sec
 * total energy  :  -157.6269691 Eh     change       -0.1658327E-05 Eh
   gradient norm :     0.0002716 Eh/α   predicted    -0.6786626E-06 ( -59.08%)
   displ. norm   :     0.0577614 α      lambda       -0.1367422E-05
   maximum displ.:     0.0326233 α      in ANC's #5, #8, #6, ...

........................................................................
.............................. CYCLE   10 ..............................
........................................................................
------------------------------------------------------------
  cycle        total energy    energy error   density error
------------------------------------------------------------
      1     -157.6269693248  -1.6031264E+02   1.7324142E-04
      2     -157.6268130993   1.5622546E-04   6.4928630E-04
      3     -157.6269582797  -1.4518038E-04   2.0526910E-04
      4     -157.6269609238  -2.6440686E-06   1.7308561E-04
      5     -157.6269703277  -9.4038918E-06   3.2279630E-05
      6     -157.6269707150  -3.8727757E-07   3.2340575E-06
------------------------------------------------------------

 total:                                   0.155 sec
 * total energy  :  -157.6269707 Eh     change       -0.1634345E-05 Eh
   gradient norm :     0.0003284 Eh/α   predicted    -0.6888988E-06 ( -57.85%)
   displ. norm   :     0.0562963 α      lambda       -0.1128545E-05
   maximum displ.:     0.0328398 α      in ANC's #5, #8, #2, ...

........................................................................
.............................. CYCLE   11 ..............................
........................................................................
------------------------------------------------------------
  cycle        total energy    energy error   density error
------------------------------------------------------------
      1     -157.6269693646  -1.6031267E+02   1.7654375E-04
      2     -157.6266490080   3.2035660E-04   9.2432434E-04
      3     -157.6269675468  -3.1853876E-04   1.4218989E-04
      4     -157.6269682426  -6.9586500E-07   1.0153719E-04
      5     -157.6269716788  -3.4361769E-06   3.3451213E-05
      6     -157.6269720432  -3.6441290E-07   4.5178964E-06
------------------------------------------------------------

 total:                                   0.155 sec
 * total energy  :  -157.6269720 Eh     change       -0.1328275E-05 Eh
   gradient norm :     0.0002300 Eh/α   predicted    -0.5677606E-06 ( -57.26%)
   displ. norm   :     0.0413812 α      lambda       -0.7259391E-06
   maximum displ.:     0.0253087 α      in ANC's #5, #8, #2, ...

........................................................................
.............................. CYCLE   12 ..............................
........................................................................
------------------------------------------------------------
  cycle        total energy    energy error   density error
------------------------------------------------------------
      1     -157.6269685314  -1.6031269E+02   1.5382724E-04
      2     -157.6264425756   5.2595580E-04   1.1805185E-03
      3     -157.6269719808  -5.2940528E-04   8.2111681E-05
      4     -157.6269681228   3.8580291E-06   1.2271166E-04
      5     -157.6269723450  -4.2222041E-06   4.0341260E-05
      6     -157.6269729407  -5.9570360E-07   4.7070795E-06
------------------------------------------------------------

 total:                                   0.151 sec
 * total energy  :  -157.6269729 Eh     change       -0.8974807E-06 Eh
   gradient norm :     0.0000996 Eh/α   predicted    -0.3674292E-06 ( -59.06%)
   displ. norm   :     0.0351524 α      lambda       -0.6748871E-06
   maximum displ.:     0.0221266 α      in ANC's #5, #8, #2, ...

........................................................................
.............................. CYCLE   13 ..............................
........................................................................
------------------------------------------------------------
  cycle        total energy    energy error   density error
------------------------------------------------------------
      1     -157.6269687430  -1.6031269E+02   1.4407792E-04
      2     -157.6263778403   5.9090275E-04   1.2505190E-03
      3     -157.6269733143  -5.9547402E-04   6.3237834E-05
      4     -157.6269707595   2.5547845E-06   9.7608335E-05
      5     -157.6269730893  -2.3297665E-06   4.3325149E-05
      6     -157.6269737589  -6.6958827E-07   4.8450571E-06
------------------------------------------------------------

 total:                                   0.160 sec
 * total energy  :  -157.6269738 Eh     change       -0.8181460E-06 Eh
   gradient norm :     0.0001200 Eh/α   predicted    -0.3424116E-06 ( -58.15%)
   displ. norm   :     0.0463045 α      lambda       -0.9347674E-06
   maximum displ.:     0.0290267 α      in ANC's #5, #2, #8, ...

........................................................................
.............................. CYCLE   14 ..............................
........................................................................
------------------------------------------------------------
  cycle        total energy    energy error   density error
------------------------------------------------------------
      1     -157.6269715145  -1.6031265E+02   1.4872680E-04
      2     -157.6265681278   4.0338670E-04   1.0344035E-03
      3     -157.6269735371  -4.0540936E-04   9.1499454E-05
      4     -157.6269695757   3.9614379E-06   1.3355037E-04
      5     -157.6269743097  -4.7340414E-06   4.3462173E-05
      6     -157.6269749854  -6.7569616E-07   4.5685680E-06
------------------------------------------------------------

 total:                                   0.154 sec
 * total energy  :  -157.6269750 Eh     change       -0.1226563E-05 Eh
   gradient norm :     0.0002187 Eh/α   predicted    -0.4725825E-06 ( -61.47%)
   displ. norm   :     0.0592756 α      lambda       -0.1131164E-05
   maximum displ.:     0.0368058 α      in ANC's #5, #2, #8, ...

........................................................................
.............................. CYCLE   15 ..............................
........................................................................
------------------------------------------------------------
  cycle        total energy    energy error   density error
------------------------------------------------------------
      1     -157.6269729488  -1.6031260E+02   1.7292470E-04
      2     -157.6265642256   4.0872325E-04   1.0424777E-03
      3     -157.6269742244  -4.0999881E-04   1.1271188E-04
      4     -157.6269739863   2.3806436E-07   8.4785306E-05
      5     -157.6269763131  -2.3267550E-06   1.9885379E-05
      6     -157.6269764179  -1.0485684E-07   7.4785192E-06
------------------------------------------------------------

 total:                                   0.159 sec
 * total energy  :  -157.6269764 Eh     change       -0.1432495E-05 Eh
   gradient norm :     0.0002696 Eh/α   predicted    -0.5712362E-06 ( -60.12%)
   displ. norm   :     0.0682068 α      lambda       -0.1206873E-05
   maximum displ.:     0.0422154 α      in ANC's #5, #2, #8, ...

........................................................................
.............................. CYCLE   16 ..............................
........................................................................
------------------------------------------------------------
  cycle        total energy    energy error   density error
------------------------------------------------------------
      1     -157.6269749501  -1.6031255E+02   1.8876030E-04
      2     -157.6267709556   2.0399459E-04   7.4685734E-04
      3     -157.6269482514  -1.7729584E-04   2.9678402E-04
      4     -157.6269698789  -2.1627517E-05   1.7083585E-04
      5     -157.6269774490  -7.5700914E-06   4.1248325E-05
      6     -157.6269779538  -5.0479957E-07   6.1027735E-06
------------------------------------------------------------

 total:                                   0.153 sec
 * total energy  :  -157.6269780 Eh     change       -0.1535897E-05 Eh
   gradient norm :     0.0002586 Eh/α   predicted    -0.6085173E-06 ( -60.38%)
   displ. norm   :     0.0724808 α      lambda       -0.1219075E-05
   maximum displ.:     0.0450455 α      in ANC's #5, #2, #8, ...

........................................................................
.............................. CYCLE   17 ..............................
........................................................................
------------------------------------------------------------
  cycle        total energy    energy error   density error
------------------------------------------------------------
      1     -157.6269787474  -1.6031249E+02   1.8076706E-04
      2     -157.6269213504   5.7396944E-05   4.0321692E-04
      3     -157.6269336279  -1.2277486E-05   3.6078031E-04
      4     -157.6269667372  -3.3109245E-05   2.0671816E-04
      5     -157.6269787671  -1.2029900E-05   4.8100766E-05
      6     -157.6269794950  -7.2795714E-07   4.1332219E-06
------------------------------------------------------------

 total:                                   0.154 sec
 * total energy  :  -157.6269795 Eh     change       -0.1541217E-05 Eh
   gradient norm :     0.0001414 Eh/α   predicted    -0.6126733E-06 ( -60.25%)
   displ. norm   :     0.0668596 α      lambda       -0.1091791E-05
   maximum displ.:     0.0419721 α      in ANC's #5, #2, #3, ...

........................................................................
.............................. CYCLE   18 ..............................
........................................................................
------------------------------------------------------------
  cycle        total energy    energy error   density error
------------------------------------------------------------
      1     -157.6269806075  -1.6031250E+02   1.6157187E-04
      2     -157.6269542885   2.6318929E-05   2.7998683E-04
      3     -157.6269283519   2.5936625E-05   3.8133261E-04
      4     -157.6269759382  -4.7586274E-05   1.2716864E-04
      5     -157.6269805988  -4.6606334E-06   3.0174583E-05
      6     -157.6269808961  -2.9732360E-07   2.9443437E-06
------------------------------------------------------------

 total:                                   0.155 sec
 * total energy  :  -157.6269809 Eh     change       -0.1401116E-05 Eh
   gradient norm :     0.0000946 Eh/α   predicted    -0.5487997E-06 ( -60.83%)
   displ. norm   :     0.0632982 α      lambda       -0.1057284E-05
   maximum displ.:     0.0400803 α      in ANC's #5, #2, #3, ...

........................................................................
.............................. CYCLE   19 ..............................
........................................................................
------------------------------------------------------------
  cycle        total energy    energy error   density error
------------------------------------------------------------
      1     -157.6269818773  -1.6031251E+02   1.5161278E-04
      2     -157.6269368478   4.5029502E-05   3.5688592E-04
      3     -157.6269612972  -2.4449346E-05   2.4827627E-04
      4     -157.6269807780  -1.9480864E-05   6.7951521E-05
      5     -157.6269821316  -1.3535764E-06   2.2218595E-05
      6     -157.6269822856  -1.5402972E-07   2.3106787E-06
------------------------------------------------------------

 total:                                   0.151 sec
 * total energy  :  -157.6269823 Eh     change       -0.1389482E-05 Eh
   gradient norm :     0.0001327 Eh/α   predicted    -0.5321211E-06 ( -61.70%)
   displ. norm   :     0.0686577 α      lambda       -0.1151870E-05
   maximum displ.:     0.0436004 α      in ANC's #5, #2, #3, ...

........................................................................
.............................. CYCLE   20 ..............................
........................................................................
------------------------------------------------------------
  cycle        total energy    energy error   density error
------------------------------------------------------------
      1     -157.6269834930  -1.6031252E+02   1.6047271E-04
      2     -157.6269432972   4.0195846E-05   3.4043398E-04
      3     -157.6269545356  -1.1238468E-05   2.8983147E-04
      4     -157.6269830524  -2.8516755E-05   4.9785416E-05
      5     -157.6269837409  -6.8849363E-07   1.9336676E-05
------------------------------------------------------------

 total:                                   0.137 sec
 * total energy  :  -157.6269837 Eh     change       -0.1455259E-05 Eh
   gradient norm :     0.0002013 Eh/α   predicted    -0.5812664E-06 ( -60.06%)
   displ. norm   :     0.0766799 α      lambda       -0.1230782E-05
   maximum displ.:     0.0487348 α      in ANC's #5, #2, #3, ...
 * RMSD in coord.:     0.0814466 α      energy gain  -0.3593919E-04 Eh

generating ANC from exact Hessian ...
Using Lindh-Hessian (1995)
 Shifting diagonal of input Hessian by   9.938300664347042E-003
 Lowest  eigenvalues of input Hessian
    0.000000    0.000000    0.000000    0.000000    0.000000    0.000000
    0.010000    0.010016    0.010027    0.010058    0.010114    0.010228
    0.010382    0.010505    0.010590    0.010710    0.010899    0.011266
 Highest eigenvalues
    2.154291    2.168178    2.170854    2.170975    2.289598    2.385930
 

........................................................................
.............................. CYCLE   21 ..............................
........................................................................
------------------------------------------------------------
  cycle        total energy    energy error   density error
------------------------------------------------------------
      1     -157.6269781473  -1.6031253E+02   2.2709446E-04
      2     -157.6268714692   1.0667810E-04   5.8262795E-04
      3     -157.6268637030   7.7662366E-06   5.7624951E-04
      4     -157.6269782659  -1.1456289E-04   1.6447322E-04
      5     -157.6269850706  -6.8047287E-06   4.4735355E-05
      6     -157.6269856912  -6.2056188E-07   5.0051625E-06
------------------------------------------------------------

 total:                                   0.155 sec
 * total energy  :  -157.6269857 Eh     change       -0.1950277E-05 Eh
   gradient norm :     0.0002195 Eh/α   predicted     0.0000000E+00 (-100.00%)
   displ. norm   :     0.0068277 α      lambda       -0.3985391E-07
   maximum displ.:     0.0030413 α      in ANC's #5, #8, #7, ...

........................................................................
.............................. CYCLE   22 ..............................
........................................................................
------------------------------------------------------------
  cycle        total energy    energy error   density error
------------------------------------------------------------
      1     -157.6269853621  -1.6031252E+02   5.1675560E-05
      2     -157.6268998817   8.5480360E-05   4.7789946E-04
      3     -157.6269857786  -8.5896818E-05   3.2736798E-05
      4     -157.6269860660  -2.8745765E-07   1.9008040E-05
------------------------------------------------------------

 total:                                   0.107 sec
 * total energy  :  -157.6269861 Eh     change       -0.3748470E-06 Eh
   gradient norm :     0.0001376 Eh/α   predicted    -0.1848172E-06 ( -50.70%)
   displ. norm   :     0.0287496 α      lambda       -0.8134081E-06
   maximum displ.:     0.0126881 α      in ANC's #5, #8, #10, ...

........................................................................
.............................. CYCLE   23 ..............................
........................................................................
------------------------------------------------------------
  cycle        total energy    energy error   density error
------------------------------------------------------------
      1     -157.6269764766  -1.6031253E+02   1.8681799E-04
      2     -157.6263012089   6.7526774E-04   1.3498505E-03
      3     -157.6269396094  -6.3840052E-04   3.6556003E-04
      4     -157.6269871316  -4.7522253E-05   4.2806152E-05
      5     -157.6269871389  -7.2929254E-09   2.3944360E-05
      6     -157.6269873101  -1.7119118E-07   8.5675728E-06
------------------------------------------------------------

 total:                                   0.155 sec
 * total energy  :  -157.6269873 Eh     change       -0.1244120E-05 Eh
   gradient norm :     0.0002277 Eh/α   predicted    -0.5474415E-06 ( -56.00%)
   displ. norm   :     0.0170009 α      lambda       -0.3524137E-06
   maximum displ.:     0.0083853 α      in ANC's #5, #8, #7, ...

........................................................................
.............................. CYCLE   24 ..............................
........................................................................
------------------------------------------------------------
  cycle        total energy    energy error   density error
------------------------------------------------------------
      1     -157.6269785561  -1.6031250E+02   1.5482713E-04
      2     -157.6259508463   1.0277098E-03   1.6435827E-03
      3     -157.6269866287  -1.0357824E-03   5.9760737E-05
      4     -157.6269875665  -9.3776001E-07   2.9315370E-05
      5     -157.6269875077   5.8796786E-08   2.9901927E-05
      6     -157.6269877638  -2.5609771E-07   4.7481294E-06
------------------------------------------------------------

 total:                                   0.155 sec
 * total energy  :  -157.6269878 Eh     change       -0.4536373E-06 Eh
   gradient norm :     0.0001740 Eh/α   predicted    -0.1763856E-06 ( -61.12%)
   displ. norm   :     0.0261399 α      lambda       -0.5442603E-06
   maximum displ.:     0.0132371 α      in ANC's #5, #8, #2, ...

........................................................................
.............................. CYCLE   25 ..............................
........................................................................
------------------------------------------------------------
  cycle        total energy    energy error   density error
------------------------------------------------------------
      1     -157.6269846769  -1.6031249E+02   1.1329799E-04
      2     -157.6265466455   4.3803142E-04   1.0755689E-03
      3     -157.6269882296  -4.4158417E-04   4.0496950E-05
      4     -157.6269872462   9.8344975E-07   6.3041945E-05
      5     -157.6269881401  -8.9388797E-07   2.8216502E-05
      6     -157.6269884172  -2.7715780E-07   5.4067636E-06
------------------------------------------------------------

 total:                                   0.154 sec
 * total energy  :  -157.6269884 Eh     change       -0.6534682E-06 Eh
   gradient norm :     0.0002308 Eh/α   predicted    -0.2744011E-06 ( -58.01%)
   displ. norm   :     0.0366399 α      lambda       -0.6540634E-06
   maximum displ.:     0.0191349 α      in ANC's #5, #8, #2, ...

........................................................................
.............................. CYCLE   26 ..............................
........................................................................
------------------------------------------------------------
  cycle        total energy    energy error   density error
------------------------------------------------------------
      1     -157.6269808085  -1.6031252E+02   1.6906952E-04
      2     -157.6260061640   9.7464456E-04   1.6050506E-03
      3     -157.6269888751  -9.8271115E-04   5.6939013E-05
      4     -157.6269863977   2.4774232E-06   9.3608013E-05
      5     -157.6269887891  -2.3914673E-06   3.2185006E-05
      6     -157.6269891438  -3.5464302E-07   6.8883542E-06
------------------------------------------------------------

 total:                                   0.151 sec
 * total energy  :  -157.6269891 Eh     change       -0.7265567E-06 Eh
   gradient norm :     0.0002215 Eh/α   predicted    -0.3281084E-06 ( -54.84%)
   displ. norm   :     0.0333284 α      lambda       -0.4433747E-06
   maximum displ.:     0.0182380 α      in ANC's #5, #8, #2, ...

........................................................................
.............................. CYCLE   27 ..............................
........................................................................
------------------------------------------------------------
  cycle        total energy    energy error   density error
------------------------------------------------------------
      1     -157.6269799641  -1.6031255E+02   1.7498572E-04
      2     -157.6258679309   1.1120331E-03   1.7126501E-03
      3     -157.6269888964  -1.1209655E-03   6.4018969E-05
      4     -157.6269879280   9.6837283E-07   7.9607996E-05
      5     -157.6269888524  -9.2438270E-07   4.7061606E-05
      6     -157.6269896516  -7.9913789E-07   5.2789283E-06
------------------------------------------------------------

 total:                                   0.154 sec
 * total energy  :  -157.6269897 Eh     change       -0.5077702E-06 Eh
   gradient norm :     0.0001680 Eh/α   predicted    -0.2226787E-06 ( -56.15%)
   displ. norm   :     0.0238353 α      lambda       -0.2891080E-06
   maximum displ.:     0.0138109 α      in ANC's #5, #2, #8, ...

........................................................................
.............................. CYCLE   28 ..............................
........................................................................
------------------------------------------------------------
  cycle        total energy    energy error   density error
------------------------------------------------------------
      1     -157.6269841951  -1.6031259E+02   1.3228828E-04
      2     -157.6263028823   6.8131284E-04   1.3402447E-03
      3     -157.6269898683  -6.8698598E-04   3.5697480E-05
      4     -157.6269894435   4.2475875E-07   4.1005281E-05
      5     -157.6269899750  -5.3144254E-07   1.0478049E-05
------------------------------------------------------------

 total:                                   0.130 sec
 * total energy  :  -157.6269900 Eh     change       -0.3233936E-06 Eh
   gradient norm :     0.0000828 Eh/α   predicted    -0.1474570E-06 ( -54.40%)
   displ. norm   :     0.0213098 α      lambda       -0.2744406E-06
   maximum displ.:     0.0129440 α      in ANC's #5, #2, #8, ...

........................................................................
.............................. CYCLE   29 ..............................
........................................................................
------------------------------------------------------------
  cycle        total energy    energy error   density error
------------------------------------------------------------
      1     -157.6269864735  -1.6031259E+02   1.1315563E-04
      2     -157.6267658117   2.2066180E-04   7.7316470E-04
      3     -157.6269693159  -2.0350423E-04   2.4136980E-04
      4     -157.6269901815  -2.0865628E-05   2.8612478E-05
      5     -157.6269901944  -1.2870373E-08   1.5427382E-05
------------------------------------------------------------

 total:                                   0.134 sec
 * total energy  :  -157.6269902 Eh     change       -0.2194323E-06 Eh
   gradient norm :     0.0001766 Eh/α   predicted    -0.1390726E-06 ( -36.62%)
   displ. norm   :     0.0228841 α      lambda       -0.2811310E-06
   maximum displ.:     0.0142004 α      in ANC's #5, #2, #8, ...

........................................................................
.............................. CYCLE   30 ..............................
........................................................................
------------------------------------------------------------
  cycle        total energy    energy error   density error
------------------------------------------------------------
      1     -157.6269443332  -1.6031252E+02   3.4686791E-04
      2     -157.6219233550   5.0209782E-03   3.6400628E-03
      3     -157.6269884651  -5.0651101E-03   8.1595978E-05
      4     -157.6269899624  -1.4973237E-06   4.7891958E-05
      5     -157.6269900367  -7.4358837E-08   4.2801199E-05
      6     -157.6269905931  -5.5638165E-07   9.2121499E-06
------------------------------------------------------------

 total:                                   0.162 sec
 * total energy  :  -157.6269906 Eh     change       -0.3987431E-06 Eh
   gradient norm :     0.0001765 Eh/α   predicted    -0.1428968E-06 ( -64.16%)
   displ. norm   :     0.0201325 α      lambda       -0.2314956E-06
   maximum displ.:     0.0127204 α      in ANC's #5, #2, #8, ...

........................................................................
.............................. CYCLE   31 ..............................
........................................................................
------------------------------------------------------------
  cycle        total energy    energy error   density error
------------------------------------------------------------
      1     -157.6269900792  -1.6031254E+02   6.7016932E-05
      2     -157.6269435596   4.6519547E-05   3.5880675E-04
      3     -157.6269834168  -3.9857213E-05   1.4112830E-04
      4     -157.6269906421  -7.2252586E-06   3.4943897E-05
      5     -157.6269905195   1.2262510E-07   3.1635865E-05
      6     -157.6269908913  -3.7186348E-07   2.9896035E-06
------------------------------------------------------------

 total:                                   0.153 sec
 * total energy  :  -157.6269909 Eh     change       -0.2982066E-06 Eh
   gradient norm :     0.0001217 Eh/α   predicted    -0.1188022E-06 ( -60.16%)
   displ. norm   :     0.0203611 α      lambda       -0.2513727E-06
   maximum displ.:     0.0128737 α      in ANC's #5, #2, #13, ...

........................................................................
.............................. CYCLE   32 ..............................
........................................................................
------------------------------------------------------------
  cycle        total energy    energy error   density error
------------------------------------------------------------
      1     -157.6269888155  -1.6031254E+02   9.2112556E-05
      2     -157.6267023311   2.8648440E-04   8.7007783E-04
      3     -157.6269911166  -2.8878552E-04   3.2130819E-05
      4     -157.6269905797   5.3689365E-07   4.5472415E-05
      5     -157.6269911228  -5.4307381E-07   1.8388730E-05
------------------------------------------------------------

 total:                                   0.131 sec
 * total energy  :  -157.6269911 Eh     change       -0.2314816E-06 Eh
   gradient norm :     0.0001009 Eh/α   predicted    -0.1280091E-06 ( -44.70%)
   displ. norm   :     0.0299979 α      lambda       -0.3942525E-06
   maximum displ.:     0.0188273 α      in ANC's #5, #2, #13, ...

........................................................................
.............................. CYCLE   33 ..............................
........................................................................
------------------------------------------------------------
  cycle        total energy    energy error   density error
------------------------------------------------------------
      1     -157.6269719571  -1.6031249E+02   2.3947591E-04
      2     -157.6251691344   1.8028227E-03   2.1843028E-03
      3     -157.6269686356  -1.7995012E-03   2.6413678E-04
      4     -157.6269909953  -2.2359659E-05   5.7377895E-05
      5     -157.6269910274  -3.2153679E-08   4.4302933E-05
      6     -157.6269916508  -6.2335090E-07   1.0307804E-05
------------------------------------------------------------

 total:                                   0.156 sec
 * total energy  :  -157.6269917 Eh     change       -0.5279364E-06 Eh
   gradient norm :     0.0002004 Eh/α   predicted    -0.1989868E-06 ( -62.31%)
   displ. norm   :     0.0298177 α      lambda       -0.3382115E-06
   maximum displ.:     0.0188027 α      in ANC's #5, #2, #13, ...

........................................................................
.............................. CYCLE   34 ..............................
........................................................................
------------------------------------------------------------
  cycle        total energy    energy error   density error
------------------------------------------------------------
      1     -157.6269725091  -1.6031251E+02   2.3332421E-04
      2     -157.6247431960   2.2293131E-03   2.4244660E-03
      3     -157.6269912628  -2.2480668E-03   6.2336641E-05
      4     -157.6269910645   1.9830571E-07   5.7156840E-05
      5     -157.6269916459  -5.8145079E-07   3.7099379E-05
      6     -157.6269920477  -4.0175769E-07   1.2476863E-05
------------------------------------------------------------

 total:                                   0.153 sec
 * total energy  :  -157.6269920 Eh     change       -0.3969137E-06 Eh
   gradient norm :     0.0001600 Eh/α   predicted    -0.1699526E-06 ( -57.18%)
   displ. norm   :     0.0296102 α      lambda       -0.3257268E-06
   maximum displ.:     0.0188040 α      in ANC's #5, #2, #13, ...

........................................................................
.............................. CYCLE   35 ..............................
........................................................................
------------------------------------------------------------
  cycle        total energy    energy error   density error
------------------------------------------------------------
      1     -157.6269837062  -1.6031252E+02   1.7090162E-04
      2     -157.6262347231   7.4898302E-04   1.4093926E-03
      3     -157.6269774839  -7.4276078E-04   2.1372839E-04
      4     -157.6269916636  -1.4179660E-05   6.2237108E-05
      5     -157.6269918699  -2.0628278E-07   4.1601013E-05
      6     -157.6269924743  -6.0443000E-07   9.6185024E-06
------------------------------------------------------------

 total:                                   0.154 sec
 * total energy  :  -157.6269925 Eh     change       -0.4266286E-06 Eh
   gradient norm :     0.0001367 Eh/α   predicted    -0.1634933E-06 ( -61.68%)
   displ. norm   :     0.0332141 α      lambda       -0.3691286E-06
   maximum displ.:     0.0212897 α      in ANC's #5, #2, #13, ...

........................................................................
.............................. CYCLE   36 ..............................
........................................................................
------------------------------------------------------------
  cycle        total energy    energy error   density error
------------------------------------------------------------
      1     -157.6269661375  -1.6031252E+02   2.7474588E-04
      2     -157.6239391883   3.0269492E-03   2.8273003E-03
      3     -157.6269922870  -3.0530987E-03   6.5669108E-05
      4     -157.6269914082   8.7882702E-07   6.9854010E-05
      5     -157.6269924875  -1.0793247E-06   3.9386314E-05
      6     -157.6269928993  -4.1174866E-07   1.5531697E-05
------------------------------------------------------------

 total:                                   0.156 sec
 * total energy  :  -157.6269929 Eh     change       -0.4249540E-06 Eh
   gradient norm :     0.0001173 Eh/α   predicted    -0.1853453E-06 ( -56.38%)
   displ. norm   :     0.0389938 α      lambda       -0.4053625E-06
   maximum displ.:     0.0252726 α      in ANC's #5, #2, #4, ...

........................................................................
.............................. CYCLE   37 ..............................
........................................................................
------------------------------------------------------------
  cycle        total energy    energy error   density error
------------------------------------------------------------
      1     -157.6269692924  -1.6031252E+02   2.6706101E-04
      2     -157.6245701106   2.3991818E-03   2.5178987E-03
      3     -157.6269810614  -2.4109508E-03   1.9715133E-04
      4     -157.6269910231  -9.9616559E-06   9.1667654E-05
      5     -157.6269918108  -7.8767718E-07   5.7795817E-05
      6     -157.6269929306  -1.1198723E-06   1.3347890E-05
      7     -157.6269929929  -6.2289985E-08   2.5720994E-06
------------------------------------------------------------

 total:                                   0.175 sec
 * total energy  :  -157.6269930 Eh     change       -0.9366204E-07 Eh
   gradient norm :     0.0000648 Eh/α   predicted    -0.2041900E-06 ( 118.01%)
   displ. norm   :     0.0403956 α      lambda       -0.3725241E-06
   maximum displ.:     0.0266704 α      in ANC's #5, #2, #4, ...

   *** GEOMETRY OPTIMIZATION CONVERGED AFTER 37 ITERATIONS ***

------------------------------------------------------------------------
 total energy gain   :        -0.0000452 Eh       -0.0284 kcal/mol
 total RMSD          :         0.1060280 a0        0.0561 Å
 total power (kW/mol):        -0.0032067 (step)   -0.0200 (real)
------------------------------------------------------------------------

 ANCopt (total)                0 d,  0 h,  0 min,  5.939 sec
 optimizer setup                ...        0 min,  0.001 sec (  0.009%)
 model hessian                  ...        0 min,  0.176 sec (  2.960%)
 ANC generation                 ...        0 min,  0.023 sec (  0.391%)
 coordinate transformation      ...        0 min,  0.005 sec (  0.081%)
 single point calculation       ...        0 min,  5.704 sec ( 96.043%)
 optimization log               ...        0 min,  0.011 sec (  0.188%)
 hessian update                 ...        0 min,  0.006 sec (  0.105%)
 rational function              ...        0 min,  0.007 sec (  0.120%)

================
 final structure:
================
108
 xtb: 6.7.1 (edcfbbe)
C           -0.60779552135928        5.27946088041029        3.15819228773107
C            0.39170371039890        4.73549949347114        2.13661065761148
C            1.83624146782817        4.92204630263082        2.60649278372647
C            0.21239342961905        5.38941302718141        0.78732894313835
C            0.23690524024347        6.77185403433377        0.66492036513078
C            0.07851836729731        7.37569621995962       -0.56716202998849
C           -0.09704721417533        6.60560724473062       -1.70037736975190
C           -0.10654584651906        5.21969206629949       -1.62386601254960
C           -0.30525498228849        4.38361392428511       -2.86539291912659
C            0.69688525501219        4.75724697350199       -3.95830503588537
C           -1.74927943027101        4.52889070408936       -3.35117012533314
C            0.04468752758924        4.63096765508815       -0.36988066650742
N            0.02960746293973        3.20048313893748       -0.26515214994789
C           -1.21797526702087        2.59623724476551       -0.19576577067564
O           -2.23852919765564        3.27664941313352       -0.22652566539730
C           -1.21227462345817        1.15273390237474       -0.07446343109555
C           -2.43321446403036        0.46194445745387        0.00340468712460
C           -2.43692535325974       -0.91296348192766        0.10508378243639
N           -3.67434977304608       -1.61382484207454        0.18499375905299
C           -4.10609249506444       -2.32399621404134       -0.91434114635134
C           -3.34304539276232       -2.30698102299080       -2.09126474950167
C           -3.73720274508622       -3.02227032015164       -3.19893795320197
C           -4.90870975032276       -3.76213459953698       -3.16228143829041
C           -5.68011571930877       -3.75797839727648       -2.01473684318341
C           -5.30810288771178       -3.04755551686359       -0.88201238759731
C           -6.20796981574005       -3.05343939534409        0.33493487017105
C           -7.57442106302206       -2.46546504621021       -0.06628846103752
C           -6.37503061743450       -4.50483224127755        0.82379576549047
C           -5.63586512416150       -2.22518033397032        1.46548316492586
C           -6.33174517953604       -2.12614781433235        2.66256641537201
C           -5.84443516852399       -1.40202702616126        3.73451218010008
C           -4.61838286446093       -0.76420199907398        3.62551648061038
C           -3.90653529842643       -0.84359026093424        2.45075255163467
C           -4.40748729303070       -1.55641430560328        1.35194028214819
C           -1.24478447963621       -1.64047806397131        0.14852754346236
C           -0.00834017918246       -0.97565090650655        0.08493686481910
C            1.21546483276477       -1.66556793753049        0.11357863588021
C            2.42082105791148       -0.96289984064121        0.03306992930429
N            3.64508956391895       -1.68855857780212        0.07941747846395
C            4.42364646292776       -1.62626054799564        1.21663811951229
C            3.98173079683845       -0.88199599865350        2.31998401021639
C            4.74067606149963       -0.79622281066081        3.46442483129253
C            5.95569631053575       -1.45957205463863        3.53877444964769
C            6.38407737425745       -2.21563645371043        2.46377384490534
C            5.64002674450386       -2.32131725316858        1.29656864865466
C            6.14849677072206       -3.18567032411015        0.16268402006419
C            7.51349505780025       -2.64134388767787       -0.30034786088811
C            6.29676008817630       -4.63113906454948        0.67458877490098
C            5.20446984801341       -3.17960943112431       -1.02027088074640
C            5.51733743449876       -3.91911832043194       -2.15228292739683
C            4.70515223859910       -3.92355003419931       -3.27130558207838
C            3.55264533806264       -3.15364311386753       -3.28007329888683
C            3.21667452141317       -2.40956444397058       -2.17219761368855
C            4.01998769317745       -2.42707963759604       -1.02234064602077
C            2.44184390327435        0.41149836329804       -0.07370022511498
C            1.23372786830211        1.12693122837123       -0.11535567416465
C            0.00437222397472        0.44431993228539       -0.03313341180179
C            1.26573445500787        2.56945075449547       -0.24206760902026
O            2.29854681818894        3.22748089730159       -0.31715079897084
H           -0.52193477697431        4.72832866779762        4.09297383951143
H           -0.42779999403809        6.33100863898702        3.36602106095642
H           -1.62225288050481        5.16925596703345        2.78122261974086
H            0.20670594661382        3.66088451144715        2.03690423452863
H            2.51791584134881        4.51710611474141        1.86176316440178
H            2.06214493369718        5.97689096500940        2.74433460808832
H            1.99800815833838        4.40522069782065        3.55079233903208
H            0.37910837050652        7.38465501013684        1.54215451212373
H            0.09202199734835        8.45355487755699       -0.64483248704540
H           -0.22549131240811        7.08981627324794       -2.65654323057600
H           -0.13908468772384        3.33100881111217       -2.61378466389838
H            0.59846593222942        4.07633832558544       -4.80180780012779
H            0.53084510251136        5.76945856982065       -4.31782388888904
H            1.71156219643713        4.68822085723866       -3.57228801916812
H           -2.43314422189417        4.24639787159897       -2.55377714327433
H           -1.95676642583368        5.55778842653251       -3.63605300304168
H           -1.92674019958454        3.88656131054513       -4.21183644832196
H           -3.35178694399973        1.02622693350086       -0.02515627513474
H           -2.44083802338468       -1.71823484046190       -2.12779235734496
H           -3.13464773725869       -2.99796324404863       -4.09398710648805
H           -5.22628315746103       -4.32753680939820       -4.02477492024593
H           -6.59878140594950       -4.32427534360832       -2.00906985447214
H           -8.25670142965421       -2.46151327281588        0.77884172191491
H           -8.02577921484566       -3.04544900270424       -0.86614998211567
H           -7.44927077580613       -1.44135140783014       -0.41214190816968
H           -7.03076702728190       -4.54922054862751        1.68846334718299
H           -6.79922628964940       -5.12962855007560        0.04309750530861
H           -5.40698924047795       -4.91510320699042        1.10510521143901
H           -7.28188270230860       -2.62702341903379        2.76782104032349
H           -6.41331133339655       -1.34191525515248        4.64945413612022
H           -4.21733913133660       -0.20572604384900        4.45719454803499
H           -2.95099755811376       -0.35124631390301        2.37052754914224
H           -1.27460566165977       -2.71554693477992        0.24351540977184
H            1.22590009081401       -2.74081338608336        0.21074093233511
H            3.03463008325036       -0.37005383789983        2.26772415832637
H            4.38477357909834       -0.21297890625627        4.29962761093768
H            6.56120921739155       -1.39480367274590        4.42956158445894
H            7.32579526768929       -2.73683808503423        2.54248086858971
H            8.22770158093913       -2.64185427022160        0.51797131301513
H            7.91849856195359       -3.24621690825828       -1.10653809332507
H            7.40199106507946       -1.62005266251764       -0.65898957114442
H            5.33035978687717       -5.00926869649987        1.00268212886814
H            6.67243677054945       -5.28251834053546       -0.10922859336442
H            6.98541422791466       -4.67619293033034        1.51325639243467
H            6.42113620614198       -4.50864307052644       -2.16897752753955
H            4.97696207218307       -4.51204212125606       -4.13397919564705
H            2.91959078132519       -3.12830764015138       -4.15378174905545
H            2.32960270962064       -1.79741461330773       -2.18820152041403
H            3.37029571008490        0.95685982735634       -0.13373016310640
 
 Bond Distances (Angstroems)
 ---------------------------
C1-C2=1.5292         C1-H60=1.0885        C1-H61=1.0869        C1-H62=1.0878        C2-C1=1.5292         C2-C3=1.5305         
C2-C4=1.5101         C2-H63=1.0950        C3-C2=1.5305         C3-H64=1.0878        C3-H65=1.0875        C3-H66=1.0886        
C4-C2=1.5101         C4-C5=1.3881         C4-C12=1.3937        C5-C4=1.3881         C5-C6=1.3812         C5-H67=1.0795        
C6-C5=1.3812         C6-C7=1.3813         C6-H68=1.0807        C7-C6=1.3813         C7-C8=1.3881         C7-H69=1.0794        
C8-C7=1.3881         C8-C9=1.5099         C8-C12=1.3935        C9-C8=1.5099         C9-C10=1.5292        C9-C11=1.5305        
C9-H70=1.0949        C10-C9=1.5292        C10-H71=1.0885       C10-H72=1.0869       C10-H73=1.0878       C11-C9=1.5305        
C11-H74=1.0878       C11-H75=1.0876       C11-H76=1.0885       C12-C4=1.3937        C12-C8=1.3935        C12-N13=1.4344       
N13-C12=1.4344       N13-C14=1.3879       N13-C58=1.3881       C14-N13=1.3879       C14-O15=1.2270       C14-C16=1.4486       
O15-C14=1.2270       C16-C14=1.4486       C16-C17=1.4050       C16-C57=1.4085       C17-C16=1.4050       C17-C18=1.3787       
C17-H77=1.0784       C18-C17=1.3787       C18-N19=1.4244       C18-C35=1.3973       N19-C18=1.4244       N19-C20=1.3781       
N19-C34=1.3793       C20-N19=1.3781       C20-C21=1.4027       C20-C25=1.4034       C21-C20=1.4027       C21-C22=1.3762       
C21-H78=1.0779       C22-C21=1.3762       C22-C23=1.3861       C22-H79=1.0792       C23-C22=1.3861       C23-C24=1.3827       
C23-H80=1.0791       C24-C23=1.3827       C24-C25=1.3879       C24-H81=1.0792       C25-C20=1.4034       C25-C24=1.3879       
C25-C26=1.5135       C26-C25=1.5135       C26-C27=1.5407       C26-C28=1.5406       C26-C29=1.5138       C27-C26=1.5407       
C27-H82=1.0862       C27-H83=1.0862       C27-H84=1.0882       C28-C26=1.5406       C28-H85=1.0861       C28-H86=1.0862       
C28-H87=1.0884       C29-C26=1.5138       C29-C30=1.3882       C29-C34=1.4032       C30-C29=1.3882       C30-C31=1.3823       
C30-H88=1.0792       C31-C30=1.3823       C31-C32=1.3863       C31-H89=1.0791       C32-C31=1.3863       C32-C33=1.3759       
C32-H90=1.0791       C33-C32=1.3759       C33-C34=1.4023       C33-H91=1.0779       C34-N19=1.3793       C34-C29=1.4032       
C34-C33=1.4023       C35-C18=1.3973       C35-C36=1.4053       C35-H92=1.0797       C36-C35=1.4053       C36-C37=1.4052       
C36-C57=1.4249       C37-C36=1.4052       C37-C38=1.3975       C37-H93=1.0797       C38-C37=1.3975       C38-N39=1.4239       
C38-C55=1.3787       N39-C38=1.4239       N39-C40=1.3796       N39-C54=1.3783       C40-N39=1.3796       C40-C41=1.4024       
C40-C45=1.4032       C41-C40=1.4024       C41-C42=1.3759       C41-H94=1.0779       C42-C41=1.3759       C42-C43=1.3863       
C42-H95=1.0791       C43-C42=1.3863       C43-C44=1.3823       C43-H96=1.0790       C44-C43=1.3823       C44-C45=1.3882       
C44-H97=1.0792       C45-C40=1.4032       C45-C44=1.3882       C45-C46=1.5137       C46-C45=1.5137       C46-C47=1.5407       
C46-C48=1.5406       C46-C49=1.5135       C47-C46=1.5407       C47-H98=1.0862       C47-H99=1.0862       C47-H100=1.0882      
C48-C46=1.5406       C48-H101=1.0884      C48-H102=1.0862      C48-H103=1.0861      C49-C46=1.5135       C49-C50=1.3879       
C49-C54=1.4033       C50-C49=1.3879       C50-C51=1.3827       C50-H104=1.0792      C51-C50=1.3827       C51-C52=1.3860       
C51-H105=1.0791      C52-C51=1.3860       C52-C53=1.3762       C52-H106=1.0792      C53-C52=1.3762       C53-C54=1.4028       
C53-H107=1.0779      C54-N39=1.3783       C54-C49=1.4033       C54-C53=1.4028       C55-C38=1.3787       C55-C56=1.4047       
C55-H108=1.0784      C56-C55=1.4047       C56-C57=1.4086       C56-C58=1.4484       C57-C16=1.4085       C57-C36=1.4249       
C57-C56=1.4086       C58-N13=1.3881       C58-C56=1.4484       C58-O59=1.2269       O59-C58=1.2269       H60-C1=1.0885        
H61-C1=1.0869        H62-C1=1.0878        H63-C2=1.0950        H64-C3=1.0878        H65-C3=1.0875        H66-C3=1.0886        
H67-C5=1.0795        H68-C6=1.0807        H69-C7=1.0794        H70-C9=1.0949        H71-C10=1.0885       H72-C10=1.0869       
H73-C10=1.0878       H74-C11=1.0878       H75-C11=1.0876       H76-C11=1.0885       H77-C17=1.0784       H78-C21=1.0779       
H79-C22=1.0792       H80-C23=1.0791       H81-C24=1.0792       H82-C27=1.0862       H83-C27=1.0862       H84-C27=1.0882       
H85-C28=1.0861       H86-C28=1.0862       H87-C28=1.0884       H88-C30=1.0792       H89-C31=1.0791       H90-C32=1.0791       
H91-C33=1.0779       H92-C35=1.0797       H93-C37=1.0797       H94-C41=1.0779       H95-C42=1.0791       H96-C43=1.0790       
H97-C44=1.0792       H98-C47=1.0862       H99-C47=1.0862       H100-C47=1.0882      H101-C48=1.0884      H102-C48=1.0862      
H103-C48=1.0861      H104-C50=1.0792      H105-C51=1.0791      H106-C52=1.0792      H107-C53=1.0779      H108-C55=1.0784      
 C  H  Rav=1.0838 sigma=0.0048  Rmin=1.0779  Rmax=1.0950    49
 C  C  Rav=1.4272 sigma=0.0582  Rmin=1.3759  Rmax=1.5407    57
 N  C  Rav=1.3971 sigma=0.0220  Rmin=1.3781  Rmax=1.4344     9
 O  C  Rav=1.2269 sigma=0.0000  Rmin=1.2269  Rmax=1.2270     2
 
 selected bond angles (degree)
 --------------------
H60-C1-C2=110.00               H61-C1-C2=111.32               H61-C1-H60=108.21              H62-C1-C2=110.00               
H62-C1-H60=108.65              H62-C1-H61=108.58              C3-C2-C1=111.62                C4-C2-C1=111.42                
C4-C2-C3=109.49                H63-C2-C1=107.43               H63-C2-C3=107.88               H63-C2-C4=108.88               
H64-C3-C2=109.63               H65-C3-C2=110.68               H65-C3-H64=108.52              H66-C3-C2=110.41               
H66-C3-H64=108.91              H66-C3-H65=108.64              C5-C4-C2=120.53                C12-C4-C2=121.37               
C12-C4-C5=118.09               C6-C5-C4=120.80                H67-C5-C4=119.74               H67-C5-C6=119.46               
C7-C6-C5=120.18                H68-C6-C5=119.91               H68-C6-C7=119.91               C8-C7-C6=120.82                
H69-C7-C6=119.45               H69-C7-C8=119.73               C9-C8-C7=120.56                C12-C8-C7=118.08               
C12-C8-C9=121.35               C10-C9-C8=111.48               C11-C9-C8=109.43               C11-C9-C10=111.61              
H70-C9-C8=108.87               H70-C9-C10=107.44              H70-C9-C11=107.90              H71-C10-C9=109.98              
H72-C10-C9=111.34              H72-C10-H71=108.21             H73-C10-C9=110.01              H73-C10-H71=108.64             
H73-C10-H72=108.60             
 
 selected dihedral angles (degree)
 ---------------------------------
C3-C2-C1-H60=297.43           C3-C2-C1-H61= 57.37           C3-C2-C1-H62=177.78           C4-C2-C1-H60=174.68           
C4-C2-C1-H61=294.62           C4-C2-C1-H62= 55.03           H63-C2-C1-H60= 55.50          H63-C2-C1-H61=175.45          
H63-C2-C1-H62=295.85          H64-C3-C2-C1=179.50           H64-C3-C2-C4=303.35           H64-C3-C2-H63= 61.70          
H65-C3-C2-C1=299.18           H65-C3-C2-C4= 63.03           H65-C3-C2-H63=181.38          H66-C3-C2-C1= 59.52           
H66-C3-C2-C4=183.37           H66-C3-C2-H63=301.72          C5-C4-C2-C1= 54.17            C5-C4-C2-C3=290.21            
C5-C4-C2-H63=172.48           C12-C4-C2-C1=232.90           C12-C4-C2-C3=108.93           C12-C4-C2-H63=351.21          
C6-C5-C4-C2=179.75            C6-C5-C4-C12=  0.99           H67-C5-C4-C2=359.62           H67-C5-C4-C12=180.85          
C7-C6-C5-C4=359.50            C7-C6-C5-H67=179.64           H68-C6-C5-C4=179.51           H68-C6-C5-H67=359.65          
C8-C7-C6-C5=359.47            C8-C7-C6-H68=179.47           H69-C7-C6-C5=179.65           H69-C7-C6-H68=359.64          
C9-C8-C7-C6=179.72            C9-C8-C7-H69=359.55           C12-C8-C7-C6=  1.00           C12-C8-C7-H69=180.83          
C10-C9-C8-C7= 53.73           C10-C9-C8-C12=232.41          C11-C9-C8-C7=289.79           C11-C9-C8-C12=108.46          
H70-C9-C8-C7=172.08           H70-C9-C8-C12=350.76          H71-C10-C9-C8=174.38          H71-C10-C9-C11=297.08         
H71-C10-C9-H70= 55.18         H72-C10-C9-C8=294.31          H72-C10-C9-C11= 57.01         H72-C10-C9-H70=175.11         
H73-C10-C9-C8= 54.75          H73-C10-C9-C11=177.45         H73-C10-C9-H70=295.55         
           -------------------------------------------------
          |                Final Singlepoint                |
           -------------------------------------------------
repulsion energy          2.6830702547011E+00 Eh
dispersion energy         2.4840152881571E-03 Eh
interaction energy        0.0000000000000E+00 Eh
number of electrons       2.9200000000000E+02 e
integral cutoff           1.7347787504999E+01 bohr

------------------------------------------------------------
  cycle        total energy    energy error   density error
------------------------------------------------------------
      1     -157.6269922572  -1.6031255E+02   4.3318882E-05
      2     -157.6269067605   8.5496657E-05   4.7442471E-04
      3     -157.6269929611  -8.6200605E-05   1.0043647E-05
      4     -157.6269929941  -3.2942381E-08   1.5955392E-06
------------------------------------------------------------

electronic energy        -1.6031254726405E+02 Eh
total energy             -1.5762699299406E+02 Eh

 total:                                   0.112 sec
 - repulsion                              0.000 sec (  0%)
 - dispersion                             0.003 sec (  3%)
 - coulomb                                0.007 sec (  5%)
 - hamiltonian                            0.013 sec ( 11%)
 - scc                                    0.089 sec ( 79%)

           ------------------------------------------------- 
          |                Numerical Hessian                |
           ------------------------------------------------- 
step length          :   0.00500
SCC accuracy         :   0.30000
Hessian scale factor :   1.00000
frozen atoms in %    :   0.00000    0
RMS gradient         :   0.00007
estimated CPU  time    237.40 min
estimated wall time      6.53 min

writing file <hessian>.

 projected vibrational frequencies (cm⁻¹)
eigval :       -0.00    -0.00    -0.00     0.00     0.00     0.00
eigval :        8.16     8.99    12.71    13.66    14.09    18.55
eigval :       33.67    34.25    39.09    40.26    40.57    45.50
eigval :       54.17    71.17    79.03    90.70    92.81    93.32
eigval :      102.46   105.65   109.67   120.50   129.11   129.26
eigval :      131.41   146.59   147.50   156.96   161.15   185.29
eigval :      191.01   192.28   193.35   198.09   205.60   216.32
eigval :      216.74   224.99   231.86   235.68   236.67   236.97
eigval :      244.47   268.54   270.46   275.07   284.02   296.81
eigval :      303.01   305.11   306.84   307.72   327.00   327.19
eigval :      338.40   341.61   341.89   344.65   348.04   380.49
eigval :      380.85   384.99   394.56   409.75   411.01   415.36
eigval :      423.38   444.90   445.30   449.44   450.69   458.63
eigval :      462.83   480.49   500.76   504.95   505.59   505.79
eigval :      507.00   519.24   530.33   536.38   540.29   543.61
eigval :      544.00   549.08   551.50   583.47   584.05   586.87
eigval :      589.49   609.81   614.83   622.25   630.77   635.77
eigval :      644.34   660.70   667.65   669.46   672.34   687.30
eigval :      687.52   701.24   701.60   701.99   710.34   721.39
eigval :      726.65   746.79   763.41   773.54   773.90   775.16
eigval :      775.39   789.00   806.02   814.30   825.56   825.80
eigval :      833.03   838.78   844.82   845.08   855.32   867.93
eigval :      868.63   870.18   870.61   895.14   912.91   913.11
eigval :      914.98   915.10   916.06   916.10   922.27   922.41
eigval :      922.79   922.86   923.36   937.18   937.25   938.05
eigval :      948.34   949.09   958.05   958.07   975.59   980.34
eigval :      989.47   989.54   993.83  1013.45  1013.48  1041.23
eigval :     1064.50  1075.67  1075.69  1077.25  1086.42  1089.09
eigval :     1095.42  1101.21  1107.94  1108.24  1114.16  1114.28
eigval :     1138.71  1138.80  1139.76  1140.74  1141.56  1142.91
eigval :     1151.54  1151.57  1159.47  1161.04  1173.74  1176.86
eigval :     1178.92  1182.51  1182.83  1184.04  1184.35  1184.50
eigval :     1185.17  1197.73  1218.64  1229.51  1238.61  1243.05
eigval :     1243.30  1249.14  1251.24  1254.00  1256.39  1261.23
eigval :     1290.56  1293.22  1294.77  1294.83  1296.65  1310.14
eigval :     1313.42  1314.34  1315.84  1322.32  1330.05  1330.30
eigval :     1333.46  1335.55  1335.64  1356.59  1357.77  1366.53
eigval :     1368.76  1383.95  1401.06  1401.61  1401.64  1401.98
eigval :     1402.16  1415.48  1415.83  1418.64  1418.97  1420.58
eigval :     1420.91  1429.96  1430.46  1450.23  1454.84  1457.29
eigval :     1457.34  1464.67  1476.35  1479.90  1481.30  1486.62
eigval :     1486.65  1487.49  1487.51  1494.39  1494.66  1494.80
eigval :     1494.89  1495.43  1497.53  1498.19  1500.99  1501.04
eigval :     1504.72  1504.92  1505.77  1506.16  1530.91  1555.64
eigval :     1555.69  1569.62  1569.77  1580.05  1580.10  1587.62
eigval :     1589.83  1590.63  1591.22  1593.28  1624.68  2940.07
eigval :     2940.89  3017.75  3018.52  3022.74  3023.64  3029.68
eigval :     3029.78  3032.49  3032.89  3033.48  3033.62  3037.32
eigval :     3037.45  3041.31  3041.87  3043.26  3043.50  3044.43
eigval :     3044.50  3046.85  3046.91  3052.82  3052.83  3056.40
eigval :     3056.60  3069.27  3082.21  3085.39  3085.55  3085.76
eigval :     3086.00  3086.13  3087.30  3091.13  3091.32  3091.60
eigval :     3092.46  3092.63  3100.37  3101.07  3101.44  3102.19
eigval :     3108.41  3108.83  3114.35  3115.08  3115.33  3115.87
           -------------------------------------------------
          |                Property Printout                |
           -------------------------------------------------
           -------------------------------------------------
          |                Geometry Summary                 |
           -------------------------------------------------

      molecular mass/u    :      771.9877548
   center of mass at/Å    :        0.0009627       0.0039739      -0.0007046
  moments of inertia/u·Å² :        0.1162353E+05   0.1518167E+05   0.2096510E+05
rotational constants/cm⁻¹ :        0.1450303E-02   0.1110394E-02   0.8040808E-03

 * 108 selected distances

     #   Z          #   Z                                           value/Å
     1   6 C        2   6 C                                       1.5292227
     2   6 C        3   6 C                                       1.5304505
     4   6 C        5   6 C                                       1.3880663
     5   6 C        6   6 C                                       1.3812093
     6   6 C        7   6 C                                       1.3813174
     7   6 C        8   6 C                                       1.3880582
     9   6 C       10   6 C                                       1.5291645
     9   6 C       11   6 C                                       1.5304548
     4   6 C       12   6 C                                       1.3937357
     8   6 C       12   6 C                                       1.3935378
    13   7 N       14   6 C                                       1.3879447
    14   6 C       15   8 O                                       1.2269627
    16   6 C       17   6 C                                       1.4049726
    17   6 C       18   6 C                                       1.3786677
    18   6 C       19   7 N                                       1.4243637
    19   7 N       20   6 C                                       1.3781447
    20   6 C       21   6 C                                       1.4027402
    21   6 C       22   6 C                                       1.3762046
    22   6 C       23   6 C                                       1.3860634
    23   6 C       24   6 C                                       1.3827304
    20   6 C       25   6 C                                       1.4033576
    24   6 C       25   6 C                                       1.3878614
    26   6 C       27   6 C                                       1.5407412
    26   6 C       28   6 C                                       1.5405960
    29   6 C       30   6 C                                       1.3881877
    30   6 C       31   6 C                                       1.3823495
    31   6 C       32   6 C                                       1.3863280
    32   6 C       33   6 C                                       1.3758997
    19   7 N       34   6 C                                       1.3793300
    29   6 C       34   6 C                                       1.4032293
    33   6 C       34   6 C                                       1.4023052
    18   6 C       35   6 C                                       1.3972706
    35   6 C       36   6 C                                       1.4052878
    36   6 C       37   6 C                                       1.4051708
    37   6 C       38   6 C                                       1.3975364
[...]
eigval :     1243.30  1249.14  1251.24  1254.00  1256.39  1261.23
eigval :     1290.56  1293.22  1294.77  1294.83  1296.65  1310.14
eigval :     1313.42  1314.34  1315.84  1322.32  1330.05  1330.30
eigval :     1333.46  1335.55  1335.64  1356.59  1357.77  1366.53
eigval :     1368.76  1383.95  1401.06  1401.61  1401.64  1401.98
eigval :     1402.16  1415.48  1415.83  1418.64  1418.97  1420.58
eigval :     1420.91  1429.96  1430.46  1450.23  1454.84  1457.29
eigval :     1457.34  1464.67  1476.35  1479.90  1481.30  1486.62
eigval :     1486.65  1487.49  1487.51  1494.39  1494.66  1494.80
eigval :     1494.89  1495.43  1497.53  1498.19  1500.99  1501.04
eigval :     1504.72  1504.92  1505.77  1506.16  1530.91  1555.64
eigval :     1555.69  1569.62  1569.77  1580.05  1580.10  1587.62
eigval :     1589.83  1590.63  1591.22  1593.28  1624.68  2940.07
eigval :     2940.89  3017.75  3018.52  3022.74  3023.64  3029.68
eigval :     3029.78  3032.49  3032.89  3033.48  3033.62  3037.32
eigval :     3037.45  3041.31  3041.87  3043.26  3043.50  3044.43
eigval :     3044.50  3046.85  3046.91  3052.82  3052.83  3056.40
eigval :     3056.60  3069.27  3082.21  3085.39  3085.55  3085.76
eigval :     3086.00  3086.13  3087.30  3091.13  3091.32  3091.60
eigval :     3092.46  3092.63  3100.37  3101.07  3101.44  3102.19
eigval :     3108.41  3108.83  3114.35  3115.08  3115.33  3115.87
 reduced masses (amu)
   1: 11.25   2: 11.48   3: 11.45   4: 11.28   5: 11.18   6: 11.31   7: 10.77   8: 10.74
   9: 10.10  10: 10.22  11: 10.67  12: 10.08  13: 10.97  14:  9.31  15: 10.68  16: 10.67
  17: 11.04  18:  8.35  19:  9.75  20: 14.17  21: 10.57  22:  9.74  23:  9.66  24:  9.61
  25: 10.29  26: 11.60  27: 11.54  28:  9.16  29:  2.65  30:  2.88  31: 10.54  32: 11.00
  33: 11.24  34: 12.26  35: 10.85  36: 10.42  37:  5.63  38:  1.26  39:  5.65  40:  7.26
  41:  1.69  42:  8.55  43:  8.58  44:  6.54  45:  6.58  46:  2.69  47:  9.49  48:  8.76
  49:  5.92  50:  8.39  51:  9.09  52: 11.34  53: 12.08  54: 10.40  55:  9.04  56: 11.44
  57:  9.53  58:  9.31  59:  8.96  60:  8.94  61: 10.48  62: 10.01  63: 10.09  64: 10.23
  65:  9.78  66: 10.91  67: 11.70  68: 12.74  69: 11.39  70: 10.99  71: 10.98  72: 10.70
  73: 10.39  74: 10.63  75:  9.10  76:  9.59  77:  9.97  78: 11.89  79: 11.47  80: 10.77
  81: 11.25  82: 10.31  83:  9.90  84: 10.17  85: 10.69  86: 11.15  87: 10.92  88: 10.98
  89: 10.50  90: 10.11  91: 10.30  92: 10.80  93: 10.85  94: 11.05  95: 10.78  96:  9.71
  97: 11.35  98: 12.24  99: 10.79 100: 10.98 101: 11.21 102: 10.28 103: 11.40 104: 10.66
 105: 11.89 106: 11.86 107: 11.48 108: 11.42 109: 11.42 110: 11.08 111: 11.54 112: 11.00
 113: 11.26 114: 12.08 115: 10.68 116: 11.56 117:  3.70 118:  3.54 119:  3.55 120:  3.41
 121:  3.42 122:  4.16 123:  3.73 124: 11.34 125:  8.47 126:  8.53 127: 11.47 128:  3.86
 129: 11.33 130:  4.06 131:  9.68 132:  3.54 133:  3.54 134:  3.56 135:  3.55 136:  3.90
 137: 11.13 138: 11.05 139:  4.09 140:  3.99 141:  3.92 142:  3.91 143:  3.22 144:  3.22
 145:  3.24 146:  3.24 147:  3.39 148:  8.47 149:  8.46 150:  7.90 151:  2.69 152:  2.76
 153:  4.56 154:  4.56 155:  7.07 156: 11.87 157:  4.05 158:  4.03 159: 10.75 160:  3.25
 161:  3.26 162:  9.52 163: 11.29 164:  8.68 165:  8.69 166:  5.36 167:  4.42 168:  6.64
 169:  7.94 170:  9.14 171:  7.11 172:  6.93 173:  5.88 174:  5.89 175:  5.23 176:  5.27
 177:  6.11 178:  7.18 179:  8.12 180:  7.73 181: 10.14 182: 10.13 183:  9.59 184:  6.59
 185:  6.62 186:  6.36 187:  4.08 188:  6.70 189:  4.39 190:  1.40 191:  1.50 192:  1.41
 193:  1.54 194:  1.93 195:  6.56 196:  9.70 197:  8.84 198:  4.03 199:  4.18 200:  8.87
 201:  5.32 202:  9.30 203:  5.74 204:  5.08 205:  8.98 206:  9.50 207:  7.93 208:  7.95
 209:  9.21 210:  4.77 211:  5.28 212: 11.01 213: 11.03 214: 11.22 215: 11.72 216: 11.76
 217:  6.14 218: 11.95 219: 11.95 220: 11.86 221:  6.06 222: 10.42 223: 10.94 224: 11.49
 225:  6.90 226:  2.97 227:  2.91 228:  3.09 229:  6.96 230:  3.13 231:  3.05 232:  3.24
 233:  3.16 234:  9.67 235:  9.69 236:  9.03 237:  9.17 238: 11.68 239:  9.63 240:  9.09
 241:  9.10 242:  9.48 243: 10.34 244:  9.93 245: 10.89 246:  1.66 247:  1.61 248:  1.59
 249:  1.59 250:  1.77 251:  3.35 252:  1.77 253:  2.65 254:  5.41 255:  1.57 256:  3.85
 257:  2.27 258:  2.39 259:  1.56 260:  1.56 261:  1.72 262:  1.87 263: 11.69 264: 11.47
 265: 11.48 266: 11.64 267: 11.64 268: 11.36 269: 11.36 270: 11.78 271: 11.42 272: 11.47
 273: 11.47 274: 13.24 275: 13.23 276:  1.74 277:  1.74 278:  1.82 279:  1.82 280:  1.82
 281:  1.82 282:  1.83 283:  1.83 284:  1.85 285:  1.86 286:  1.80 287:  1.80 288:  1.77
 289:  1.76 290:  1.44 291:  1.45 292:  1.59 293:  1.59 294:  1.95 295:  1.95 296:  1.94
 297:  1.94 298:  1.34 299:  1.34 300:  1.43 301:  1.43 302:  1.77 303:  1.82 304:  1.76
 305:  1.76 306:  1.82 307:  1.76 308:  1.76 309:  1.81 310:  1.82 311:  1.82 312:  1.88
 313:  1.81 314:  1.81 315:  1.89 316:  1.89 317:  1.89 318:  1.89 319:  1.83 320:  1.83
 321:  1.85 322:  1.85 323:  1.85 324:  1.86
 IR intensities (km·mol⁻¹)
   1:  0.76   2:  4.40   3:  0.74   4:  0.06   5:  6.47   6:  0.71   7:  4.77   8:  2.97
   9:  0.01  10:  1.96  11:  1.90  12: 10.39  13:  1.30  14:  1.22  15:  5.24  16:  0.05
  17:  0.41  18:  0.07  19:  0.30  20:  0.31  21:  0.08  22:  0.11  23: 19.72  24:  0.28
  25:  0.38  26:  2.63  27:  9.79  28:  0.03  29: 56.71  30:  3.68  31:  0.72  32:  2.52
  33:  1.98  34:  2.15  35:  0.25  36:  5.54  37: 24.46  38:  0.06  39:  3.87  40:  1.70
  41:  0.06  42:  2.38  43: 36.06  44:  0.65  45:  0.89  46:  0.07  47: 29.43  48:  8.15
  49:  0.70  50:  2.76  51:  1.19  52: 10.61  53:  0.94  54:  0.46  55:  0.10  56:  0.87
  57:  0.40  58:  4.34  59: 10.94  60:  1.18  61:  0.90  62:  1.30  63:  1.72  64:  2.55
  65:  9.88  66:  2.31  67:  0.91  68:  7.09  69: 33.25  70:  5.56  71:  0.28  72:  2.07
  73:  1.18  74:  0.19  75:  0.50  76:  0.36  77:  3.26  78: 16.51  79:  2.73  80:  6.71
  81:  4.10  82: 35.73  83:  0.68  84:  6.70  85:  0.44  86:  7.62  87:  6.60  88:  3.98
  89:  6.30  90:  8.13  91:  0.87  92: 12.07  93:  0.01  94:  2.35  95:  1.37  96:  7.17
  97: 56.44  98:  9.16  99:  0.71 100: 11.14 101: 18.57 102: 12.00 103:205.68 104:  9.57
 105:  0.95 106: 23.27 107: 76.35 108: 42.12 109:  2.53 110: 10.77 111:  3.71 112:  5.66
 113:  6.31 114: 10.28 115: 10.06 116: 18.03 117:  4.88 118: 29.63 119: 67.31 120: 15.92
 121:  5.80 122: 10.14 123: 15.26 124:  1.11 125:  1.67 126:  2.54 127: 22.39 128: 25.68
 129:  5.90 130:  3.07 131: 10.81 132:  4.89 133:  1.05 134:  0.01 135:  0.33 136:  0.38
 137: 18.48 138:  1.91 139:  2.24 140:  2.25 141:  0.01 142:  0.31 143:  0.67 144:  1.82
 145:  0.49 146:  0.61 147:  0.25 148: 11.01 149:  1.26 150:  2.67 151:  1.01 152:  2.52
 153:  0.47 154: 16.73 155: 27.02 156:  0.93 157:  1.12 158:  0.26 159: 20.25 160:  2.21
 161:139.35 162: 11.69 163: 11.44 164:  1.04 165:  5.00 166: 20.14 167: 16.81 168:  1.22
 169:  0.58 170:  0.33 171:176.10 172: 21.96 173:  0.06 174:  0.10 175:  1.49 176: 12.38
 177:703.05 178: 29.48 179: 86.44 180:  3.71 181:  2.43 182:  8.76 183:252.70 184:  1.29
 185: 10.48 186:  0.16 187: 28.94 188:  5.15 189:  2.60 190:  1.84 191: 92.55 192:  0.65
 193:  4.47 194:  0.26 195:  2.94 196: 20.91 197:  2.61 198:  3.30 199:  2.56 200:192.25
 201:  6.20 202: 31.56 203:  2.72 204: 40.60 205:  4.46 206: 33.77 207:  5.00 208:  4.27
 209: 20.66 210:  8.88 211:  1.35 212: 14.05 213: 52.71 214: 40.26 215: 27.44 216: 10.64
 217: 39.15 218: 54.13 219:  1.64 220:  2.82 221: 30.02 222: 21.59 223:  7.94 224: 25.86
 225: 23.14 226:  6.04 227:  0.55 228: 25.33 229:  2.76 230: 10.35 231:  3.60 232:201.67
 233:  2.32 234:  4.43 235: 82.98 236:  0.00 237:  1.04 238: 33.32 239:  3.77 240:  5.57
 241:  9.45 242:  3.42 243: 16.01 244:  3.29 245:  0.30 246: 40.10 247:  1.70 248:  3.24
 249:  1.19 250:  1.23 251: 11.41 252:  4.64 253:  6.54 254:  0.63 255:  5.88 256:365.73
 257:  6.07 258:  3.11 259:  1.87 260:  0.68 261:  7.73 262:  3.65 263:  4.02 264:  0.52
 265:  5.20 266: 18.14 267: 22.75 268:  0.58 269:  3.14 270: 21.23 271:  5.02 272:  3.77
 273:  8.43 274: 13.30 275: 84.31 276: 49.69 277:198.42 278:  3.60 279:  2.79 280:108.06
 281: 40.45 282: 10.31 283: 77.82 284:  6.76 285:  4.61 286: 25.65 287:106.30 288: 79.18
 289: 43.47 290: 15.67 291: 53.67 292: 32.35 293: 36.79 294:  1.39 295:  1.34 296: 21.07
 297: 50.65 298: 11.13 299:  9.56 300:273.79 301: 14.14 302: 13.82 303:330.17 304: 30.34
 305:  0.68 306: 39.78 307:  3.91 308:  3.27 309: 12.57 310:  1.84 311: 16.17 312: 77.42
 313:  7.31 314: 11.16 315:692.68 316:124.46 317:124.75 318: 20.57 319:  4.52 320:  2.85
 321:558.77 322: 42.97 323:258.07 324: 54.13
 Raman intensities (Ä⁴*amu⁻¹)
   1:  0.00   2:  0.00   3:  0.00   4:  0.00   5:  0.00   6:  0.00   7:  0.00   8:  0.00
   9:  0.00  10:  0.00  11:  0.00  12:  0.00  13:  0.00  14:  0.00  15:  0.00  16:  0.00
  17:  0.00  18:  0.00  19:  0.00  20:  0.00  21:  0.00  22:  0.00  23:  0.00  24:  0.00
  25:  0.00  26:  0.00  27:  0.00  28:  0.00  29:  0.00  30:  0.00  31:  0.00  32:  0.00
  33:  0.00  34:  0.00  35:  0.00  36:  0.00  37:  0.00  38:  0.00  39:  0.00  40:  0.00
  41:  0.00  42:  0.00  43:  0.00  44:  0.00  45:  0.00  46:  0.00  47:  0.00  48:  0.00
  49:  0.00  50:  0.00  51:  0.00  52:  0.00  53:  0.00  54:  0.00  55:  0.00  56:  0.00
  57:  0.00  58:  0.00  59:  0.00  60:  0.00  61:  0.00  62:  0.00  63:  0.00  64:  0.00
  65:  0.00  66:  0.00  67:  0.00  68:  0.00  69:  0.00  70:  0.00  71:  0.00  72:  0.00
  73:  0.00  74:  0.00  75:  0.00  76:  0.00  77:  0.00  78:  0.00  79:  0.00  80:  0.00
  81:  0.00  82:  0.00  83:  0.00  84:  0.00  85:  0.00  86:  0.00  87:  0.00  88:  0.00
  89:  0.00  90:  0.00  91:  0.00  92:  0.00  93:  0.00  94:  0.00  95:  0.00  96:  0.00
  97:  0.00  98:  0.00  99:  0.00 100:  0.00 101:  0.00 102:  0.00 103:  0.00 104:  0.00
 105:  0.00 106:  0.00 107:  0.00 108:  0.00 109:  0.00 110:  0.00 111:  0.00 112:  0.00
 113:  0.00 114:  0.00 115:  0.00 116:  0.00 117:  0.00 118:  0.00 119:  0.00 120:  0.00
 121:  0.00 122:  0.00 123:  0.00 124:  0.00 125:  0.00 126:  0.00 127:  0.00 128:  0.00
 129:  0.00 130:  0.00 131:  0.00 132:  0.00 133:  0.00 134:  0.00 135:  0.00 136:  0.00
 137:  0.00 138:  0.00 139:  0.00 140:  0.00 141:  0.00 142:  0.00 143:  0.00 144:  0.00
 145:  0.00 146:  0.00 147:  0.00 148:  0.00 149:  0.00 150:  0.00 151:  0.00 152:  0.00
 153:  0.00 154:  0.00 155:  0.00 156:  0.00 157:  0.00 158:  0.00 159:  0.00 160:  0.00
 161:  0.00 162:  0.00 163:  0.00 164:  0.00 165:  0.00 166:  0.00 167:  0.00 168:  0.00
 169:  0.00 170:  0.00 171:  0.00 172:  0.00 173:  0.00 174:  0.00 175:  0.00 176:  0.00
 177:  0.00 178:  0.00 179:  0.00 180:  0.00 181:  0.00 182:  0.00 183:  0.00 184:  0.00
 185:  0.00 186:  0.00 187:  0.00 188:  0.00 189:  0.00 190:  0.00 191:  0.00 192:  0.00
 193:  0.00 194:  0.00 195:  0.00 196:  0.00 197:  0.00 198:  0.00 199:  0.00 200:  0.00
 201:  0.00 202:  0.00 203:  0.00 204:  0.00 205:  0.00 206:  0.00 207:  0.00 208:  0.00
 209:  0.00 210:  0.00 211:  0.00 212:  0.00 213:  0.00 214:  0.00 215:  0.00 216:  0.00
 217:  0.00 218:  0.00 219:  0.00 220:  0.00 221:  0.00 222:  0.00 223:  0.00 224:  0.00
 225:  0.00 226:  0.00 227:  0.00 228:  0.00 229:  0.00 230:  0.00 231:  0.00 232:  0.00
 233:  0.00 234:  0.00 235:  0.00 236:  0.00 237:  0.00 238:  0.00 239:  0.00 240:  0.00
 241:  0.00 242:  0.00 243:  0.00 244:  0.00 245:  0.00 246:  0.00 247:  0.00 248:  0.00
 249:  0.00 250:  0.00 251:  0.00 252:  0.00 253:  0.00 254:  0.00 255:  0.00 256:  0.00
 257:  0.00 258:  0.00 259:  0.00 260:  0.00 261:  0.00 262:  0.00 263:  0.00 264:  0.00
 265:  0.00 266:  0.00 267:  0.00 268:  0.00 269:  0.00 270:  0.00 271:  0.00 272:  0.00
 273:  0.00 274:  0.00 275:  0.00 276:  0.00 277:  0.00 278:  0.00 279:  0.00 280:  0.00
 281:  0.00 282:  0.00 283:  0.00 284:  0.00 285:  0.00 286:  0.00 287:  0.00 288:  0.00
 289:  0.00 290:  0.00 291:  0.00 292:  0.00 293:  0.00 294:  0.00 295:  0.00 296:  0.00
 297:  0.00 298:  0.00 299:  0.00 300:  0.00 301:  0.00 302:  0.00 303:  0.00 304:  0.00
 305:  0.00 306:  0.00 307:  0.00 308:  0.00 309:  0.00 310:  0.00 311:  0.00 312:  0.00
 313:  0.00 314:  0.00 315:  0.00 316:  0.00 317:  0.00 318:  0.00 319:  0.00 320:  0.00
 321:  0.00 322:  0.00 323:  0.00 324:  0.00
 output can be read by thermo (or use thermo option).
 writing <g98.out> molden fake output.
 recommended (thermochemical) frequency scaling factor: 1.0
           -------------------------------------------------
          |             Thermodynamic Functions             |
           -------------------------------------------------

Molecule has no symmetry elements
It seems to be the C1 point group
c1  symmetry found (for desy threshold:  0.10E+00) used in thermo

          ...................................................
          :                      SETUP                      :
          :.................................................:
          :  # frequencies                         318      :
          :  # imaginary freq.                       0      :
          :  linear?                             false      :
          :  only rotor calc.                    false      :
          :  symmetry                               c1      :
          :  rotational number                       1      :
          :  scaling factor                  1.0000000      :
          :  rotor cutoff                   50.0000000 cm⁻¹ :
          :  imag. cutoff                  -20.0000000 cm⁻¹ :
          :.................................................:

    mode    ω/cm⁻¹     T·S(HO)/kcal·mol⁻¹    T·S(FR)/kcal·mol⁻¹   T·S(vib)
   ------------------------------------------------------------------------
       1      8.16    -2.50868 (  0.07%)    -1.59340 ( 99.93%)    -1.59405
       2      8.99    -2.45153 (  0.10%)    -1.56483 ( 99.90%)    -1.56575
       3     12.71    -2.24642 (  0.42%)    -1.46225 ( 99.58%)    -1.46552
       4     13.66    -2.20389 (  0.55%)    -1.44099 ( 99.45%)    -1.44521
       5     14.09    -2.18544 (  0.63%)    -1.43176 ( 99.37%)    -1.43648
       6     18.55    -2.02245 (  1.86%)    -1.35022 ( 98.14%)    -1.36273
       7     33.67    -1.66981 ( 17.06%)    -1.17368 ( 82.94%)    -1.25830
       8     34.25    -1.65970 ( 18.04%)    -1.16862 ( 81.96%)    -1.25723
       9     39.09    -1.58165 ( 27.19%)    -1.12950 ( 72.81%)    -1.25243
      10     40.26    -1.56412 ( 29.60%)    -1.12071 ( 70.40%)    -1.25196
      11     40.57    -1.55959 ( 30.25%)    -1.11843 ( 69.75%)    -1.25186
      12     45.50    -1.49190 ( 40.68%)    -1.08447 ( 59.32%)    -1.25023
      13     54.17    -1.38908 ( 57.94%)    -1.03281 ( 42.06%)    -1.23925
      14     71.17    -1.22861 ( 80.41%)    -0.95196 ( 19.59%)    -1.17441
      15     79.03    -1.16718 ( 86.19%)    -0.92092 ( 13.81%)    -1.13318
      16     90.70    -1.08673 ( 91.55%)    -0.88013 (  8.45%)    -1.06926
      17     92.81    -1.07334 ( 92.23%)    -0.87332 (  7.77%)    -1.05780
      18     93.32    -1.07014 ( 92.39%)    -0.87169 (  7.61%)    -1.05503
      19    102.46    -1.01581 ( 94.63%)    -0.84402 (  5.37%)    -1.00659
      20    105.65    -0.99799 ( 95.22%)    -0.83492 (  4.78%)    -0.99020
      21    109.67    -0.97637 ( 95.86%)    -0.82387 (  4.14%)    -0.97006
      22    120.50    -0.92196 ( 97.12%)    -0.79595 (  2.88%)    -0.91833
      23    129.11    -0.88229 ( 97.80%)    -0.77552 (  2.20%)    -0.87995
      24    129.26    -0.88162 ( 97.81%)    -0.77517 (  2.19%)    -0.87929
      25    131.41    -0.87219 ( 97.95%)    -0.77030 (  2.05%)    -0.87010
      26    146.59    -0.80976 ( 98.66%)    -0.73790 (  1.34%)    -0.80880
      27    147.50    -0.80628 ( 98.70%)    -0.73608 (  1.30%)    -0.80537
      28    156.96    -0.77105 ( 98.98%)    -0.71766 (  1.02%)    -0.77051
      29    161.15    -0.75619 ( 99.08%)    -0.70985 (  0.92%)    -0.75576
      30    185.29    -0.67812 ( 99.47%)    -0.66850 (  0.53%)    -0.67807
      31    191.01    -0.66129 ( 99.53%)    -0.65949 (  0.47%)    -0.66128
      32    192.28    -0.65764 ( 99.54%)    -0.65753 (  0.46%)    -0.65764
      33    193.35    -0.65458 ( 99.55%)    -0.65589 (  0.45%)    -0.65459
      34    198.09    -0.64126 ( 99.60%)    -0.64872 (  0.40%)    -0.64129
      35    205.60    -0.62086 ( 99.65%)    -0.63769 (  0.35%)    -0.62092
      36    216.32    -0.59323 ( 99.72%)    -0.62263 (  0.28%)    -0.59331
      37    216.74    -0.59216 ( 99.72%)    -0.62205 (  0.28%)    -0.59225
      38    224.99    -0.57203 ( 99.76%)    -0.61100 (  0.24%)    -0.57212
      39    231.86    -0.55589 ( 99.78%)    -0.60208 (  0.22%)    -0.55599
      40    235.68    -0.54718 ( 99.80%)    -0.59724 (  0.20%)    -0.54728
      41    236.67    -0.54496 ( 99.80%)    -0.59600 (  0.20%)    -0.54506
      42    236.97    -0.54427 ( 99.80%)    -0.59562 (  0.20%)    -0.54437
      43    244.47    -0.52777 ( 99.83%)    -0.58640 (  0.17%)    -0.52787
      44    268.54    -0.47870 ( 99.88%)    -0.55857 (  0.12%)    -0.47879
      45    270.46    -0.47503 ( 99.88%)    -0.55646 (  0.12%)    -0.47512
      46    275.07    -0.46635 ( 99.89%)    -0.55146 (  0.11%)    -0.46645
      47    284.02    -0.45001 ( 99.90%)    -0.54197 (  0.10%)    -0.45010
      48    296.81    -0.42780 ( 99.92%)    -0.52893 (  0.08%)    -0.42788
   ------------------------------------------------------------------------

   temp. (K)  partition function   enthalpy   heat capacity  entropy
                                   cal/mol     cal/K/mol   cal/K/mol   J/K/mol
 298.15  VIB  0.249E+26            31816.696    194.832    199.199
         ROT  0.147E+09              888.752      2.981     40.352
         INT  0.366E+34            32705.448    197.813    239.551
         TR   0.208E+29             1481.254      4.968     45.789
         TOT                       34186.7022   202.7807   285.3403  1193.8638

       T/K    H(0)-H(T)+PV         H(T)/Eh          T*S/Eh         G(T)/Eh
   ------------------------------------------------------------------------
    298.15    0.544800E-01    0.923192E+00    0.135574E+00    0.787618E+00
   ------------------------------------------------------------------------

         :::::::::::::::::::::::::::::::::::::::::::::::::::::
         ::                  THERMODYNAMIC                  ::
         :::::::::::::::::::::::::::::::::::::::::::::::::::::
         :: total free energy        -156.839374969771 Eh   ::
         ::.................................................::
         :: total energy             -157.626992990290 Eh   ::
         :: zero point energy           0.868712426382 Eh   ::
         :: G(RRHO) w/o ZPVE           -0.081094405862 Eh   ::
         :: G(RRHO) contrib.            0.787618020520 Eh   ::
         :::::::::::::::::::::::::::::::::::::::::::::::::::::

optimized geometry written to: xtbopt.xyz


           -------------------------------------------------
          | TOTAL ENERGY             -157.626992990290 Eh   |
          | TOTAL ENTHALPY           -156.703800586157 Eh   |
          | TOTAL FREE ENERGY        -156.839374969771 Eh   |
          | GRADIENT NORM               0.000066751782 Eh/α |
           -------------------------------------------------

------------------------------------------------------------------------
 * finished run on 2025/08/24 at 15:05:31.160     
------------------------------------------------------------------------
 total:
 * wall-time:     0 d,  0 h,  0 min, 18.361 sec
 *  cpu-time:     0 d,  0 h, 11 min, 11.016 sec
 * ratio c/w:    36.547 speedup
 SCF:
 * wall-time:     0 d,  0 h,  0 min,  0.558 sec
 *  cpu-time:     0 d,  0 h,  0 min, 21.695 sec
 * ratio c/w:    38.907 speedup
 ANC optimizer:
 * wall-time:     0 d,  0 h,  0 min,  6.053 sec
 *  cpu-time:     0 d,  0 h,  4 min,  2.097 sec
 * ratio c/w:    39.993 speedup
 analytical hessian:
 * wall-time:     0 d,  0 h,  0 min, 11.665 sec
 *  cpu-time:     0 d,  0 h,  6 min, 45.407 sec
 * ratio c/w:    34.753 speedup

