$hessian                                                                        
        0.4727503915   0.0936185214   0.2396425117  -0.1047193577  -0.0522447821
       -0.0223321739   0.0381060548  -0.0019618929   0.0300508192  -0.0290881653
       -0.0317827032  -0.0037602221  -0.0008753891   0.0005776264  -0.0004927969
       -0.0000369831  -0.0004360331   0.0004302903  -0.0001757745   0.0000090483
       -0.0001338389  -0.0000009825  -0.0000263552   0.0000365378   0.0000038965
        0.0000076086   0.0000000152  -0.0000067909   0.0000026534   0.0000022530
        0.0000065234   0.0000063878  -0.0000048978   0.0000083623  -0.0000026775
       -0.0000037911   0.0000002610   0.0000157064   0.0000044520   0.0001158293
       -0.0000090763  -0.0000266546   0.0000201853  -0.0000965938  -0.0001122958
        0.0000068844   0.0000144508  -0.0000240035   0.0000087382  -0.0000200465
       -0.0000027697  -0.0000100221   0.0000106604   0.0000006591   0.0000026820
       -0.0000059068   0.0000022664  -0.0000039223   0.0000049680   0.0000001171
       -0.0000051155  -0.0000031692  -0.0000012099  -0.0000018267   0.0000100257
        0.0000050511  -0.0000095992  -0.0000056851   0.0000004252  -0.0000006554
        0.0000046801   0.0000001425  -0.0000029475   0.0000007902  -0.0000001930
       -0.0000006421  -0.0000014473   0.0000005790  -0.0000004510   0.0000001712
       -0.0000005840   0.0000001954  -0.0000050144  -0.0000029378   0.0000008990
        0.0000044763   0.0000020808  -0.0000056091  -0.0000050344  -0.0000025098
        0.0000026644  -0.0000018708  -0.0000005958  -0.0000020751  -0.0000020473
       -0.0000000271   0.0000010665  -0.0000027198  -0.0000001481  -0.0000002844
       -0.0000023716  -0.0000010504   0.0000002536   0.0000006305   0.0000010593
       -0.0000002531  -0.0000028661  -0.0000015090   0.0000015381  -0.0000000858
        0.0000003165  -0.0000006100  -0.0000017224  -0.0000006731  -0.0000000072
        0.0000010644  -0.0000005947   0.0000028455  -0.0000001379  -0.0000009281
       -0.0000008667   0.0000006821  -0.0000005740   0.0000056501   0.0000007546
        0.0000006829  -0.0000004994  -0.0000008634  -0.0000006179  -0.0000007048
       -0.0000010527   0.0000004630   0.0000020577   0.0000009445  -0.0000000919
       -0.0000034454   0.0000020700   0.0000010947   0.0000002957   0.0000010835
        0.0000002577   0.0000007281  -0.0000000132   0.0000009889   0.0000015292
       -0.0000000615  -0.0000004506   0.0000010607   0.0000005666  -0.0000003327
        0.0000012913  -0.0000007546  -0.0000011010   0.0000004776   0.0000012125
       -0.0000014814   0.0000002025  -0.0000009047   0.0000013783   0.0000005129
       -0.0000020835  -0.0000030534   0.0000102582   0.0000086142   0.0000022140
       -0.0000123000  -0.0000044305  -0.0000014295  -0.0000024039  -0.0000124379
       -0.0000026584  -0.0000094728  -0.0000053550   0.0000028211   0.0000626528
        0.0000146621  -0.0000235815  -0.0000041274  -0.0000189474  -0.0000059324
        0.0000508061   0.0002801633   0.0001299210  -0.0304507074   0.0481240529
       -0.0463920136  -0.2328169185  -0.1002876725  -0.1013055226  -0.0981582592
        0.0715447328  -0.0817521420  -0.0099996958  -0.0235985107   0.0019072372
        0.0021836286   0.0010402803  -0.0053525996   0.0000964381   0.0001320226
       -0.0000369483   0.0000003769  -0.0000042877   0.0000004108   0.0000016988
       -0.0000004227   0.0000013341   0.0000001832  -0.0000004141   0.0000031296
        0.0000016313   0.0000028031  -0.0000028655   0.0000010498  -0.0000034417
       -0.0000068135   0.0000208828   0.0000534229   0.0000423602  -0.0000011227
       -0.0000033217  -0.0000004961  -0.0000004363   0.0000092551   0.0000038685
       -0.0000005095   0.0000026341   0.0000018744  -0.0000004716   0.0000036378
        0.0000004752   0.0000003518   0.0000002224   0.0000006014  -0.0000025006
        0.0000003409   0.0000014521  -0.0000000505  -0.0000006346   0.0000010240
       -0.0000006262  -0.0000002170   0.0000024283  -0.0000012802  -0.0000011418
        0.0000015632  -0.0000009595  -0.0000005573   0.0000011660  -0.0000013363
       -0.0000012843  -0.0000005799  -0.0000004218  -0.0000003105  -0.0000012725
       -0.0000006165  -0.0000006443  -0.0000017600   0.0000000570   0.0000001291
       -0.0000013805  -0.0000009498   0.0000021673  -0.0000013874  -0.0000002658
        0.0000013627  -0.0000027099   0.0000004917   0.0000005081  -0.0000026102
        0.0000002481   0.0000004530  -0.0000020291  -0.0000001720   0.0000002177
       -0.0000011194  -0.0000020251   0.0000002034  -0.0000008862   0.0000010870
        0.0000013597   0.0000006800  -0.0000035567   0.0000029636   0.0000004162
       -0.0000078638   0.0000049170  -0.0000010528  -0.0000069181   0.0000232124
        0.0000003235   0.0000125891   0.0000043501   0.0000500627   0.0002234981
        0.0000557141  -0.0000474153   0.0021875737   0.0005857874  -0.0051125231
       -0.0094696320  -0.0056269691  -0.0053659678
        0.0936185214   0.6024010712  -0.1387272947  -0.1111617949  -0.2948242125
        0.0199796556   0.0428857517  -0.0477010760   0.0547648834  -0.0322589753
       -0.0329328238  -0.0132762918   0.0003253425  -0.0010543384   0.0008779104
        0.0001230787   0.0002643695   0.0002758814   0.0000549976  -0.0000628922
       -0.0001139590   0.0000205566  -0.0000005500  -0.0000028752   0.0000023952
        0.0000132613  -0.0000046428  -0.0000013325  -0.0000094339   0.0000018376
       -0.0000066838  -0.0000123847   0.0000072049  -0.0000020327   0.0000050832
        0.0000007139   0.0000027183   0.0000073917  -0.0000007862   0.0001046057
        0.0000693676  -0.0000932847  -0.0000281251  -0.0002519810   0.0001168567
       -0.0000219336   0.0000292118  -0.0000137585   0.0000091796  -0.0000212664
        0.0000023115  -0.0000189955  -0.0000020307   0.0000016441  -0.0000009902
        0.0000029390  -0.0000105607   0.0000025711  -0.0000073277   0.0000019618
        0.0000100559  -0.0000070245  -0.0000018770  -0.0000121552   0.0000047461
       -0.0000063920  -0.0000020986  -0.0000031571  -0.0000004277   0.0000088635
        0.0000055438   0.0000038374   0.0000021298  -0.0000027651  -0.0000031553
        0.0000038255  -0.0000019033   0.0000045470   0.0000061365  -0.0000009478
        0.0000007310  -0.0000037920   0.0000031771   0.0000023074   0.0000050861
        0.0000027015  -0.0000011159  -0.0000034487  -0.0000181279  -0.0000094281
       -0.0000043409   0.0000078132   0.0000036051  -0.0000029138  -0.0000029730
       -0.0000019011   0.0000021242  -0.0000018947  -0.0000012141   0.0000026308
       -0.0000035314  -0.0000078360  -0.0000000059   0.0000112928   0.0000056954
        0.0000022821  -0.0000007401  -0.0000083852  -0.0000008057   0.0000002806
        0.0000079429   0.0000003492  -0.0000056588  -0.0000080088  -0.0000021140
       -0.0000028083   0.0000094738   0.0000037338   0.0000020574   0.0000015570
       -0.0000030694  -0.0000019272  -0.0000091978  -0.0000018942  -0.0000028809
        0.0000073348  -0.0000034345  -0.0000038580   0.0000077909   0.0000000508
        0.0000032343  -0.0000093866  -0.0000202148   0.0000236694   0.0000144202
        0.0000204356  -0.0000052095  -0.0000044969   0.0000011445  -0.0000026010
       -0.0000013580   0.0000006660   0.0000000572  -0.0000028966   0.0000011018
       -0.0000023673   0.0000022909   0.0000002538  -0.0000006329   0.0000016529
        0.0000000436  -0.0000036712   0.0000014430   0.0000018963  -0.0000022275
        0.0000017632   0.0000054558  -0.0000026767  -0.0000059953   0.0000037837
        0.0000038552  -0.0000033230   0.0000081916   0.0000118562   0.0000081938
        0.0000061554  -0.0000068541  -0.0000043123  -0.0000009305   0.0000073581
       -0.0000001309   0.0000097081   0.0000004517   0.0000016667   0.0000169779
        0.0000063554  -0.0000024193   0.0000040142  -0.0000243057  -0.0000062816
       -0.0006966064   0.0002349421  -0.0002489112   0.0038249582   0.0498309721
       -0.0181077337  -0.0409687287  -0.1155181520  -0.0028740167   0.0715487292
       -0.1366645073   0.1010664976  -0.0057935317  -0.0110213432   0.0008475642
        0.0006244385  -0.0005557094   0.0041874355   0.0002429292   0.0001080352
       -0.0001154729  -0.0000050223   0.0000052605   0.0000024751  -0.0000027314
       -0.0000014481   0.0000022172   0.0000008382  -0.0000022312   0.0000006113
       -0.0000004147  -0.0000058253   0.0000059226   0.0000170476  -0.0000207876
       -0.0000074299   0.0000281223   0.0000535970   0.0000319561  -0.0000031457
        0.0000089116   0.0000048698   0.0000016155   0.0000075635   0.0000007341
        0.0000024867   0.0000037765  -0.0000003506  -0.0000003206   0.0000041954
       -0.0000003315  -0.0000010950  -0.0000007254   0.0000019910  -0.0000004210
        0.0000001617   0.0000009076   0.0000005047   0.0000005947  -0.0000014810
        0.0000008110   0.0000016020  -0.0000012447  -0.0000016761   0.0000017224
       -0.0000018647  -0.0000014903   0.0000002713   0.0000001090  -0.0000000926
       -0.0000009205   0.0000000100  -0.0000003284   0.0000004524   0.0000004173
        0.0000007092  -0.0000003151   0.0000016660   0.0000011177   0.0000002067
        0.0000023795   0.0000002174  -0.0000029866   0.0000008226  -0.0000000592
        0.0000014362  -0.0000003873  -0.0000000399   0.0000010019   0.0000021198
       -0.0000008831   0.0000047598   0.0000008089  -0.0000003555  -0.0000010573
       -0.0000006150   0.0000000542  -0.0000014708   0.0000020361  -0.0000012800
       -0.0000003349   0.0000021432  -0.0000030646   0.0000029710   0.0000030570
       -0.0000028546   0.0000000172   0.0000047490  -0.0000071672   0.0000108514
        0.0000060467  -0.0000041455   0.0000066311   0.0000179341   0.0001553024
        0.0000875320   0.0000087171   0.0011358466  -0.0006505821   0.0045270994
       -0.0238050072  -0.0118251527  -0.0131475802
        0.2396425117  -0.1387272947   0.3647905099   0.0034139886   0.0672141524
       -0.0742981398   0.0108156476   0.0198295667   0.0013587420  -0.0042361708
       -0.0136133391  -0.0034161789  -0.0007093838   0.0007042866  -0.0010448505
       -0.0001178547  -0.0004683965   0.0003075543  -0.0001682586   0.0000811356
       -0.0000695470  -0.0000107130  -0.0000183454   0.0000304870  -0.0000002045
       -0.0000052653  -0.0000039932  -0.0000054232   0.0000048419  -0.0000000506
        0.0000076516   0.0000064228  -0.0000135228   0.0000109217  -0.0000061315
       -0.0000065689  -0.0000029300   0.0000027461   0.0000023640   0.0000769569
       -0.0000350842   0.0000056025   0.0000709505   0.0000278685  -0.0001083431
        0.0000059043   0.0000007374  -0.0000062911   0.0000045365  -0.0000084699
       -0.0000067655   0.0000044771   0.0000039727   0.0000115587   0.0000001952
       -0.0000019769  -0.0000082442  -0.0000029698   0.0000069208  -0.0000007683
       -0.0000072153  -0.0000009171  -0.0000031857   0.0000037146   0.0000141809
        0.0000025242  -0.0000123786  -0.0000012957  -0.0000007759  -0.0000056299
        0.0000027569  -0.0000035533  -0.0000003690   0.0000007292   0.0000014618
       -0.0000025840  -0.0000006340  -0.0000042574  -0.0000019497   0.0000010633
        0.0000013779   0.0000025418  -0.0000041684  -0.0000051923  -0.0000014748
        0.0000002311   0.0000042006   0.0000013897   0.0000078076   0.0000036353
        0.0000045813  -0.0000010308  -0.0000027133  -0.0000013438  -0.0000003465
       -0.0000006193   0.0000020860   0.0000002546  -0.0000005976   0.0000024969
        0.0000034030  -0.0000006721  -0.0000008741   0.0000005711  -0.0000010528
        0.0000035536   0.0000032475  -0.0000036490  -0.0000013300  -0.0000038817
        0.0000056121  -0.0000004084   0.0000031615  -0.0000030883   0.0000009244
       -0.0000066705   0.0000078509  -0.0000003342   0.0000020860   0.0000017852
       -0.0000000307   0.0000066385  -0.0000013817   0.0000024472  -0.0000021286
        0.0000061004  -0.0000007333  -0.0000069156   0.0000051932  -0.0000007126
        0.0000080910  -0.0000061012   0.0000074471  -0.0000090971  -0.0000074779
       -0.0000094643   0.0000053795   0.0000044651  -0.0000001906   0.0000014993
        0.0000011640   0.0000003920   0.0000010462   0.0000036952  -0.0000010824
       -0.0000011445   0.0000013914   0.0000000042  -0.0000013833   0.0000023473
       -0.0000004589  -0.0000002809   0.0000022136   0.0000006786   0.0000017884
       -0.0000002723  -0.0000019606   0.0000029695   0.0000025628  -0.0000056079
       -0.0000041530  -0.0000050328   0.0000047972  -0.0000070763   0.0000010641
       -0.0000119896   0.0000000674   0.0000048119   0.0000011934  -0.0000132716
       -0.0000008605  -0.0000136729  -0.0000057132   0.0000094725   0.0000432938
        0.0000073890  -0.0000171509   0.0000012572  -0.0000017980  -0.0000043174
        0.0002592356   0.0001776325   0.0002332308  -0.0266008809   0.0172379394
       -0.0275560009  -0.1267502440  -0.0497769115  -0.1262581355  -0.0817501177
        0.1010629804  -0.1424620923  -0.0060407370  -0.0136318335   0.0019906973
       -0.0050878503   0.0045693156   0.0020959985   0.0000127533   0.0000345309
        0.0000251105   0.0000032739  -0.0000082309  -0.0000038826   0.0000016751
       -0.0000009048  -0.0000047985  -0.0000007739  -0.0000045252  -0.0000022742
       -0.0000004328   0.0000006867  -0.0000050935  -0.0000039236   0.0000001760
       -0.0000045112   0.0000071507   0.0000184694   0.0000137958   0.0000015574
       -0.0000066076  -0.0000076921  -0.0000004756   0.0000043346  -0.0000012765
       -0.0000015590   0.0000003114  -0.0000026160  -0.0000011332   0.0000023317
       -0.0000001405   0.0000017796   0.0000014593   0.0000006134  -0.0000013480
        0.0000007669   0.0000025644   0.0000003816   0.0000023133   0.0000000074
        0.0000003625   0.0000020204  -0.0000002349  -0.0000003080   0.0000026276
       -0.0000014137  -0.0000007485   0.0000024104   0.0000005719   0.0000008726
       -0.0000003587   0.0000004573  -0.0000020677   0.0000007466   0.0000015858
       -0.0000008637  -0.0000000003   0.0000005481   0.0000006809  -0.0000010412
        0.0000012209  -0.0000013548  -0.0000036702   0.0000002748  -0.0000010048
        0.0000000187  -0.0000005656  -0.0000012811  -0.0000008901   0.0000013313
       -0.0000000366   0.0000018468   0.0000016775  -0.0000002870  -0.0000012666
        0.0000020590  -0.0000015571  -0.0000006010  -0.0000011261   0.0000027058
        0.0000002679   0.0000016500  -0.0000002567   0.0000017641   0.0000026781
       -0.0000050880   0.0000033442  -0.0000003364  -0.0000044720   0.0000123558
       -0.0000025533   0.0000060955   0.0000052853   0.0000325495   0.0001174880
        0.0000234447  -0.0000860849  -0.0052497982   0.0042498678   0.0021814859
        0.0022917510   0.0010167903   0.0022861881
       -0.1047193577  -0.1111617949   0.0034139886   0.4796037571   0.1069505568
        0.2417483040  -0.1320907588   0.0891095328  -0.1069510240  -0.0295586933
        0.0043033480  -0.0260859890  -0.0006123578  -0.0034791936  -0.0046918321
       -0.0001139019   0.0004307876  -0.0000181078   0.0002104225   0.0001829257
        0.0002340489   0.0000025248   0.0000028779  -0.0000260469  -0.0000175911
       -0.0000048545   0.0000084835  -0.0000093071   0.0000112280   0.0000064293
        0.0000084719   0.0000019425  -0.0000108208   0.0000161391  -0.0000137519
       -0.0000068072  -0.0000027068   0.0000044237   0.0000285672  -0.0000879050
       -0.0000957177   0.0000358595   0.0000276342   0.0004813128   0.0002175689
       -0.0000777191  -0.0000130513  -0.0000130407   0.0000109629   0.0000022848
        0.0000024884  -0.0000085497   0.0000115382   0.0000006097   0.0000137372
        0.0000010949   0.0000063652   0.0000027119   0.0000055274  -0.0000044256
       -0.0000040372  -0.0000008156  -0.0000033233  -0.0000002524  -0.0000023123
        0.0000105643  -0.0000101625  -0.0000026182   0.0000015851   0.0000009831
        0.0000012406  -0.0000017104  -0.0000019380   0.0000062681   0.0000002575
       -0.0000005987   0.0000034441   0.0000027286  -0.0000054850   0.0000017299
        0.0000000052   0.0000043316  -0.0000064244  -0.0000043841  -0.0000117216
        0.0000014937   0.0000040518   0.0000078402   0.0000236089   0.0000146216
        0.0000030237  -0.0000048125  -0.0000036730   0.0000026935   0.0000020071
        0.0000011870  -0.0000010669   0.0000024652   0.0000014991   0.0000019445
        0.0000068365   0.0000034840   0.0000001166  -0.0000079353  -0.0000055929
        0.0000001979   0.0000041014   0.0000028564  -0.0000006602  -0.0000050574
       -0.0000022474  -0.0000002172   0.0000072007   0.0000054863   0.0000017671
       -0.0000040728  -0.0000017489  -0.0000041372  -0.0000027191  -0.0000001475
        0.0000040629   0.0000032424   0.0000027854   0.0000006053  -0.0000005586
        0.0000026032   0.0000005394  -0.0000029576  -0.0000015798  -0.0000011449
        0.0000038812   0.0000028946   0.0000234948  -0.0000272062  -0.0000182661
       -0.0000261604   0.0000096391   0.0000071031   0.0000005970  -0.0000045891
       -0.0000027313  -0.0000005513   0.0000021935   0.0000035717   0.0000003071
       -0.0000001814   0.0000001632   0.0000000704  -0.0000005587   0.0000014822
        0.0000000551  -0.0000012200   0.0000012273  -0.0000008937   0.0000044085
        0.0000020351  -0.0000001621  -0.0000041771  -0.0000007163  -0.0000031232
       -0.0000061995  -0.0000028357  -0.0000014033   0.0000099951  -0.0000074860
       -0.0000097337   0.0000094555   0.0000059333   0.0000019713  -0.0000118367
       -0.0000033527  -0.0000078216  -0.0000219131   0.0000025461   0.0000359544
        0.0000063122  -0.0000063118   0.0000080385   0.0000093080  -0.0000120062
       -0.0003950659   0.0001032730  -0.0001719176  -0.0000345404   0.0064074844
        0.0014048777  -0.0153403775  -0.0279441894  -0.0007505508   0.0043001782
        0.0129390228  -0.0028657526  -0.2050464429  -0.0693083074  -0.1050488693
        0.0044216879  -0.0057910315   0.0052857165  -0.0000169942   0.0000201985
       -0.0002844026   0.0000059538  -0.0000022583  -0.0000063713   0.0000031389
       -0.0000079065  -0.0000007646  -0.0000028044  -0.0000073487   0.0000021400
       -0.0000001331   0.0000021496  -0.0000034689   0.0000002105   0.0000007446
       -0.0000293201   0.0000204817  -0.0000580729  -0.0000291205  -0.0000092629
        0.0000024692  -0.0000133809  -0.0000052534   0.0000022137   0.0000012914
        0.0000012361  -0.0000018432  -0.0000007845   0.0000028420  -0.0000003606
       -0.0000008293  -0.0000014111   0.0000003399   0.0000004148  -0.0000010671
        0.0000002135   0.0000010224  -0.0000008599   0.0000011721   0.0000002665
       -0.0000004892   0.0000000772  -0.0000000914   0.0000006896   0.0000000977
        0.0000000944   0.0000007406  -0.0000000095   0.0000006719   0.0000003350
        0.0000003735   0.0000010435   0.0000004359   0.0000002024   0.0000012793
       -0.0000009630   0.0000002377   0.0000015301  -0.0000009703  -0.0000005252
        0.0000004677  -0.0000011091  -0.0000005244  -0.0000003874  -0.0000009461
       -0.0000012163   0.0000006925  -0.0000005338  -0.0000015765   0.0000008324
       -0.0000000167  -0.0000010008   0.0000016789  -0.0000003168  -0.0000008690
        0.0000017053  -0.0000011866   0.0000005684   0.0000002544  -0.0000001268
        0.0000005569   0.0000002175   0.0000019980   0.0000012243   0.0000041348
        0.0000000405   0.0000043054  -0.0000022888  -0.0000016603   0.0000094030
        0.0000031316   0.0000099796   0.0000079661   0.0000230581   0.0001262015
       -0.0000653819  -0.0001528240   0.0005554277   0.0003712725   0.0004157919
       -0.0011938829  -0.0034148276  -0.0056883665
       -0.0522447821  -0.2948242125   0.0672141524   0.1069505568   0.5987810770
       -0.1256373576   0.0302676983  -0.1775979122   0.0818177069   0.0483335630
        0.0475801061   0.0166605392  -0.0040782590   0.0021738380  -0.0014544921
       -0.0003621802  -0.0008207877   0.0003436049  -0.0002385538   0.0002628418
       -0.0000847530  -0.0000060415   0.0000393656   0.0000157333   0.0000022691
        0.0000136717  -0.0000086950  -0.0000031358   0.0000082188  -0.0000015508
        0.0000036071   0.0000049690  -0.0000046268   0.0000145190   0.0000150003
       -0.0000153414   0.0000021549  -0.0000159125  -0.0000046011   0.0000395331
       -0.0002019929   0.0001729040  -0.0002556651   0.0003726044  -0.0002031639
       -0.0000114339  -0.0000032671  -0.0000140750   0.0000101779   0.0000168697
        0.0000153042  -0.0000378426  -0.0000020912  -0.0000004310  -0.0000046663
        0.0000077858   0.0000006038   0.0000005605  -0.0000037099  -0.0000031960
        0.0000058935  -0.0000009581  -0.0000032566  -0.0000036015  -0.0000079190
        0.0000078267  -0.0000052931  -0.0000018860   0.0000025257   0.0000078565
        0.0000020097  -0.0000029053  -0.0000011754   0.0000046096   0.0000025570
       -0.0000015108   0.0000039087   0.0000079313   0.0000023081   0.0000005665
        0.0000004761  -0.0000057078  -0.0000033731  -0.0000044762  -0.0000157813
        0.0000001535   0.0000045133   0.0000180811   0.0000280815   0.0000185891
       -0.0000063390   0.0000018656  -0.0000001580   0.0000062553  -0.0000005145
        0.0000016431  -0.0000037063   0.0000029624   0.0000044876   0.0000036973
        0.0000070037   0.0000014966  -0.0000002616  -0.0000064953  -0.0000051440
        0.0000008095   0.0000063940  -0.0000020842  -0.0000065325  -0.0000094827
        0.0000023887   0.0000006858   0.0000086596   0.0000002591  -0.0000000471
       -0.0000117223   0.0000022773  -0.0000086135  -0.0000051912  -0.0000040939
        0.0000104338   0.0000030212  -0.0000073569  -0.0000171512  -0.0000089811
        0.0000053619  -0.0000001149  -0.0000085696   0.0000039570   0.0000005185
        0.0000093003  -0.0000049959   0.0000229394  -0.0000238778  -0.0000182319
       -0.0000183108   0.0000162651   0.0000094141   0.0000062405  -0.0000189504
       -0.0000140915  -0.0000015394   0.0000075282  -0.0000003867   0.0000014464
       -0.0000015650  -0.0000016544  -0.0000002666   0.0000012129  -0.0000000213
       -0.0000001436  -0.0000051266  -0.0000019208   0.0000007338   0.0000047422
        0.0000044942   0.0000000580  -0.0000074844  -0.0000095921  -0.0000029352
       -0.0000049569  -0.0000093668  -0.0000112415   0.0000005099   0.0000031086
       -0.0000004592   0.0000121097   0.0000043968   0.0000207731  -0.0000033849
       -0.0000093297   0.0000037311  -0.0000421360   0.0000009044  -0.0000347410
        0.0000083132   0.0000196066   0.0000045613   0.0000019131  -0.0000119548
        0.0007224513   0.0002090595   0.0000522614   0.0078707496  -0.0516936740
        0.0261751142  -0.0720180604  -0.0136061022  -0.0503571602  -0.0050458438
       -0.0195784141   0.0049011273  -0.0691090326  -0.0710753435  -0.0395987005
        0.0119972786  -0.0205737516   0.0191259641   0.0000605030  -0.0002637837
        0.0000103568  -0.0000056850  -0.0000036765   0.0000068300  -0.0000008425
       -0.0000078907   0.0000065999  -0.0000056680  -0.0000077919   0.0000093532
       -0.0000117229  -0.0000029271   0.0000113652   0.0000011663  -0.0000124777
        0.0000102898   0.0000027050  -0.0000537152  -0.0000434674   0.0000206203
        0.0000061837   0.0000002690   0.0000034537   0.0000022572   0.0000048507
        0.0000063149  -0.0000022852   0.0000013175   0.0000030677  -0.0000001714
        0.0000005736  -0.0000002522  -0.0000009453   0.0000025354   0.0000013802
       -0.0000015015   0.0000004486  -0.0000015555   0.0000001088   0.0000007045
        0.0000004304  -0.0000033367  -0.0000002913   0.0000021952  -0.0000013379
       -0.0000011793   0.0000018664  -0.0000016846   0.0000002003   0.0000040187
        0.0000001243   0.0000002107   0.0000044554   0.0000027862  -0.0000001393
        0.0000006092   0.0000048540   0.0000009807  -0.0000015299   0.0000019223
        0.0000001664  -0.0000009449  -0.0000024988  -0.0000008805  -0.0000009769
        0.0000031947  -0.0000007636  -0.0000013886   0.0000016565  -0.0000008311
       -0.0000013464   0.0000046260  -0.0000008601  -0.0000007367  -0.0000030385
       -0.0000010018   0.0000017699   0.0000012033   0.0000022662   0.0000000052
        0.0000018673   0.0000002410   0.0000021285   0.0000058095   0.0000047344
        0.0000093505   0.0000069573  -0.0000040710   0.0000022430   0.0000050487
        0.0000040662  -0.0000016952  -0.0000110525  -0.0000364608  -0.0001506950
       -0.0000655000   0.0000001112   0.0002296627  -0.0002732099   0.0003948261
       -0.0029440783   0.0012234332   0.0005125837
       -0.0223321739   0.0199796556  -0.0742981398   0.2417483040  -0.1256373576
        0.3626329905  -0.0812744691   0.1271459584  -0.1672853165  -0.0442975447
       -0.0158232096  -0.0274082732  -0.0044002662  -0.0008776117   0.0045225482
        0.0006745044   0.0000186118   0.0006359815  -0.0000193650  -0.0003133037
       -0.0000562513   0.0000635249   0.0000008962   0.0000145891  -0.0000357891
       -0.0000134888   0.0000272558  -0.0000151177   0.0000077739   0.0000059035
        0.0000053448   0.0000008866  -0.0000063795   0.0000063813  -0.0000162961
       -0.0000059711  -0.0000046147  -0.0000130006   0.0000360374   0.0001540862
        0.0000893471  -0.0001239846  -0.0003635906  -0.0005023336   0.0000248643
       -0.0000352441   0.0000981100  -0.0000384093  -0.0000251490   0.0000035994
        0.0000158263   0.0000089065   0.0000069437   0.0000029190   0.0000229450
       -0.0000046349  -0.0000075185  -0.0000103083  -0.0000081892   0.0000038121
       -0.0000007760   0.0000155541   0.0000015128  -0.0000037309   0.0000003424
        0.0000049087   0.0000052591   0.0000000044  -0.0000059051  -0.0000177561
        0.0000008772   0.0000073298   0.0000077251  -0.0000045926  -0.0000034576
       -0.0000090700  -0.0000018782  -0.0000056629   0.0000073176   0.0000013566
        0.0000021343  -0.0000048670  -0.0000022934  -0.0000019437  -0.0000004652
       -0.0000049859   0.0000004686   0.0000018743   0.0000090927   0.0000053313
        0.0000043246  -0.0000043945  -0.0000028957  -0.0000019558  -0.0000010474
        0.0000010356   0.0000016411  -0.0000022861   0.0000004774   0.0000017212
        0.0000005804   0.0000019753  -0.0000005600  -0.0000034429  -0.0000017495
        0.0000034695   0.0000012493  -0.0000011327  -0.0000008057  -0.0000040124
        0.0000020515   0.0000000373   0.0000016052  -0.0000027262   0.0000034852
       -0.0000055026   0.0000030124  -0.0000025200   0.0000023716   0.0000002222
        0.0000005127   0.0000070907  -0.0000002208   0.0000003915  -0.0000027501
        0.0000019850   0.0000006065  -0.0000063601   0.0000014707  -0.0000014707
        0.0000053786  -0.0000028787   0.0000119480  -0.0000123352  -0.0000086397
       -0.0000112541   0.0000058565   0.0000048301  -0.0000012362   0.0000023051
        0.0000000619   0.0000008656   0.0000021806   0.0000012903  -0.0000006065
        0.0000014842  -0.0000011962   0.0000002742   0.0000003523  -0.0000009894
        0.0000000330   0.0000006324  -0.0000010882   0.0000003333   0.0000017840
       -0.0000022020  -0.0000050602   0.0000054136   0.0000042348   0.0000036491
        0.0000014264   0.0000006154   0.0000097078   0.0000209846  -0.0000024673
       -0.0000039454  -0.0000260734  -0.0000031590  -0.0000228243   0.0000128868
        0.0000111919   0.0000046568   0.0000097470  -0.0000037638   0.0000329352
       -0.0000013739  -0.0000164971  -0.0000065408  -0.0000285914   0.0000055846
       -0.0015947606   0.0009017244  -0.0012003208   0.0008245432   0.0250762765
       -0.0157931771   0.0183486824  -0.0154043824   0.0225664703   0.0050741398
        0.0190975909  -0.0036791987  -0.1050838068  -0.0392897525  -0.1005192737
       -0.0022624086   0.0045638841  -0.0032923240   0.0001026436   0.0001358764
       -0.0000475757   0.0000083148   0.0000048063  -0.0000030423   0.0000012393
       -0.0000038489   0.0000020615  -0.0000013443  -0.0000020934   0.0000061327
       -0.0000039081   0.0000045206   0.0000036176   0.0000089032   0.0000040802
       -0.0000175832   0.0000157178   0.0000545288   0.0000753391  -0.0000147280
       -0.0000006075  -0.0000030499  -0.0000062418   0.0000017049   0.0000010632
       -0.0000027540  -0.0000015797   0.0000031904  -0.0000000744   0.0000009319
       -0.0000037664  -0.0000005434  -0.0000006156   0.0000022244  -0.0000020309
       -0.0000007149   0.0000027148  -0.0000000709  -0.0000000525   0.0000015629
       -0.0000009698  -0.0000007571   0.0000016345  -0.0000015473  -0.0000004081
        0.0000001117  -0.0000015047  -0.0000004309   0.0000002473  -0.0000000091
       -0.0000016457  -0.0000007171  -0.0000021381  -0.0000004868  -0.0000010202
       -0.0000003867  -0.0000010019  -0.0000024276   0.0000014430  -0.0000017484
       -0.0000011220  -0.0000005306  -0.0000018854  -0.0000007768   0.0000001436
        0.0000013176  -0.0000022345   0.0000000231  -0.0000001875  -0.0000018392
        0.0000011960   0.0000000193  -0.0000008361   0.0000001699  -0.0000023310
        0.0000005685  -0.0000011618   0.0000000829  -0.0000021585   0.0000015613
       -0.0000002477   0.0000006725   0.0000020778  -0.0000011724  -0.0000020399
       -0.0000029766   0.0000000806  -0.0000005003  -0.0000007140   0.0000067342
       -0.0000053298   0.0000093419   0.0000026393   0.0000388858   0.0001759330
        0.0001649966  -0.0000308661   0.0004802128   0.0003093577  -0.0000710783
       -0.0059493648   0.0002438038   0.0032901284
        0.0381060548   0.0428857517   0.0108156476  -0.1320907588   0.0302676983
       -0.0812744691   0.4582213703   0.0965945795   0.2315731810  -0.2162766462
       -0.0449429026  -0.1121135335  -0.0206492148   0.0065478190  -0.0199827242
       -0.0016194526  -0.0037611584   0.0018094534  -0.0006973891   0.0006952912
       -0.0000466043  -0.0000338620  -0.0000344756   0.0000736362  -0.0000303750