92
 energy: -150.958777714305 gnorm: 0.000060813679 xtb: 6.7.1 (edcfbbe)
N           10.47792382932300        1.66025211588099        0.19904025627962
C            9.46137655626326        1.12755817761696        0.16161322255953
C            8.21707395994256        0.47258770160664        0.11582071633922
N            7.08958456421390        1.18664769972518        0.05658631891081
C            5.90562241317210        0.56000007917830        0.01618480310671
C            4.70009655263759        1.30803582649700       -0.05095451198646
C            4.67758671428184        2.71683522394976       -0.06862520191699
C            3.47982879159019        3.37862547167563       -0.12785199842426
C            2.28268945679510        2.62912547400535       -0.18944251755607
C            0.94347212857108        3.21161612181122       -0.25802858738373
C           -0.07659777647832        2.43551860348862       -0.81758082147866
C           -1.37640984911640        2.87730045208856       -0.83389586662007
C           -1.71165435872860        4.10842448925212       -0.26075540206020
N           -3.04468339595016        4.51232217448624       -0.20603700709108
C           -3.38553685706664        5.86591451636836       -0.30281962889849
C           -4.43484919991157        6.38401108198506        0.45656767689051
C           -4.77196154466894        7.71943337265588        0.35489989344406
C           -4.06952212060017        8.55768762520379       -0.49588814012618
C           -3.02566402676265        8.04788789354868       -1.25114246487605
C           -2.68450456418385        6.71256788926490       -1.16180581187305
C           -4.05154712893780        3.54833218074548       -0.05993509823004
C           -3.84796956460713        2.43072857604446        0.75129126106977
C           -4.82738199867109        1.46385397885259        0.86278054474930
C           -6.02825698047303        1.60121562123820        0.18522744745919
C           -6.24390721602286        2.71863723668116       -0.60479993196154
C           -5.26502392402778        3.68533895370886       -0.73356792341254
C           -0.69208326638782        4.90080758622323        0.27293614525687
C            0.61584218010908        4.46155649971319        0.26521497190682
N            2.30019642684799        1.31066155473266       -0.18293132193416
C            3.44561345284198        0.65075260374090       -0.10363741542949
C            3.39342938181686       -0.78440684937051       -0.05488619610732
N            2.20528782532599       -1.36338706457152       -0.06158985860014
C            2.08208010527571       -2.67569666788944        0.00177472567138
C            0.70516563254720       -3.16449467461593        0.02800712592534
C           -0.32685943138697       -2.22103939233266       -0.06400452439030
C           -1.64638725597205       -2.59857534962990       -0.02606603739460
C           -1.99175332953993       -3.94685331976525        0.11328651415232
N           -3.33078538180404       -4.32956876534080        0.16626657928286
C           -3.74326302799869       -5.54626849537255       -0.38996395737098
C           -4.73385832378517       -6.30542108036175        0.23310264096363
C           -5.14163674274010       -7.50326233829850       -0.32046790080174
C           -4.56841285182185       -7.96489939705573       -1.49438376028428
C           -3.58330078089623       -7.21468964523196       -2.11621814044116
C           -3.17279849024963       -6.01239098082837       -1.57456111586600
C           -4.27477063594400       -3.49073488102812        0.77196576459237
C           -5.55135738350869       -3.35489108913907        0.22647097370647
C           -6.48172669968494       -2.53238142178501        0.83142863051830
C           -6.15728707169725       -1.83291425358861        1.98245319343588
C           -4.88912542370467       -1.96276030639607        2.52670723415382
C           -3.95227389348510       -2.78445777469174        1.93123742275536
C           -0.96890722815982       -4.89435230000744        0.20281928114760
C            0.35431958735630       -4.50933431703934        0.15874124650128
C            3.23166270389795       -3.50245011389252        0.05276550277527
C            4.47362718456550       -2.92811847852006        0.05776338393553
C            4.60146359671243       -1.52459509626869        0.01586862980466
C            5.85368061023034       -0.86297193191598        0.04358843274876
N            6.99627080279805       -1.56961670110347        0.10113776355820
C            8.16646764725568       -0.93312371417799        0.13323959329229
C            9.36464395594271       -1.67137005147092        0.18902276217970
N           10.34229141949628       -2.27109413986003        0.23391521851232
H            5.61960688818015        3.24522168671675       -0.03489844453015
H            3.44714771958044        4.45657717343403       -0.15234671375962
H            0.18323367062599        1.47644412067136       -1.23628403900021
H           -2.15008256196344        2.27259760995531       -1.28338091587552
H           -4.97543623716614        5.73355020529239        1.12839662728595
H           -5.58368499586998        8.11006385767393        0.95036197833312
H           -4.33434241995433        9.60118400410993       -0.57045027139245
H           -2.47813767911019        8.69306287417595       -1.92195893866143
H           -1.88017944627765        6.31282154885762       -1.76168270096625
H           -2.91757613867934        2.32648007301117        1.28957206425096
H           -4.65510179772322        0.59741172805009        1.48381484928759
H           -6.78799908627642        0.83980745291244        0.27285292538398
H           -7.17665032618134        2.83382574180329       -1.13669587001073
H           -5.42850091170157        4.54595686018214       -1.36545133963695
H           -0.93847878575489        5.85268115779507        0.72016795585450
H            1.37911813980890        5.07849402194996        0.71541453647238
H           -0.05317435060019       -1.18320083669129       -0.16887753188563
H           -2.42677904297594       -1.85655319197796       -0.11299626409194
H           -5.17333706670625       -5.95210190445400        1.15439694260820
H           -5.90646039380242       -8.08427657422556        0.17300012409754
H           -4.88770535539094       -8.90280152271527       -1.92213606773243
H           -3.13674446875390       -7.56398849809595       -3.03524655994261
H           -2.41459432543143       -5.42167848152890       -2.06723238955955
H           -5.80387123675427       -3.89375382759254       -0.67487764796494
H           -7.46573405855512       -2.43398041087787        0.39735054364718
H           -6.88669696282249       -1.19192023098669        2.45408905781464
H           -4.63039367339972       -1.42853012730195        3.42934695253398
H           -2.96830267935115       -2.89251511700316        2.36307635982166
H           -1.22265089609199       -5.93756261354054        0.32260313340692
H            1.11491196418316       -5.26999722340942        0.24436152651834
H            3.13342838349590       -4.57538397488383        0.09008920016364
H            5.37527984874774       -3.52238262551118        0.09998414224821
