$hessian                                                                        
        0.5207238479  -0.0052182170   0.0042389283  -0.0694247098  -0.0106324947
        0.0086182311   0.0004748867   0.0021696227  -0.0017217678   0.0001795131
        0.0006265239   0.0001549141   0.0000297356   0.0001334892  -0.0000801059
       -0.0000265926   0.0000346321   0.0000367755  -0.0000112254   0.0000171868
       -0.0000085764  -0.0001630362  -0.0000374314   0.0000432538   0.0000912616
        0.0000102505   0.0000049069   0.0000519365  -0.0000125301  -0.0000185109
        0.0000249385  -0.0000025210  -0.0000210173  -0.0000026374  -0.0000104945
       -0.0000092898  -0.0000502960  -0.0000407916  -0.0001115748  -0.0001324316
        0.0000066237   0.0000648870  -0.0000179300  -0.0000026948   0.0000092811
       -0.0000049159   0.0000016355   0.0000428930   0.0000469086   0.0000126856
        0.0000237124   0.0000376019  -0.0000059686  -0.0000078767  -0.0000300344
        0.0000073267  -0.0000094212   0.0000110916  -0.0000004626   0.0000112070
       -0.0000030862  -0.0000020636  -0.0000079016   0.0000106563  -0.0000017394
       -0.0000134811  -0.0000164000   0.0000004456   0.0000056424   0.0000098432
        0.0000046550   0.0000095429  -0.0000007740  -0.0000043525   0.0000167050
       -0.0000009427  -0.0000051399   0.0000018490   0.0000095696  -0.0000060791
        0.0000072431   0.0000095144  -0.0000048545  -0.0000030949   0.0000187606
       -0.0000010516   0.0000055062   0.0000047770  -0.0000049773   0.0000048081
        0.0000027887  -0.0000097642   0.0000028529   0.0000025524  -0.0000068172
       -0.0000009471   0.0000047663   0.0000022262   0.0000101833   0.0000053438
       -0.0000013530   0.0000029520  -0.0000042290  -0.0000002506   0.0000083791
        0.0000077058   0.0000009959  -0.0000073266  -0.0000091857  -0.0000005408
        0.0000041083   0.0000063668   0.0000003865  -0.0000129280  -0.0000057503
       -0.0000006444  -0.0000013764   0.0000134089  -0.0000018162  -0.0000065396
        0.0000299325  -0.0000161831   0.0000105390  -0.0000251504   0.0001105579
        0.0000129699  -0.2426876043   0.0046812088   0.0875442625  -0.1580704446
       -0.0117591525  -0.1178233203  -0.0486118660   0.0257597604   0.0141991885
       -0.0050486227  -0.0213294116   0.0197858759   0.0015283841   0.0152044938
       -0.0147945647   0.0006164959   0.0008185343  -0.0005331899   0.0003091887
       -0.0004893922   0.0003475746   0.0000150150  -0.0000031147   0.0000290456
        0.0000320932  -0.0000160836  -0.0000342025   0.0000054322  -0.0000089814
        0.0000026059   0.0000159402   0.0000121511  -0.0000113445   0.0000083807
       -0.0000062342  -0.0000056058   0.0000054473   0.0000000272   0.0000051084
        0.0000033350   0.0000077082  -0.0000005468  -0.0000044451  -0.0000223710
        0.0000685571   0.0000085245  -0.0000035083   0.0000194391   0.0000116300
       -0.0000021750   0.0000110333  -0.0000038775  -0.0000078742   0.0000032939
        0.0000088015   0.0000025026  -0.0000168488   0.0000190696   0.0000037309
       -0.0000135256  -0.0000017907  -0.0000004815  -0.0000046770  -0.0000032478
        0.0000005757  -0.0000043051  -0.0000098487   0.0000034536  -0.0000078569
       -0.0000070725   0.0000040700  -0.0000044774  -0.0000036485   0.0000029821
        0.0000001157  -0.0000043661  -0.0000000228  -0.0000032710  -0.0000046787
        0.0000006494  -0.0000006103  -0.0000092644   0.0000025308  -0.0000033181
       -0.0000039369   0.0000003369  -0.0000007081  -0.0000058379  -0.0000019691
        0.0000020172  -0.0000030780   0.0000037095  -0.0000027169  -0.0000026305
        0.0000025013  -0.0000005528  -0.0000033139   0.0000028735  -0.0000025426
        0.0000005072   0.0000031551  -0.0000025407   0.0000006583   0.0000027605
       -0.0000001337  -0.0000026198   0.0000028690   0.0000007489  -0.0000006895
        0.0000042070  -0.0000003266  -0.0000031482   0.0000000543  -0.0000007368
       -0.0000033649  -0.0000001922  -0.0000021197  -0.0000019553  -0.0000002881
       -0.0000026506   0.0000340681   0.0000163963  -0.0000527085
       -0.0052182170   0.4863814672   0.0320723795  -0.0108471307  -0.1409433994
        0.0681040217  -0.0017888559  -0.0291823618   0.0141107989   0.0005304969
       -0.0040310809  -0.0020805525  -0.0000952281  -0.0010916405   0.0006517239
        0.0000483197  -0.0002680034  -0.0002178254  -0.0000143092  -0.0000904658
        0.0000805503   0.0004251297  -0.0000025602  -0.0001861430  -0.0001105357
        0.0000446964  -0.0000049381   0.0000743444  -0.0000063539  -0.0001222756
        0.0000196224   0.0000154454   0.0000672712   0.0000231521   0.0000035969
        0.0000064620   0.0000452980   0.0000276248   0.0000108488  -0.0000328798
        0.0000217104  -0.0000221361  -0.0000635704  -0.0000038089  -0.0000251948
        0.0000134657   0.0000121447   0.0000245304  -0.0000895871  -0.0000115664
       -0.0000838557   0.0000992943  -0.0000012842   0.0000172659  -0.0001008149
        0.0000039313   0.0000062375   0.0000578865   0.0000019803   0.0000224528
       -0.0000293304  -0.0000042917  -0.0000483524   0.0000055562  -0.0000059084
       -0.0000151661   0.0000146155   0.0000031732  -0.0000147585   0.0000005159
        0.0000034758   0.0000240590  -0.0000017418   0.0000092263   0.0000172551
       -0.0000008159  -0.0000003376   0.0000066789  -0.0000024213  -0.0000079219
        0.0000074615  -0.0000018918  -0.0000050194  -0.0000077948  -0.0000004044
        0.0000007676  -0.0000000047  -0.0000049748   0.0000061813   0.0000053410
       -0.0000055085  -0.0000029034  -0.0000073335  -0.0000068990  -0.0000043494
       -0.0000014397   0.0000496695  -0.0000007070  -0.0000090494  -0.0000767796
       -0.0000026713   0.0000116116   0.0001291533   0.0000017812  -0.0000322848
       -0.0001961176   0.0000076508   0.0000779783   0.0001274054  -0.0000056934
       -0.0000490779  -0.0000396690  -0.0000015887   0.0000201861   0.0000307570
       -0.0000003379  -0.0000226461  -0.0000332365   0.0000000236   0.0000109738
        0.0001039231   0.0000524822   0.0000301634  -0.0003196555  -0.0000247077
       -0.0002836709   0.0047681032  -0.0432157960  -0.0034491578  -0.0117168377
       -0.0445263312  -0.0138325939   0.0257517968  -0.2211201686  -0.1027890322
       -0.0022112626  -0.0024143793   0.0032565796   0.0010680870  -0.0010811988
        0.0027202928  -0.0005094893   0.0008186015   0.0007314626   0.0001502826
        0.0007950040   0.0009567678   0.0000335235   0.0000048234   0.0000739897
       -0.0000575490  -0.0000000058   0.0000536594  -0.0000198930   0.0000025672
       -0.0000302481   0.0000313448   0.0000068121  -0.0000228405  -0.0000023320
        0.0000020847   0.0000012783   0.0000030548   0.0000035314   0.0000032995
        0.0000055485  -0.0000633458  -0.0000186867   0.0000038407  -0.0000341954
        0.0000503173  -0.0000376671  -0.0000061979   0.0000189569  -0.0000183499
       -0.0000033464   0.0000151260  -0.0000284475  -0.0000091084   0.0000148192
        0.0000236740  -0.0000073875   0.0000228316   0.0000137904  -0.0000039838
        0.0000142498  -0.0000009540  -0.0000006997   0.0000065760   0.0000091348
        0.0000005997   0.0000072718   0.0000014301  -0.0000039741  -0.0000020959
       -0.0000039519  -0.0000005036  -0.0000021954   0.0000068924   0.0000013602
       -0.0000034574  -0.0000011375  -0.0000017589  -0.0000026200   0.0000047460
       -0.0000048700   0.0000092944  -0.0000015340  -0.0000039693  -0.0000029595
        0.0000045945   0.0000066494   0.0000014249   0.0000016036  -0.0000004527
        0.0000001843  -0.0000043237  -0.0000035158   0.0000006431   0.0000067585
       -0.0000025466  -0.0000035483   0.0000017939   0.0000027189  -0.0000013436
        0.0000019603   0.0000014424  -0.0000046572  -0.0000003780   0.0000009814
        0.0000018888   0.0000034480  -0.0000007918  -0.0000008522   0.0000001888
        0.0000002851   0.0000032581   0.0000058537  -0.0000025713  -0.0000096348
        0.0000103343  -0.0000001813   0.0000054711  -0.0000012185   0.0000007573
        0.0000097421  -0.0000144903  -0.0000353350   0.0000447869
        0.0042389283   0.0320723795   0.4953018080   0.0086583892   0.0669314388
       -0.1237770209  -0.0010405206  -0.0061133007   0.0065439607   0.0001478463
       -0.0024695345  -0.0002465732  -0.0000539141  -0.0004910709   0.0003308852
        0.0000344075  -0.0001302794  -0.0001663160  -0.0000030064  -0.0000702444
        0.0000177469   0.0003317349  -0.0001940194  -0.0001987481  -0.0001556313
        0.0000381766  -0.0000033436   0.0000393632  -0.0000062858  -0.0000513957
       -0.0000070929  -0.0000004365   0.0000223044  -0.0000732695   0.0000276076
        0.0000152795  -0.0000244598   0.0000205754   0.0000501155  -0.0000178557
        0.0000274375   0.0000439380   0.0000636028   0.0000329816   0.0000455207
        0.0000058777  -0.0000030081   0.0000118057   0.0000177287   0.0000044446
        0.0000188837   0.0000118068  -0.0000056427   0.0000111645   0.0000443477
        0.0000095040   0.0000019187  -0.0000668073  -0.0000030508  -0.0000136203
        0.0000433855   0.0000018883   0.0000428951  -0.0000335438  -0.0000055996
        0.0000295839   0.0000604904   0.0000101044  -0.0000139089  -0.0000199055
       -0.0000040722  -0.0000326536   0.0000347498   0.0000044475  -0.0000424325
       -0.0000004060   0.0000022694  -0.0000040082  -0.0000025903   0.0000032545
       -0.0000094964   0.0000030461   0.0000043369  -0.0000047992  -0.0000062212
        0.0000012427  -0.0000116121  -0.0000003093  -0.0000004386  -0.0000073777
        0.0000048158   0.0000038281  -0.0000093670   0.0000028733  -0.0000018850
       -0.0000090642  -0.0000190066  -0.0000026799  -0.0000099075   0.0000261719
       -0.0000037335   0.0000019022  -0.0000530525   0.0000143343  -0.0000007683
        0.0000717561  -0.0000041495  -0.0000261197  -0.0000515354   0.0000034166
        0.0000189464   0.0000062551  -0.0000118557  -0.0000014197   0.0000051607
        0.0000062958   0.0000107827  -0.0000257200   0.0000039760   0.0000230042
        0.0001438657   0.0000558661   0.0000307505  -0.0002782202  -0.0001732910
       -0.0002664651   0.0876124455  -0.0031849801  -0.0831514140  -0.1178421762
       -0.0135542844  -0.1667365378   0.0141729191  -0.1026683416  -0.1005258271
        0.0042958763   0.0122178978  -0.0106526950  -0.0001636941   0.0192148785
       -0.0185284879  -0.0004104411  -0.0007801238   0.0006208323   0.0003243868
       -0.0009890080   0.0010050277   0.0000035235   0.0000554128   0.0000385693
       -0.0000115116   0.0000520002   0.0000200857   0.0000241680  -0.0000101608
        0.0000441323  -0.0000333057  -0.0000067060   0.0000314110  -0.0000018685
        0.0000164364   0.0000089753  -0.0000003420   0.0000178214   0.0000118307
        0.0000006468  -0.0000254288   0.0000077155   0.0000440891   0.0000097773
        0.0000086891   0.0000001268   0.0000074409   0.0000084897   0.0000106085
        0.0000045349   0.0000208575   0.0000165017   0.0000144397   0.0000410694
       -0.0000311392   0.0000139211   0.0000257291  -0.0000126560   0.0000034806
        0.0000117914  -0.0000026332  -0.0000022209   0.0000057642  -0.0000086372
       -0.0000015338  -0.0000002312   0.0000030736  -0.0000007201   0.0000050029
        0.0000027958  -0.0000016153   0.0000022830  -0.0000036854   0.0000002525
        0.0000066261  -0.0000023264   0.0000013189  -0.0000057804   0.0000004088
       -0.0000002402   0.0000184074   0.0000051444   0.0000000302   0.0000034754
        0.0000006256  -0.0000011126   0.0000024316  -0.0000018969  -0.0000001690
        0.0000054507   0.0000002811   0.0000000239   0.0000020874  -0.0000045720
        0.0000014768   0.0000058728  -0.0000007052  -0.0000047759  -0.0000067615
       -0.0000046983  -0.0000046390  -0.0000007825  -0.0000003474  -0.0000007778
        0.0000001712  -0.0000019961   0.0000010765   0.0000021901  -0.0000009372
        0.0000026024   0.0000028203  -0.0000031133   0.0000022635   0.0000043203
       -0.0000025122   0.0000003027   0.0000013504  -0.0000011259  -0.0000002446
       -0.0000001562  -0.0000348357   0.0000144657  -0.0000315646
       -0.0694247098  -0.0108471307   0.0086583892   0.5367495508   0.0026744833
        0.0071140225  -0.0715574887   0.0138701998   0.0074080857   0.0005764184
       -0.0016185180  -0.0011995201   0.0003194670  -0.0004083951   0.0003581221
        0.0001960320  -0.0001087119  -0.0000633177  -0.0000233162  -0.0000351424
        0.0000331308   0.0001163064  -0.0011229806   0.0002677644  -0.0000936485
        0.0000178000  -0.0000310319  -0.0000556966   0.0000561376   0.0000113363
       -0.0000749736   0.0000308737  -0.0000004701  -0.0000124253   0.0000744570
        0.0000489118   0.0001282068  -0.0000109572  -0.0000206279   0.0002011731
       -0.0000142703   0.0001039610  -0.0000755677  -0.0000717359  -0.0001834344
       -0.0000387723  -0.0000424804  -0.0000719197  -0.0001655454  -0.0000067456
       -0.0001055713   0.0000552369   0.0000098478   0.0000228525  -0.0001842767
        0.0000034556  -0.0000086642   0.0000859666   0.0000024325   0.0000440190
       -0.0000479896  -0.0000044621  -0.0000322704   0.0000233918   0.0000035173
        0.0000290391   0.0000045294  -0.0000004840  -0.0000047200  -0.0000172246
        0.0000045592   0.0000059790   0.0000017040  -0.0000122262   0.0000075336
        0.0000004253  -0.0000022029  -0.0000166432   0.0000011660   0.0000028699
       -0.0000085571  -0.0000020426   0.0000048121  -0.0000045025   0.0000065711
        0.0000042785  -0.0000037694  -0.0000004803  -0.0000092258  -0.0000082517
       -0.0000027600  -0.0000095946  -0.0000006135   0.0000009747  -0.0000070819
       -0.0000060177   0.0000810583  -0.0000079420  -0.0000678585  -0.0001372624
       -0.0000086456  -0.0000538046   0.0002070129  -0.0000054478  -0.0000427621
       -0.0001806483   0.0000114941   0.0000677366   0.0001241916  -0.0000061135
       -0.0000470855  -0.0000445822   0.0000134319   0.0000966135   0.0000906835
        0.0000047597   0.0000402750  -0.0000540366   0.0000017899   0.0000204627
       -0.0001142831  -0.0000242260   0.0001467805  -0.0000292749   0.0007091562
       -0.0003403669  -0.0052120697  -0.0215959569   0.0199070582   0.0015422015
        0.0157628831  -0.0147101083   0.0006352579   0.0025919413  -0.0020527112
       -0.2350443238   0.0071988129   0.0819168774  -0.1544237564  -0.0138737967
       -0.1112285880  -0.0063832977   0.0245081227   0.0159190446   0.0019195325
       -0.0176500545  -0.0119110278   0.0000028893   0.0000750854   0.0000499344
        0.0001013787  -0.0001043411  -0.0000777099   0.0000154496  -0.0000090709
        0.0000292976   0.0000188015   0.0000241805  -0.0000362537   0.0000113967
       -0.0000113340  -0.0000045006  -0.0000028791   0.0000096329  -0.0000116851
        0.0000087322  -0.0000226094  -0.0000026192   0.0000597268  -0.0000588426
       -0.0000171634   0.0000067551  -0.0000462517   0.0000036943   0.0000003950
       -0.0000277700   0.0000126763   0.0000183788  -0.0000220302  -0.0000111636
        0.0000143216   0.0000184943   0.0000425322   0.0000350237   0.0000213692
        0.0000155929  -0.0000010369  -0.0000012264  -0.0000186150  -0.0000051705
       -0.0000019042  -0.0000116629  -0.0000037716   0.0000068242   0.0000133240
        0.0000010106   0.0000030603   0.0000082118   0.0000003225   0.0000013836
        0.0000034940   0.0000001232  -0.0000013768  -0.0000007795  -0.0000035889
       -0.0000008553  -0.0000002781  -0.0000005324   0.0000018757   0.0000071998
       -0.0000047507  -0.0000036086   0.0000022214   0.0000000320  -0.0000015015
        0.0000024598   0.0000028888   0.0000046902   0.0000063070  -0.0000001405
        0.0000031141   0.0000026582  -0.0000000715   0.0000034068  -0.0000018980
        0.0000004301   0.0000036862  -0.0000029126   0.0000030179   0.0000028536
        0.0000025191  -0.0000001848   0.0000033670   0.0000003826  -0.0000010033
        0.0000049515  -0.0000003966  -0.0000040771   0.0000026914   0.0000120895
       -0.0000108191  -0.0000008256  -0.0000066105  -0.0000044408  -0.0000020605
       -0.0000134450   0.0000747877   0.0000673539  -0.0000006808
       -0.0106324947  -0.1409433994   0.0669314388   0.0026744833   0.4515734371
        0.0020909090   0.0143295926  -0.1555818009  -0.0585163606   0.0016653196
       -0.0252705825  -0.0043958453  -0.0003510094  -0.0031413024   0.0023778168
        0.0001426744  -0.0008437932  -0.0005736381  -0.0000204108  -0.0002302407
        0.0001348377   0.0001777730  -0.0006797460  -0.0002857958   0.0002621549
       -0.0001213517  -0.0000275977   0.0000645303  -0.0000781497  -0.0000393526
       -0.0000123299   0.0000029593  -0.0000112019   0.0000940344  -0.0000803520
       -0.0000819749   0.0001128811  -0.0001652946  -0.0001233965  -0.0000477882
       -0.0001406822  -0.0001334831  -0.0000754614  -0.0000695064  -0.0001416396
        0.0000168380   0.0000035503   0.0000010436  -0.0000704602  -0.0001010856
       -0.0000862565   0.0000544125   0.0000059733  -0.0000002815  -0.0001243413
        0.0000175606   0.0000045392   0.0001051355  -0.0000010522   0.0000240195
       -0.0000819270  -0.0000057312  -0.0000763844   0.0000591220  -0.0000070663
       -0.0000405528  -0.0000916621   0.0000014012  -0.0000005858   0.0000406591
        0.0000105525   0.0000552191  -0.0000596427  -0.0000028206   0.0000391544
        0.0000012454  -0.0000003893   0.0000049560  -0.0000048802  -0.0000084267
        0.0000004559  -0.0000024959  -0.0000090273  -0.0000050218   0.0000013567
       -0.0000023817   0.0000044732  -0.0000089200  -0.0000004067  -0.0000032454
       -0.0000074669  -0.0000046264  -0.0000042722  -0.0000106936  -0.0000031054
       -0.0000039204   0.0000242096   0.0000037333   0.0000194244  -0.0000399120
       -0.0000035430   0.0000001698   0.0000864360   0.0000003501  -0.0000115738
       -0.0001257630   0.0000088344   0.0000489796   0.0000851625  -0.0000036046
       -0.0000333132  -0.0000045900  -0.0000000115  -0.0000012070  -0.0000142546
       -0.0000017215  -0.0000223101   0.0000593751  -0.0000022388  -0.0000107110
       -0.0002437400  -0.0001612469  -0.0001037776   0.0001023965  -0.0005799393
       -0.0003486325  -0.0028480437  -0.0018641334   0.0029790517   0.0017131573
       -0.0005021430   0.0026932344  -0.0024791609  -0.0256208212   0.0169030053
        0.0073791854  -0.0411319382  -0.0043533888  -0.0140571358  -0.0426749996
       -0.0155549528   0.0033644003  -0.0050213191  -0.0039273435  -0.0011846007
       -0.0065841763  -0.0057916658   0.0000683214   0.0000368913   0.0001808348
       -0.0001296025   0.0000226363   0.0001374205  -0.0000413160  -0.0000041666
       -0.0000391507   0.0000564965   0.0000018064  -0.0000274122  -0.0000278763
        0.0000049533   0.0000221150   0.0000170434   0.0000082374   0.0000314422
        0.0000144083  -0.0000996259  -0.0000592855  -0.0000742497  -0.0000262080
        0.0000065286  -0.0000219747   0.0000151978   0.0000148757  -0.0000210246
        0.0000168725   0.0000169423  -0.0000184090  -0.0000026379   0.0000212874
        0.0000127822  -0.0000002146   0.0000257747   0.0000158148   0.0000130645
        0.0000195619   0.0000044771  -0.0000028982   0.0000020124   0.0000065398
       -0.0000012326   0.0000010851   0.0000096313   0.0000003882   0.0000075024
        0.0000023006   0.0000041444   0.0000011409   0.0000029353   0.0000043620
       -0.0000010514  -0.0000003341   0.0000035989   0.0000037303   0.0000026385
        0.0000014885   0.0000059629  -0.0000024552   0.0000022451   0.0000009682
        0.0000001465   0.0000080686   0.0000034562  -0.0000010351   0.0000024889
        0.0000013236   0.0000040985   0.0000016793   0.0000022480   0.0000037320
        0.0000024323  -0.0000028764   0.0000028637   0.0000027619   0.0000007862
        0.0000049577   0.0000018626  -0.0000060933   0.0000038976   0.0000035533
        0.0000004020   0.0000028860   0.0000013312  -0.0000039546   0.0000015837
        0.0000012061  -0.0000019123   0.0000021254   0.0000005803  -0.0000032675
        0.0000017638  -0.0000009081  -0.0000010302   0.0000001944  -0.0000009982
        0.0000037313   0.0000792881  -0.0000071553   0.0000318563
        0.0086182311   0.0681040217  -0.1237770209   0.0071140225   0.0020909090
        0.5013632252   0.0072999193  -0.0560507736  -0.0973328460  -0.0017261932
        0.0123865288   0.0071962120   0.0003354261   0.0027097083  -0.0017441421
       -0.0001027645   0.0007334282   0.0005821245   0.0000304368   0.0002262973
       -0.0002096860  -0.0004056449   0.0009741465   0.0004831866  -0.0000059233
        0.0000798717  -0.0001656037  -0.0000684362  -0.0000440016   0.0000987226
       -0.0000744128  -0.0000212274  -0.0001357832  -0.0000916883   0.0000098826
        0.0000790051  -0.0000290176   0.0001486919  -0.0002021561   0.0001158088
        0.0001152237   0.0001483568   0.0000905319   0.0000108327   0.0000722080
       -0.0000255123  -0.0000389662  -0.0000184097   0.0000848690  -0.0000433118
       -0.0000005118  -0.0001001703   0.0000235950  -0.0000106449   0.0001077417
        0.0000177350  -0.0000009662  -0.0000547339  -0.0000136011  -0.0000384660
        0.0000272306   0.0000125469   0.0000873293   0.0000307862  -0.0000053494
       -0.0000048352  -0.0000731302   0.0000101550   0.0000160546   0.0000479222
        0.0000034289  -0.0000104576  -0.0000266950  -0.0000168632  -0.0000539827
        0.0000002950   0.0000012137  -0.0000023874  -0.0000027079   0.0000012434
       -0.0000172003   0.0000047144  -0.0000062269   0.0000047732   0.0000037882
       -0.0000093896  -0.0000090996  -0.0000042110  -0.0000136138  -0.0000136945
        0.0000023410   0.0000046063   0.0000082723   0.0000001582   0.0000020758
       -0.0000058392  -0.0001107062   0.0000053243   0.0000561973   0.0001722460
       -0.0000039284   0.0000084253  -0.0002500978   0.0000151316   0.0000569284
        0.0003238914  -0.0000150379  -0.0001252720  -0.0002152981   0.0000089436
        0.0000824911   0.0000911165  -0.0000169177  -0.0000782861  -0.0001047045
        0.0000047576   0.0000094993   0.0001270786  -0.0000001397  -0.0000130669
       -0.0000239377   0.0000451034  -0.0001515196   0.0001729142   0.0012872224
        0.0003617103   0.0049652064   0.0112875242  -0.0110283362  -0.0005891498
        0.0183369907  -0.0191146009  -0.0011977902  -0.0091430026   0.0078806161
        0.0823904700  -0.0044533212  -0.0819097668  -0.1116758247  -0.0156720116
       -0.1606911582   0.0047999632  -0.0124636805  -0.0077390186   0.0000040308
       -0.0209697808  -0.0144585471   0.0001157435   0.0000876949   0.0001094340
       -0.0001287072   0.0000421044   0.0000325905  -0.0000215695  -0.0000391190
        0.0000394599   0.0000153114  -0.0000339876   0.0000319340  -0.0000310876
        0.0000012602   0.0000236356   0.0000213798   0.0000063257   0.0000342738
       -0.0000091950   0.0001256755   0.0000347475   0.0000438402   0.0000030079
        0.0000545626   0.0000497750   0.0000252731   0.0000205667   0.0000445703
        0.0000170314   0.0000114711   0.0000366921   0.0000161571   0.0000008821
       -0.0000294775   0.0000276477  -0.0000038944  -0.0000390950   0.0000220211
       -0.0000001530  -0.0000002265  -0.0000012253  -0.0000150671  -0.0000156422
        0.0000000431  -0.0000074021   0.0000011501   0.0000059149   0.0000254760
        0.0000079585  -0.0000021663   0.0000067731  -0.0000055995  -0.0000020362
        0.0000072330   0.0000004685   0.0000089484  -0.0000064200  -0.0000043841
        0.0000075000   0.0000090584   0.0000018218   0.0000003101   0.0000043240
       -0.0000019670  -0.0000028876  -0.0000003480  -0.0000002279  -0.0000018713
        0.0000000977   0.0000086289   0.0000045198   0.0000072176  -0.0000068643
        0.0000022347   0.0000076184   0.0000017549  -0.0000099465  -0.0000017155
       -0.0000040848  -0.0000067178  -0.0000008366   0.0000024856  -0.0000006956
        0.0000044851  -0.0000011937  -0.0000026099   0.0000018256  -0.0000013254
        0.0000028168   0.0000037853  -0.0000066924   0.0000016249   0.0000112811
       -0.0000108628   0.0000005077  -0.0000037154   0.0000007577   0.0000003900
       -0.0000083110  -0.0000365255   0.0000382584   0.0000330975
        0.0004748867  -0.0017888559  -0.0010405206  -0.0715574887   0.0143295926
        0.0072999193   0.5330661595   0.0001767820   0.0101346650  -0.0619443236
       -0.0101378564   0.0054904754   0.0012798537   0.0024906352  -0.0011865792
        0.0002796958   0.0005449620   0.0003916688   0.0000305770   0.0001344315
       -0.0000957943  -0.0062227508  -0.0188071131   0.0172835921  -0.0004668744
        0.0003411482   0.0005228026   0.0001953430   0.0011061114  -0.0002984180
        0.0000666346  -0.0000344826   0.0002937460  -0.0002466925   0.0010646024
        0.0006389971  -0.0024449302   0.0003610569   0.0013736070  -0.0015405018
       -0.0005625721  -0.0016940845   0.0002911081  -0.0007118978  -0.0003158417
       -0.0000772171   0.0000256121  -0.0000986220   0.0003157487  -0.0008166395
        0.0005182861  -0.0000866472   0.0000095354  -0.0000863668   0.0001954635
        0.0000231862  -0.0000198658  -0.0001119267  -0.0000005842  -0.0000193439
        0.0000654921   0.0000201155   0.0000636602  -0.0000171363  -0.0000025823
       -0.0000253382  -0.0000108287   0.0000020230   0.0000182831   0.0000140328
       -0.0000016497  -0.0000038214   0.0000096828  -0.0000256212  -0.0000182515
        0.0000006917   0.0000007357   0.0000098267   0.0000084139  -0.0000016747
        0.0000118578   0.0000084595  -0.0000007997   0.0000052349   0.0000127012
       -0.0000000850   0.0000051788   0.0000062955  -0.0000011529   0.0000129553
        0.0000067558  -0.0000041644   0.0000080989   0.0000068459  -0.0000035509
        0.0000068258  -0.0000798258   0.0000066678   0.0000691574   0.0001476747
        0.0000057913   0.0000467118  -0.0002182757   0.0000049023   0.0000583919
        0.0002166750  -0.0000093273  -0.0000905828  -0.0001492190   0.0000049768
        0.0000603519   0.0000555471  -0.0000106289  -0.0001013947  -0.0000898088
       -0.0000027827  -0.0000265040   0.0000703023  -0.0000014909  -0.0000239971
       -0.0006180601  -0.0003414880  -0.0008752277   0.0012337439   0.0135700837
       -0.0120196742   0.0005194574  -0.0010419380  -0.0003014458   0.0002083857
        0.0006457645   0.0002120130   0.0005360045  -0.0006939664   0.0003167265
       -0.0061260279   0.0251958529   0.0153118821   0.0018321070  -0.0181733233
       -0.0114730892  -0.2350681511   0.0047008600   0.0832791851  -0.1538912264
       -0.0119380187  -0.1131271141   0.0002313446  -0.0005476059   0.0001731855
        0.0004126746   0.0009467978  -0.0003870874  -0.0000366192  -0.0000824770
        0.0000025194  -0.0000100396   0.0001039990  -0.0000426690   0.0000060584
       -0.0000032956  -0.0000121918   0.0000111407  -0.0000038722   0.0000163977
       -0.0000057556   0.0000776411   0.0000163382  -0.0002088902  -0.0005937947
        0.0001857367  -0.0000131790  -0.0001096596   0.0000198976   0.0000231766
       -0.0002052938   0.0000335209  -0.0001437047   0.0000885973   0.0001229137
       -0.0000643447  -0.0000406101  -0.0001857675   0.0000023930   0.0001316084
       -0.0000606730   0.0000004379   0.0000003960  -0.0000080449  -0.0000047506
        0.0000001575  -0.0000025399  -0.0000229637   0.0000064401  -0.0000050216
       -0.0000083532   0.0000000229  -0.0000046001  -0.0000046242  -0.0000008505
       -0.0000017384  -0.0000028158   0.0000018834   0.0000005140  -0.0000050856
        0.0000005283  -0.0000068039  -0.0000067440  -0.0000041169   0.0000002391
       -0.0000029625  -0.0000019260   0.0000027529  -0.0000051175  -0.0000036970
       -0.0000005511  -0.0000054350   0.0000057595  -0.0000054860  -0.0000050512
        0.0000017285  -0.0000017190  -0.0000041522  -0.0000005919  -0.0000013087
       -0.0000017036   0.0000030596  -0.0000048319  -0.0000020239   0.0000051577
       -0.0000015824  -0.0000051663   0.0000025028  -0.0000010280  -0.0000011598
        0.0000008979  -0.0000000950  -0.0000044949  -0.0000017403  -0.0000077153
        0.0000007293   0.0000009208   0.0000011557  -0.0000004296   0.0000013460
        0.0000047391  -0.0002992153   0.0005689035  -0.0003406787
        0.0021696227  -0.0291823618  -0.0061133007   0.0138701998  -0.1555818009
       -0.0560507736   0.0001767820   0.4363475834   0.0154813615  -0.0077162684
       -0.1170858924   0.0492888081  -0.0012496828  -0.0310144693   0.0115323758
        0.0006046015  -0.0036628406  -0.0024754911  -0.0000933715  -0.0010923173
        0.0006436463  -0.0067281317  -0.0014466951   0.0058092347   0.0010810435
        0.0000050795  -0.0000355209  -0.0001895073   0.0000516562   0.0003692507
       -0.0000907483   0.0000047703  -0.0002059274  -0.0000149232  -0.0000175065
        0.0001432688  -0.0003261692  -0.0010221822  -0.0011369693   0.0006133612
       -0.0009452196  -0.0010127057   0.0000164145  -0.0001363615   0.0001192647
        0.0000477388  -0.0000149410  -0.0000775783   0.0000816299   0.0000443633
        0.0002955763  -0.0001388592  -0.0000122869  -0.0000253398   0.0001986517
        0.0000013430  -0.0000003093  -0.0001494214  -0.0000022704  -0.0000271298
        0.0000790442   0.0000026702   0.0001120918  -0.0000561644   0.0000039191
        0.0000551406   0.0000915517   0.0000048676  -0.0000012095  -0.0000405325
       -0.0000040796  -0.0000616663   0.0000365440   0.0000003969  -0.0000883673
        0.0000019937  -0.0000052928   0.0000016085  -0.0000016869  -0.0000053671
       -0.0000082155   0.0000040373  -0.0000119356   0.0000065300   0.0000072993
       -0.0000085923   0.0000054189  -0.0000060666  -0.0000087887  -0.0000082029
       -0.0000011351   0.0000023305   0.0000088851  -0.0000044165   0.0000024720
        0.0000042529  -0.0000406243  -0.0000035408  -0.0000167938   0.0000572745