$hessian                                                                        
        0.5201830295  -0.0065012071   0.0046163542  -0.0700476924  -0.0133735936
        0.0095311808   0.0004625526   0.0014526717  -0.0012244450   0.0002130519
        0.0004973649   0.0001309832   0.0000294978   0.0001049907  -0.0000548494
       -0.0000243871   0.0000246400   0.0000328462  -0.0000110502   0.0000147328
       -0.0000058022  -0.0001568630  -0.0000319508   0.0000308601   0.0000825896
        0.0000108067   0.0000050857   0.0000515781  -0.0000127681  -0.0000206864
        0.0000251317  -0.0000006505  -0.0000239919  -0.0000060187  -0.0000111087
       -0.0000070507  -0.0000507389  -0.0000280595  -0.0001117231  -0.0001328774
        0.0000062051   0.0000680056  -0.0000183380  -0.0000040043   0.0000116854
       -0.0000100999  -0.0000017160   0.0000521688   0.0000578133   0.0000077577
        0.0000285951   0.0000288152  -0.0000054544  -0.0000087185  -0.0000090225
        0.0000078987  -0.0000084778   0.0000021186  -0.0000014421   0.0000089792
        0.0000054023  -0.0000004614  -0.0000039279   0.0000061665  -0.0000009849
       -0.0000177353  -0.0000113994   0.0000005349   0.0000056991   0.0000113487
        0.0000032718   0.0000098983   0.0000052065  -0.0000061834   0.0000162561
       -0.0000012320  -0.0000052086   0.0000032105   0.0000107123  -0.0000075873
        0.0000097455   0.0000096549  -0.0000034538  -0.0000025873   0.0000191904
       -0.0000003799   0.0000081058   0.0000057955  -0.0000045708   0.0000068829
        0.0000030848  -0.0000101161   0.0000011906   0.0000032188  -0.0000066908
       -0.0000021091  -0.0000005222   0.0000009980   0.0000180444   0.0000147603
       -0.0000001224   0.0000087375  -0.0000195949  -0.0000014557   0.0000131186
        0.0000191542   0.0000035400  -0.0000121534  -0.0000175211  -0.0000006765
        0.0000074042   0.0000072209   0.0000013656  -0.0000202541  -0.0000113621
       -0.0000007581  -0.0000069744   0.0000129688   0.0000004255  -0.0000094153
        0.0000251897  -0.0000142126   0.0000009381  -0.0000277592   0.0001097411
        0.0000124332  -0.2421996686   0.0035826346   0.0880410855  -0.1587085460
        0.0003983307  -0.1184911230  -0.0470864034   0.0199204788   0.0128720854
       -0.0057022319  -0.0226789985   0.0181879641   0.0019492593   0.0162095286
       -0.0135448569   0.0006225061   0.0008611381  -0.0004618117   0.0002987516
       -0.0005083694   0.0003321807   0.0000160157  -0.0000059036   0.0000311240
        0.0000296133  -0.0000138160  -0.0000331543   0.0000034835  -0.0000097929
       -0.0000001204   0.0000168267   0.0000116731  -0.0000115076   0.0000083752
       -0.0000065771  -0.0000059403   0.0000070410  -0.0000010700   0.0000053127
        0.0000039761   0.0000050786  -0.0000010955  -0.0000040076  -0.0000297269
        0.0000715398   0.0000101788  -0.0000064546   0.0000200329   0.0000119823
       -0.0000045674   0.0000113502  -0.0000037109  -0.0000089720   0.0000013370
        0.0000106339   0.0000026298  -0.0000168660   0.0000191033   0.0000042167
       -0.0000140329  -0.0000026867   0.0000006427  -0.0000033755  -0.0000024448
        0.0000010834  -0.0000028362  -0.0000112483   0.0000046140  -0.0000108010
       -0.0000094315   0.0000047185  -0.0000057313  -0.0000031442   0.0000038362
       -0.0000000841  -0.0000045734   0.0000002025  -0.0000035220  -0.0000047058
        0.0000001931  -0.0000008073  -0.0000104875   0.0000025439  -0.0000041210
       -0.0000035114   0.0000013986   0.0000003704  -0.0000049955  -0.0000020939
        0.0000011685  -0.0000054073   0.0000047771  -0.0000035227  -0.0000020617
        0.0000034254  -0.0000001302  -0.0000034154   0.0000042004  -0.0000012123
       -0.0000006541   0.0000043837  -0.0000017004   0.0000005862   0.0000036822
       -0.0000002083  -0.0000017162   0.0000033908   0.0000008198  -0.0000004979
        0.0000050940   0.0000016864  -0.0000031780   0.0000000851  -0.0000021812
       -0.0000017954   0.0000002524  -0.0000017031  -0.0000022164   0.0000004403
       -0.0000013466   0.0000356330   0.0000195412  -0.0000517726
       -0.0065012071   0.4819939402   0.0307229426  -0.0136137918  -0.1504000792
        0.0657713162  -0.0025349301  -0.0296152861   0.0114452157   0.0004136384
       -0.0036982607  -0.0023433398  -0.0001267987  -0.0010889828   0.0005537319
        0.0000417120  -0.0002424209  -0.0002226549  -0.0000155928  -0.0000974758
        0.0000712696   0.0004290086   0.0000121197  -0.0001644577  -0.0001114933
        0.0000455555   0.0000069298   0.0000935151   0.0000064295  -0.0001235085
        0.0000302914   0.0000033568   0.0000774027   0.0000298278  -0.0000018729
       -0.0000110318   0.0000621298   0.0000271242   0.0000189947  -0.0000180006
        0.0000244676  -0.0000350954  -0.0000762058  -0.0000031016  -0.0000555104
        0.0000246038   0.0000096194  -0.0000124243  -0.0001548332  -0.0000046355
       -0.0001003570   0.0001487573  -0.0000024465   0.0000184767  -0.0001824483
        0.0000010320   0.0000048845   0.0001011435  -0.0000006598   0.0000411217
       -0.0000699598   0.0000044988  -0.0000773529   0.0000224260  -0.0000009282
        0.0000018744  -0.0000065671   0.0000017117  -0.0000134520  -0.0000079435
       -0.0000012915   0.0000298716  -0.0000231723   0.0000043500   0.0000308312
       -0.0000014299  -0.0000008598  -0.0000044905  -0.0000050145  -0.0000051014
       -0.0000017215  -0.0000040510  -0.0000032822  -0.0000030881  -0.0000016443
        0.0000003760   0.0000008040  -0.0000077810   0.0000007475  -0.0000011323
       -0.0000079107  -0.0000037391  -0.0000024962  -0.0000082682  -0.0000029809
       -0.0000009369   0.0000873001   0.0000019636  -0.0000434186  -0.0001351309
        0.0000025356  -0.0000208774   0.0002182929   0.0000002589  -0.0000483352
       -0.0002590396  -0.0000019037   0.0001019247   0.0001742223   0.0000019536
       -0.0000678299  -0.0000540970  -0.0000013006   0.0000672578   0.0000687777
       -0.0000012681   0.0000020398  -0.0000424383   0.0000010300   0.0000086400
        0.0001159783   0.0000458886   0.0000791005  -0.0003190708   0.0000081934
       -0.0002566195   0.0036844178  -0.0430347227  -0.0027725460   0.0004226566
       -0.0429943791  -0.0010741559   0.0199414267  -0.2061639811  -0.1110907789
       -0.0024551469  -0.0029298380   0.0032989760   0.0009730297  -0.0033012710
        0.0042476690  -0.0004595337   0.0007838413   0.0008051264   0.0001386273
        0.0008126192   0.0009137469   0.0000307538  -0.0000093702   0.0000685818
       -0.0000564276  -0.0000074535   0.0000528767  -0.0000258266   0.0000059418
       -0.0000353388   0.0000352295   0.0000048104  -0.0000244244  -0.0000030670
        0.0000001771   0.0000016665   0.0000050070   0.0000004418   0.0000040130
        0.0000041355  -0.0000607799  -0.0000243035  -0.0000018775  -0.0000394425
        0.0000419494  -0.0000408005  -0.0000087270   0.0000154680  -0.0000234456
       -0.0000056775   0.0000143638  -0.0000298421  -0.0000101345   0.0000145456
        0.0000217543  -0.0000109401   0.0000272976   0.0000172538  -0.0000055433
        0.0000213867   0.0000040946   0.0000008842   0.0000017706   0.0000095193
        0.0000007602   0.0000012054   0.0000057041  -0.0000042450   0.0000016471
       -0.0000002944  -0.0000021743   0.0000003690   0.0000060201   0.0000018912
       -0.0000018545   0.0000004333  -0.0000012482   0.0000002647   0.0000046895
       -0.0000032911   0.0000007213  -0.0000010746  -0.0000027484  -0.0000034741
        0.0000037656   0.0000061960   0.0000015254   0.0000026326   0.0000002418
       -0.0000014300   0.0000002267  -0.0000034846   0.0000025365   0.0000066498
       -0.0000006184  -0.0000009328   0.0000030741   0.0000019300   0.0000044797
        0.0000022027   0.0000029574  -0.0000013930   0.0000022532   0.0000012481
        0.0000032884   0.0000044855  -0.0000004818  -0.0000002957   0.0000011993
        0.0000007722   0.0000025189   0.0000031665  -0.0000025729  -0.0000019014
        0.0000036005   0.0000001625  -0.0000000004  -0.0000009581   0.0000010398
        0.0000007419  -0.0000125185  -0.0000420653   0.0000395942
        0.0046163542   0.0307229426   0.5002512986   0.0095292185   0.0646262420
       -0.1137738749  -0.0013991465  -0.0088346164   0.0069389368   0.0000973655
       -0.0027327523  -0.0005835276  -0.0000839003  -0.0005881221   0.0003619154
        0.0000353644  -0.0001345479  -0.0001926521  -0.0000071738  -0.0000761549
        0.0000237017   0.0004150672  -0.0001884871  -0.0002140907  -0.0001578789
        0.0000474312   0.0000203606   0.0000966539   0.0000093539  -0.0000885188
        0.0000013511  -0.0000130754   0.0000585928  -0.0000585244   0.0000274383
       -0.0000098278   0.0000394627   0.0000225051   0.0000350090  -0.0000259982
        0.0000307771   0.0000077738   0.0000346202   0.0000276661  -0.0000141814
        0.0000191993  -0.0000032055  -0.0000353373  -0.0001054486   0.0000044155
       -0.0000098940   0.0001362787  -0.0000059225   0.0000179784  -0.0001095286
        0.0000099953   0.0000001412   0.0000135511   0.0000004804   0.0000195434
       -0.0000350708  -0.0000003395  -0.0000026123   0.0000055642   0.0000009457
        0.0000537349   0.0000203455   0.0000045613  -0.0000112601  -0.0000257237
       -0.0000022280  -0.0000196314  -0.0000093006   0.0000057668  -0.0000278116
       -0.0000016583   0.0000022010  -0.0000212484  -0.0000087419   0.0000106413
       -0.0000258085   0.0000015834   0.0000051140   0.0000013816  -0.0000081027
        0.0000010417  -0.0000167609  -0.0000068298  -0.0000074719  -0.0000220036
        0.0000005342  -0.0000002717   0.0000011979  -0.0000005127  -0.0000004201
       -0.0000039336   0.0000495138   0.0000026990  -0.0000691482  -0.0000804127
        0.0000048427  -0.0000542035   0.0001161486   0.0000046441  -0.0000294664
       -0.0000590705  -0.0000037980   0.0000256502   0.0000415350   0.0000018088
       -0.0000162468  -0.0000168315  -0.0000024859   0.0000754323   0.0000699996
       -0.0000017380   0.0000554357  -0.0000396887   0.0000024028   0.0000165546
        0.0001659189   0.0000546612   0.0001029825  -0.0003648263  -0.0001449038
       -0.0002823801   0.0881027154  -0.0025259756  -0.0838958535  -0.1185172933
       -0.0007868989  -0.1675071485   0.0128561201  -0.1109815063  -0.1168024008
        0.0044614340   0.0126711512  -0.0094683980   0.0004156570   0.0203456116
       -0.0167840212  -0.0004829790  -0.0006949784   0.0005842935   0.0003112821
       -0.0010229639   0.0009745052   0.0000032085   0.0000467310   0.0000421185
       -0.0000047003   0.0000469968   0.0000218558   0.0000216855  -0.0000138027
        0.0000436078  -0.0000306537  -0.0000104920   0.0000310877   0.0000018002
        0.0000147121   0.0000094448  -0.0000023819   0.0000153099   0.0000133198
       -0.0000005083  -0.0000329922   0.0000070702   0.0000365232   0.0000017820
       -0.0000005042  -0.0000153555   0.0000060878   0.0000059842  -0.0000023569
        0.0000028440   0.0000262656   0.0000095439   0.0000129735   0.0000569933
       -0.0000342153   0.0000147394   0.0000472953   0.0000013639   0.0000060167
        0.0000285184   0.0000066211   0.0000033781  -0.0000053773  -0.0000112134
        0.0000027756  -0.0000117287   0.0000104696  -0.0000037572   0.0000170595
        0.0000116782  -0.0000069357   0.0000085252  -0.0000068759  -0.0000037827
        0.0000094513   0.0000011713   0.0000010411   0.0000015690  -0.0000002388
        0.0000016060   0.0000067385   0.0000079552  -0.0000007094   0.0000015723
       -0.0000005570  -0.0000022005  -0.0000026368  -0.0000037236  -0.0000019558
        0.0000026020   0.0000107719  -0.0000023314   0.0000087174  -0.0000058188
        0.0000002356   0.0000111607   0.0000020152  -0.0000064233   0.0000033364
       -0.0000029016  -0.0000036983   0.0000069819   0.0000029058  -0.0000021967
        0.0000044781  -0.0000028616  -0.0000002434   0.0000063917   0.0000000353
        0.0000013651   0.0000007036  -0.0000071737  -0.0000019729   0.0000202461
       -0.0000162234   0.0000022258  -0.0000066575  -0.0000005138   0.0000034076
       -0.0000152622  -0.0000276720   0.0000147892  -0.0000451066
       -0.0700476924  -0.0136137918   0.0095292185   0.5368589391  -0.0002423159
        0.0073091823  -0.0708653316   0.0111000563   0.0066857438   0.0005670419
       -0.0022746434  -0.0015278330   0.0002898661  -0.0005366760   0.0003921873
        0.0001979713  -0.0001323101  -0.0000886055  -0.0000256369  -0.0000459216
        0.0000368906   0.0000929364  -0.0011582375   0.0001671578  -0.0001057306
        0.0000141223  -0.0000337656  -0.0000405536   0.0000540089   0.0000117773
       -0.0000669453   0.0000355328   0.0000049264  -0.0000097799   0.0000709739
        0.0000440953   0.0002474304   0.0000287867  -0.0002638549   0.0001995565
       -0.0000256969   0.0001281564  -0.0000830899  -0.0000512545  -0.0002023955
       -0.0000300119  -0.0000282557  -0.0000887757  -0.0001941459   0.0000062499
       -0.0001158035   0.0000742834   0.0000087531   0.0000243134  -0.0002229170
        0.0000071573  -0.0000097475   0.0001096917  -0.0000038983   0.0000537059
       -0.0000665303   0.0000021662  -0.0000468472   0.0000319747  -0.0000011020
        0.0000367666  -0.0000063190   0.0000011682  -0.0000043802  -0.0000181524
        0.0000027605   0.0000113479  -0.0000084849  -0.0000123911   0.0000115202
       -0.0000010426  -0.0000008478  -0.0000215724  -0.0000002649   0.0000046149
       -0.0000126570  -0.0000030102   0.0000052592  -0.0000043861   0.0000069539
        0.0000029136  -0.0000067633  -0.0000022528  -0.0000121807  -0.0000119871
       -0.0000047306  -0.0000123181   0.0000003414  -0.0000001855  -0.0000086627
       -0.0000035387   0.0000989165   0.0000026418  -0.0000825078  -0.0001610998
       -0.0000001106  -0.0000677605   0.0002483874   0.0000004675  -0.0000527373
       -0.0002128725  -0.0000009042   0.0000805647   0.0001460215  -0.0000005434
       -0.0000554095  -0.0000507721  -0.0000021911   0.0001197037   0.0001073082
       -0.0000017666   0.0000514747  -0.0000569560  -0.0000002591   0.0000256213
       -0.0000708049  -0.0000559493   0.0001574250  -0.0000030009   0.0007113514
       -0.0002874556  -0.0058951374  -0.0229168385   0.0182819028   0.0019856438
        0.0167670252  -0.0134202078   0.0005868224   0.0019748669  -0.0014217573
       -0.2346362301   0.0061725038   0.0824875929  -0.1550541975  -0.0022193163
       -0.1121193599  -0.0056285186   0.0233054895   0.0176327612   0.0013960464
       -0.0168502254  -0.0133558336   0.0000046765   0.0000697754   0.0000598092
        0.0000974148  -0.0001001329  -0.0000801891   0.0000120844  -0.0000110503
        0.0000277987   0.0000204090   0.0000274520  -0.0000318972   0.0000103796
       -0.0000125299  -0.0000017397  -0.0000038048   0.0000099674  -0.0000074372
        0.0000082488  -0.0000251406  -0.0000024272   0.0000558693  -0.0000575946
       -0.0000212074   0.0000062748  -0.0000450737  -0.0000005186  -0.0000024304
       -0.0000254414   0.0000118246   0.0000172441  -0.0000187288  -0.0000104967
        0.0000125957   0.0000172691   0.0000489206   0.0000376423   0.0000233356
        0.0000220235   0.0000011374   0.0000047391  -0.0000197799  -0.0000047820
        0.0000026913  -0.0000142761  -0.0000021204   0.0000046409   0.0000156917
        0.0000032178  -0.0000007854   0.0000093720   0.0000004490  -0.0000019534
        0.0000030862   0.0000016987  -0.0000021023  -0.0000030606  -0.0000029817
       -0.0000000763  -0.0000039203  -0.0000000719  -0.0000012902   0.0000055087
       -0.0000045889  -0.0000060006  -0.0000020269  -0.0000000238  -0.0000047351
       -0.0000010120   0.0000047721   0.0000026000   0.0000096520  -0.0000005911
        0.0000007233   0.0000049739   0.0000004478   0.0000028121   0.0000007177
       -0.0000003212   0.0000041339  -0.0000004857   0.0000030639   0.0000002005
        0.0000064346  -0.0000006405   0.0000006725   0.0000038211  -0.0000022095
        0.0000033950   0.0000035098  -0.0000058465  -0.0000018241   0.0000165606
       -0.0000140623   0.0000006566  -0.0000088602  -0.0000049383   0.0000020125
       -0.0000179957   0.0000783937   0.0000671207  -0.0000008093
       -0.0133735936  -0.1504000792   0.0646262420  -0.0002423159   0.4513947968
       -0.0019329435   0.0116155845  -0.1473627024  -0.0625248017   0.0010538496
       -0.0257280748  -0.0068696943  -0.0004919184  -0.0035029679   0.0022315793
        0.0001228096  -0.0008492190  -0.0006777607  -0.0000294133  -0.0002556122
        0.0001327425   0.0002022590  -0.0006601819  -0.0003867842   0.0002516931
       -0.0001300732  -0.0000251658   0.0000729563  -0.0000682421  -0.0000561509
       -0.0000055774   0.0000048810   0.0000027124   0.0000998988  -0.0000747209
       -0.0000958303   0.0001438704  -0.0001369856  -0.0002164857  -0.0000594458
       -0.0001094279  -0.0002438774  -0.0000789990  -0.0000494708  -0.0001458309
        0.0000224336   0.0000087377   0.0000012216  -0.0000872746  -0.0000871354
       -0.0001003461   0.0000700967   0.0000062713   0.0000011585  -0.0001385191
        0.0000158161   0.0000058955   0.0001104131  -0.0000011790   0.0000274245
       -0.0000841748   0.0000084972  -0.0000834261   0.0000556269   0.0000012726
       -0.0000385723  -0.0000826893   0.0000013898  -0.0000034434   0.0000333183
        0.0000014378   0.0000552068  -0.0000552567  -0.0000079474   0.0000426464
        0.0000011274  -0.0000026003   0.0000039594  -0.0000035646  -0.0000107820
       -0.0000006567  -0.0000019842  -0.0000094817  -0.0000066112   0.0000017787
       -0.0000041598   0.0000051414  -0.0000083397  -0.0000011052  -0.0000007523
       -0.0000076933  -0.0000047196  -0.0000012345  -0.0000115449  -0.0000038234
       -0.0000021869   0.0000349971  -0.0000001116   0.0000110164  -0.0000605247
       -0.0000000900  -0.0000053560   0.0001137034  -0.0000025183  -0.0000162955
       -0.0001520667   0.0000028533   0.0000588209   0.0001028184  -0.0000005460
       -0.0000411159  -0.0000140428   0.0000017412   0.0000105316  -0.0000007130
        0.0000005452  -0.0000206926   0.0000420831   0.0000017747  -0.0000150376
       -0.0002370549  -0.0001523782  -0.0000967492   0.0000586690  -0.0006416156
       -0.0004200554  -0.0031200237  -0.0022660011   0.0030833344   0.0016504929
       -0.0027290614   0.0043495158  -0.0031016688  -0.0258226821   0.0145109619
        0.0063270030  -0.0409305139  -0.0034028941  -0.0023907998  -0.0407579752
       -0.0033188592   0.0030405012  -0.0045462293  -0.0041343413  -0.0013580916
       -0.0040903993  -0.0046562275   0.0000592117   0.0000113778   0.0001725071
       -0.0001234150   0.0000140599   0.0001411325  -0.0000415402   0.0000038016
       -0.0000409278   0.0000540201   0.0000019683  -0.0000287818  -0.0000250104
        0.0000006978   0.0000237687   0.0000197504   0.0000005179   0.0000333467
        0.0000120149  -0.0001072374  -0.0000664132  -0.0000817027  -0.0000239601
       -0.0000008501  -0.0000272808   0.0000133112   0.0000145287  -0.0000242912
        0.0000180691   0.0000173871  -0.0000217197  -0.0000007576   0.0000210848
        0.0000139770  -0.0000019878   0.0000252030   0.0000177156   0.0000130392
        0.0000212119   0.0000051155   0.0000012669   0.0000019572   0.0000076480
        0.0000015026   0.0000008271   0.0000096580  -0.0000014428   0.0000048742
       -0.0000001913   0.0000015507  -0.0000017652   0.0000029822   0.0000030301
       -0.0000009712  -0.0000005846   0.0000013620   0.0000026350   0.0000026361
        0.0000000479  -0.0000005645  -0.0000020400  -0.0000005005  -0.0000038953
        0.0000009389   0.0000073988   0.0000009907   0.0000034793  -0.0000000915
       -0.0000029695   0.0000016813  -0.0000012173   0.0000014525   0.0000041409
        0.0000011935   0.0000003503   0.0000020129   0.0000020901   0.0000077990
        0.0000036020   0.0000030882  -0.0000016111   0.0000052807   0.0000030076
        0.0000040766   0.0000045701  -0.0000002980  -0.0000003395   0.0000019766
        0.0000019754   0.0000058350   0.0000019329  -0.0000019246  -0.0000041977
        0.0000019988   0.0000011569  -0.0000021247   0.0000007368   0.0000020170
        0.0000032118   0.0000800016  -0.0000173138   0.0000312997
        0.0095311808   0.0657713162  -0.1137738749   0.0073091823  -0.0019329435
        0.5007850269   0.0066996593  -0.0600654763  -0.1063695602  -0.0013054304
        0.0099271853   0.0076135744   0.0003840928   0.0025700621  -0.0013656944
       -0.0000773914   0.0006272764   0.0005789617   0.0000352578   0.0002262298
       -0.0001937802  -0.0003819152   0.0008835233   0.0005239956   0.0000209799
        0.0000803232  -0.0001653139  -0.0000685771  -0.0000502135   0.0000933911
       -0.0000779509  -0.0000195170  -0.0001339227  -0.0000807013  -0.0000121480
        0.0000735472  -0.0002373856   0.0000589326   0.0002854524   0.0001156490
       -0.0000124440   0.0005668892   0.0000820444  -0.0000154769   0.0000665216
       -0.0000239458  -0.0000471270  -0.0000149757   0.0000905173  -0.0000554371
       -0.0000083901  -0.0001030241   0.0000226117  -0.0000091091   0.0001125220
        0.0000120499   0.0000012680  -0.0000519647  -0.0000115573  -0.0000409035
        0.0000279034  -0.0000074993   0.0000838689   0.0000327490  -0.0000063981
       -0.0000131414  -0.0000771746  -0.0000024448   0.0000162059   0.0000493833
        0.0000030004  -0.0000070163  -0.0000285457  -0.0000157619  -0.0000517859
        0.0000008328   0.0000030067  -0.0000016439  -0.0000027547   0.0000081030
       -0.0000120931   0.0000059342  -0.0000070240   0.0000149582   0.0000046533
       -0.0000030431   0.0000025453  -0.0000043988  -0.0000046806  -0.0000189098
        0.0000023083   0.0000056360   0.0000058983   0.0000001866   0.0000103528
       -0.0000158278  -0.0001121551   0.0000003629   0.0000599314   0.0001750506
        0.0000026462   0.0000103350  -0.0002538822   0.0000002917   0.0000619419
        0.0003240315   0.0000032952  -0.0001256591  -0.0002141593   0.0000011978
        0.0000820165   0.0000918332  -0.0000033292  -0.0000872173  -0.0001081853
       -0.0000076201   0.0000060080   0.0001271944  -0.0000017645  -0.0000297232
       -0.0000380703   0.0000500534  -0.0001649846   0.0002164187   0.0012006996
        0.0004224244   0.0050667380   0.0118212693  -0.0099321339   0.0000136652
        0.0195893151  -0.0173830248  -0.0016856195  -0.0115226178   0.0083796256
        0.0829609633  -0.0035146234  -0.0828540081  -0.1125647427  -0.0033815615
       -0.1620229525   0.0046889171  -0.0122973880  -0.0089635898  -0.0006681772
       -0.0202070615  -0.0164419020   0.0001230210   0.0000835973   0.0001292285
       -0.0001368427   0.0000497963   0.0000417459  -0.0000256448  -0.0000427354
        0.0000240158   0.0000199539  -0.0000397823   0.0000162863  -0.0000323322
        0.0000068208   0.0000130534   0.0000234545   0.0000102490   0.0000262056
       -0.0000048348   0.0001171379   0.0000256067   0.0000378040  -0.0000027073
        0.0000553469   0.0000502687   0.0000210708   0.0000240100   0.0000438493
        0.0000065644   0.0000139645   0.0000356915   0.0000050434   0.0000021054
       -0.0000264596   0.0000170244  -0.0000018349  -0.0000370244   0.0000129722
        0.0000012716   0.0000004755  -0.0000087000  -0.0000148526  -0.0000148785
       -0.0000098780  -0.0000067377  -0.0000010855   0.0000039368   0.0000260342
        0.0000062939   0.0000028197   0.0000115856  -0.0000064448   0.0000054926
        0.0000103251   0.0000003210   0.0000098247   0.0000092798  -0.0000061992
        0.0000083090   0.0000127042  -0.0000005167   0.0000080927   0.0000150574
       -0.0000033171   0.0000034958   0.0000126416  -0.0000013664   0.0000067357
        0.0000106202   0.0000090411   0.0000089868   0.0000041216  -0.0000058531
        0.0000097630   0.0000038779   0.0000016544  -0.0000084711  -0.0000045244
       -0.0000025472  -0.0000046133  -0.0000045632   0.0000030186   0.0000061949
       -0.0000074256  -0.0000017934   0.0000067438  -0.0000098624   0.0000007227
        0.0000061725  -0.0000130298  -0.0000061704   0.0000042567   0.0000096200
       -0.0000109843  -0.0000052563  -0.0000035314   0.0000019540  -0.0000074258
       -0.0000066825  -0.0000369257   0.0000348863   0.0000410871
        0.0004625526  -0.0025349301  -0.0013991465  -0.0708653316   0.0116155845
        0.0066996593   0.5329537518  -0.0033314908   0.0104001571  -0.0627168089
       -0.0124847728   0.0060885487   0.0012907242   0.0017301656  -0.0007357195
        0.0003018594   0.0004298907   0.0003684709   0.0000295917   0.0001151899
       -0.0000720264  -0.0069706585  -0.0199954983   0.0159723118  -0.0004373326
        0.0003050966   0.0005422764   0.0002754306   0.0011151209  -0.0001986791
        0.0000846209  -0.0000584014   0.0002986093  -0.0002115469   0.0010042939
        0.0007073691  -0.0024595762   0.0002772725   0.0013939420  -0.0015207776
       -0.0004031246  -0.0018220086   0.0002690739  -0.0006813533  -0.0004258492
       -0.0000518590   0.0000369048  -0.0001673427   0.0001855175  -0.0008505726
        0.0004439990   0.0000020565   0.0000180433  -0.0000839681   0.0000440404
        0.0000234403  -0.0000207559  -0.0000438531   0.0000035452   0.0000123332
        0.0000041999   0.0000128695   0.0000331721   0.0000086816   0.0000004652
        0.0000114066  -0.0000337014  -0.0000005926   0.0000191566   0.0000002599
       -0.0000015194  -0.0000008152  -0.0000211450  -0.0000241421  -0.0000166869
       -0.0000010593   0.0000004238  -0.0000079208   0.0000030223   0.0000059176
       -0.0000027519   0.0000044141   0.0000022853   0.0000076233   0.0000096730
        0.0000017806   0.0000094272   0.0000010135  -0.0000101721  -0.0000031572
        0.0000027570  -0.0000073401   0.0000087144   0.0000048500  -0.0000044229
        0.0000012930  -0.0000191482  -0.0000033257   0.0000074557   0.0000468549
       -0.0000004951  -0.0000101059  -0.0000669154  -0.0000038867   0.0000248126
        0.0001121704   0.0000053321  -0.0000525947  -0.0000739721  -0.0000043862
        0.0000311555   0.0000308429   0.0000019858  -0.0000157580  -0.0000223665
        0.0000002367   0.0000181922   0.0000496632   0.0000007590  -0.0000055159
       -0.0005841903  -0.0002520159  -0.0008115683   0.0018014949   0.0142779727
       -0.0105469339   0.0005154413  -0.0010006215  -0.0004047619   0.0002315469
        0.0006314556   0.0002323125   0.0005020508  -0.0008537330   0.0003312093
       -0.0053305705   0.0239779630   0.0170846203   0.0013022883  -0.0174510429
       -0.0129938061  -0.2351640750   0.0039837198   0.0832461231  -0.1537435076
       -0.0000467345  -0.1137914694   0.0002049227  -0.0005564302   0.0001691362
        0.0004216422   0.0010085852  -0.0002925184  -0.0000409395  -0.0000807456
       -0.0000069565  -0.0000047594   0.0001077525  -0.0000382289   0.0000085495
       -0.0000035804  -0.0000130385   0.0000156089  -0.0000063364   0.0000160060
       -0.0000029419   0.0000640196   0.0000166310  -0.0002207392  -0.0006034253
        0.0001362492  -0.0000248361  -0.0001094475   0.0000056948   0.0000063100
       -0.0002069969   0.0000223423  -0.0001452443   0.0000819745   0.0001443328
       -0.0000709178  -0.0000218512  -0.0001784727   0.0000132636   0.0001323565
       -0.0000350337   0.0000093233   0.0000010364  -0.0000189263  -0.0000072780
       -0.0000014578  -0.0000154759  -0.0000148843   0.0000058388   0.0000062217
       -0.0000020498  -0.0000023139  -0.0000003877  -0.0000078983  -0.0000015464
        0.0000044924  -0.0000006395   0.0000030963   0.0000017131  -0.0000039691
        0.0000007332  -0.0000092803  -0.0000005722  -0.0000056128   0.0000011812
       -0.0000026276  -0.0000023775   0.0000034288  -0.0000005059  -0.0000040462
       -0.0000006579   0.0000002256   0.0000083225  -0.0000000737  -0.0000082894
        0.0000040123   0.0000048009  -0.0000017137  -0.0000027473   0.0000021036
       -0.0000015983   0.0000011757  -0.0000080176   0.0000033303   0.0000068928
        0.0000008789  -0.0000047713   0.0000038712  -0.0000007857  -0.0000013731
        0.0000059570   0.0000037708  -0.0000099999  -0.0000003607   0.0000081744
       -0.0000120225  -0.0000001314  -0.0000086851  -0.0000009116   0.0000002029
       -0.0000126196  -0.0002837422   0.0006004401  -0.0003130088
        0.0014526717  -0.0296152861  -0.0088346164   0.0111000563  -0.1473627024
       -0.0600654763  -0.0033314908   0.4349551045   0.0114732361  -0.0100257666
       -0.1250171461   0.0473203122  -0.0021105358  -0.0311802150   0.0087755085
        0.0004762854  -0.0033254413  -0.0026441718  -0.0001185117  -0.0010885444
        0.0005315927  -0.0072942444  -0.0020008617   0.0060594040   0.0011684367
       -0.0000445790  -0.0000319342  -0.0002159217   0.0000467281   0.0004259544
       -0.0000904320   0.0000268615  -0.0002232342  -0.0000207571  -0.0000200641
        0.0001588221  -0.0003856484  -0.0009337905  -0.0012585190   0.0007795074
       -0.0008650023  -0.0009532963   0.0000029901  -0.0000752752   0.0001769895
        0.0000470946  -0.0000133846  -0.0000874284   0.0000639520   0.0001182853
        0.0003266878  -0.0001464937  -0.0000077434  -0.0000257403   0.0002154654
       -0.0000052210  -0.0000011450  -0.0001700468   0.0000035182  -0.0000283742
        0.0000923332  -0.0000127942   0.0001246762  -0.0000710767  -0.0000017926
        0.0000696096   0.0001194243   0.0000020096  -0.0000034088  -0.0000582898
        0.0000049901  -0.0000766227   0.0000500957   0.0000114873  -0.0000973829
        0.0000018471  -0.0000057322  -0.0000021031  -0.0000006301  -0.0000026412
       -0.0000094223   0.0000051831  -0.0000143376   0.0000088004   0.0000078750
       -0.0000080385   0.0000126067  -0.0000053981  -0.0000074102  -0.0000105394
       -0.0000011377   0.0000022562   0.0000133585  -0.0000045236   0.0000034838
        0.0000011929  -0.0000345374  -0.0000017907  -0.0000329982   0.0000453663