$hessian                                                                        
        0.4867825404   0.0156250898   0.0431094082  -0.1099555769   0.0153240422
        0.0552573630   0.0010627421  -0.0006094879   0.0017286911   0.0011304565
        0.0073590486   0.0030068710  -0.0012800611  -0.0012325072  -0.0004070084
        0.0001722859   0.0006021792   0.0000343581   0.0000053101  -0.0001242424
       -0.0001891834   0.0000934918   0.0003504666   0.0001270585  -0.0005851825
       -0.0008314816   0.0001088243   0.0007967059   0.0014993842   0.0006116476
        0.0001662895  -0.0001015164  -0.0000586741  -0.0000407071   0.0000212881
        0.0000349264   0.0000092769   0.0000128590  -0.0000069467  -0.0000077467
        0.0000341363  -0.0000266690   0.0000274267  -0.0000388855   0.0000064709
       -0.0000203360   0.0000215130   0.0000345546  -0.0000031336   0.0000022649
        0.0000067413  -0.0000040379  -0.0000027328  -0.0000001917  -0.0000041899
        0.0000037332   0.0000011686   0.0000067975   0.0000001424   0.0000054968
       -0.0000057934   0.0000008752  -0.0000001515   0.0000086891   0.0000029985
       -0.0000008173  -0.0000209390   0.0000097544   0.0000031101  -0.0000001283
       -0.0000097461  -0.0000008936  -0.0000040478   0.0000066782  -0.0000008548
        0.0000095256  -0.0000024602  -0.0000073562  -0.0000052496   0.0000040318
        0.0000019846  -0.0000008585  -0.0000006337   0.0000004218   0.0000003919
        0.0000019479   0.0000000888   0.0000022553  -0.0000003319  -0.0000005982
       -0.0000011650   0.0000003578   0.0000011979  -0.0000013506   0.0000013155
       -0.0000006995  -0.0000065148  -0.0000019333   0.0000011815   0.0000016771
       -0.0000015574  -0.0000022137  -0.0000029814   0.0000015851  -0.0000001820
        0.0000020414  -0.0000007395  -0.0000023012  -0.0000036807   0.0000049651
        0.0000010128   0.0000200403  -0.0000072671  -0.0000072054  -0.0000004396
       -0.0000013421  -0.0000000138   0.0000004159  -0.0000023310   0.0000009102
       -0.0000091380   0.0000059562  -0.0000000151   0.0000246318  -0.0000783450
        0.0000129529  -0.0000070634   0.0000266165  -0.0000241678  -0.0000073469
        0.0000373567   0.0000053455  -0.0022321412  -0.0039765185  -0.0001388634
       -0.0001485442   0.0006364855  -0.0013440937  -0.0001098594   0.0000524717
       -0.0001280876   0.0001845217   0.0005906099  -0.0007411019  -0.0007391905
        0.0006424092   0.0010622226  -0.0320304886   0.0045972193   0.0140408804
       -0.0518651456   0.0225357927  -0.0382682817  -0.2484265666  -0.0483322202
       -0.0722803443  -0.0428536463  -0.0141919540  -0.0038130997   0.0001502186
        0.0000981196  -0.0003039356   0.0004978597   0.0003554583  -0.0007708982
        0.0006528735  -0.0000355817  -0.0008405834  -0.0000924521  -0.0007531797
       -0.0006786581  -0.0000580508  -0.0000365916   0.0000537390   0.0000169110
       -0.0000298442   0.0000104741   0.0000036171  -0.0000388324   0.0000234623
       -0.0000092523   0.0000103063  -0.0000103731  -0.0000126147   0.0000120018
       -0.0000066109   0.0000207165  -0.0000069648  -0.0000373080  -0.0000033069
       -0.0000042651  -0.0000065200   0.0000126609   0.0000059270   0.0000047752
       -0.0000074201   0.0000065820   0.0000040168  -0.0000016787   0.0000044511
        0.0000028359  -0.0000028149   0.0000030588   0.0000011301  -0.0000020588
       -0.0000021487  -0.0000002976   0.0000041858   0.0000018055  -0.0000022753
        0.0000034568  -0.0000067129   0.0000014212   0.0000029078   0.0000042691
        0.0000057389   0.0000001285  -0.0000003461   0.0000011911  -0.0000034010
       -0.0000021511   0.0000014890  -0.0000030813   0.0000002954  -0.0000003341
        0.0000005847  -0.0000002949  -0.0000009781   0.0000006373  -0.0000008612
       -0.0000001181  -0.0000001141   0.0000002271  -0.0000013310  -0.0000031540
        0.0000007056   0.0000010386   0.0000005506   0.0000000600  -0.0000000624
       -0.0000022257  -0.0000004841  -0.0000003376  -0.0000029184   0.0000006128
       -0.0000007061  -0.0000018604   0.0000022261  -0.0000005951   0.0000011102
       -0.0000004736  -0.0000011928  -0.0000027015   0.0000003219  -0.0000025337
       -0.0000017856   0.0000013581  -0.0000022730  -0.0002633351  -0.0000563232
       -0.0000115978  -0.0000879975  -0.0000137476   0.0001977027   0.0000245209
        0.0000252939   0.0000071646  -0.0009549783  -0.0000116184   0.0006084669
        0.0156250898   0.5211498016  -0.0125833376   0.0176851149  -0.0667514969
       -0.0227310031  -0.0076226204   0.0028158985   0.0107499248   0.0182687330
       -0.0169443535  -0.0206592072   0.0008158046  -0.0004454314  -0.0009587093
        0.0002228922  -0.0001545471   0.0009112989  -0.0001540124  -0.0001897880
       -0.0000312800   0.0002452660  -0.0005911932   0.0013555576  -0.0025266647
       -0.0032687924  -0.0024385646   0.0012497647   0.0014022719   0.0007162492
       -0.0001141681   0.0000866117   0.0000290598   0.0000224592   0.0000146547
       -0.0000164967  -0.0000098538   0.0000024734   0.0000007199   0.0000109673
       -0.0000027477   0.0000124354  -0.0000112014   0.0000067129  -0.0000096578
        0.0000091698  -0.0000092574   0.0000356929   0.0000016321  -0.0000078053
       -0.0000000923   0.0000020012  -0.0000006299  -0.0000046359   0.0000029411
        0.0000027415  -0.0000042557  -0.0000046665   0.0000022459  -0.0000114071
        0.0000085005   0.0000022703   0.0000053978  -0.0000051800  -0.0000052352
        0.0000006454   0.0000018641   0.0000148412   0.0000040362   0.0000050958
       -0.0000178849  -0.0000045460  -0.0000025028  -0.0000017990   0.0000005647
        0.0000041107  -0.0000003802  -0.0000025344  -0.0000022480   0.0000044718
        0.0000012670   0.0000040338  -0.0000042159  -0.0000024950   0.0000020184
        0.0000050557   0.0000004166  -0.0000009036   0.0000006495  -0.0000000444
       -0.0000003725   0.0000002212  -0.0000003625  -0.0000004371  -0.0000003442
        0.0000001177  -0.0000011905  -0.0000015722   0.0000004877   0.0000021184
       -0.0000006785  -0.0000002326   0.0000010103  -0.0000000723   0.0000003661
       -0.0000014518   0.0000001152   0.0000013318  -0.0000000258  -0.0000002460
        0.0000009256  -0.0000011591   0.0000004319  -0.0000008785   0.0000014003
        0.0000038884   0.0000000245   0.0000023242   0.0000037637   0.0000001272
        0.0000090495  -0.0000036638   0.0000083117  -0.0000623311  -0.0000120058
       -0.0000591276   0.0000134842   0.0000008668   0.0000341428   0.0000235498
        0.0000070785   0.0000170801  -0.0006682884  -0.0013616987  -0.0005069960
        0.0002017157   0.0002215199  -0.0001657778  -0.0002356462  -0.0000309130
        0.0000536816   0.0004541653   0.0003426623   0.0001823672  -0.0009367837
       -0.0010653200  -0.0005824880  -0.0012395270   0.0036137220   0.0035018770
        0.0224219821  -0.1082692346   0.1034482399  -0.0482666191  -0.0542594745
       -0.0158237219  -0.0139002350  -0.2749436788  -0.0469320320  -0.0006438244
        0.0006306598   0.0005279241   0.0000183023  -0.0009443546   0.0032385571
       -0.0002420224   0.0002406093  -0.0002063281   0.0004208320  -0.0005913132
       -0.0009238228  -0.0000048818   0.0000013095   0.0000397113   0.0000891209
        0.0000347628  -0.0002058644   0.0000440636  -0.0002511836  -0.0001884383
       -0.0000017194  -0.0000208015  -0.0000179951   0.0000065994  -0.0000097580
       -0.0000005852  -0.0000103967  -0.0000149007   0.0000019223  -0.0000012783
       -0.0000052533   0.0000057145   0.0000020897   0.0000009655   0.0000002049
        0.0000045078  -0.0000005542  -0.0000012101   0.0000048217  -0.0000009968
       -0.0000026363  -0.0000022408   0.0000013937  -0.0000014969  -0.0000016722
        0.0000009125   0.0000077585  -0.0000001571  -0.0000017154  -0.0000011302
       -0.0000007128  -0.0000039740  -0.0000009296  -0.0000023938   0.0000027026
        0.0000016402   0.0000004224   0.0000005655  -0.0000006922  -0.0000004837
        0.0000006508  -0.0000001973  -0.0000000502  -0.0000001769   0.0000000970
        0.0000002901  -0.0000005731   0.0000004934   0.0000007160   0.0000008479
       -0.0000000618   0.0000003306  -0.0000010851  -0.0000002673   0.0000000582
       -0.0000005113   0.0000000038   0.0000007703   0.0000006234  -0.0000003691
        0.0000008240  -0.0000001521   0.0000000594   0.0000008006  -0.0000002575
        0.0000003598   0.0000001872  -0.0000007171   0.0000004709  -0.0000006481
       -0.0000002854   0.0000004746   0.0000021810   0.0000000480   0.0000008988
       -0.0000003694  -0.0000009208  -0.0000001081  -0.0000452731  -0.0000092348
       -0.0000669045  -0.0000382318   0.0000173860   0.0000298219   0.0000135747
       -0.0000212843  -0.0000710116  -0.0011643064  -0.0004139440   0.0002914735
        0.0431094082  -0.0125833376   0.4763787259   0.0498789537  -0.0184064979
       -0.1140590413   0.0176188731  -0.0024215834  -0.0263432645   0.0057397915
       -0.0095613557  -0.0060962150   0.0002035952   0.0001426245   0.0001051655
        0.0001586662  -0.0000603191   0.0002834856   0.0001116940  -0.0001379491
        0.0000128246  -0.0000378019  -0.0004031950   0.0002656035  -0.0009563495
        0.0001488363  -0.0010179478   0.0005184686   0.0008312527   0.0001070259
        0.0000915012  -0.0001393521   0.0001283962  -0.0000449408   0.0000258079
        0.0000111724   0.0000320791  -0.0000196512   0.0000017259  -0.0000124178
        0.0000226524  -0.0000148473   0.0000286000  -0.0000466646   0.0000123775
       -0.0000597788   0.0000551349  -0.0000119938   0.0000024630   0.0000076814
       -0.0000032437  -0.0000118204  -0.0000024974   0.0000009455  -0.0000056402
        0.0000007787   0.0000025599   0.0000008204  -0.0000024477   0.0000014141
       -0.0000031514   0.0000012509  -0.0000010904   0.0000061084   0.0000033395
       -0.0000011146  -0.0000138735   0.0000083863   0.0000068499   0.0000019929
       -0.0000090157  -0.0000023371  -0.0000015222  -0.0000024871  -0.0000021376
        0.0000051698   0.0000011973  -0.0000045496  -0.0000031033   0.0000029596
        0.0000010001   0.0000031752  -0.0000036670  -0.0000018417   0.0000034994
        0.0000044601   0.0000000358  -0.0000002627   0.0000000429   0.0000001665
       -0.0000011965  -0.0000003502  -0.0000004650  -0.0000013368  -0.0000007569
        0.0000008950  -0.0000029803  -0.0000008611   0.0000013003   0.0000019664
       -0.0000005433  -0.0000002881   0.0000003808   0.0000002690   0.0000008058
        0.0000024830  -0.0000016107  -0.0000003203  -0.0000022601   0.0000029670
        0.0000019931   0.0000152706  -0.0000046794  -0.0000055027   0.0000031720
       -0.0000016559   0.0000027343   0.0000029675  -0.0000030112   0.0000045369
       -0.0000027465   0.0000054602  -0.0000011070   0.0000330037  -0.0000550055
        0.0000196449   0.0000014916   0.0000111179  -0.0000179993  -0.0000017261
        0.0000182085   0.0000079139  -0.0015925109  -0.0010418698  -0.0009760120
        0.0003013308   0.0003803303  -0.0002173956  -0.0000290889  -0.0001493066
        0.0000167950   0.0002998517   0.0001624603  -0.0000324005  -0.0009996028
       -0.0006576226   0.0000461767  -0.0005260948   0.0023990899   0.0058511694
       -0.0379171325   0.1031468897  -0.2099201800  -0.0730620406  -0.0158386918
       -0.0677278531  -0.0038767171  -0.0462361554  -0.0525858220   0.0001959783
       -0.0008991402   0.0008723929   0.0000097847   0.0026079598  -0.0054045379
        0.0008202498  -0.0005537785   0.0008108268   0.0002661324  -0.0005669610
       -0.0005764074   0.0000130076   0.0000053031  -0.0000042128   0.0000348055
        0.0000174526  -0.0000497128  -0.0000370284  -0.0000521269   0.0000203035
        0.0000009761   0.0000276614  -0.0000152738  -0.0000004300  -0.0000026269
        0.0000009318   0.0000011418  -0.0000056447  -0.0000126451   0.0000030783
        0.0000019437  -0.0000021568   0.0000066385   0.0000026583  -0.0000075179
       -0.0000016784  -0.0000014385   0.0000023931  -0.0000000209  -0.0000007072
        0.0000016477   0.0000026902  -0.0000023007  -0.0000014523   0.0000015262
        0.0000008650   0.0000002802   0.0000005843  -0.0000005552  -0.0000018546
       -0.0000003222  -0.0000037336   0.0000007478  -0.0000024532   0.0000026694
        0.0000034766   0.0000009518  -0.0000000607  -0.0000004538  -0.0000011179
       -0.0000000293   0.0000000405  -0.0000003318   0.0000002746   0.0000004500
        0.0000011103  -0.0000000131   0.0000012247   0.0000010982   0.0000007994
       -0.0000000851   0.0000007437  -0.0000002332  -0.0000008410   0.0000002014
       -0.0000001081   0.0000003645   0.0000010356   0.0000001728  -0.0000008073
        0.0000004287  -0.0000003019   0.0000002026   0.0000002381  -0.0000000614
        0.0000006527   0.0000006378  -0.0000000972   0.0000005322   0.0000000507
       -0.0000015182   0.0000001802   0.0000004037  -0.0000009530   0.0000003935
        0.0000019783  -0.0000005309   0.0000015924  -0.0001342028   0.0000098033
        0.0000184059  -0.0000448987  -0.0000074662   0.0000503757   0.0000187741
       -0.0000095665  -0.0000576767  -0.0001724434  -0.0001586678   0.0001197503
       -0.1099555769   0.0176851149   0.0498789537   0.4694078772   0.0163177299
        0.0187149436  -0.0620227075   0.0056268299  -0.0133832948  -0.0642482336
       -0.0118517219  -0.0054311192  -0.0039277419  -0.0250614925  -0.0058540073
       -0.0037966907  -0.0002212647  -0.0035544583   0.0006691610   0.0003617232
        0.0002981537  -0.0030517083   0.0020298355  -0.0028327619   0.0039084453
        0.0199519883   0.0045438680   0.0003562856  -0.0033703858   0.0006470302
       -0.0001088885   0.0000154426  -0.0000888329   0.0001109038  -0.0001365531
        0.0000420201   0.0000115889  -0.0000299744   0.0000383288   0.0000355265
       -0.0000343382   0.0000159607  -0.0000033672   0.0000002261   0.0000148811
        0.0001266800  -0.0000774437  -0.0000508404   0.0000111794   0.0000058615
        0.0000066919   0.0000008759  -0.0000086495   0.0000025072  -0.0000028109
        0.0000005733   0.0000068897  -0.0000077596  -0.0000053523  -0.0000123453
        0.0000138800  -0.0000009653   0.0000060601  -0.0000258375  -0.0000127515
       -0.0000039812   0.0000339086  -0.0000036324  -0.0000122303  -0.0000048365
        0.0000053591   0.0000028996  -0.0000011670   0.0000145596   0.0000075851
        0.0000016670  -0.0000108460   0.0000014784   0.0000020485  -0.0000050305
        0.0000013993  -0.0000084872   0.0000082977   0.0000045063  -0.0000076772
       -0.0000093084  -0.0000000029   0.0000024571  -0.0000005585  -0.0000043112
        0.0000022833   0.0000008688   0.0000002767  -0.0000000191   0.0000015794
       -0.0000025553   0.0000058373   0.0000009704  -0.0000034018  -0.0000064850
        0.0000022594   0.0000011583  -0.0000021879   0.0000007772  -0.0000015462
       -0.0000048006   0.0000046145   0.0000004840   0.0000026486  -0.0000051926
       -0.0000033358  -0.0000320583   0.0000126583   0.0000075250   0.0000007419
        0.0000060829  -0.0000010819  -0.0000059084   0.0000003677  -0.0000056762
        0.0000108484  -0.0000058339   0.0000038132  -0.0000467089   0.0000809101
       -0.0000331351   0.0000080482  -0.0000170801   0.0000421970   0.0000009245
       -0.0000444015  -0.0000130150  -0.0244449856   0.0021655396  -0.0087853766
        0.0000253120   0.0035302410  -0.0015395980  -0.0007441841  -0.0005396514
       -0.0003534733   0.0019622213  -0.0001626095  -0.0015099403  -0.0101590112
       -0.0121538131  -0.0051724620  -0.1651604943  -0.0244494919  -0.0415563427
        0.0019163253  -0.0014274945  -0.0003746634  -0.0239349245   0.0062228103
        0.0184894316  -0.0003797681   0.0022225407   0.0004939205   0.0002269023
       -0.0004608459   0.0018313223   0.0023985907  -0.0093174755   0.0166817825
       -0.0073604062   0.0128036892  -0.0238639553  -0.0000083653  -0.0004709034
        0.0008548819  -0.0003797660  -0.0012378554  -0.0004338459  -0.0001458332
       -0.0001309198   0.0004646957  -0.0001056182   0.0010666271   0.0004185685
       -0.0000115706   0.0000096145   0.0000343209   0.0000063700  -0.0000032450
        0.0000026774  -0.0000590814   0.0000383045   0.0000083516  -0.0000108500
        0.0000156027   0.0000165252  -0.0000153416  -0.0000068988   0.0000010429
        0.0000054171   0.0000044138   0.0000031640  -0.0000025932   0.0000041904
        0.0000006771   0.0000007740   0.0000014978   0.0000030099  -0.0000018054
        0.0000087861   0.0000001231  -0.0000059310   0.0000039130  -0.0000017710
        0.0000036461   0.0000008697  -0.0000033395   0.0000030774   0.0000007968
       -0.0000044356  -0.0000031848   0.0000036367   0.0000010044   0.0000012257
        0.0000003903   0.0000001471   0.0000000810   0.0000004671  -0.0000011313
       -0.0000020558  -0.0000006864  -0.0000015181  -0.0000018034   0.0000004990
        0.0000005908  -0.0000037613   0.0000015462   0.0000012492  -0.0000002505
        0.0000010202  -0.0000007986  -0.0000032454   0.0000012165   0.0000009027
       -0.0000002762   0.0000021818  -0.0000018472  -0.0000002550   0.0000000202
       -0.0000037872  -0.0000020246   0.0000001116  -0.0000027442  -0.0000005870
        0.0000028372  -0.0000013936   0.0000011232   0.0000013143   0.0000013306
       -0.0000008269  -0.0000007186   0.0000006939  -0.0007026771  -0.0003165150
       -0.0001547352   0.0000296277  -0.0000009096   0.0004947294  -0.0000469316
        0.0002041680  -0.0000698189  -0.0003344427   0.0011393344   0.0010341558
        0.0153240422  -0.0667514969  -0.0184064979   0.0163177299   0.4795282000
        0.0156620208   0.0079511699  -0.0887911178   0.0453595021  -0.0092866023
       -0.1814981923  -0.0251062532  -0.0111468052  -0.0165542064  -0.0065020274
       -0.0010403328   0.0013754650  -0.0011243452  -0.0003631852  -0.0008534232
       -0.0002955106   0.0031354595   0.0001548551   0.0000714700   0.0067243521
       -0.0241352386  -0.0024582377  -0.0034001099  -0.0003263074  -0.0007628566
        0.0000069762  -0.0001431875  -0.0000216970  -0.0000821147   0.0000736601
       -0.0000933670   0.0000096680   0.0000014192  -0.0000060629  -0.0000581133
        0.0000093385   0.0000112325  -0.0000125581   0.0000277935  -0.0000013353
       -0.0001645947   0.0000703814  -0.0000107340  -0.0000141202   0.0000121628
       -0.0000103172  -0.0000025439  -0.0000010148   0.0000035502  -0.0000064736
       -0.0000107065   0.0000001399   0.0000051124   0.0000058083   0.0000067525
       -0.0000105996  -0.0000036017  -0.0000062281   0.0000241952   0.0000180827
       -0.0000018956  -0.0000153118  -0.0000250101   0.0000040002  -0.0000052421
        0.0000225140  -0.0000005403   0.0000043340  -0.0000073189  -0.0000012973
       -0.0000007119   0.0000048904   0.0000007902   0.0000009956   0.0000000145
       -0.0000015401   0.0000022385   0.0000009857  -0.0000009495   0.0000001212
       -0.0000034754  -0.0000009827   0.0000005589   0.0000011896  -0.0000008098
        0.0000003277   0.0000006419   0.0000000452   0.0000004152  -0.0000008795
       -0.0000004631  -0.0000020298   0.0000008860   0.0000021703   0.0000026220
        0.0000011824   0.0000001960   0.0000032432  -0.0000004073   0.0000011714
        0.0000033678  -0.0000015331   0.0000011299   0.0000011833   0.0000039951
        0.0000024685   0.0000103537  -0.0000054946   0.0000004059   0.0000001736
       -0.0000079877   0.0000009024   0.0000102243  -0.0000032414   0.0000104479
       -0.0000186914  -0.0000025374   0.0000000341   0.0001059066  -0.0000098677
        0.0000304068  -0.0000222929  -0.0000075691  -0.0000208468  -0.0000218519
        0.0000098580   0.0000058260   0.0154089460   0.0077619282   0.0064370840
        0.0024235404  -0.0031531948  -0.0006572806   0.0001471510   0.0006536837
        0.0001486089   0.0005144751  -0.0049301608  -0.0016478075  -0.0260439261
       -0.0099917949  -0.0107432875  -0.0268686014  -0.0708626971  -0.0117467546
       -0.0091851226   0.0032561752   0.0099991639  -0.0034370526   0.0013145010
        0.0041724404   0.0192037380  -0.0109081843  -0.0210222285   0.0045365759
       -0.0197238044   0.0245878299  -0.0015308735   0.0030580849  -0.0039817354
        0.0004994644   0.0022556664  -0.0034186587   0.0011753610   0.0000212678
        0.0008848092   0.0001705440  -0.0002404762  -0.0000741669  -0.0000227135
        0.0001737810   0.0002583907  -0.0002200795  -0.0006303548  -0.0001138669
        0.0000389163  -0.0000336668   0.0000212831   0.0000055806   0.0000057118
        0.0000066835   0.0000193927   0.0000029157   0.0000276850   0.0000096696
        0.0000013655  -0.0000009286  -0.0000079245  -0.0000065660  -0.0000003793
        0.0000007901  -0.0000033638   0.0000007969  -0.0000005442   0.0000001950
        0.0000036697   0.0000050199  -0.0000026471  -0.0000029981   0.0000053679
       -0.0000019343   0.0000008346  -0.0000011653  -0.0000034119   0.0000031539
       -0.0000056610   0.0000024633   0.0000004647  -0.0000026714  -0.0000069165
       -0.0000035407   0.0000004924  -0.0000011193  -0.0000028829  -0.0000011595
       -0.0000007969  -0.0000012404  -0.0000002997   0.0000015856   0.0000006098
        0.0000002052   0.0000014905   0.0000007376  -0.0000003955   0.0000003190
       -0.0000006968   0.0000008259  -0.0000001093   0.0000000107   0.0000004228
        0.0000003472   0.0000003759  -0.0000000978  -0.0000012244  -0.0000006866
        0.0000002255  -0.0000002741   0.0000012346   0.0000007394   0.0000007520
        0.0000022452   0.0000025654   0.0000001256   0.0000019604   0.0000003521
       -0.0000021018   0.0000011634  -0.0000010314  -0.0000002334   0.0000005116
        0.0000024152   0.0000014082   0.0000009526   0.0009681123   0.0000699313
        0.0005373377  -0.0000861775  -0.0000193770   0.0002258382  -0.0011903749
       -0.0006030704  -0.0005847658  -0.0005055031   0.0003642725   0.0003381622
        0.0552573630  -0.0227310031  -0.1140590413   0.0187149436   0.0156620208
        0.4355401978  -0.0185161270   0.0497488644  -0.1399794924  -0.0054152881
       -0.0249770235  -0.0605600244  -0.0030537367  -0.0113058382  -0.0036107477
       -0.0036811552  -0.0014201103   0.0052281658  -0.0001326350  -0.0000579798
       -0.0001032597  -0.0025515349  -0.0004942969   0.0055863552   0.0029524332
        0.0014717484   0.0029470189   0.0005023934  -0.0009737290  -0.0035374520
       -0.0001153187  -0.0000529237   0.0001680582  -0.0001046080  -0.0000493904
       -0.0000001771   0.0000424188  -0.0000191735  -0.0000439123  -0.0000048654
       -0.0000136329   0.0000224920  -0.0000073343   0.0000281443  -0.0000426057
        0.0000172729  -0.0001419431  -0.0000033189   0.0000034137  -0.0000250202
        0.0000193952   0.0000173323  -0.0000029009   0.0000011706   0.0000078980
        0.0000127425   0.0000012244   0.0000087653   0.0000053283  -0.0000014011
       -0.0000033645  -0.0000067215   0.0000038368  -0.0000043210  -0.0000034025
        0.0000044966   0.0000060188   0.0000013823  -0.0000111531  -0.0000004834
        0.0000010741   0.0000064967  -0.0000033907   0.0000047305  -0.0000027503
       -0.0000038737  -0.0000039018  -0.0000026344  -0.0000002599   0.0000002585
       -0.0000032212  -0.0000016858   0.0000062711  -0.0000002129  -0.0000015119
       -0.0000050939  -0.0000016729   0.0000043467  -0.0000008087   0.0000026556
        0.0000006202  -0.0000000425   0.0000001846   0.0000022608   0.0000018670
       -0.0000007253   0.0000005429  -0.0000002524  -0.0000017553  -0.0000007275
        0.0000019448  -0.0000005471   0.0000012013   0.0000002133  -0.0000015764
       -0.0000010885  -0.0000001652  -0.0000007842   0.0000001225  -0.0000001652
       -0.0000025124  -0.0000045218   0.0000019622   0.0000039457   0.0000026285
        0.0000031137  -0.0000011731  -0.0000021229  -0.0000007921  -0.0000029228
        0.0000060836  -0.0000017212  -0.0000145897  -0.0000462595   0.0000301473
        0.0000996108   0.0000207038  -0.0000035301  -0.0000532699   0.0000086563
       -0.0000157716  -0.0000428881  -0.0073061378   0.0027525037  -0.0004618179
       -0.0019755935  -0.0002433180   0.0058220080  -0.0002124067  -0.0003388264
       -0.0001674857  -0.0019005020  -0.0019708070   0.0057690546  -0.0075628631
       -0.0056536284  -0.0040004396  -0.0410614730  -0.0112194897  -0.0701610650
        0.0174449445  -0.0047201437  -0.0221235758  -0.0034264601   0.0015873165
        0.0050843080   0.0056642267  -0.0046657753  -0.0062953421   0.0001043940
        0.0010989906   0.0020167257  -0.0010196607   0.0107124115  -0.0224131957
       -0.0054972909   0.0061975524  -0.0124056592   0.0011585426   0.0004006789
       -0.0023633065  -0.0001537277  -0.0005082280  -0.0000143699   0.0004436358
        0.0003352627  -0.0013323655   0.0000676481   0.0003703972  -0.0003192260
        0.0000250210   0.0000644116  -0.0000469177   0.0000005920   0.0000076415
       -0.0000021648   0.0000532129   0.0000299562  -0.0000364078  -0.0000100040
       -0.0000076778  -0.0000147208   0.0000058052   0.0000044965   0.0000111764
        0.0000030671   0.0000048607   0.0000007358   0.0000044364  -0.0000032694
       -0.0000026352  -0.0000006970   0.0000019525   0.0000075742  -0.0000075170
       -0.0000075074  -0.0000068270   0.0000064987   0.0000066011  -0.0000020422
        0.0000018924   0.0000012940   0.0000028047   0.0000013526  -0.0000018508
        0.0000017859   0.0000002730   0.0000014188   0.0000021916   0.0000011375
       -0.0000005261   0.0000011312  -0.0000004748   0.0000002621  -0.0000001063
       -0.0000008452   0.0000010953  -0.0000022912  -0.0000006985  -0.0000001647
        0.0000005039  -0.0000025708  -0.0000007921  -0.0000028691  -0.0000004363
        0.0000006576   0.0000002582  -0.0000000591   0.0000007392   0.0000005026
        0.0000000695   0.0000002091   0.0000004027  -0.0000006045   0.0000003324
        0.0000002380   0.0000000637   0.0000004950   0.0000003110   0.0000000607
       -0.0000000946   0.0000010464  -0.0000016342   0.0000018326  -0.0000004504
       -0.0000020382   0.0000022226  -0.0000011126   0.0001018913  -0.0000124978
       -0.0004099416   0.0006031761   0.0002289091  -0.0013082689  -0.0002822302
       -0.0000605518   0.0000201113   0.0008127785   0.0009261687  -0.0023977487
        0.0010627421  -0.0076226204   0.0176188731  -0.0620227075   0.0079511699
       -0.0185161270   0.5231610467   0.0083158615  -0.0082484055   0.0022860809
        0.0018708145   0.0013821082  -0.0007669759  -0.0008248047  -0.0006799646
        0.0001824151   0.0004092916   0.0002086455  -0.0000101973  -0.0001961078
        0.0000914595   0.0000813512   0.0001543901  -0.0000210540  -0.0007016692
       -0.0003125862  -0.0004077699   0.0008513164   0.0012575984   0.0005997288
        0.0001326991  -0.0001205203   0.0000576932  -0.0000351195   0.0000251516
        0.0000299076   0.0000220384  -0.0000092785  -0.0000091401  -0.0000222161
        0.0000076879   0.0000168184   0.0000139684  -0.0000242020  -0.0000140355
        0.0000033182   0.0000256674  -0.0000171157  -0.0000072460   0.0000131218
       -0.0000065993  -0.0000130562  -0.0000122956  -0.0000005280  -0.0000087643
       -0.0000048062   0.0000017562  -0.0000007505  -0.0000042818   0.0000051273
       -0.0000024214   0.0000042367  -0.0000026002   0.0000068753   0.0000020987
       -0.0000031322  -0.0000194512   0.0000125005   0.0000116151   0.0000008689
       -0.0000137108  -0.0000057741  -0.0000037925   0.0000038015   0.0000025093
        0.0000134687  -0.0000009797  -0.0000063063  -0.0000052598   0.0000024947
        0.0000036411   0.0000002455  -0.0000046879   0.0000002790   0.0000024721
        0.0000064961   0.0000010026  -0.0000000560  -0.0000004306  -0.0000022338
       -0.0000013570   0.0000004147   0.0000013367  -0.0000029677  -0.0000001082
        0.0000002013  -0.0000058888  -0.0000015252   0.0000020996   0.0000014561
       -0.0000018935  -0.0000009615  -0.0000030581   0.0000016265   0.0000010437
        0.0000032426  -0.0000004712  -0.0000014136  -0.0000038369   0.0000043452
        0.0000030398   0.0000213187  -0.0000065097  -0.0000102699  -0.0000006433
       -0.0000030535   0.0000027363   0.0000026428  -0.0000014308   0.0000029967
       -0.0000086289   0.0000056708   0.0000072103   0.0000491733  -0.0000763740
       -0.0000346778  -0.0000130665   0.0000216577   0.0000061688  -0.0000106317
        0.0000367444   0.0000261530  -0.0025429920  -0.0029607088  -0.0022287889
       -0.0007913511   0.0004280276   0.0010635154  -0.0001344807  -0.0001845058
        0.0000006789  -0.0003428569   0.0003232759   0.0007245305  -0.0002511808
        0.0005893834  -0.0011656825  -0.0125418029   0.0112828285  -0.0245059576
       -0.0022401170   0.0005653087   0.0038458629   0.0007439076  -0.0005095362
        0.0006202988   0.0004287234  -0.0004503187  -0.0001362272  -0.0446620306
       -0.0176355995  -0.0022178834  -0.1552652820   0.0433228231   0.1108526174
       -0.2457995492  -0.0447999975  -0.0778685055  -0.0003324146  -0.0010628916
        0.0003442895  -0.0000091812  -0.0000031759  -0.0000593675   0.0000197122
       -0.0000179306   0.0000108022   0.0000069006  -0.0000094692  -0.0000672641
       -0.0000109502  -0.0000083562   0.0000042644  -0.0000083909   0.0000020322
       -0.0000025949  -0.0000192797  -0.0000059724  -0.0000241932   0.0000025184
        0.0000104309   0.0000042205   0.0000044765   0.0000044496  -0.0000074178
       -0.0000084684   0.0000030286   0.0000028134  -0.0000043190   0.0000055937
        0.0000030885  -0.0000000142  -0.0000000611  -0.0000022989   0.0000039720
        0.0000053981   0.0000025514  -0.0000013044  -0.0000019978  -0.0000021771
        0.0000022863  -0.0000073494  -0.0000010330  -0.0000003095   0.0000052513
        0.0000045087   0.0000000203   0.0000003016  -0.0000000476  -0.0000034496
       -0.0000012813   0.0000007202  -0.0000023552   0.0000003319   0.0000000699