$hessian                                                                        
        0.4851958197   0.0147677788   0.0444703426  -0.1092237406   0.0130671191
        0.0556692772   0.0007232779  -0.0003896403   0.0020156894   0.0008529931
        0.0080371457   0.0033413739  -0.0015834552  -0.0014861102  -0.0005189473
       -0.0001538157   0.0010490076   0.0000290843   0.0005689411  -0.0002688637
        0.0000594233  -0.0001412470  -0.0000912632  -0.0001188312   0.0004032272
       -0.0007206324   0.0004032412   0.0001491039   0.0009964608   0.0003740104
        0.0001428598  -0.0000507206  -0.0001218481   0.0000317212  -0.0001531481
        0.0002196726  -0.0001478107   0.0000728390   0.0000815115   0.0001733388
       -0.0001857930   0.0000643438  -0.0000233764   0.0001539229  -0.0001567380
        0.0001528435  -0.0000564699  -0.0000724049  -0.0000124472  -0.0000134710
        0.0000119096   0.0000127814  -0.0000024505  -0.0000085937   0.0000069213
        0.0000011971  -0.0000178845  -0.0000158650  -0.0000149154   0.0000086547
        0.0000899489   0.0000121358   0.0000358348  -0.0000515103  -0.0000601954
        0.0000137973  -0.0000820568   0.0000339295   0.0000231796   0.0000599372
        0.0003812076   0.0000447087   0.0003745646  -0.0002149541  -0.0001545550
        0.0002634021   0.0004435579  -0.0000748991  -0.0000520949  -0.0003781646
       -0.0000186875  -0.0002417818   0.0001745934   0.0001179466  -0.0003284172
       -0.0004740647   0.0000613814   0.0000266865   0.0000299646   0.0000000131
       -0.0000262685  -0.0000179639  -0.0000092633  -0.0000090025  -0.0000159787
        0.0000160710  -0.0004056031  -0.0002442777   0.0000902813   0.0001091040
       -0.0001771737  -0.0000629620  -0.0002546957  -0.0000274971   0.0000710375
        0.0003773970   0.0001521334  -0.0000817504  -0.0001489576   0.0003411403
        0.0001060126   0.0003770955   0.0000067709  -0.0001370590  -0.0000196842
        0.0000804736  -0.0000354518  -0.0000063067   0.0000014762   0.0000040098
       -0.0000142856  -0.0000065956  -0.0000272436  -0.0001437306   0.0001252741
       -0.0000441407   0.0000308563  -0.0000192407   0.0000439640   0.0000387098
       -0.0000654271  -0.0000226260  -0.0022048559  -0.0036882218  -0.0002375414
       -0.0001601876   0.0007514307  -0.0011411627   0.0000778772  -0.0002307334
       -0.0000805126   0.0000052764   0.0008473543  -0.0007633842  -0.0006488150
        0.0006763157   0.0008282806  -0.0321891433   0.0043623398   0.0135403169
       -0.0507051559   0.0223118072  -0.0351791105  -0.2481653466  -0.0443561451
       -0.0764333955  -0.0428624655  -0.0152041417  -0.0046885148   0.0001553518
        0.0001343673  -0.0002985405   0.0004532240   0.0003200765  -0.0005512685
        0.0006484171  -0.0000144039  -0.0007955908  -0.0001165670  -0.0007145330
       -0.0006628057  -0.0000357461  -0.0000048987   0.0000241670   0.0000123368
       -0.0000186076   0.0000032886  -0.0000111305  -0.0000079974   0.0000369545
       -0.0000126525   0.0000170881  -0.0000074533  -0.0000148631   0.0000134188
        0.0000004144   0.0000115529   0.0000115779  -0.0000337673  -0.0000131465
       -0.0000044019  -0.0000214339   0.0000199824   0.0000062580   0.0000017201
       -0.0000084499   0.0000076710   0.0000129752  -0.0000019035   0.0000017985
        0.0000081533   0.0000024354   0.0000084340   0.0000024883  -0.0000118923
       -0.0000042928  -0.0000102615  -0.0000145561  -0.0000054138  -0.0000040677
       -0.0000114772  -0.0000012640  -0.0000000141   0.0000001058   0.0000110343
        0.0000022577   0.0000054428  -0.0000001577   0.0000117070  -0.0000099827
        0.0000044854  -0.0000028432   0.0000203234  -0.0000069652  -0.0000054458
        0.0000061501  -0.0000027556   0.0000184718  -0.0000000026   0.0000009130
        0.0000073696  -0.0000039613   0.0000006568  -0.0000044546  -0.0000004444
       -0.0000040002  -0.0000142021  -0.0000031531   0.0000013936   0.0000019387
        0.0000022926   0.0000002877   0.0000061129  -0.0000114462   0.0000009252
       -0.0000139037  -0.0000043734   0.0000040645   0.0000093947   0.0000125174
        0.0000110003   0.0000108575  -0.0000126654  -0.0000093862  -0.0000021661
        0.0000014574  -0.0000072863  -0.0000080976  -0.0002478125  -0.0000575080
       -0.0001021856  -0.0001002227  -0.0000077398   0.0001801938  -0.0000011512
        0.0000163319   0.0000570802  -0.0009265508   0.0000367069   0.0006050951
        0.0147677788   0.5217057285  -0.0114689043   0.0161229284  -0.0642904776
       -0.0218611921  -0.0081393992   0.0024700352   0.0118236939   0.0178888615
       -0.0159520216  -0.0204472670   0.0006576895  -0.0005842528  -0.0008531324
        0.0002041220  -0.0000138019   0.0009741576   0.0000356670  -0.0001364191
        0.0000057537   0.0002010787  -0.0008113075   0.0010183754  -0.0019297423
       -0.0030177435  -0.0020599932   0.0006683912   0.0006771889   0.0003743081
       -0.0000367481   0.0000480387  -0.0000327231  -0.0000071855   0.0001464122
       -0.0001083991   0.0000907692  -0.0000161589  -0.0000736737  -0.0001038229
        0.0001225469  -0.0000386499   0.0000108902  -0.0001063797   0.0000968344
       -0.0000848956   0.0000140287   0.0000836144   0.0000022622   0.0000056171
        0.0000100510  -0.0000120078  -0.0000024538   0.0000006527  -0.0000095983
        0.0000046470   0.0000098302   0.0000022141  -0.0000040957  -0.0000025599
       -0.0000215034  -0.0000226748  -0.0000166991  -0.0000130978  -0.0000126337
        0.0000169408  -0.0000094373  -0.0000180529  -0.0000014803  -0.0000338018
       -0.0000621050   0.0000059261  -0.0001234479   0.0000612105   0.0000483518
       -0.0000850661  -0.0001489554   0.0000330845   0.0000062328   0.0001575810
        0.0000182308   0.0000848023  -0.0000664196  -0.0000495604   0.0000797739
        0.0001663399  -0.0000144275   0.0000146491   0.0000155955  -0.0000045536
        0.0000160730   0.0000143590   0.0000023607   0.0000048255   0.0000143858
       -0.0000061761   0.0001462248   0.0000564856  -0.0000376699  -0.0000444221
        0.0000821998   0.0000307373   0.0001309242  -0.0000130191  -0.0000476550
       -0.0001383381  -0.0000694256   0.0000267841   0.0000399829  -0.0001250624
       -0.0000361597  -0.0000611432  -0.0000268773   0.0000121001  -0.0000007104
       -0.0000067683   0.0000090438  -0.0000044295  -0.0000110045   0.0000011358
       -0.0000020128   0.0000036107   0.0000151905   0.0001001675  -0.0000740771
       -0.0000383214  -0.0000349128   0.0000143150   0.0000126046  -0.0000284405
        0.0000421837   0.0000253457  -0.0006420862  -0.0005986057  -0.0001251138
       -0.0000584808   0.0000022383  -0.0002281083  -0.0002560913   0.0002843387
        0.0000106754   0.0006717758   0.0001745514   0.0002497105  -0.0009445797
       -0.0012149574  -0.0008591155  -0.0005741076   0.0032961226   0.0034717619
        0.0221621542  -0.1162918932   0.1077175723  -0.0442911714  -0.0525211009
       -0.0153225297  -0.0149038309  -0.2719923119  -0.0549083484  -0.0006558242
        0.0006868676   0.0004775800   0.0000070339  -0.0011211999   0.0032907486
       -0.0002626817   0.0002794894  -0.0002520052   0.0004615113  -0.0005233393
       -0.0008708825   0.0000284555   0.0000223738  -0.0000446710   0.0000866857
        0.0000312222  -0.0001699382  -0.0000404189  -0.0002624856  -0.0000936953
       -0.0000049520  -0.0000328425  -0.0000119248   0.0000050737  -0.0000083944
       -0.0000038210  -0.0000048464  -0.0000219350   0.0000027108   0.0000024243
       -0.0000036136   0.0000122393  -0.0000012995   0.0000002669  -0.0000001723
        0.0000070129  -0.0000010994  -0.0000059899   0.0000072994   0.0000009506
       -0.0000054189  -0.0000023961  -0.0000024496   0.0000009956   0.0000032292
        0.0000011030   0.0000103354   0.0000138351   0.0000052968   0.0000020574
        0.0000115408  -0.0000094261  -0.0000030398  -0.0000043001   0.0000024277
        0.0000042034  -0.0000040791   0.0000061381  -0.0000078641   0.0000055995
        0.0000005070   0.0000014328  -0.0000126149   0.0000053472   0.0000053510
       -0.0000048516   0.0000008586  -0.0000134156   0.0000014313  -0.0000004640
       -0.0000036199   0.0000024055  -0.0000020460   0.0000040395  -0.0000006057
        0.0000035998   0.0000074297   0.0000029640  -0.0000000288  -0.0000033639
       -0.0000019419  -0.0000009722  -0.0000043690   0.0000032763  -0.0000001863
        0.0000127721   0.0000039402  -0.0000012970  -0.0000053540  -0.0000053792
       -0.0000025507  -0.0000039880   0.0000126667   0.0000042061  -0.0000020031
       -0.0000016579   0.0000010979   0.0000021701  -0.0000162239  -0.0000124376
       -0.0000495686  -0.0000266008   0.0000068505   0.0000204581  -0.0000065873
       -0.0000297679   0.0000046982  -0.0011248516  -0.0003907714   0.0002334681
        0.0444703426  -0.0114689043   0.4756899826   0.0493082143  -0.0166444579
       -0.1122833832   0.0177059466  -0.0014486343  -0.0260029937   0.0066238540
       -0.0102533569  -0.0073293374   0.0002701861   0.0001078125   0.0001944788
        0.0003622390  -0.0002849071   0.0003433653  -0.0002410276   0.0000019016
       -0.0000255239   0.0000568854  -0.0001756453   0.0003802095  -0.0012742064
        0.0000256178  -0.0014179764   0.0006300556   0.0002257862   0.0001017295
        0.0000458614  -0.0002627805   0.0003242714  -0.0000441505   0.0003065702
       -0.0002501439   0.0002496212  -0.0001600236  -0.0000988097  -0.0002199444
        0.0003240623  -0.0001274826   0.0000845021  -0.0003226053   0.0002701000
       -0.0003272027   0.0001341491   0.0000758750   0.0000151682   0.0000129541
       -0.0000379990  -0.0000105824   0.0000027438   0.0000062943  -0.0000018922
        0.0000022545   0.0000157274   0.0000501881   0.0000210461   0.0000070869
       -0.0001354164   0.0000246490  -0.0000424392   0.0001566297   0.0001331540
       -0.0000324238   0.0001497098   0.0000311587  -0.0000300075  -0.0000442208
       -0.0006663897  -0.0001104707  -0.0004605601   0.0003046036   0.0001957017
       -0.0002954381  -0.0005629685   0.0000459157   0.0000906740   0.0003979640
       -0.0000066798   0.0002754616  -0.0002033177  -0.0001165261   0.0004786775
        0.0005773803  -0.0000872010  -0.0000995505  -0.0000943805   0.0000141471
        0.0000124895   0.0000061991   0.0000171210   0.0000023877   0.0000045793
       -0.0000195736   0.0005382986   0.0003973707  -0.0001022276  -0.0001362120
        0.0002312459   0.0000746315   0.0002897989   0.0000714828  -0.0000528541
       -0.0004994465  -0.0001891131   0.0001096588   0.0002211965  -0.0004538826
       -0.0001439294  -0.0006518588   0.0000527683   0.0002479993   0.0000437779
       -0.0001203679   0.0000386746   0.0000306374   0.0000084782  -0.0000118815
        0.0000426583   0.0000452923   0.0000099849   0.0000365145  -0.0002852286
        0.0001099216   0.0000266368   0.0000607867  -0.0001078454   0.0000101765
        0.0001259532   0.0000378391  -0.0014725589   0.0000372955  -0.0010055233
       -0.0001622396   0.0000761287  -0.0003266024  -0.0002594141   0.0004053374
        0.0000531529   0.0007075666  -0.0000711441   0.0000767068  -0.0010970202
       -0.0008962079  -0.0001366136   0.0000300367   0.0021793969   0.0059705185
       -0.0348381779   0.1074370974  -0.2038560088  -0.0771437888  -0.0153000202
       -0.0704144788  -0.0047485975  -0.0542893166  -0.0561269111   0.0001679559
       -0.0009473580   0.0009098067   0.0001007084   0.0027439867  -0.0052248202
        0.0008301456  -0.0006024756   0.0008274020   0.0003100371  -0.0005406801
       -0.0005754614   0.0000179297   0.0000031556  -0.0000491477   0.0000338568
       -0.0000021102  -0.0000565201  -0.0000201253  -0.0000748811  -0.0000203976
        0.0000115335   0.0000199808  -0.0000292590   0.0000084928  -0.0000165496
       -0.0000020830   0.0000009373  -0.0000108714   0.0000033027   0.0000119577
        0.0000027454   0.0000127130  -0.0000054771  -0.0000011124  -0.0000068980
       -0.0000021955  -0.0000031477  -0.0000049082  -0.0000037021   0.0000006698
       -0.0000018067  -0.0000032264  -0.0000075317  -0.0000093070   0.0000110518
        0.0000053780   0.0000109387   0.0000035485  -0.0000034745  -0.0000050072
        0.0000022620   0.0000012099   0.0000088413   0.0000092304  -0.0000066841
        0.0000009392   0.0000016294  -0.0000104797  -0.0000031221  -0.0000012412
       -0.0000082757   0.0000040577  -0.0000130330   0.0000022401  -0.0000018515
        0.0000009417   0.0000030531  -0.0000042600  -0.0000024950  -0.0000033698
       -0.0000071995   0.0000030907   0.0000026331  -0.0000008104  -0.0000025620
        0.0000004816   0.0000105592   0.0000004329  -0.0000049545   0.0000043682
       -0.0000052228  -0.0000012074  -0.0000019354   0.0000022738   0.0000022792
        0.0000009809  -0.0000028561   0.0000038887  -0.0000041454  -0.0000057711
       -0.0000117456  -0.0000131451  -0.0000049086   0.0000110961   0.0000076275
        0.0000007138   0.0000098239   0.0000069031  -0.0000693821   0.0000096711
       -0.0000380145  -0.0000148765  -0.0000002853   0.0000461186   0.0000170895
        0.0000001350  -0.0000210612  -0.0002416313  -0.0001848014   0.0001193562
       -0.1092237406   0.0161229284   0.0493082143   0.4659848825   0.0181730482
        0.0217008231  -0.0602775815   0.0048242660  -0.0120991322  -0.0623970266
       -0.0156054690  -0.0066683674  -0.0035195586  -0.0245972437  -0.0063562741
       -0.0019746221  -0.0017340041  -0.0035544845  -0.0023706030   0.0010978566
       -0.0003704166  -0.0017554126   0.0044220564  -0.0016043162   0.0005394255
        0.0193512279   0.0032363485   0.0016826818  -0.0038291603   0.0009187407
        0.0003537430  -0.0007240003   0.0004524574   0.0000060607   0.0008251007
       -0.0008230872   0.0008150725  -0.0004826577  -0.0002440220  -0.0006954786
        0.0008436735  -0.0002222649   0.0003903430  -0.0009425937   0.0006956624
       -0.0010042693   0.0001193080   0.0002684692   0.0000827166  -0.0000469694
       -0.0000971911  -0.0000267579  -0.0000029033  -0.0000027871  -0.0000230808
       -0.0000019866  -0.0000154169   0.0002841372   0.0007879221  -0.0005615053
       -0.0010302858   0.0000220198  -0.0003019404   0.0008058172   0.0008266067
       -0.0004044730   0.0006225318   0.0002684602  -0.0001092048  -0.0002922269
       -0.0030049032  -0.0004973950  -0.0019044491   0.0015289312   0.0008854935
       -0.0013204592  -0.0025273772   0.0000678913   0.0004179025   0.0017878787
       -0.0001209850   0.0012394381  -0.0009969344  -0.0004139069   0.0021339947
        0.0025950520  -0.0003786760  -0.0004857248  -0.0004619637   0.0000985542
        0.0000310678  -0.0000130579   0.0000942556   0.0000253121   0.0000133160
       -0.0001043891   0.0026388185   0.0018608145  -0.0004289913  -0.0007750417
        0.0012793410   0.0003856122   0.0015942075   0.0003069648  -0.0002030921
       -0.0024046954  -0.0009338112   0.0004957327   0.0011729388  -0.0020822333
       -0.0007180966  -0.0029409582   0.0001926692   0.0010955979  -0.0000307879
       -0.0010559135   0.0006983850   0.0007319640   0.0003265068   0.0002444647
       -0.0005523615  -0.0006233264   0.0002015655   0.0005145923  -0.0002678633
        0.0001027773  -0.0000365266   0.0000639065  -0.0000988876  -0.0001103085
        0.0000926148   0.0000453315  -0.0247260454   0.0060317274  -0.0087829152
       -0.0017426025   0.0019872876  -0.0023128032  -0.0021443017   0.0026500334
       -0.0001935418   0.0040611731  -0.0019550600  -0.0010420122  -0.0106080179
       -0.0125483905  -0.0060185699  -0.1624753233  -0.0240650070  -0.0430449684
        0.0015195030  -0.0012877774   0.0000540492  -0.0240726351   0.0058468958
        0.0186637260  -0.0006075651   0.0022154071   0.0006895385   0.0001973614
       -0.0005446710   0.0017477979   0.0022553104  -0.0098625317   0.0161316136
       -0.0069650875   0.0135505110  -0.0231004988  -0.0000132908  -0.0004760203
        0.0009115166  -0.0004241129  -0.0012676885  -0.0004081490  -0.0002009093
       -0.0002094248   0.0004091120   0.0000875672   0.0010193576   0.0003011675
       -0.0000178851   0.0000785891   0.0000446820   0.0000287088  -0.0000575120
        0.0000730354  -0.0000857066   0.0001035094   0.0000171066  -0.0000064859
        0.0000122580  -0.0000461080   0.0000426597   0.0000072203  -0.0000096576
       -0.0000057498   0.0000055187   0.0000476780  -0.0000172463   0.0000087841
        0.0000379079   0.0000457423   0.0000037621  -0.0000323454  -0.0000113098
       -0.0000006937  -0.0000348389  -0.0000545874  -0.0000546650  -0.0000114724
       -0.0000011212   0.0000755059   0.0000497996   0.0000986483  -0.0000230263
       -0.0000177703   0.0000544637  -0.0001098299   0.0000402889  -0.0000548876
       -0.0000401949   0.0000167187   0.0000422200  -0.0000466129  -0.0000509998
        0.0000217410  -0.0000021928   0.0000497767  -0.0000359790  -0.0000300826
       -0.0000019860  -0.0000034997   0.0000091220   0.0000168042  -0.0000273314
       -0.0000413273  -0.0000148264  -0.0000339059  -0.0000340376   0.0000488708
       -0.0000195899   0.0000066621   0.0000147030  -0.0000614617   0.0000249674
       -0.0000763506  -0.0000581482   0.0000548524   0.0000240224   0.0000604586
        0.0000437152  -0.0000309045  -0.0001020161   0.0000236131   0.0000180161
        0.0000388399   0.0000341979  -0.0000119116  -0.0006344200  -0.0003035352
       -0.0003116286   0.0000334745   0.0000733751   0.0005228550   0.0000191643
        0.0002815961  -0.0000701508  -0.0003115040   0.0010137149   0.0010965491
        0.0130671191  -0.0642904776  -0.0166444579   0.0181730482   0.4761049700
        0.0188426066   0.0077851268  -0.0910023528   0.0462062906  -0.0109577188
       -0.1780248429  -0.0294469545  -0.0115761358  -0.0163002976  -0.0073522604
       -0.0025779238   0.0032680146  -0.0013780199   0.0024197929  -0.0016607784
        0.0004547467   0.0020533889  -0.0016475008  -0.0007851174   0.0095554843
       -0.0242731175  -0.0024785719  -0.0040933693   0.0008904920  -0.0006494571
       -0.0005482899   0.0004587322  -0.0001284868   0.0000465694  -0.0008257098
        0.0006519313  -0.0006851240   0.0003707281   0.0002167017   0.0005541725
       -0.0007573163   0.0002665785  -0.0003874844   0.0008429875  -0.0005941030
        0.0007737768  -0.0000382508  -0.0003028572  -0.0000769817   0.0000577868
        0.0000591453   0.0000191545  -0.0000061137   0.0000071000   0.0000075544
       -0.0000063023   0.0000198933  -0.0002764888  -0.0006993897   0.0004923226
        0.0009225993  -0.0000219056   0.0002643946  -0.0007414493  -0.0007482272
        0.0003578119  -0.0006225908  -0.0002089025   0.0001219382   0.0002543550
        0.0027685741   0.0004467953   0.0017521040  -0.0013964399  -0.0008056845
        0.0012165595   0.0023185062  -0.0000621844  -0.0003751382  -0.0016510906
        0.0001083239  -0.0011482826   0.0009172627   0.0003875225  -0.0019603825
       -0.0023819262   0.0003496675   0.0004470072   0.0004326000  -0.0000926786
       -0.0000256231   0.0000169101  -0.0000840536  -0.0000229553  -0.0000071075
        0.0000915529  -0.0023340086  -0.0016687995   0.0003815058   0.0006812438
       -0.0010922850  -0.0003284364  -0.0013607031  -0.0003092654   0.0001581606
        0.0021311857   0.0008054477  -0.0004450635  -0.0010567330   0.0018306567
        0.0006410252   0.0026841674  -0.0001817118  -0.0010188487   0.0000249572
        0.0009318347  -0.0006029302  -0.0006543235  -0.0003002895  -0.0002160311
        0.0004884696   0.0005324975  -0.0001630942  -0.0003876367   0.0002912098
       -0.0000785565   0.0000087973  -0.0000754312   0.0001028909   0.0000644225
       -0.0000921100  -0.0000404576   0.0159964782   0.0039231527   0.0057807690
        0.0043617347  -0.0016738325   0.0002721781   0.0011768884  -0.0021329980
        0.0001007083  -0.0009910686  -0.0033145566  -0.0024192521  -0.0255977570
       -0.0086787436  -0.0107755603  -0.0284322962  -0.0685977813  -0.0129961201
       -0.0097243985   0.0030862551   0.0104444132  -0.0030800348   0.0010280314
        0.0036944539   0.0190521224  -0.0100191833  -0.0208168015   0.0043078759
       -0.0205553085   0.0239409787  -0.0014161420   0.0026848257  -0.0029346213
        0.0007662411   0.0018693201  -0.0026745536   0.0011000657  -0.0000048236
        0.0009390439   0.0002245611  -0.0001820046  -0.0000928640   0.0000155063
        0.0001824065   0.0003244664  -0.0002310760  -0.0005960981  -0.0002017355
        0.0000436796  -0.0000798348   0.0000102011  -0.0000096775   0.0000415804
       -0.0000607130   0.0000622321  -0.0000599590   0.0000152454   0.0000116805
       -0.0000008173   0.0000498762  -0.0000513709  -0.0000118054  -0.0000000244
        0.0000112176  -0.0000043108  -0.0000439597   0.0000160259  -0.0000057020
       -0.0000314532  -0.0000364325  -0.0000056895   0.0000275409   0.0000156805
        0.0000032222   0.0000313420   0.0000460741   0.0000487026   0.0000139966
       -0.0000017613  -0.0000658955  -0.0000472999  -0.0000915825   0.0000160900
        0.0000116969  -0.0000496656   0.0001046242  -0.0000385013   0.0000507927
        0.0000378408  -0.0000178188  -0.0000384241   0.0000426640   0.0000463361
       -0.0000202891   0.0000020660  -0.0000464230   0.0000322542   0.0000254975
        0.0000005658   0.0000033107  -0.0000082826  -0.0000131685   0.0000251185
        0.0000371165   0.0000126105   0.0000298484   0.0000284075  -0.0000452570
        0.0000122279  -0.0000096216  -0.0000146520   0.0000471528  -0.0000196976
        0.0000725491   0.0000529307  -0.0000431435  -0.0000211268  -0.0000505108
       -0.0000324531   0.0000283779   0.0000919664  -0.0000190301  -0.0000161673
       -0.0000335687  -0.0000307170   0.0000121887   0.0009500373   0.0001650348
        0.0004672737  -0.0001310260  -0.0001073765   0.0002229905  -0.0012555813
       -0.0006211256  -0.0005788719  -0.0005227534   0.0003826850   0.0004365417
        0.0556692772  -0.0218611921  -0.1122833832   0.0217008231   0.0188426066
        0.4297705108  -0.0181339587   0.0515192453  -0.1346764970  -0.0060940404
       -0.0305063991  -0.0614662707  -0.0033686402  -0.0118523143  -0.0041042192
       -0.0037221773  -0.0015921939   0.0051295362  -0.0001724633   0.0000542089
       -0.0004433689  -0.0022299349  -0.0002869403   0.0050413551   0.0018538062
        0.0006165761   0.0037142016   0.0008387092  -0.0006682160  -0.0033641951
        0.0002696030  -0.0000273496  -0.0003663198  -0.0002026912   0.0002108395
       -0.0001099367   0.0000997217   0.0000371689  -0.0000520995  -0.0000419471
        0.0001526116  -0.0001594129   0.0001236718  -0.0001336474   0.0000957717
       -0.0000568283  -0.0002384489   0.0000814366   0.0000352140  -0.0000243587
        0.0000623763   0.0000095847  -0.0000034495  -0.0000036232   0.0000071526
        0.0000075542  -0.0000010623   0.0000712995   0.0000724756  -0.0000537943
       -0.0001293400  -0.0000017665  -0.0000275623   0.0001311615   0.0001159193
       -0.0000391825   0.0001630835   0.0000337277  -0.0000375795  -0.0000388602
       -0.0006134672  -0.0000931425  -0.0003875241   0.0002923990   0.0001704265
       -0.0002579669  -0.0004992579   0.0000133194   0.0000702328   0.0003606462
       -0.0000199688   0.0002571907  -0.0002084147  -0.0000958603   0.0004215570
        0.0005211116  -0.0000732502  -0.0000934811  -0.0000937235   0.0000191130
        0.0000028979  -0.0000048783   0.0000135474   0.0000050970  -0.0000008281
       -0.0000140955   0.0004623344   0.0003371124  -0.0000788161  -0.0001359118
        0.0001920168   0.0000585646   0.0002401408   0.0000785248  -0.0000247817
       -0.0004223851  -0.0001441265   0.0000907746   0.0002158368  -0.0003606400
       -0.0001313128  -0.0005792840   0.0000452654   0.0002336583   0.0000129948
       -0.0001150677   0.0000501591   0.0000526807   0.0000493172   0.0000081486
       -0.0000308071  -0.0000205008  -0.0000063485   0.0000064660  -0.0001114861
        0.0000546559   0.0000184602   0.0000298333  -0.0000717933   0.0000155287
        0.0000219938  -0.0000091700  -0.0073362545   0.0031025731   0.0009501467
       -0.0021122770  -0.0007981766   0.0049795052  -0.0004124624   0.0006078451
       -0.0004254866  -0.0013587349  -0.0027395305   0.0058182245  -0.0085800004
       -0.0058840770  -0.0046087158  -0.0434261830  -0.0118513453  -0.0706140549
        0.0171926606  -0.0040477281  -0.0213184271  -0.0035250306   0.0013479249
        0.0050766826   0.0066849817  -0.0048115446  -0.0073450242   0.0000889793
        0.0005081725   0.0024452896  -0.0009755399   0.0114995090  -0.0216876994
       -0.0053790173   0.0071556979  -0.0127938750   0.0012323350   0.0004746475
       -0.0023545136  -0.0001457496  -0.0005187447  -0.0000329622   0.0004306350
        0.0003279539  -0.0012431492  -0.0000985445   0.0002410771   0.0000629194
        0.0000028883   0.0000387889  -0.0000474047  -0.0000089434   0.0000237486
        0.0000187987   0.0000207122   0.0000168942  -0.0000360121  -0.0000098092
       -0.0000059603  -0.0000209316   0.0000133919   0.0000092523   0.0000058367
       -0.0000029574   0.0000049567   0.0000080777  -0.0000016236  -0.0000006443
        0.0000052160   0.0000029727   0.0000018783   0.0000022687  -0.0000087926
       -0.0000060728  -0.0000088758  -0.0000016437  -0.0000034353  -0.0000082316
        0.0000005531   0.0000109878   0.0000140451   0.0000121035  -0.0000040277
        0.0000029380   0.0000087857  -0.0000173460   0.0000084754  -0.0000085417
       -0.0000056855   0.0000049507   0.0000052849  -0.0000070536  -0.0000085808
        0.0000031276   0.0000007431   0.0000065099  -0.0000062992  -0.0000022328
       -0.0000004655  -0.0000017396   0.0000006240  -0.0000000892  -0.0000041939
       -0.0000060298  -0.0000008306  -0.0000048312  -0.0000023204   0.0000082775
        0.0000015273   0.0000046650   0.0000024943  -0.0000012330   0.0000014262
       -0.0000128617  -0.0000085304   0.0000028350   0.0000028121   0.0000060205
        0.0000000949  -0.0000054200  -0.0000118386   0.0000026727   0.0000026763
        0.0000059997   0.0000076068   0.0000022259  -0.0000352173  -0.0001166504
       -0.0000362434   0.0005554684   0.0002759524  -0.0012265383  -0.0003022485
       -0.0000636077  -0.0000062807   0.0008435259   0.0010011985  -0.0023862059
        0.0007232779  -0.0081393992   0.0177059466  -0.0602775815   0.0077851268
       -0.0181339587   0.5233371557   0.0083329527  -0.0075594275   0.0020719548
        0.0020952481   0.0016179386  -0.0008792118  -0.0008942307  -0.0009124943
        0.0000255881   0.0006369406   0.0002199209   0.0003253166  -0.0002160749
        0.0001095421  -0.0000794071  -0.0000980985  -0.0001233647  -0.0001256666
       -0.0002513100   0.0001176443   0.0004178314   0.0006682485   0.0002886525
        0.0000852931  -0.0000276455  -0.0000648025  -0.0000396647   0.0000064024
        0.0000297918  -0.0000103640   0.0000064316   0.0000170719   0.0000094683
        0.0000105045  -0.0000000720   0.0000065699  -0.0000046565  -0.0000109971
        0.0000628927   0.0000086454  -0.0000263433   0.0000005413   0.0000036791
       -0.0000092202  -0.0000075451  -0.0000109387  -0.0000012957  -0.0000043456
       -0.0000050390  -0.0000014184  -0.0000096619  -0.0000305725   0.0000226932
        0.0000287989   0.0000129170  -0.0000006331  -0.0000281731  -0.0000448755
        0.0000153634  -0.0000133003  -0.0000069282   0.0000055801   0.0000084624
        0.0001126726   0.0000155808   0.0000790300  -0.0000485167  -0.0000307174
        0.0000543753   0.0000995125  -0.0000211769  -0.0000216036  -0.0000624032
       -0.0000027337  -0.0000407964   0.0000390509   0.0000282025  -0.0000709880
       -0.0001067266   0.0000129051   0.0000061536   0.0000064982  -0.0000003575
       -0.0000055594  -0.0000048349   0.0000027969  -0.0000027004  -0.0000034760
       -0.0000015884  -0.0001144243  -0.0000585840   0.0000285358   0.0000376953
       -0.0000512453  -0.0000233651  -0.0000650778   0.0000005685   0.0000252281
        0.0001046318   0.0000360211  -0.0000246438  -0.0000402604   0.0000956974
        0.0000283668   0.0001198411  -0.0000112948  -0.0000397475   0.0000050546
        0.0000413980  -0.0000180777  -0.0000231645  -0.0000129234  -0.0000050245
        0.0000151457   0.0000358949  -0.0000154422  -0.0000166192  -0.0000772680
       -0.0000333482   0.0000011981   0.0000170159   0.0000033249   0.0000064717
        0.0000268090   0.0000277966  -0.0024995375  -0.0024753995  -0.0019810756
       -0.0008969923   0.0003662739   0.0007837920  -0.0000857814  -0.0000768856
       -0.0000029378  -0.0002437642   0.0003398620   0.0008054322  -0.0003971280
        0.0004513666  -0.0010548899  -0.0122330293   0.0120556345  -0.0236423463
       -0.0022434362   0.0004595654   0.0037825822   0.0007962787  -0.0005394987
        0.0005661113   0.0004592875  -0.0004480164  -0.0001867466  -0.0446446215
       -0.0175797278  -0.0028896429  -0.1575328671   0.0399539665   0.1127350289
       -0.2452836468  -0.0416007905  -0.0812599301  -0.0003295780  -0.0010581105
        0.0002900769  -0.0000269703  -0.0000062509   0.0000029800   0.0000149786
       -0.0000224324   0.0000055120  -0.0000003962  -0.0000099589  -0.0000426405
       -0.0000114693  -0.0000039766   0.0000081511  -0.0000057397   0.0000059430
        0.0000075956  -0.0000265547  -0.0000022993  -0.0000161489   0.0000029973
        0.0000098544   0.0000017174   0.0000055591   0.0000041689  -0.0000091025
       -0.0000055810   0.0000031691   0.0000071173  -0.0000043960   0.0000050800
        0.0000060345   0.0000036104   0.0000008233  -0.0000056887   0.0000030321
        0.0000054976   0.0000011494  -0.0000119347  -0.0000075926  -0.0000004379
        0.0000014969   0.0000030798  -0.0000018146   0.0000082305   0.0000050464
       -0.0000017895   0.0000051341  -0.0000105949   0.0000029680  -0.0000105159
       -0.0000044261  -0.0000002349   0.0000060455  -0.0000031238  -0.0000029578