$hessian                                                                        
        0.1012739117   0.1052537820   0.0319292928  -0.0873453642  -0.0867099476
       -0.0249916248   0.0097783603   0.0277427229   0.0118855208  -0.0035613046
        0.0024463053   0.0018408922  -0.0007129742   0.0008595620  -0.0012015626
        0.0001198431   0.0004782810  -0.0002141854   0.0008917455  -0.0004753217
       -0.0017238375  -0.0005944714   0.0013871113   0.0006207343  -0.0153070725
       -0.0476547444  -0.0145226324   0.0014676085  -0.0026997504  -0.0014021032
        0.0004709270  -0.0000053690  -0.0016109563   0.0025336138   0.0006622581
       -0.0004648408  -0.0020862535  -0.0011099661  -0.0000021352   0.0008200921
       -0.0005516214  -0.0002540026  -0.0000786509   0.0002413061  -0.0000156346
        0.0000395927  -0.0001015428   0.0000719235   0.0004866572  -0.0004505157
        0.0000120455  -0.0006461735   0.0003111127  -0.0000526593   0.0002666582
        0.0002079539  -0.0000772798  -0.0000355171  -0.0000486137   0.0000750444
        0.0000514227   0.0000303353  -0.0000368522  -0.0000209534   0.0000008320
       -0.0000042580   0.0000396393   0.0000103571  -0.0000044092  -0.0000683721
       -0.0000122703   0.0000257601   0.0000113353  -0.0003578639   0.0001111990
        0.0000289919   0.0000527540  -0.0000749532   0.0000075609  -0.0000547945
        0.0000455807  -0.0000095759   0.0000137149  -0.0000014852   0.0000157305
       -0.0000451855   0.0000166466  -0.0000362704   0.0000652940  -0.0000345230
       -0.0001672155   0.0003397609  -0.0000394944   0.0000350684  -0.0004094233
       -0.0000091363  -0.0003093652   0.0002832369  -0.0000094271   0.0001098029
       -0.0003241778  -0.0000800798   0.0001026404   0.0006713306   0.0000040931
       -0.0002695742  -0.0006855427  -0.0000593700   0.0003168808   0.0000017761
       -0.0000543657  -0.0000526890   0.0000124809   0.0000668898   0.0000516875
        0.0000081246  -0.0000308968  -0.0000125337  -0.0000128632  -0.0000025014
        0.0000354418   0.0000162952  -0.0000023432  -0.0000555949  -0.0000303403
        0.0000248636  -0.0002420002   0.0003160404   0.0001210387   0.0000698398
       -0.0000188342  -0.0000864475  -0.0000299730   0.0000500985   0.0000505376
        0.0000049658  -0.0000203640   0.0000033568  -0.0000142559   0.0000481018
        0.0000179390   0.0000176533  -0.0000881656  -0.0000313284  -0.0000666807
        0.0000715582   0.0000192115   0.0000299267  -0.0002205846   0.0000321251
        0.0002357139   0.0010119120   0.0004089047  -0.0024603712  -0.0000870059
       -0.0019144958  -0.0057323360  -0.0006972441   0.0014053904   0.0000780113
        0.0002842634   0.0001292444  -0.0002837125   0.0003755166  -0.0001002530
        0.0000619929   0.0001938117   0.0002706909   0.0001436398  -0.0000242282
        0.0001069528   0.0008310297   0.0005853012  -0.0001327569   0.0004197044
       -0.0004443078  -0.0000864894   0.0001444940  -0.0000510442   0.0001028499
        0.0000177785  -0.0000880298  -0.0000045559  -0.0000101952   0.0000356296
        0.0000056309  -0.0000036536  -0.0000036444  -0.0000245569  -0.0000006959
       -0.0000115732   0.0000157631  -0.0000234138  -0.0000152240   0.0000084145
       -0.0000276511  -0.0000047676  -0.0000118643  -0.0000017260   0.0000079434
       -0.0000105335  -0.0000022490   0.0000078515   0.0000248468   0.0000069230
        0.0000064134  -0.0000185657  -0.0000081857   0.0000270782  -0.0000138550
       -0.0000164704   0.0000247798   0.0000079505  -0.0000086757  -0.0000042784
        0.0000078848  -0.0000374954  -0.0000204425   0.0000008734  -0.0000345104
       -0.0000112776  -0.0000198428  -0.0000039122   0.0000044640  -0.0000255185
       -0.0000076813   0.0000090281   0.0000121561  -0.0000236479  -0.0000034469
        0.0000088180  -0.0000218503  -0.0000119140  -0.0000112597   0.0000035327
       -0.0000061546  -0.0000103507   0.0000007298  -0.0000084213   0.0000265879
        0.0000108454   0.0000025656  -0.0000212624   0.0000137836  -0.0000278327
       -0.0000147300   0.0000014716  -0.0000302660   0.0000079631  -0.0000106051
       -0.0000008093   0.0000060214   0.0000150551  -0.0000509376   0.0000088457
       -0.0000223022   0.0001044046  -0.0000136072  -0.0005680398  -0.0001883395
       -0.0002515920  -0.0000300873  -0.0003844572   0.0002409318
        0.1052537820   0.6851332001   0.2253107010  -0.0847931772  -0.5771718566
       -0.1779457334   0.0210214381  -0.0619344415  -0.0258075218   0.0059483754
        0.0015157151  -0.0017861567   0.0028947957  -0.0016934644   0.0014129986
       -0.0012826920   0.0005872652   0.0003927536   0.0010814612  -0.0011159896
        0.0012307852  -0.0069546705  -0.0034364197   0.0019084875  -0.0429508250
       -0.0419467420  -0.0208757874   0.0078283838  -0.0032598088  -0.0034476499
       -0.0023530598  -0.0023560421  -0.0009638495   0.0051887611   0.0016399633
        0.0003400139  -0.0037047494  -0.0010144894  -0.0001784104   0.0013736270
       -0.0008137482  -0.0005122970  -0.0002613683  -0.0000327486  -0.0000455437
       -0.0000355033  -0.0001090304   0.0001609446   0.0009456448  -0.0009102449
       -0.0000270366  -0.0010921690   0.0007235430  -0.0001552267   0.0002944379
        0.0002662573  -0.0000204870  -0.0000785149  -0.0000333947   0.0000929110
        0.0000561663   0.0000435423  -0.0000444362  -0.0000228692   0.0000091758
       -0.0000055407   0.0000491039   0.0000045056   0.0000122905  -0.0000628670
       -0.0000155364   0.0000358646   0.0000163025  -0.0006846377   0.0001960633
        0.0000676352   0.0001205231  -0.0001313247   0.0000148037  -0.0000742638
        0.0000936252  -0.0000039259   0.0000382793  -0.0000049591   0.0000303450
       -0.0000749490   0.0000317405  -0.0000641989   0.0001432520  -0.0000451845
       -0.0002929473   0.0007039162  -0.0000979033   0.0002204186  -0.0007927159
       -0.0000080099  -0.0001996311   0.0008410825   0.0000721587   0.0001535465
       -0.0007691780  -0.0001788534   0.0000693665   0.0011921956   0.0000136689
       -0.0005324463  -0.0010572947  -0.0000190999   0.0005265866   0.0000141117
       -0.0000958967  -0.0001055238   0.0000159799   0.0001043824   0.0000831696
        0.0000106093  -0.0000593411  -0.0000215696  -0.0000135633   0.0000006185
        0.0000642311   0.0000304278  -0.0000017190  -0.0000977361  -0.0000448377
        0.0000339935  -0.0002827983   0.0003519833   0.0000810471   0.0000638913
       -0.0000410316  -0.0001016480  -0.0000351694   0.0000551199   0.0000501859
       -0.0000053331  -0.0000183761   0.0000038189  -0.0000100023   0.0000693058
        0.0000071781   0.0000275471  -0.0000888662  -0.0000447673  -0.0000398617
        0.0001482669   0.0000696656   0.0000297696  -0.0001962316   0.0000487646
        0.0002622205   0.0011030848   0.0006832137  -0.0043200387  -0.0002627990
       -0.0011999579  -0.0038333878   0.0038695781   0.0020968461  -0.0003006530
        0.0002998261  -0.0010361281   0.0004647222  -0.0004715283  -0.0001823782
       -0.0001057083   0.0000304007  -0.0004410849   0.0002390043   0.0000933069
       -0.0000520517   0.0006920053   0.0010182285  -0.0010427013  -0.0004807286
        0.0007614327   0.0012042230  -0.0001398838   0.0000976523   0.0000318533
        0.0000633222  -0.0000157673  -0.0000370716  -0.0000570752   0.0000991787
        0.0000041006  -0.0000026065  -0.0000173847  -0.0000375571   0.0000029761
       -0.0000170951   0.0000125213  -0.0000179153  -0.0000180040   0.0000062749
       -0.0000262938  -0.0000053374  -0.0000141065   0.0000009454   0.0000072838
       -0.0000114486  -0.0000160672  -0.0000019057   0.0000344632   0.0000026691
        0.0000070451  -0.0000489530  -0.0000202138   0.0000350401  -0.0000276741
       -0.0000246610   0.0000318796   0.0000066734  -0.0000148856  -0.0000168258
       -0.0000039642  -0.0000282366  -0.0000009269   0.0000211343  -0.0000469989
       -0.0000151513  -0.0000247730  -0.0000052097   0.0000007465  -0.0000376040
       -0.0000129978   0.0000140109   0.0000267851  -0.0000335364  -0.0000042490
        0.0000172252  -0.0000292521  -0.0000155993  -0.0000099040   0.0000103081
       -0.0000064861   0.0000000779   0.0000074833  -0.0000161868   0.0000367651
        0.0000173281   0.0000019951  -0.0000089307   0.0000177913  -0.0000244777
       -0.0000105842   0.0000031519  -0.0000360724   0.0000150708  -0.0000124017
        0.0000010323   0.0000115016   0.0000195002  -0.0000246363   0.0000065158
       -0.0000438083   0.0000543901  -0.0000416268  -0.0005038095  -0.0003446765
        0.0000423066   0.0002529605  -0.0001693208   0.0009106704
        0.0319292928   0.2253107010   0.0975229781  -0.0231711039  -0.1776752555
       -0.1148605025   0.0057375527  -0.0259058268   0.0077561580   0.0038587491
       -0.0008641252   0.0003119770  -0.0003553071  -0.0016060019  -0.0002806978
       -0.0002934994   0.0001829268   0.0001633808  -0.0005218819  -0.0001288419
       -0.0002664198  -0.0015702244  -0.0006062637   0.0001691382  -0.0161691375
       -0.0198157963   0.0090376033   0.0040188195  -0.0012691741  -0.0018507120
       -0.0018571981  -0.0007306666  -0.0009119842   0.0026759282   0.0009169789
        0.0001075689  -0.0020318628  -0.0008333256   0.0001103560   0.0005727632
       -0.0003413200  -0.0003143339  -0.0001066513   0.0000845292   0.0000093061
       -0.0000123434  -0.0000774583   0.0000795943   0.0004195995  -0.0004319096
       -0.0000099337  -0.0005253859   0.0002707925  -0.0000251242   0.0002084356
        0.0001590334  -0.0000568168  -0.0000492261  -0.0000266616   0.0000482894
        0.0000370196   0.0000270274  -0.0000294652  -0.0000161550   0.0000005719
        0.0000014666   0.0000309150   0.0000097149  -0.0000030970  -0.0000483522
       -0.0000088561   0.0000217031   0.0000072474  -0.0002891004   0.0000666683
        0.0000227334   0.0000462458  -0.0000520642   0.0000134686  -0.0000416031
        0.0000315827  -0.0000063254   0.0000168627  -0.0000005623   0.0000148987
       -0.0000297791   0.0000099659  -0.0000183036   0.0000503927  -0.0000234835
       -0.0001611847   0.0003665608  -0.0000320953   0.0001152555  -0.0003932244
       -0.0000042420  -0.0001937120   0.0003597549   0.0000186684   0.0001067639
       -0.0003495269  -0.0000786457   0.0000446109   0.0005671566   0.0000022152
       -0.0002330587  -0.0005112406  -0.0000032506   0.0002706520   0.0000110856
       -0.0000579117  -0.0000535478   0.0000010218   0.0000461999   0.0000424412
        0.0000037130  -0.0000297637  -0.0000110973  -0.0000073346   0.0000025380
        0.0000338263   0.0000130976  -0.0000042419  -0.0000488189  -0.0000244251
        0.0000211992  -0.0001582947   0.0001992191   0.0000534164   0.0000389777
       -0.0000181718  -0.0000494110  -0.0000164253   0.0000355612   0.0000266224
        0.0000005661  -0.0000147104   0.0000036653  -0.0000056379   0.0000339453
        0.0000074260   0.0000158590  -0.0000464121  -0.0000227935  -0.0000616816
        0.0000387523   0.0000205605   0.0000342764  -0.0001223232   0.0000193469
        0.0001404739   0.0006131621   0.0003997850  -0.0024777779   0.0014850356
       -0.0006208131   0.0008513766   0.0009868282   0.0025627518  -0.0000259118
        0.0000908100  -0.0000674503   0.0003063099  -0.0003129997  -0.0001752986
        0.0000660329   0.0000094238   0.0001019098  -0.0000048007   0.0000585820
       -0.0000053324  -0.0004160410   0.0003819196   0.0000256431  -0.0008538596
        0.0002853747   0.0006078348  -0.0001067797   0.0000201782  -0.0000100003
        0.0000252468  -0.0000253342  -0.0000396496  -0.0000114414   0.0000385012
       -0.0000036166   0.0000053273  -0.0000075772  -0.0000173521  -0.0000017903
       -0.0000127313   0.0000143884  -0.0000134327  -0.0000108819   0.0000056527
       -0.0000163908  -0.0000039363  -0.0000068846   0.0000015023   0.0000036976
       -0.0000042097  -0.0000039330   0.0000060192   0.0000161219   0.0000022479
        0.0000036032  -0.0000124982  -0.0000073247   0.0000166386  -0.0000105935
       -0.0000146220   0.0000189048   0.0000054827  -0.0000121707  -0.0000057872
        0.0000063643  -0.0000130827  -0.0000094541   0.0000065867  -0.0000174187
       -0.0000035690  -0.0000175184   0.0000005762   0.0000069272  -0.0000174583
       -0.0000102227   0.0000088927   0.0000155185  -0.0000182003  -0.0000013470
        0.0000079917  -0.0000158336  -0.0000069119  -0.0000056260   0.0000035697
       -0.0000021362  -0.0000018730   0.0000016143  -0.0000076456   0.0000161919
        0.0000070360   0.0000008260  -0.0000073056   0.0000083075  -0.0000148918
       -0.0000073206   0.0000003062  -0.0000217693   0.0000070652  -0.0000102315
       -0.0000019092   0.0000075137   0.0000170411  -0.0000208848   0.0000011045
       -0.0000029026   0.0000313860  -0.0000159829  -0.0000347683   0.0000937212
       -0.0000185422   0.0000977323  -0.0002269758   0.0005553769
       -0.0873453642  -0.0847931772  -0.0231711039   0.4706191377   0.0580787426
       -0.0013664410  -0.1425477275   0.0516927040   0.0145725490   0.0040522376
        0.0122001325  -0.0003668551   0.0046662721  -0.0009301486   0.0018260425
       -0.0013020622   0.0000332655   0.0005419628  -0.0019716274  -0.0034136612
        0.0059093775  -0.0339904565   0.0094909185   0.0109893098  -0.1673581376
       -0.0263028510  -0.0098670313  -0.0416408409   0.0000258515   0.0080526529
        0.0020137507   0.0050026008   0.0061199434  -0.0104215853  -0.0034277263
       -0.0003196758   0.0088340549   0.0036552788   0.0006486138  -0.0030937699
        0.0021078834   0.0011663643   0.0004253310  -0.0005807647   0.0000478560
       -0.0002221928   0.0002859803  -0.0002995304  -0.0016699073   0.0016366154
       -0.0000226409   0.0021702442  -0.0011165947   0.0001965670  -0.0007976952
       -0.0006433770   0.0001889692   0.0001303392   0.0001499793  -0.0002442565
       -0.0001405521  -0.0000912699   0.0001193315   0.0000464694  -0.0000115383
        0.0000216284  -0.0001313869  -0.0000223671  -0.0000032703   0.0002187084
        0.0000439349  -0.0000733818  -0.0000246481   0.0011664893  -0.0003354782
       -0.0001022842  -0.0001902642   0.0002569189  -0.0000123616   0.0001485943
       -0.0001559663   0.0000214683  -0.0000268715  -0.0000024695  -0.0000649920
        0.0001457858  -0.0000430390   0.0001296790  -0.0002398949   0.0000977579
        0.0005748478  -0.0011929915   0.0001289771  -0.0002077363   0.0016039798
        0.0000209916   0.0010474964  -0.0012830553   0.0000053111  -0.0003778946
        0.0011759684   0.0003150183  -0.0003068148  -0.0023632403  -0.0000111209
        0.0009000638   0.0023671336   0.0002093206  -0.0009897862   0.0000093878
        0.0001312056   0.0001807806  -0.0000329098  -0.0002229787  -0.0001497781
       -0.0000179986   0.0001026822   0.0000225784   0.0000358931   0.0000127685
       -0.0001179780  -0.0000624710  -0.0000014873   0.0001887105   0.0000978337
       -0.0000726290   0.0008026462  -0.0010352405  -0.0003725626  -0.0002455148
        0.0000878277   0.0002851087   0.0000972090  -0.0001510192  -0.0001785374
       -0.0000175480   0.0000507720  -0.0000089874   0.0000434213  -0.0001583964
       -0.0000557669  -0.0000611646   0.0003054518   0.0000914316   0.0000844827
       -0.0002852624  -0.0000954221   0.0001377732   0.0006677593  -0.0000534230
       -0.0009562428  -0.0037098959  -0.0016171528   0.0087233196  -0.0018324681
        0.0000943404  -0.0087269882  -0.0177886018  -0.0107598918  -0.0007226597
       -0.0023956226  -0.0010713999   0.0003656240  -0.0010898113  -0.0000038789
       -0.0000119826  -0.0005019234  -0.0008286600  -0.0005400561   0.0005506127
       -0.0000555207  -0.0008415289   0.0004373148  -0.0006975901   0.0001805420
       -0.0006102125  -0.0006698152  -0.0005967983  -0.0002624760  -0.0002075528
       -0.0000967730   0.0001335361   0.0000611828   0.0000482226  -0.0001287558
       -0.0000174660   0.0000174503   0.0000144821   0.0000777048   0.0000000608
        0.0000353870  -0.0000449738   0.0000670235   0.0000476027  -0.0000245848
        0.0000772024   0.0000127572   0.0000391678   0.0000006990  -0.0000251796
        0.0000287856   0.0000134401  -0.0000182184  -0.0000777823  -0.0000232358
       -0.0000172167   0.0000621214   0.0000242079  -0.0000800495   0.0000430499
        0.0000494125  -0.0000690308  -0.0000264209   0.0000239764   0.0000202563
       -0.0000171852   0.0001190682   0.0000466468  -0.0000164990   0.0000931688
        0.0000405585   0.0000705452   0.0000192966  -0.0000101594   0.0000795012
        0.0000221913  -0.0000289144  -0.0000355509   0.0000693000   0.0000093505
       -0.0000277321   0.0000624280   0.0000350622   0.0000383443  -0.0000140626
        0.0000184655   0.0000306261   0.0000077809   0.0000246061  -0.0000781798
       -0.0000376373  -0.0000080797   0.0000786775  -0.0000443649   0.0000863511
        0.0000475471  -0.0000027679   0.0000884057  -0.0000261048   0.0000357894
       -0.0000025285  -0.0000127792  -0.0000472627   0.0001861045  -0.0000361244
       -0.0000189151  -0.0001838872   0.0000047553   0.0003475221   0.0004986812
        0.0003194287   0.0002176541   0.0025831779   0.0005624621
       -0.0867099476  -0.5771718566  -0.1776752555   0.0580787426   0.7595464423
        0.1990160539   0.0453535895  -0.0896625727  -0.0122054891   0.0168339761
       -0.0288046878  -0.0051835719  -0.0025759992  -0.0034776362   0.0028400011
        0.0012003202  -0.0018611365  -0.0000685033  -0.0042026649   0.0028059537
        0.0026394007   0.0071326364   0.0113419734  -0.0015412044  -0.0201137969
       -0.0672125400   0.0031389637  -0.0016109138   0.0083007276   0.0055110889
        0.0048725937   0.0065383747  -0.0040999022  -0.0059918703  -0.0021279039
       -0.0015145225   0.0046329162   0.0001711870   0.0012710205  -0.0013865670
        0.0009648143   0.0007125815   0.0002668402   0.0000142496   0.0000621139
        0.0000600980   0.0001193728  -0.0001979730  -0.0010273388   0.0009907452
        0.0000296753   0.0011643395  -0.0007936823   0.0001828735  -0.0003079800
       -0.0002823588   0.0000180057   0.0000854654   0.0000353794  -0.0001010548
       -0.0000544728  -0.0000456635   0.0000458417   0.0000239918  -0.0000102620
        0.0000064921  -0.0000510283  -0.0000042835  -0.0000148146   0.0000664563
        0.0000177348  -0.0000373113  -0.0000178144   0.0007405552  -0.0002151057
       -0.0000695612  -0.0001338624   0.0001411063  -0.0000132816   0.0000748580
       -0.0000992316   0.0000019673  -0.0000413895   0.0000083827  -0.0000315847
        0.0000814961  -0.0000339415   0.0000693694  -0.0001568650   0.0000498904
        0.0003302838  -0.0007663700   0.0000987389  -0.0002198310   0.0008757920
       -0.0000137773   0.0001979873  -0.0010037949  -0.0001080295  -0.0001788035
        0.0008817014   0.0001972853  -0.0000604309  -0.0013013185  -0.0000164700
        0.0005758249   0.0011429809   0.0000270372  -0.0005604020  -0.0000135175
        0.0000979515   0.0001151368  -0.0000160417  -0.0001152700  -0.0000832062
       -0.0000072852   0.0000641301   0.0000176432   0.0000132891   0.0000011323
       -0.0000671351  -0.0000335523  -0.0000039713   0.0001066317   0.0000491020
       -0.0000323875   0.0003079765  -0.0003796542  -0.0000860658  -0.0000739368
        0.0000573102   0.0001067728   0.0000384443  -0.0000526318  -0.0000560589
        0.0000052002   0.0000152277  -0.0000012596   0.0000087720  -0.0000695417
       -0.0000048087  -0.0000281174   0.0000987521   0.0000425438   0.0000265118
       -0.0001686880  -0.0000950571   0.0000353487   0.0002452080  -0.0000131415
       -0.0004103565  -0.0011877500  -0.0007110521   0.0031134732   0.0014160410
       -0.0057056889  -0.0186778181  -0.0161127561  -0.0071899456   0.0006379371
        0.0004794281  -0.0003059682   0.0006690303  -0.0003442151   0.0000110817
       -0.0003162015  -0.0000492199  -0.0002251821  -0.0012511399   0.0002602084
        0.0001870088  -0.0031472413  -0.0008278044   0.0003705451   0.0027369382
       -0.0023846414   0.0001434087   0.0009945850   0.0000988003  -0.0000092894
       -0.0001023394   0.0000073743   0.0000463106   0.0000551963  -0.0001024529
       -0.0000049675  -0.0000007082   0.0000187917   0.0000388614  -0.0000075138
        0.0000185459  -0.0000130207   0.0000164872   0.0000193920  -0.0000064760
        0.0000258741   0.0000051135   0.0000154939  -0.0000021923  -0.0000085653
        0.0000133111   0.0000161646   0.0000042827  -0.0000346634  -0.0000027331
       -0.0000058663   0.0000543498   0.0000205635  -0.0000335188   0.0000291943
        0.0000234336  -0.0000317129  -0.0000070624   0.0000142995   0.0000199988
        0.0000052707   0.0000370366  -0.0000007422  -0.0000287328   0.0000455279
        0.0000081489   0.0000224588   0.0000044290  -0.0000018945   0.0000363986
        0.0000106971  -0.0000181563  -0.0000297163   0.0000352355   0.0000042884
       -0.0000205758   0.0000300860   0.0000171970   0.0000115397  -0.0000114263
        0.0000089281   0.0000001742  -0.0000035475   0.0000148483  -0.0000351664
       -0.0000208171  -0.0000007970   0.0000142910  -0.0000191967   0.0000275489
        0.0000113372  -0.0000020983   0.0000378126  -0.0000177779   0.0000136594
       -0.0000025801  -0.0000118233  -0.0000186006   0.0000307119  -0.0000091913
        0.0000183943  -0.0000140804   0.0000259534  -0.0005710781   0.0001017367
       -0.0003081963  -0.0001264194  -0.0009965748   0.0008626021
       -0.0249916248  -0.1779457334  -0.1148605025  -0.0013664410   0.1990160539
        0.2464388121   0.0191541688  -0.0070471778  -0.0690564603  -0.0059829512
       -0.0012947192   0.0004284818   0.0014703176   0.0035949567   0.0067387597
        0.0008650687  -0.0000094706  -0.0006913752   0.0041598274   0.0023113355
        0.0059329896   0.0138570727  -0.0048325614  -0.0034294516  -0.0034943448
       -0.0034944405  -0.0641017797   0.0105479834   0.0070938587   0.0033134831
        0.0057733787  -0.0026646449   0.0020516066  -0.0018769938  -0.0015569213
       -0.0009712077   0.0015970244   0.0013565037  -0.0006272893  -0.0005833582
        0.0002289453   0.0001638316   0.0001438342  -0.0000325941   0.0000338609
       -0.0000340838   0.0000656323  -0.0000493782  -0.0003675512   0.0004189858
        0.0000111776   0.0004732217  -0.0002572839   0.0000287883  -0.0001508306
       -0.0001288864   0.0000298680   0.0000394002   0.0000214739  -0.0000444338
       -0.0000220434  -0.0000199850   0.0000234091   0.0000107266  -0.0000020291
       -0.0000001018  -0.0000264181  -0.0000057247  -0.0000007327   0.0000396718
        0.0000082128  -0.0000160621  -0.0000044727   0.0002439254  -0.0000525840
       -0.0000236142  -0.0000405099   0.0000514840  -0.0000086380   0.0000284959
       -0.0000276632   0.0000032038  -0.0000114073  -0.0000014656  -0.0000150548
        0.0000268274  -0.0000064985   0.0000186997  -0.0000490898   0.0000179473
        0.0001577246  -0.0003371355   0.0000480659  -0.0002051333   0.0003539870
        0.0000093102   0.0001921275  -0.0002980338  -0.0000005968  -0.0000646563
        0.0002642459   0.0000823571  -0.0000574737  -0.0004632991  -0.0000085544
        0.0002085571   0.0004181691  -0.0000111160  -0.0002112642  -0.0000064287
        0.0000410325   0.0000445575  -0.0000003028  -0.0000390698  -0.0000294596
       -0.0000008552   0.0000236235   0.0000064981   0.0000041195  -0.0000028199
       -0.0000283321  -0.0000115585   0.0000023933   0.0000406835   0.0000206462
       -0.0000132788   0.0001121657  -0.0001350710  -0.0000218243  -0.0000296373
        0.0000193400   0.0000378983   0.0000113398  -0.0000238841  -0.0000170058
        0.0000016290   0.0000072196  -0.0000025117   0.0000008248  -0.0000242496
       -0.0000003557  -0.0000122065   0.0000322156   0.0000145234   0.0000110833
       -0.0000225006   0.0000008614   0.0000004376   0.0000393366   0.0000215474
       -0.0000296598  -0.0005930896  -0.0004222163   0.0009939040  -0.0066446636
        0.0005775935  -0.0181011446  -0.0080655960  -0.0045145869  -0.0009826040
       -0.0001196594  -0.0017083431  -0.0004358234   0.0005838816   0.0003276736
       -0.0007422485  -0.0002675555  -0.0016168868   0.0002580870  -0.0003226309
       -0.0000969559  -0.0010056996  -0.0011093269  -0.0018833510   0.0013580872
        0.0008688556  -0.0012254955   0.0009800837   0.0000893217   0.0000781365
       -0.0000325997   0.0000387414  -0.0000023875   0.0000145999  -0.0000297500
        0.0000041492  -0.0000038419   0.0000055392   0.0000163850  -0.0000011044
        0.0000096282  -0.0000098806   0.0000086271   0.0000084189  -0.0000043711
        0.0000109605   0.0000027449   0.0000052559  -0.0000032301  -0.0000026465
        0.0000020364   0.0000059121  -0.0000064424  -0.0000150612  -0.0000008211
       -0.0000005631   0.0000105995   0.0000064964  -0.0000123665   0.0000091247
        0.0000111640  -0.0000136619  -0.0000048882   0.0000083675   0.0000066547
       -0.0000027891   0.0000120160   0.0000041131  -0.0000049665   0.0000144575
        0.0000085320   0.0000164305   0.0000006909  -0.0000053416   0.0000128364
        0.0000061688  -0.0000081205  -0.0000115431   0.0000123583   0.0000004378
       -0.0000068898   0.0000106437   0.0000045231   0.0000039475  -0.0000037221
        0.0000011248  -0.0000003920   0.0000009982   0.0000082678  -0.0000109885
       -0.0000054265  -0.0000002744   0.0000033482  -0.0000061405   0.0000097331
        0.0000042064   0.0000006096   0.0000155283  -0.0000067847   0.0000083337
        0.0000004868  -0.0000063709  -0.0000106123   0.0000229815   0.0000017172
       -0.0000266888   0.0000239120  -0.0000204742  -0.0008675399  -0.0005409513
       -0.0001014078  -0.0008183035   0.0011712246  -0.0008884034
        0.0097783603   0.0210214381   0.0057375527  -0.1425477275   0.0453535895
        0.0191541688   0.5425319462   0.0034923309  -0.1563281962  -0.0860471054
        0.0158263221   0.0091939162   0.0242223875   0.0188938491  -0.0135751101
       -0.0136324068  -0.0287270567   0.0080056651  -0.0576739382   0.0372736789
        0.0164775108  -0.2298706905  -0.1014780486   0.0904596082  -0.0311804785
        0.0096808297   0.0061342865  -0.0035913468  -0.0017505357  -0.0018697398
       -0.0010607205  -0.0003720747   0.0008408662   0.0016773817   0.0004848835
        0.0001495366  -0.0014243066  -0.0004822874  -0.0003078923   0.0005650475
       -0.0004226031  -0.0001778901  -0.0000445844   0.0001636557  -0.0000206063
        0.0000528632  -0.0000600774   0.0000466466   0.0002772813  -0.0002473292
        0.0000172355  -0.0003805931   0.0001595510  -0.0000273383   0.0001623179
        0.0001246068  -0.0000496147  -0.0000161182  -0.0000350803   0.0000497041
        0.0000298070   0.0000170322  -0.0000248329  -0.0000089134   0.0000020354
       -0.0000064962   0.0000278953   0.0000061074  -0.0000024159  -0.0000481468
       -0.0000089962   0.0000143709   0.0000032587  -0.0001874037   0.0000588729
        0.0000167596   0.0000266975  -0.0000458931   0.0000005024  -0.0000274237
        0.0000242064  -0.0000056446   0.0000004930   0.0000018487   0.0000116957
       -0.0000278653   0.0000069250  -0.0000239155   0.0000384713  -0.0000209403
       -0.0000778664   0.0001624153  -0.0000147869  -0.0000190853  -0.0002350249
       -0.0000003021  -0.0002210288   0.0001701656  -0.0000128403   0.0000688150
       -0.0001570740  -0.0000424678   0.0000870056   0.0004106428   0.0000025429
       -0.0001462875  -0.0004553033  -0.0000618826   0.0001712675  -0.0000052075
       -0.0000175871  -0.0000271919   0.0000083818   0.0000408953   0.0000281664
        0.0000058472  -0.0000149148  -0.0000061869  -0.0000087377  -0.0000038201
        0.0000216686   0.0000102133  -0.0000017308  -0.0000316075  -0.0000170673
        0.0000163471  -0.0001705710   0.0002276876   0.0000940175   0.0000563150
       -0.0000171935  -0.0000608199  -0.0000240642   0.0000370143   0.0000438321
        0.0000064485  -0.0000109469   0.0000020549  -0.0000119283   0.0000302366
        0.0000161762   0.0000094592  -0.0000661843  -0.0000177861  -0.0000224200
        0.0000635718   0.0000138769  -0.0000319300  -0.0001343006   0.0000085091
        0.0002539662   0.0007729222   0.0002387706  -0.0008356703  -0.0002789040
        0.0007235239  -0.0010838954   0.0017067917   0.0014508943  -0.0023291008
       -0.0232720914   0.0067654756  -0.0023258578   0.0043107471   0.0035538864
        0.0004153538  -0.0006996965   0.0000456315  -0.0023143172   0.0035259817
        0.0037772690  -0.0024991734  -0.0043614518   0.0010875612   0.0003285678
        0.0000976278  -0.0004262720  -0.0003506086  -0.0001895066   0.0000702720
        0.0000044228  -0.0000633929   0.0000019294  -0.0000054905   0.0000143408
        0.0000056751  -0.0000064156  -0.0000003161  -0.0000157671  -0.0000012230
       -0.0000052865   0.0000085511  -0.0000155676  -0.0000090700   0.0000054245
       -0.0000168456  -0.0000025780  -0.0000079509  -0.0000012804   0.0000052091
       -0.0000058079  -0.0000025392   0.0000074749   0.0000168097   0.0000050384
        0.0000040903  -0.0000066101  -0.0000029264   0.0000153348  -0.0000064727
       -0.0000086648   0.0000132141   0.0000056091  -0.0000030587  -0.0000017770
        0.0000049897  -0.0000299057  -0.0000145945  -0.0000006942  -0.0000178147
       -0.0000073814  -0.0000124890  -0.0000068261   0.0000008648  -0.0000161925
       -0.0000032515   0.0000044323   0.0000022417  -0.0000113930  -0.0000017910
        0.0000037759  -0.0000121072  -0.0000058101  -0.0000087073   0.0000015845
       -0.0000031035  -0.0000085390  -0.0000026334  -0.0000064019   0.0000167201
        0.0000062484   0.0000022902  -0.0000200205   0.0000089971  -0.0000200543
       -0.0000112170   0.0000004064  -0.0000171097   0.0000040547  -0.0000064654
        0.0000008261   0.0000003598   0.0000124126  -0.0000445383   0.0000095371
        0.0000118689   0.0000474317   0.0000060858   0.0000148441  -0.0000363015