      -----------------------------------------------------------      
     |                   =====================                   |     
     |                           x T B                           |     
     |                   =====================                   |     
     |                         S. Grimme                         |     
     |          Mulliken Center for Theoretical Chemistry        |     
     |                    University of Bonn                     |     
      -----------------------------------------------------------      

   * xtb version 6.7.1 (edcfbbe) compiled by 'albert@albert-system' on 2024-07-22

   xtb is free software: you can redistribute it and/or modify it under
   the terms of the GNU Lesser General Public License as published by
   the Free Software Foundation, either version 3 of the License, or
   (at your option) any later version.
   
   xtb is distributed in the hope that it will be useful,
   but WITHOUT ANY WARRANTY; without even the implied warranty of
   MERCHANTABILITY or FITNESS FOR A PARTICULAR PURPOSE.  See the
   GNU Lesser General Public License for more details.
   
   Cite this work as:
   * C. Bannwarth, E. Caldeweyher, S. Ehlert, A. Hansen, P. Pracht,
     J. Seibert, S. Spicher, S. Grimme, WIREs Comput. Mol. Sci., 2020, 11,
     e01493. DOI: 10.1002/wcms.1493
   
   for GFN2-xTB:
   * C. Bannwarth, S. Ehlert and S. Grimme., J. Chem. Theory Comput., 2019,
     15, 1652-1671. DOI: 10.1021/acs.jctc.8b01176
   for GFN1-xTB:
   * S. Grimme, C. Bannwarth, P. Shushkov, J. Chem. Theory Comput., 2017,
     13, 1989-2009. DOI: 10.1021/acs.jctc.7b00118
   for GFN0-xTB:
   * P. Pracht, E. Caldeweyher, S. Ehlert, S. Grimme, ChemRxiv, 2019, preprint.
     DOI: 10.26434/chemrxiv.8326202.v1
   for GFN-FF:
   * S. Spicher and S. Grimme, Angew. Chem. Int. Ed., 2020, 59, 15665-15673.
     DOI: 10.1002/anie.202004239
   
   for ALPB and GBSA implicit solvation:
   * S. Ehlert, M. Stahn, S. Spicher, S. Grimme, J. Chem. Theory Comput.,
     2021, 17, 4250-4261. DOI: 10.1021/acs.jctc.1c00471
   
   for ddCOSMO and CPCM-X implicit solvation:
   * M. Stahn, S. Ehlert, S. Grimme, J. Phys. Chem. A,
     2023, XX, XXXX-XXXX. DOI: 10.1021/acs.jpca.3c04382
   
   for DFT-D4:
   * E. Caldeweyher, C. Bannwarth and S. Grimme, J. Chem. Phys., 2017,
     147, 034112. DOI: 10.1063/1.4993215
   * E. Caldeweyher, S. Ehlert, A. Hansen, H. Neugebauer, S. Spicher,
     C. Bannwarth and S. Grimme, J. Chem. Phys., 2019, 150, 154122.
     DOI: 10.1063/1.5090222
   * E. Caldeweyher, J.-M. Mewes, S. Ehlert and S. Grimme, Phys. Chem. Chem. Phys.
     2020, 22, 8499-8512. DOI: 10.1039/D0CP00502A
   
   for sTDA-xTB:
   * S. Grimme and C. Bannwarth, J. Chem. Phys., 2016, 145, 054103.
     DOI: 10.1063/1.4959605
   
   in the mass-spec context:
   * V. Asgeirsson, C. Bauer and S. Grimme, Chem. Sci., 2017, 8, 4879.
     DOI: 10.1039/c7sc00601b
   * J. Koopman and S. Grimme, ACS Omega 2019, 4, 12, 15120-15133.
     DOI: 10.1021/acsomega.9b02011
   
   for metadynamics refer to:
   * S. Grimme, J. Chem. Theory Comput., 2019, 155, 2847-2862
     DOI: 10.1021/acs.jctc.9b00143
   
   for SPH calculations refer to:
   * S. Spicher and S. Grimme, J. Chem. Theory Comput., 2021, 17, 1701-1714
     DOI: 10.1021/acs.jctc.0c01306
   
   for ONIOM refer to:
   * C. Plett, A. Katbashev, S. Ehlert, S. Grimme, M. Bursch,
     Phys. Chem. Chem. Phys., 2023, 25, 17860-17868. DOI: 10.1039/D3CP02178E
   
   for DIPRO refer to:
   * J. Kohn, N. Gildemeister, S. Grimme, D. Fazzi, A. Hansen,
     J. Chem. Phys., 2023, just accepted.
   
   for PTB refer to:
   * S. Grimme, M. Mueller, A. Hansen, J. Chem. Phys., 2023, 158, 124111.
     DOI: 10.1063/5.0137838
   
   with help from (in alphabetical order)
   P. Atkinson, C. Bannwarth, F. Bohle, G. Brandenburg, E. Caldeweyher
   M. Checinski, S. Dohm, S. Ehlert, S. Ehrlich, I. Gerasimov, C. Hölzer
   A. Katbashev, J. Kohn, J. Koopman, C. Lavigne, S. Lehtola, F. März, M. Müller,
   F. Musil, H. Neugebauer, J. Pisarek, C. Plett, P. Pracht, F. Pultar,
   J. Seibert, P. Shushkov, S. Spicher, M. Stahn, M. Steiner, T. Strunk,
   J. Stückrath, T. Rose, and J. Unsleber
   
 * started run on 2025/09/12 at 20:00:57.075     
   ID    Z sym.   atoms
    1    8 O      1
    2    6 C      2-12, 14-17, 19-35, 37-53
    3    7 N      13, 18, 36
    4    1 H      54-88

           -------------------------------------------------
          |                Calculation Setup                |
           -------------------------------------------------

          program call               : xtb data2507/gas/CCDD/CCDD_gas_T1_crest.xyz --gfn 2 --spinpol --tblite --uhf 2 --ohess vtight --parallel 40 --molden --ceasefiles --namespace data2507/gas/CCDD/CCDD_gas_T1_finalOpt
          calculation namespace      : data2507/gas/CCDD/CCDD_gas_T1_finalOpt
          coordinate file            : data2507/gas/CCDD/CCDD_gas_T1_crest.xyz
          omp threads                :                    40

repulsion energy          2.4957785944862E+00 Eh
dispersion energy         1.0428487755421E-05 Eh
interaction energy        0.0000000000000E+00 Eh
number of electrons       2.5200000000000E+02 e
integral cutoff           1.7347787504999E+01 bohr

------------------------------------------------------------
  cycle        total energy    energy error   density error
------------------------------------------------------------
      1     -135.3338987616  -1.3782969E+02   9.8027141E-02
      2     -135.1213184784   2.1258028E-01   6.0298727E-02
      3     -134.3379126184   7.8340586E-01   5.9389721E-02
      4     -135.4929902553  -1.1550776E+00   2.7270090E-02
      5     -135.4362210534   5.6769202E-02   2.1984198E-02
      6     -135.5181864036  -8.1965350E-02   1.5740049E-02
      7     -135.5402330599  -2.2046656E-02   1.1373653E-02
      8     -135.5024000904   3.7832969E-02   1.5894435E-02
      9     -135.4818184299   2.0581661E-02   1.6959370E-02
     10     -135.5449380968  -6.3119667E-02   7.0988594E-03
     11     -135.5594457071  -1.4507610E-02   2.4807473E-03
     12     -135.5586243175   8.2138960E-04   3.3475173E-03
     13     -135.5589903861  -3.6606858E-04   2.6077715E-03
     14     -135.5594534386  -4.6305254E-04   1.2919096E-03
     15     -135.5596582604  -2.0482179E-04   2.2343781E-04
     16     -135.5596555991   2.6612970E-06   1.9866672E-04
     17     -135.5596573139  -1.7147902E-06   2.1509235E-04
     18     -135.5596659687  -8.6547304E-06   3.3793495E-05
     19     -135.5596659771  -8.4056921E-09   1.5348456E-05
------------------------------------------------------------

electronic energy        -1.3805545500004E+02 Eh
total energy             -1.3555966597706E+02 Eh

 total:                                   0.485 sec
 - repulsion                              0.001 sec (  0%)
 - dispersion                             0.020 sec (  4%)
 - coulomb                                0.008 sec (  1%)
 - hamiltonian                            0.016 sec (  3%)
 - scc                                    0.440 sec ( 90%)

      ----------------------------------------------------------- 
     |                   =====================                   |
     |                        A N C O P T                        |
     |                   =====================                   |
     |               Approximate Normal Coordinate               |
     |                Rational Function Optimizer                |
      ----------------------------------------------------------- 

Optimization log is written to '/dev/null'
      ----------------------------------------------------------- 
     |                   =====================                   |
     |                        A N C O P T                        |
     |                   =====================                   |
     |               Approximate Normal Coordinate               |
     |                Rational Function Optimizer                |
      ----------------------------------------------------------- 

          ...................................................
          :                      SETUP                      :
          :.................................................:
          :   optimization level         verytight          :
          :   max. optcycles                  1760          :
          :   ANC micro-cycles                  20          :
          :   degrees of freedom               258          :
          :.................................................:
          :   RF solver                   davidson          :
          :   write xtbopt.log                true          :
          :   linear?                        false          :
          :   energy convergence         0.1000000E-06 Eh   :
          :   grad. convergence          0.2000000E-03 Eh/α :
          :   maxmium RF displ.          1.0000000          :
          :   Hlow (freq-cutoff)         0.1000000E-01      :
          :   Hmax (freq-cutoff)         5.0000000          :
          :   S6 in model hess.         20.0000000          :
          ...................................................

generating ANC from exact Hessian ...
Using Lindh-Hessian (1995)
 Shifting diagonal of input Hessian by   9.910019595010550E-003
 Lowest  eigenvalues of input Hessian
    0.000000    0.000000    0.000000    0.000000    0.000000    0.000000
    0.010000    0.010027    0.010035    0.010068    0.010219    0.010348
    0.010489    0.010755    0.010905    0.011002    0.011146    0.011392
 Highest eigenvalues
    2.135434    2.155839    2.160214    2.183208    2.215052    2.235422
 

........................................................................
.............................. CYCLE    1 ..............................
........................................................................
------------------------------------------------------------
  cycle        total energy    energy error   density error
------------------------------------------------------------
      1     -135.5596142875  -1.3805540E+02   4.4177837E-04
      2     -135.5430134409   1.6600847E-02   8.1470159E-03
      3     -135.5596591905  -1.6645750E-02   1.5189904E-04
      4     -135.5596574609   1.7296319E-06   1.7333839E-04
      5     -135.5596659336  -8.4726852E-06   1.6823530E-05
      6     -135.5596660137  -8.0100563E-08   2.0377839E-06
------------------------------------------------------------

 total:                                   0.126 sec
 * total energy  :  -135.5596660 Eh     change       -0.3658926E-07 Eh
   gradient norm :     0.0201330 Eh/α   predicted     0.0000000E+00 (-100.00%)
   displ. norm   :     0.0275076 α      lambda       -0.2047685E-03
   maximum displ.:     0.0065756 α      in ANC's #36, #29, #8, ...

........................................................................
.............................. CYCLE    2 ..............................
........................................................................
------------------------------------------------------------
  cycle        total energy    energy error   density error
------------------------------------------------------------
      1     -135.5582609796  -1.3805525E+02   2.1446171E-03
      2     -135.3818398135   1.7642117E-01   2.3011421E-02
      3     -135.5581654226  -1.7632561E-01   3.5149670E-03
      4     -135.5577399109   4.2551162E-04   3.6388846E-03
      5     -135.5584395671  -6.9965616E-04   3.0509416E-03
      6     -135.5595409955  -1.1014284E-03   1.2390293E-03
      7     -135.5598347999  -2.9380433E-04   3.4514467E-04
      8     -135.5598433998  -8.5999486E-06   4.9803791E-04
      9     -135.5598453834  -1.9836239E-06   3.8637585E-04
     10     -135.5598544054  -9.0219748E-06   1.5337461E-04
     11     -135.5598552483  -8.4291946E-07   8.0689739E-05
     12     -135.5598563100  -1.0616279E-06   2.5812442E-05
     13     -135.5598563606  -5.0661072E-08   7.3328379E-06
------------------------------------------------------------

 total:                                   0.244 sec
 * total energy  :  -135.5598564 Eh     change       -0.1903470E-03 Eh
   gradient norm :     0.0118609 Eh/α   predicted    -0.1232710E-03 ( -35.24%)
   displ. norm   :     0.0465767 α      lambda       -0.1955682E-03
   maximum displ.:     0.0178964 α      in ANC's #8, #9, #6, ...

........................................................................
.............................. CYCLE    3 ..............................
........................................................................
------------------------------------------------------------
  cycle        total energy    energy error   density error
------------------------------------------------------------
      1     -135.5580210378  -1.3805617E+02   2.4425112E-03
      2     -135.3896640738   1.6835696E-01   2.2720373E-02
      3     -135.5581441346  -1.6848006E-01   3.8306123E-03
      4     -135.5574484334   6.9570124E-04   4.0983677E-03
      5     -135.5580881822  -6.3974875E-04   3.5998074E-03
      6     -135.5595380778  -1.4498957E-03   1.4559203E-03
      7     -135.5599449270  -4.0684918E-04   5.8325527E-04
      8     -135.5599082426   3.6684465E-05   8.1119578E-04
      9     -135.5599358016  -2.7559081E-05   5.0890563E-04
     10     -135.5599545318  -1.8730191E-05   1.8178642E-04
     11     -135.5599555896  -1.0577330E-06   1.0790326E-04
     12     -135.5599575627  -1.9731104E-06   4.0814943E-05
     13     -135.5599576968  -1.3414208E-07   6.9342447E-06
------------------------------------------------------------

 total:                                   0.257 sec
 * total energy  :  -135.5599577 Eh     change       -0.1013362E-03 Eh
   gradient norm :     0.0017600 Eh/α   predicted    -0.9840544E-04 (  -2.89%)
   displ. norm   :     0.0289467 α      lambda       -0.6915118E-05
   maximum displ.:     0.0172332 α      in ANC's #8, #6, #7, ...

........................................................................
.............................. CYCLE    4 ..............................
........................................................................
------------------------------------------------------------
  cycle        total energy    energy error   density error
------------------------------------------------------------
      1     -135.5599656500  -1.3805768E+02   1.7704446E-04
      2     -135.5597272229   2.3842703E-04   1.0592671E-03
      3     -135.5599653733  -2.3815042E-04   1.2867931E-04
      4     -135.5599645569   8.1645004E-07   1.0366456E-04
      5     -135.5599642460   3.1092216E-07   1.0415747E-04
      6     -135.5599656925  -1.4464810E-06   6.4821198E-05
      7     -135.5599661880  -4.9551974E-07   4.2035744E-05
      8     -135.5599664037  -2.1576523E-07   2.5186233E-05
      9     -135.5599665358  -1.3203112E-07   1.1464786E-06
------------------------------------------------------------

 total:                                   0.178 sec
 * total energy  :  -135.5599665 Eh     change       -0.8838957E-05 Eh
   gradient norm :     0.0007069 Eh/α   predicted    -0.4102027E-05 ( -53.59%)
   displ. norm   :     0.0555300 α      lambda       -0.7280455E-05
   maximum displ.:     0.0334992 α      in ANC's #8, #6, #7, ...

........................................................................
.............................. CYCLE    5 ..............................
........................................................................
------------------------------------------------------------
  cycle        total energy    energy error   density error
------------------------------------------------------------
      1     -135.5599746387  -1.3805732E+02   2.5452518E-04
      2     -135.5599737449   8.9381189E-07   1.6155477E-04
      3     -135.5590921414   8.8160348E-04   1.9912536E-03
      4     -135.5599589870  -8.6684562E-04   2.5033252E-04
      5     -135.5599743765  -1.5389456E-05   4.0603437E-05
      6     -135.5599746109  -2.3447157E-07   2.6047546E-05
      7     -135.5599747279  -1.1692418E-07   1.2564397E-05
------------------------------------------------------------

 total:                                   0.142 sec
 * total energy  :  -135.5599747 Eh     change       -0.8192102E-05 Eh
   gradient norm :     0.0009844 Eh/α   predicted    -0.3647545E-05 ( -55.47%)
   displ. norm   :     0.0792323 α      lambda       -0.7315402E-05
   maximum displ.:     0.0454681 α      in ANC's #8, #6, #7, ...

........................................................................
.............................. CYCLE    6 ..............................
........................................................................
------------------------------------------------------------
  cycle        total energy    energy error   density error
------------------------------------------------------------
      1     -135.5599211702  -1.3805711E+02   6.0417134E-04
      2     -135.5426892370   1.7231933E-02   8.8118504E-03
      3     -135.5599531545  -1.7263918E-02   4.2330602E-04
      4     -135.5599798498  -2.6695357E-05   1.1717597E-04
      5     -135.5599752735   4.5763702E-06   1.7828366E-04
      6     -135.5599799309  -4.6574102E-06   1.1847342E-04
      7     -135.5599830908  -3.1599501E-06   2.3225583E-05
      8     -135.5599831768  -8.5920419E-08   1.0321169E-05
------------------------------------------------------------

 total:                                   0.160 sec
 * total energy  :  -135.5599832 Eh     change       -0.8448887E-05 Eh
   gradient norm :     0.0013509 Eh/α   predicted    -0.3669287E-05 ( -56.57%)
   displ. norm   :     0.1305892 α      lambda       -0.1125694E-04
   maximum displ.:     0.0726291 α      in ANC's #8, #6, #7, ...

........................................................................
.............................. CYCLE    7 ..............................
........................................................................
------------------------------------------------------------
  cycle        total energy    energy error   density error
------------------------------------------------------------
      1     -135.5599492896  -1.3805703E+02   6.9017110E-04
      2     -135.5463587088   1.3590581E-02   7.8490319E-03
      3     -135.5599492872  -1.3590578E-02   5.6797156E-04
      4     -135.5599457851   3.5020327E-06   4.5207736E-04
      5     -135.5599792820  -3.3496841E-05   2.7318662E-04
      6     -135.5599944804  -1.5198428E-05   1.0704352E-04
      7     -135.5599969277  -2.4473254E-06   2.9649684E-05
      8     -135.5599970495  -1.2174337E-07   1.5910992E-05
------------------------------------------------------------

 total:                                   0.159 sec
 * total energy  :  -135.5599970 Eh     change       -0.1387272E-04 Eh
   gradient norm :     0.0012265 Eh/α   predicted    -0.5671362E-05 ( -59.12%)
   displ. norm   :     0.1789549 α      lambda       -0.1264316E-04
   maximum displ.:     0.0991582 α      in ANC's #8, #6, #7, ...

........................................................................
.............................. CYCLE    8 ..............................
........................................................................
------------------------------------------------------------
  cycle        total energy    energy error   density error
------------------------------------------------------------
      1     -135.5598760298  -1.3805699E+02   1.0292523E-03
      2     -135.5282214369   3.1654593E-02   1.1850472E-02
      3     -135.5599283461  -3.1706909E-02   7.6572946E-04
      4     -135.5600026867  -7.4340683E-05   2.0535655E-04
      5     -135.5600100038  -7.3170153E-06   4.8547393E-05
      6     -135.5600103814  -3.7760765E-07   3.2857392E-05
      7     -135.5600104800  -9.8626515E-08   2.7115597E-05
      8     -135.5600106134  -1.3338203E-07   7.5893781E-06
------------------------------------------------------------

 total:                                   0.158 sec
 * total energy  :  -135.5600106 Eh     change       -0.1356389E-04 Eh
   gradient norm :     0.0008065 Eh/α   predicted    -0.6411698E-05 ( -52.73%)
   displ. norm   :     0.1249930 α      lambda       -0.5968562E-05
   maximum displ.:     0.0699543 α      in ANC's #8, #6, #7, ...

........................................................................
.............................. CYCLE    9 ..............................
........................................................................
------------------------------------------------------------
  cycle        total energy    energy error   density error
------------------------------------------------------------
      1     -135.5600158006  -1.3805743E+02   5.1677424E-04
      2     -135.5599816668   3.4133745E-05   4.8931472E-04
      3     -135.5571026997   2.8789671E-03   3.6778871E-03
      4     -135.5598951052  -2.7924055E-03   7.0241657E-04
      5     -135.5600143661  -1.1926086E-04   9.7402761E-05
      6     -135.5600159519  -1.5858605E-06   4.9092055E-05
      7     -135.5600160569  -1.0494796E-07   4.2989399E-05
      8     -135.5600160920  -3.5083019E-08   3.8391839E-05
      9     -135.5600163925  -3.0056299E-07   4.5388843E-06
------------------------------------------------------------

 total:                                   0.190 sec
 * total energy  :  -135.5600164 Eh     change       -0.5779171E-05 Eh
   gradient norm :     0.0003844 Eh/α   predicted    -0.3012846E-05 ( -47.87%)
   displ. norm   :     0.0665348 α      lambda       -0.2718351E-05
   maximum displ.:     0.0371193 α      in ANC's #8, #6, #7, ...

........................................................................
.............................. CYCLE   10 ..............................
........................................................................
------------------------------------------------------------
  cycle        total energy    energy error   density error
------------------------------------------------------------
      1     -135.5600056832  -1.3805770E+02   3.5398038E-04
      2     -135.5559101965   4.0954866E-03   4.3412136E-03
      3     -135.5600184465  -4.1082500E-03   1.6427145E-04
      4     -135.5600189914  -5.4485477E-07   4.2267358E-05
      5     -135.5600191542  -1.6280640E-07   2.6453279E-05
      6     -135.5600192876  -1.3341577E-07   1.1370952E-05
------------------------------------------------------------

 total:                                   0.121 sec
 * total energy  :  -135.5600193 Eh     change       -0.2895056E-05 Eh
   gradient norm :     0.0003370 Eh/α   predicted    -0.1363658E-05 ( -52.90%)
   displ. norm   :     0.0587490 α      lambda       -0.2513472E-05
   maximum displ.:     0.0339830 α      in ANC's #6, #8, #3, ...

........................................................................
.............................. CYCLE   11 ..............................
........................................................................
------------------------------------------------------------
  cycle        total energy    energy error   density error
------------------------------------------------------------
      1     -135.5599277184  -1.3805774E+02   6.7496013E-04
      2     -135.5359199847   2.4007734E-02   1.0401852E-02
      3     -135.5600129488  -2.4092964E-02   2.5772498E-04
      4     -135.5600025206   1.0428245E-05   3.0655494E-04
      5     -135.5600214651  -1.8944487E-05   5.4530061E-05
      6     -135.5600222426  -7.7750494E-07   2.1886138E-05
      7     -135.5600223606  -1.1801615E-07   4.5805353E-06
------------------------------------------------------------

 total:                                   0.139 sec
 * total energy  :  -135.5600224 Eh     change       -0.3072979E-05 Eh
   gradient norm :     0.0003820 Eh/α   predicted    -0.1261783E-05 ( -58.94%)
   displ. norm   :     0.0637965 α      lambda       -0.2653597E-05
   maximum displ.:     0.0370147 α      in ANC's #6, #8, #3, ...

........................................................................
.............................. CYCLE   12 ..............................
........................................................................
------------------------------------------------------------
  cycle        total energy    energy error   density error
------------------------------------------------------------
      1     -135.5600229957  -1.3805773E+02   2.5712454E-04
      2     -135.5593321087   6.9088701E-04   1.7939078E-03
      3     -135.5600234712  -6.9136252E-04   1.6270576E-04
      4     -135.5600204572   3.0140279E-06   1.2457600E-04
      5     -135.5600253740  -4.9168435E-06   1.5668230E-05
      6     -135.5600253388   3.5168540E-08   2.1822244E-05
      7     -135.5600254040  -6.5217165E-08   1.3511669E-05
------------------------------------------------------------

 total:                                   0.139 sec
 * total energy  :  -135.5600254 Eh     change       -0.3043472E-05 Eh
   gradient norm :     0.0004361 Eh/α   predicted    -0.1329688E-05 ( -56.31%)
   displ. norm   :     0.0645971 α      lambda       -0.2374218E-05
   maximum displ.:     0.0366493 α      in ANC's #6, #3, #8, ...

........................................................................
.............................. CYCLE   13 ..............................
........................................................................
------------------------------------------------------------
  cycle        total energy    energy error   density error
------------------------------------------------------------
      1     -135.5599478991  -1.3805762E+02   6.4930513E-04
      2     -135.5388967162   2.1051183E-02   9.7610447E-03
      3     -135.5600268748  -2.1130159E-02   1.5666242E-04
      4     -135.5600216123   5.2624741E-06   1.7897164E-04
      5     -135.5600272244  -5.6120978E-06   6.0710901E-05
      6     -135.5600282761  -1.0517064E-06   2.2262414E-05
      7     -135.5600284037  -1.2761396E-07   8.3865548E-06
------------------------------------------------------------

 total:                                   0.141 sec
 * total energy  :  -135.5600284 Eh     change       -0.2999672E-05 Eh
   gradient norm :     0.0003555 Eh/α   predicted    -0.1190424E-05 ( -60.31%)
   displ. norm   :     0.0599577 α      lambda       -0.1851363E-05
   maximum displ.:     0.0340497 α      in ANC's #6, #3, #17, ...

........................................................................
.............................. CYCLE   14 ..............................
........................................................................
------------------------------------------------------------
  cycle        total energy    energy error   density error
------------------------------------------------------------
      1     -135.5600000168  -1.3805752E+02   4.3072690E-04
      2     -135.5510829433   8.9170734E-03   6.3948186E-03
      3     -135.5600301333  -8.9471899E-03   1.3160470E-04
      4     -135.5600298546   2.7870792E-07   6.0103153E-05
      5     -135.5600293229   5.3165655E-07   6.7336164E-05
      6     -135.5600303809  -1.0580149E-06   2.8857272E-05
      7     -135.5600305447  -1.6380116E-07   1.0581646E-05
------------------------------------------------------------

 total:                                   0.137 sec
 * total energy  :  -135.5600305 Eh     change       -0.2140997E-05 Eh
   gradient norm :     0.0003068 Eh/α   predicted    -0.9307205E-06 ( -56.53%)
   displ. norm   :     0.0543707 α      lambda       -0.1595728E-05
   maximum displ.:     0.0309372 α      in ANC's #6, #3, #4, ...

........................................................................
.............................. CYCLE   15 ..............................
........................................................................
------------------------------------------------------------
  cycle        total energy    energy error   density error
------------------------------------------------------------
      1     -135.5600071508  -1.3805747E+02   3.9940937E-04
      2     -135.5525592571   7.4478937E-03   5.8441034E-03
      3     -135.5600237985  -7.4645414E-03   2.3038077E-04
      4     -135.5600321021  -8.3036048E-06   4.9715714E-05
      5     -135.5600319636   1.3846241E-07   3.8553036E-05
      6     -135.5600323761  -4.1248867E-07   1.2760752E-05
------------------------------------------------------------

 total:                                   0.123 sec
 * total energy  :  -135.5600324 Eh     change       -0.1831403E-05 Eh
   gradient norm :     0.0002033 Eh/α   predicted    -0.8018683E-06 ( -56.22%)
   displ. norm   :     0.0532538 α      lambda       -0.1481011E-05
   maximum displ.:     0.0302710 α      in ANC's #6, #3, #4, ...

........................................................................
.............................. CYCLE   16 ..............................
........................................................................
------------------------------------------------------------
  cycle        total energy    energy error   density error
------------------------------------------------------------
      1     -135.5600123457  -1.3805748E+02   3.6896837E-04
      2     -135.5546568795   5.3554662E-03   4.9613801E-03
      3     -135.5600304852  -5.3736057E-03   1.5788060E-04
      4     -135.5600279561   2.5291712E-06   1.5449674E-04
      5     -135.5600338777  -5.9216464E-06   3.3906836E-05
      6     -135.5600336639   2.1377787E-07   4.3847587E-05
      7     -135.5600341078  -4.4386510E-07   5.4418442E-06
------------------------------------------------------------

 total:                                   0.146 sec
 * total energy  :  -135.5600341 Eh     change       -0.1731687E-05 Eh
   gradient norm :     0.0002623 Eh/α   predicted    -0.7441251E-06 ( -57.03%)
   displ. norm   :     0.0501467 α      lambda       -0.1300050E-05
   maximum displ.:     0.0280287 α      in ANC's #6, #3, #4, ...

........................................................................
.............................. CYCLE   17 ..............................
........................................................................
------------------------------------------------------------
  cycle        total energy    energy error   density error
------------------------------------------------------------
      1     -135.5600350151  -1.3805754E+02   1.8936665E-04
      2     -135.5599038297   1.3118542E-04   7.8025423E-04
      3     -135.5599875304  -8.3700696E-05   4.8515668E-04
      4     -135.5600348679  -4.7337487E-05   5.2383051E-05
      5     -135.5600354860  -6.1809820E-07   1.4207058E-05
------------------------------------------------------------

 total:                                   0.114 sec
 * total energy  :  -135.5600355 Eh     change       -0.1378174E-05 Eh
   gradient norm :     0.0002821 Eh/α   predicted    -0.6524001E-06 ( -52.66%)
   displ. norm   :     0.0454615 α      lambda       -0.1035888E-05
   maximum displ.:     0.0252780 α      in ANC's #6, #3, #4, ...

........................................................................
.............................. CYCLE   18 ..............................
........................................................................
------------------------------------------------------------
  cycle        total energy    energy error   density error
------------------------------------------------------------
      1     -135.5600335612  -1.3805762E+02   1.8664491E-04
      2     -135.5596307025   4.0285874E-04   1.3613131E-03
      3     -135.5600199060  -3.8920358E-04   2.8301623E-04
      4     -135.5600348167  -1.4910692E-05   1.0106947E-04
      5     -135.5600362774  -1.4606678E-06   4.3819694E-05
      6     -135.5600365868  -3.0943178E-07   2.5775516E-05
      7     -135.5600367475  -1.6069103E-07   2.1132377E-06
------------------------------------------------------------

 total:                                   0.145 sec
 * total energy  :  -135.5600367 Eh     change       -0.1261542E-05 Eh
   gradient norm :     0.0002813 Eh/α   predicted    -0.5200528E-06 ( -58.78%)
   displ. norm   :     0.0495671 α      lambda       -0.1114647E-05
   maximum displ.:     0.0272996 α      in ANC's #6, #3, #4, ...

........................................................................
.............................. CYCLE   19 ..............................
........................................................................
------------------------------------------------------------
  cycle        total energy    energy error   density error
------------------------------------------------------------
      1     -135.5600358058  -1.3805767E+02   1.8325359E-04
      2     -135.5593580238   6.7778204E-04   1.7709070E-03
      3     -135.5600378155  -6.7979173E-04   9.4515070E-05
      4     -135.5600375567   2.5878390E-07   4.4709181E-05
      5     -135.5600376771  -1.2040530E-07   4.0104335E-05
      6     -135.5600380524  -3.7526334E-07   2.0945869E-06
------------------------------------------------------------

 total:                                   0.123 sec
 * total energy  :  -135.5600381 Eh     change       -0.1304880E-05 Eh
   gradient norm :     0.0002209 Eh/α   predicted    -0.5596301E-06 ( -57.11%)
   displ. norm   :     0.0563919 α      lambda       -0.1152712E-05
   maximum displ.:     0.0310405 α      in ANC's #6, #3, #4, ...

........................................................................
.............................. CYCLE   20 ..............................
........................................................................
------------------------------------------------------------
  cycle        total energy    energy error   density error
------------------------------------------------------------
      1     -135.5600391803  -1.3805769E+02   1.6781153E-04
      2     -135.5600223715   1.6808800E-05   2.9930810E-04
      3     -135.5599703151   5.2056412E-05   5.6669053E-04
      4     -135.5600364206  -6.6105519E-05   9.9875587E-05
      5     -135.5600392793  -2.8586831E-06   1.3150931E-05
      6     -135.5600393197  -4.0426784E-08   5.7271955E-06
------------------------------------------------------------

 total:                                   0.125 sec
 * total energy  :  -135.5600393 Eh     change       -0.1267276E-05 Eh
   gradient norm :     0.0002096 Eh/α   predicted    -0.5819500E-06 ( -54.08%)
   displ. norm   :     0.0469801 α      lambda       -0.7990531E-06
   maximum displ.:     0.0258852 α      in ANC's #6, #3, #4, ...
 * RMSD in coord.:     0.1147227 α      energy gain  -0.3733426E-03 Eh

generating ANC from exact Hessian ...
Using Lindh-Hessian (1995)
 Shifting diagonal of input Hessian by   9.911285777586761E-003
 Lowest  eigenvalues of input Hessian
    0.000000    0.000000    0.000000    0.000000    0.000000    0.000000
    0.010000    0.010028    0.010035    0.010068    0.010220    0.010354
    0.010494    0.010765    0.010914    0.011008    0.011145    0.011390
 Highest eigenvalues
    2.129824    2.154677    2.160013    2.182795    2.218305    2.236197
 

........................................................................
.............................. CYCLE   21 ..............................
........................................................................
------------------------------------------------------------
  cycle        total energy    energy error   density error
------------------------------------------------------------
      1     -135.5600265802  -1.3805767E+02   2.7787644E-04
      2     -135.5559404877   4.0860925E-03   4.3419030E-03
      3     -135.5600390942  -4.0986064E-03   1.0672892E-04
      4     -135.5600394220  -3.2778860E-07   5.9865468E-05
      5     -135.5600399535  -5.3156324E-07   2.9794956E-05
      6     -135.5600401424  -1.8891265E-07   1.5230682E-05
------------------------------------------------------------

 total:                                   0.132 sec
 * total energy  :  -135.5600401 Eh     change       -0.8227582E-06 Eh
   gradient norm :     0.0002103 Eh/α   predicted     0.0000000E+00 (-100.00%)
   displ. norm   :     0.0062903 α      lambda       -0.2568507E-06
   maximum displ.:     0.0027323 α      in ANC's #14, #9, #8, ...

........................................................................
.............................. CYCLE   22 ..............................
........................................................................
------------------------------------------------------------
  cycle        total energy    energy error   density error
------------------------------------------------------------
      1     -135.5599852113  -1.3805758E+02   5.0301493E-04
      2     -135.5449018572   1.5083354E-02   8.2944394E-03
      3     -135.5600379248  -1.5136068E-02   9.5149535E-05
      4     -135.5600396422  -1.7173959E-06   5.4165869E-05
      5     -135.5600403519  -7.0969443E-07   3.1266204E-05
      6     -135.5600405384  -1.8650874E-07   9.8091335E-06
------------------------------------------------------------

 total:                                   0.123 sec
 * total energy  :  -135.5600405 Eh     change       -0.3959499E-06 Eh
   gradient norm :     0.0001142 Eh/α   predicted    -0.1391506E-06 ( -64.86%)
   displ. norm   :     0.0291245 α      lambda       -0.9407288E-06
   maximum displ.:     0.0130861 α      in ANC's #14, #9, #8, ...

........................................................................
.............................. CYCLE   23 ..............................
........................................................................
------------------------------------------------------------
  cycle        total energy    energy error   density error
------------------------------------------------------------
      1     -135.5600302425  -1.3805751E+02   2.4922365E-04
      2     -135.5567076300   3.3226125E-03   3.9144052E-03
      3     -135.5600410176  -3.3333876E-03   7.5772279E-05
      4     -135.5600407263   2.9123649E-07   5.1243550E-05
      5     -135.5600412844  -5.5802522E-07   1.4187545E-05
------------------------------------------------------------

 total:                                   0.105 sec
 * total energy  :  -135.5600413 Eh     change       -0.7459819E-06 Eh
   gradient norm :     0.0002293 Eh/α   predicted    -0.4706402E-06 ( -36.91%)
   displ. norm   :     0.0116986 α      lambda       -0.1588806E-06
   maximum displ.:     0.0051560 α      in ANC's #14, #3, #9, ...

........................................................................
.............................. CYCLE   24 ..............................
........................................................................
------------------------------------------------------------
  cycle        total energy    energy error   density error
------------------------------------------------------------
      1     -135.5600359778  -1.3805756E+02   1.6107551E-04
      2     -135.5585954616   1.4405162E-03   2.5801566E-03
      3     -135.5600397801  -1.4443185E-03   8.1393744E-05
      4     -135.5600414688  -1.6887349E-06   2.6587110E-05
      5     -135.5600414408   2.7980434E-08   2.4313203E-05
      6     -135.5600415709  -1.3005885E-07   8.2763167E-06
------------------------------------------------------------

 total:                                   0.125 sec
 * total energy  :  -135.5600416 Eh     change       -0.2864925E-06 Eh
   gradient norm :     0.0001952 Eh/α   predicted    -0.1067193E-06 ( -62.75%)
   displ. norm   :     0.0211360 α      lambda       -0.3843595E-06
   maximum displ.:     0.0096789 α      in ANC's #3, #14, #8, ...

........................................................................
.............................. CYCLE   25 ..............................
........................................................................
------------------------------------------------------------
  cycle        total energy    energy error   density error
------------------------------------------------------------
      1     -135.5600261512  -1.3805762E+02   2.7608490E-04
      2     -135.5552787652   4.7473860E-03   4.6746283E-03
      3     -135.5600418788  -4.7631136E-03   4.3585381E-05
      4     -135.5600415153   3.6354442E-07   4.7066356E-05
      5     -135.5600419801  -4.6488603E-07   2.1223234E-05
      6     -135.5600420345  -5.4341172E-08   1.0185791E-05
------------------------------------------------------------

 total:                                   0.125 sec
 * total energy  :  -135.5600420 Eh     change       -0.4636237E-06 Eh
   gradient norm :     0.0001160 Eh/α   predicted    -0.1940640E-06 ( -58.14%)
   displ. norm   :     0.0194694 α      lambda       -0.2307747E-06
   maximum displ.:     0.0099356 α      in ANC's #3, #8, #14, ...

........................................................................
.............................. CYCLE   26 ..............................
........................................................................
------------------------------------------------------------
  cycle        total energy    energy error   density error
------------------------------------------------------------
      1     -135.5600414849  -1.3805768E+02   7.5202855E-05
      2     -135.5599948364   4.6648488E-05   4.6719275E-04
      3     -135.5600362305  -4.1394141E-05   1.6482415E-04
      4     -135.5600420399  -5.8094115E-06   4.0899673E-05
      5     -135.5600421267  -8.6773412E-08   2.4213365E-05
      6     -135.5600423091  -1.8241195E-07   1.8276923E-06
------------------------------------------------------------

 total:                                   0.132 sec
 * total energy  :  -135.5600423 Eh     change       -0.2746447E-06 Eh
   gradient norm :     0.0001044 Eh/α   predicted    -0.1164965E-06 ( -57.58%)
   displ. norm   :     0.0194694 α      lambda        0.0000000E+00
   maximum displ.:     0.0099356 α      in ANC's #3, #8, #14, ...

........................................................................
.............................. CYCLE   27 ..............................
........................................................................
------------------------------------------------------------
  cycle        total energy    energy error   density error
------------------------------------------------------------
      1     -135.5600417904  -1.3805771E+02   7.3401708E-05
      2     -135.5598886358   1.5315456E-04   8.4198157E-04
      3     -135.5600422368  -1.5360102E-04   3.6897652E-05
      4     -135.5600418155   4.2130375E-07   4.3199978E-05
      5     -135.5600423452  -5.2972013E-07   3.1729174E-06
------------------------------------------------------------

 total:                                   0.105 sec
 * total energy  :  -135.5600423 Eh     change       -0.3609591E-07 Eh
   gradient norm :     0.0002159 Eh/α   predicted    -0.1855760E-09 ( -99.49%)
   displ. norm   :     0.0037466 α      lambda       -0.1268907E-06
   maximum displ.:     0.0018138 α      in ANC's #18, #19, #3, ...

........................................................................
.............................. CYCLE   28 ..............................
........................................................................
------------------------------------------------------------
  cycle        total energy    energy error   density error
------------------------------------------------------------
      1     -135.5600418210  -1.3805773E+02   5.6626975E-05
      2     -135.5598508786   1.9094236E-04   9.3868592E-04
      3     -135.5600423348  -1.9145618E-04   2.7830808E-05
      4     -135.5600424357  -1.0087820E-07   1.9356564E-05
------------------------------------------------------------

 total:                                   0.087 sec
 * total energy  :  -135.5600424 Eh     change       -0.9044820E-07 Eh
   gradient norm :     0.0001191 Eh/α   predicted    -0.6472601E-07 ( -28.44%)
   displ. norm   :     0.0162673 α      lambda       -0.3699641E-06
   maximum displ.:     0.0077729 α      in ANC's #18, #19, #3, ...

   *** GEOMETRY OPTIMIZATION CONVERGED AFTER 28 ITERATIONS ***

------------------------------------------------------------------------
 total energy gain   :        -0.0003765 Eh       -0.2362 kcal/mol
 total RMSD          :         0.1175700 a0        0.0622 Å
 total power (kW/mol):        -0.0352997 (step)   -0.2384 (real)
------------------------------------------------------------------------

 ANCopt (total)                0 d,  0 h,  0 min,  4.147 sec
 optimizer setup                ...        0 min,  0.000 sec (  0.010%)
 model hessian                  ...        0 min,  0.094 sec (  2.258%)
 ANC generation                 ...        0 min,  0.016 sec (  0.380%)
 coordinate transformation      ...        0 min,  0.003 sec (  0.076%)
 single point calculation       ...        0 min,  4.015 sec ( 96.809%)
 optimization log               ...        0 min,  0.007 sec (  0.159%)
 hessian update                 ...        0 min,  0.004 sec (  0.096%)
 rational function              ...        0 min,  0.005 sec (  0.117%)

================
 final structure:
================
88
 xtb: 6.7.1 (edcfbbe)
O            6.70924011967864        3.49340063034085        1.60830110590667
C            6.51119562580355        2.42446629569452        0.96449703272934
C            7.66444052132374        1.69885946771092        0.41259417342067
C            7.70536890705455        0.30252782073416        0.35020587060528
C            8.82367969058150       -0.33771999112282       -0.14478296263900
C            9.92245070848654        0.39234397886894       -0.57337077313202
C            9.90349534578667        1.77617856944799       -0.47946992386463
C            8.79335382933845        2.42546904644543        0.01786120686160
C            5.17894481926431        1.92708773925959        0.75552080812219
C            4.13229292008664        2.45931279303338        1.54896522973498
C            2.84041734759166        2.03983888097065        1.39345843859397
C            2.51911042021540        1.08578095485816        0.41692407026852
N            1.20023274104459        0.64177175786188        0.25766200920380
C            0.08558627610523        1.43934555810124        0.15998867957506
C           -0.02320005791980        2.82513272099223        0.15535269233141
C           -1.27710347307973        3.38255148621551        0.03743606016766
C           -2.43007111098023        2.58580328710358       -0.08909039211416
N           -3.68517328906060        3.18913480127067       -0.19059690581988
C           -4.80289807579796        2.57878684742696        0.38706981419803
C           -4.69152161523393        1.90343997480576        1.60337563347808
C           -5.79744046528757        1.29712325299042        2.16546624974541
C           -7.02926869057087        1.35878371685000        1.53383745631231
C           -7.14666745609817        2.03279702469747        0.32895197660066
C           -6.04538679113041        2.63629169334490       -0.24569870617670
C           -3.83175238750734        4.39898632033527       -0.87867398255965
C           -3.09900104204654        4.64454009438831       -2.04024229907181
C           -3.24602224970043        5.84143241536829       -2.71335534752340
C           -4.12529608817519        6.80548552165032       -2.24714874086852
C           -4.85770338207875        6.56471456121660       -1.09577622841759
C           -4.71340841518653        5.37389442144481       -0.41135537453796
C           -2.32056635009724        1.19685928879798       -0.12000214895309
C           -1.06732504699519        0.62410324388179        0.00180849271354
C           -0.60422367573427       -0.73259980296287        0.00263624967622
C           -1.24557339464125       -1.95395713490624       -0.10575895066164
C           -0.48688153132795       -3.11949727461471       -0.02119620759880
N           -1.10645948888909       -4.36744007158832       -0.11736854422986
C           -2.38509339659277       -4.55820566913557        0.41598600930817
C           -2.75739700645902       -3.92926960790908        1.60490573622362
C           -4.02390722966454       -4.11564719606732        2.12253198829058
C           -4.93465290603052       -4.93365701882516        1.47330307587949
C           -4.56819474894402       -5.56507004342733        0.29566506315416
C           -3.30665600625871       -5.37944717752709       -0.23478775724279
C           -0.45100818700568       -5.42783050022861       -0.75265509468161
C            0.33261892310552       -5.19725488200892       -1.88385040049225
C            0.98134239090977       -6.24640322666572       -2.50470382389191
C            0.85606967616568       -7.53688775383137       -2.01596634491699
C            0.07622061753407       -7.77144425963333       -0.89487179031069
C           -0.57166764562842       -6.72846826942723       -0.26261055060619
C            0.90426974846913       -3.04501897379579        0.17758328685274
C            1.55636663594054       -1.83590541776765        0.27238213535699
C            0.80478187378624       -0.67140100844881        0.16959138751824
C            3.53379248022833        0.59169564065457       -0.41441063467487
C            4.82990180512525        1.00821508477030       -0.25938561208494
H            6.87459258133824       -0.27847788964005        0.72311725629954
H            8.84446430874675       -1.41791904981586       -0.18654613368359
H           10.79290491876858       -0.11550125622670       -0.96210209782924
H           10.76307579718702        2.35040723656277       -0.79487349672148
H            8.77089220056995        3.50160944284700        0.10004013203393
H            4.39408276489467        3.18641332444170        2.30227953420754
H            2.06190661354175        2.41304968486745        2.04328481377292
H            0.84920081594096        3.45292929159692        0.24326657416710
H           -1.38648777618697        4.45615710315123        0.05135482393497
H           -3.73548548891183        1.86643148980345        2.10435924391188
H           -5.69849936579551        0.78049687851363        3.10857499989957
H           -7.89177653731496        0.88597653019925        1.97789823984683
H           -8.10180769300585        2.08201686042673       -0.17245044482923
H           -6.13657191229888        3.14980350552422       -1.19151630128108
H           -2.42244779280925        3.88858591036055       -2.41071529177481
H           -2.67563565422941        6.01920454570240       -3.61279830753505
H           -4.23879197866490        7.73852307420790       -2.77735461826313
H           -5.54046616697259        7.31338958528245       -0.72250011601104
H           -5.27538290044914        5.19224233625254        0.49301702989521
H           -3.19816162007469        0.58168985878973       -0.24909829591617
H           -2.31316263916568       -2.00513449206157       -0.25662417803453
H           -2.04413140914414       -3.30272799654486        2.11981194989188
H           -4.29864103099976       -3.62553750411644        3.04473362994841
H           -5.92258044300525       -5.07884470236126        1.88265919430865
H           -5.27311815465559       -6.20070835926401       -0.21928375420866
H           -3.02761534152627       -5.86209268584832       -1.15988045381966
H            0.42082157512978       -4.19341318320522       -2.27235575320183
H            1.58254794964844       -6.05605056554395       -3.38125793907338
H            1.36299554444809       -8.35431323004521       -2.50527309388079
H           -0.02152901798495       -8.77330280418738       -0.50402149854345
H           -1.16882002720417       -6.91077089376352        0.61878363884563
H            1.46378504114284       -3.96296283840729        0.27424542629625
H            2.61985043175489       -1.79713715312281        0.44844154545484
H            3.27411376118598       -0.09261390140117       -1.21002409241669
H            5.58382271719690        0.65981221819189       -0.94848935485125
 
 Bond Distances (Angstroems)
 ---------------------------
O1-C2=1.2635         C2-O1=1.2635         C2-C3=1.4701         C2-C9=1.4373         C3-C2=1.4701         C3-C4=1.3983         
C3-C8=1.3994         C4-C3=1.3983         C4-C5=1.3804         C4-H54=1.0802        C5-C4=1.3804         C5-C6=1.3871         
C5-H55=1.0812        C6-C5=1.3871         C6-C7=1.3871         C6-H56=1.0801        C7-C6=1.3871         C7-C8=1.3789         
C7-H57=1.0808        C8-C3=1.3994         C8-C7=1.3789         C8-H58=1.0795        C9-C2=1.4373         C9-C10=1.4171        
C9-C53=1.4129        C10-C9=1.4171        C10-C11=1.3671       C10-H59=1.0792       C11-C10=1.3671       C11-C12=1.4025       
C11-H60=1.0806       C12-C11=1.4025       C12-N13=1.4007       C12-C52=1.4017       N13-C12=1.4007       N13-C14=1.3741       
N13-C51=1.3742       C14-N13=1.3741       C14-C15=1.3901       C14-C32=1.4209       C15-C14=1.3901       C15-C16=1.3773       
C15-H61=1.0784       C16-C15=1.3773       C16-C17=1.4072       C16-H62=1.0793       C17-C16=1.4072       C17-N18=1.3963       
C17-C31=1.3936       N18-C17=1.3963       N18-C19=1.3984       N18-C25=1.3995       C19-N18=1.3984       C19-C20=1.3957       
C19-C24=1.3955       C20-C19=1.3957       C20-C21=1.3808       C20-H63=1.0800       C21-C20=1.3808       C21-C22=1.3857       
C21-H64=1.0799       C22-C21=1.3857       C22-C23=1.3856       C22-H65=1.0792       C23-C22=1.3856       C23-C24=1.3810       
C23-H66=1.0799       C24-C19=1.3955       C24-C23=1.3810       C24-H67=1.0801       C25-N18=1.3995       C25-C26=1.3952       
C25-C30=1.3950       C26-C25=1.3952       C26-C27=1.3810       C26-H68=1.0800       C27-C26=1.3810       C27-C28=1.3856       
C27-H69=1.0798       C28-C27=1.3856       C28-C29=1.3857       C28-H70=1.0791       C29-C28=1.3857       C29-C30=1.3811       
C29-H71=1.0798       C30-C25=1.3950       C30-C29=1.3811       C30-H72=1.0801       C31-C17=1.3936       C31-C32=1.3833       
C31-H73=1.0795       C32-C14=1.4209       C32-C31=1.3833       C32-C33=1.4336       C33-C32=1.4336       C33-C34=1.3838       
C33-C51=1.4202       C34-C33=1.3838       C34-C35=1.3933       C34-H74=1.0794       C35-C34=1.3933       C35-N36=1.3966       
C35-C49=1.4073       N36-C35=1.3966       N36-C37=1.3985       N36-C43=1.3992       C37-N36=1.3985       C37-C38=1.3956       
C37-C42=1.3954       C38-C37=1.3956       C38-C39=1.3808       C38-H75=1.0800       C39-C38=1.3808       C39-C40=1.3857       
C39-H76=1.0799       C40-C39=1.3857       C40-C41=1.3856       C40-H77=1.0792       C41-C40=1.3856       C41-C42=1.3811       
C41-H78=1.0799       C42-C37=1.3954       C42-C41=1.3811       C42-H79=1.0801       C43-N36=1.3992       C43-C44=1.3953       
C43-C48=1.3951       C44-C43=1.3953       C44-C45=1.3809       C44-H80=1.0800       C45-C44=1.3809       C45-C46=1.3856       
C45-H81=1.0798       C46-C45=1.3856       C46-C47=1.3857       C46-H82=1.0792       C47-C46=1.3857       C47-C48=1.3811       
C47-H83=1.0798       C48-C43=1.3951       C48-C47=1.3811       C48-H84=1.0801       C49-C35=1.4073       C49-C50=1.3770       
C49-H85=1.0794       C50-C49=1.3770       C50-C51=1.3898       C50-H86=1.0787       C51-N13=1.3742       C51-C33=1.4202       
C51-C50=1.3898       C52-C12=1.4017       C52-C53=1.3702       C52-H87=1.0811       C53-C9=1.4129        C53-C52=1.3702       
C53-H88=1.0792       H54-C4=1.0802        H55-C5=1.0812        H56-C6=1.0801        H57-C7=1.0808        H58-C8=1.0795        
H59-C10=1.0792       H60-C11=1.0806       H61-C15=1.0784       H62-C16=1.0793       H63-C20=1.0800       H64-C21=1.0799       
H65-C22=1.0792       H66-C23=1.0799       H67-C24=1.0801       H68-C26=1.0800       H69-C27=1.0798       H70-C28=1.0791       
H71-C29=1.0798       H72-C30=1.0801       H73-C31=1.0795       H74-C34=1.0794       H75-C38=1.0800       H76-C39=1.0799       
H77-C40=1.0792       H78-C41=1.0799       H79-C42=1.0801       H80-C44=1.0800       H81-C45=1.0798       H82-C46=1.0792       
H83-C47=1.0798       H84-C48=1.0801       H85-C49=1.0794       H86-C50=1.0787       H87-C52=1.0811       H88-C53=1.0792       
 C  H  Rav=1.0798 sigma=0.0006  Rmin=1.0784  Rmax=1.0812    35
 C  C  Rav=1.3938 sigma=0.0180  Rmin=1.3671  Rmax=1.4701    51
 N  C  Rav=1.3931 sigma=0.0102  Rmin=1.3741  Rmax=1.4007     9
 O  C  Rav=1.2635 sigma=0.0000  Rmin=1.2635  Rmax=1.2635     1
 
 selected bond angles (degree)
 --------------------
C3-C2-O1=119.07                C9-C2-O1=120.81                C9-C2-C3=120.12                C4-C3-C2=122.18                
C8-C3-C2=118.85                C8-C3-C4=118.84                C5-C4-C3=120.19                H54-C4-C3=119.95               
H54-C4-C5=119.83               C6-C5-C4=120.56                H55-C5-C4=119.52               H55-C5-C6=119.91               
C7-C6-C5=119.56                H56-C6-C5=120.14               H56-C6-C7=120.29               C8-C7-C6=120.34                
H57-C7-C6=119.96               H57-C7-C8=119.70               C7-C8-C3=120.45                H58-C8-C3=118.64               
H58-C8-C7=120.91               C10-C9-C2=118.24               C53-C9-C2=123.95               C53-C9-C10=117.64              
C11-C10-C9=121.26              H59-C10-C9=117.69              H59-C10-C11=121.02             
 
 selected dihedral angles (degree)
 ---------------------------------
C4-C3-C2-O1=144.76            C4-C3-C2-C9=323.98            C8-C3-C2-O1=329.04            C8-C3-C2-C9=148.26            
C5-C4-C3-C2=181.67            C5-C4-C3-C8=357.39            H54-C4-C3-C2=359.46           H54-C4-C3-C8=175.18           
C6-C5-C4-C3=  0.61            C6-C5-C4-H54=182.82           H55-C5-C4-C3=179.89           H55-C5-C4-H54=  2.10          
C7-C6-C5-C4=  1.19            C7-C6-C5-H55=181.91           H56-C6-C5-C4=180.17           H56-C6-C5-H55=  0.90          
C8-C7-C6-C5=359.05            C8-C7-C6-H56=180.06           H57-C7-C6-C5=178.90           H57-C7-C6-H56=359.91          
C7-C8-C3-C2=178.72            C7-C8-C3-C4=  2.85            H58-C8-C3-C2=357.99           H58-C8-C3-C4=182.12           
C3-C8-C7-C6=358.92            C3-C8-C7-H57=179.07           H58-C8-C7-C6=179.66           H58-C8-C7-H57=359.81          
C10-C9-C2-O1=344.64           C10-C9-C2-C3=165.43           C53-C9-C2-O1=159.87           C53-C9-C2-C3=340.67           
C11-C10-C9-C2=179.39          C11-C10-C9-C53=  3.85         H59-C10-C9-C2=357.56          H59-C10-C9-C53=182.02         
           -------------------------------------------------
          |                Final Singlepoint                |
           -------------------------------------------------
repulsion energy          2.4976691960367E+00 Eh
dispersion energy         1.6433945737119E-05 Eh
interaction energy        0.0000000000000E+00 Eh
number of electrons       2.5200000000000E+02 e
integral cutoff           1.7347787504999E+01 bohr

------------------------------------------------------------
  cycle        total energy    energy error   density error
------------------------------------------------------------
      1     -135.5599466979  -1.3805763E+02   6.6249291E-04
      2     -135.5414487841   1.8497914E-02   9.1603833E-03
      3     -135.5600407657  -1.8591982E-02   7.1666929E-05
      4     -135.5600400888   6.7694603E-07   9.7973032E-05
      5     -135.5600419694  -1.8805952E-06   4.9076640E-05
      6     -135.5600425043  -5.3492946E-07   4.9199282E-06
------------------------------------------------------------

electronic energy        -1.3805772813427E+02 Eh
total energy             -1.3556004250428E+02 Eh

 total:                                   0.123 sec
 - repulsion                              0.000 sec (  0%)
 - dispersion                             0.003 sec (  2%)
 - coulomb                                0.005 sec (  3%)
 - hamiltonian                            0.008 sec (  6%)
 - scc                                    0.108 sec ( 87%)

           ------------------------------------------------- 
          |                Numerical Hessian                |
           ------------------------------------------------- 
step length          :   0.00500
SCC accuracy         :   0.30000
Hessian scale factor :   1.00000
frozen atoms in %    :   0.00000    0
RMS gradient         :   0.00013
estimated CPU  time     29.14 min
estimated wall time      0.73 min

writing file <hessian>.

 projected vibrational frequencies (cm⁻¹)
eigval :       -0.00    -0.00     0.00     0.00     0.00     0.00
eigval :       10.05    12.52    13.03    15.37    23.45    23.73
eigval :       33.99    38.94    43.01    48.28    54.97    57.41
eigval :       60.16    67.18    71.17    81.87    84.02    94.41
eigval :      100.75   114.60   128.66   136.36   157.95   169.80
eigval :      194.89   197.14   216.57   224.21   226.06   235.23
eigval :      245.72   251.82   260.51   283.16   306.29   310.74
eigval :      316.32   320.01   326.97   348.75   352.97   368.31
eigval :      373.79   377.31   377.39   382.29   383.35   391.88
eigval :      400.41   404.85   407.91   426.71   429.31   449.07
eigval :      459.45   465.49   471.57   495.34   498.15   507.56
eigval :      529.52   547.64   555.33   559.17   566.88   580.02
eigval :      583.73   585.68   587.85   589.70   592.32   597.27
eigval :      606.85   607.48   622.75   632.73   640.07   653.63
eigval :      659.41   660.64   661.90   664.80   668.37   675.22
eigval :      698.49   705.07   706.41   742.95   753.11   756.49
eigval :      756.81   757.24   759.61   801.84   802.41   820.03
eigval :      822.33   845.50   864.07   865.45   867.55   872.44
eigval :      872.86   874.68   874.76   879.48   884.71   889.98
eigval :      893.71   894.01   895.81   896.16   901.74   905.64
eigval :      909.18   909.67   915.98   919.70   920.87   927.01
eigval :      927.40   927.69   928.44   928.49   928.91   929.30
eigval :      929.42   930.29   938.74   945.91   969.86   980.89
eigval :      988.96  1000.27  1002.93  1004.20  1010.35  1032.47
eigval :     1078.02  1081.96  1082.19  1083.10  1083.17  1117.31
eigval :     1121.21  1121.34  1122.57  1123.29  1125.56  1132.28
eigval :     1147.56  1166.02  1167.80  1168.02  1178.31  1178.85
eigval :     1178.92  1179.17  1179.44  1181.78  1188.23  1192.87
eigval :     1193.37  1197.12  1200.76  1207.30  1226.16  1231.77
eigval :     1243.26  1250.05  1257.82  1274.12  1276.29  1276.75
eigval :     1277.70  1279.29  1283.71  1301.43  1309.63  1313.69
eigval :     1317.50  1319.37  1319.54  1324.96  1326.69  1326.77
eigval :     1330.96  1353.70  1357.69  1371.11  1387.38  1419.92
eigval :     1420.63  1425.50  1430.15  1433.02  1433.53  1441.56
eigval :     1442.03  1447.20  1452.44  1454.68  1465.74  1466.44
eigval :     1466.99  1467.72  1469.29  1485.09  1540.00  1547.91
eigval :     1550.03  1554.06  1566.32  1571.39  1573.36  1573.94
eigval :     1577.59  1577.63  1586.21  1588.28  1588.64  1593.35
eigval :     1594.30  3062.95  3068.31  3068.79  3073.08  3079.30
eigval :     3079.63  3079.78  3080.22  3080.43  3080.73  3081.00
eigval :     3081.18  3081.45  3085.64  3088.73  3088.90  3089.47
eigval :     3089.67  3090.67  3092.06  3092.23  3092.58  3092.82
eigval :     3093.20  3093.50  3094.33  3095.21  3097.00  3099.05
eigval :     3100.29  3100.68  3100.93  3101.45  3104.34  3107.40
           -------------------------------------------------
          |                Property Printout                |
           -------------------------------------------------
           -------------------------------------------------
          |                Geometry Summary                 |
           -------------------------------------------------

      molecular mass/u    :      681.8234999
   center of mass at/Å    :       -0.0005997      -0.0026434       0.0022317
  moments of inertia/u·Å² :        0.1063989E+05   0.1510869E+05   0.2399155E+05
rotational constants/cm⁻¹ :        0.1584381E-02   0.1115758E-02   0.7026486E-03

 * 93 selected distances

     #   Z          #   Z                                           value/Å
     3   6 C        4   6 C                                       1.3983239
     4   6 C        5   6 C                                       1.3804168
     5   6 C        6   6 C                                       1.3870757
     6   6 C        7   6 C                                       1.3871464
     3   6 C        8   6 C                                       1.3993646
     7   6 C        8   6 C                                       1.3788876
     9   6 C       10   6 C                                       1.4171444
    10   6 C       11   6 C                                       1.3671443
    11   6 C       12   6 C                                       1.4025279
    12   6 C       13   7 N                                       1.4006953
    13   7 N       14   6 C                                       1.3740819
    14   6 C       15   6 C                                       1.3900584
    15   6 C       16   6 C                                       1.3772778
    16   6 C       17   6 C                                       1.4071785
    17   6 C       18   7 N                                       1.3962787
    18   7 N       19   6 C                                       1.3984036
    19   6 C       20   6 C                                       1.3956713
    20   6 C       21   6 C                                       1.3808051
    21   6 C       22   6 C                                       1.3856977
    22   6 C       23   6 C                                       1.3855778
    19   6 C       24   6 C                                       1.3955219
    23   6 C       24   6 C                                       1.3810317
    18   7 N       25   6 C                                       1.3995273
    25   6 C       26   6 C                                       1.3951568
    26   6 C       27   6 C                                       1.3810315
    27   6 C       28   6 C                                       1.3855937
    28   6 C       29   6 C                                       1.3856587
    25   6 C       30   6 C                                       1.3950449
    29   6 C       30   6 C                                       1.3810525
    17   6 C       31   6 C                                       1.3935970
    14   6 C       32   6 C                                       1.4208610
    31   6 C       32   6 C                                       1.3832937
    32   6 C       33   6 C                                       1.4335645 (max)
    33   6 C       34   6 C                                       1.3837605
    34   6 C       35   6 C                                       1.3932869
    35   6 C       36   7 N                                       1.3965986
    36   7 N       37   6 C                                       1.3984862
    37   6 C       38   6 C                                       1.3956006
    38   6 C       39   6 C                                       1.3808411
    39   6 C       40   6 C                                       1.3856754
    40   6 C       41   6 C                                       1.3855705
    37   6 C       42   6 C                                       1.3954290
    41   6 C       42   6 C                                       1.3810563
    36   7 N       43   6 C                                       1.3991546
    43   6 C       44   6 C                                       1.3952920
    44   6 C       45   6 C                                       1.3809467
    45   6 C       46   6 C                                       1.3856075
    46   6 C       47   6 C                                       1.3856532
    43   6 C       48   6 C                                       1.3951205
    47   6 C       48   6 C                                       1.3810549
    35   6 C       49   6 C                                       1.4072536
    49   6 C       50   6 C                                       1.3770160
    13   7 N       51   6 C                                       1.3742492
    33   6 C       51   6 C                                       1.4201818
    50   6 C       51   6 C                                       1.3897901
    12   6 C       52   6 C                                       1.4017196
     9   6 C       53   6 C                                       1.4128671
    52   6 C       53   6 C                                       1.3701901
     4   6 C       54   1 H                                       1.0801945
     5   6 C       55   1 H                                       1.0812060
     6   6 C       56   1 H                                       1.0801433
     7   6 C       57   1 H                                       1.0807852
     8   6 C       58   1 H                                       1.0795074
    10   6 C       59   1 H                                       1.0792089
    11   6 C       60   1 H                                       1.0805738
    15   6 C       61   1 H                                       1.0783974 (min)
    16   6 C       62   1 H                                       1.0792534
    20   6 C       63   1 H                                       1.0799812
    21   6 C       64   1 H                                       1.0798826
    22   6 C       65   1 H                                       1.0791926
    23   6 C       66   1 H                                       1.0798704
    24   6 C       67   1 H                                       1.0800834
    26   6 C       68   1 H                                       1.0800192
    27   6 C       69   1 H                                       1.0797878
    28   6 C       70   1 H                                       1.0791473
    29   6 C       71   1 H                                       1.0798216
    30   6 C       72   1 H                                       1.0801400
    31   6 C       73   1 H                                       1.0794781
    34   6 C       74   1 H                                       1.0794102
    38   6 C       75   1 H                                       1.0800143
    39   6 C       76   1 H                                       1.0798807
    40   6 C       77   1 H                                       1.0791909
    41   6 C       78   1 H                                       1.0798729
    42   6 C       79   1 H                                       1.0800959
    44   6 C       80   1 H                                       1.0800067
    45   6 C       81   1 H                                       1.0798285
    46   6 C       82   1 H                                       1.0791569
    47   6 C       83   1 H                                       1.0798332
    48   6 C       84   1 H                                       1.0801302
    49   6 C       85   1 H                                       1.0793619
    50   6 C       86   1 H                                       1.0786556
    52   6 C       87   1 H                                       1.0810706
    53   6 C       88   1 H                                       1.0791874

 * 3 distinct bonds (by element types)

   Z      Z             #   av. dist./Å        max./Å        min./Å
   1 H    6 C          35     1.0797820     1.0812060     1.0783974
   6 C    6 C          49     1.3913392     1.4335645     1.3671443
   6 C    7 N           9     1.3930528     1.4006953     1.3740819

           -------------------------------------------------
          |               Frequency Printout                |
           -------------------------------------------------
 projected vibrational frequencies (cm⁻¹)
eigval :       -0.00    -0.00     0.00     0.00     0.00     0.00
eigval :       10.05    12.52    13.03    15.37    23.45    23.73
eigval :       33.99    38.94    43.01    48.28    54.97    57.41
eigval :       60.16    67.18    71.17    81.87    84.02    94.41
eigval :      100.75   114.60   128.66   136.36   157.95   169.80
eigval :      194.89   197.14   216.57   224.21   226.06   235.23
eigval :      245.72   251.82   260.51   283.16   306.29   310.74
eigval :      316.32   320.01   326.97   348.75   352.97   368.31
eigval :      373.79   377.31   377.39   382.29   383.35   391.88
eigval :      400.41   404.85   407.91   426.71   429.31   449.07
eigval :      459.45   465.49   471.57   495.34   498.15   507.56
eigval :      529.52   547.64   555.33   559.17   566.88   580.02
eigval :      583.73   585.68   587.85   589.70   592.32   597.27
eigval :      606.85   607.48   622.75   632.73   640.07   653.63
eigval :      659.41   660.64   661.90   664.80   668.37   675.22
eigval :      698.49   705.07   706.41   742.95   753.11   756.49
eigval :      756.81   757.24   759.61   801.84   802.41   820.03
eigval :      822.33   845.50   864.07   865.45   867.55   872.44
eigval :      872.86   874.68   874.76   879.48   884.71   889.98
eigval :      893.71   894.01   895.81   896.16   901.74   905.64
eigval :      909.18   909.67   915.98   919.70   920.87   927.01
eigval :      927.40   927.69   928.44   928.49   928.91   929.30
eigval :      929.42   930.29   938.74   945.91   969.86   980.89
eigval :      988.96  1000.27  1002.93  1004.20  1010.35  1032.47
eigval :     1078.02  1081.96  1082.19  1083.10  1083.17  1117.31
eigval :     1121.21  1121.34  1122.57  1123.29  1125.56  1132.28
eigval :     1147.56  1166.02  1167.80  1168.02  1178.31  1178.85
eigval :     1178.92  1179.17  1179.44  1181.78  1188.23  1192.87
eigval :     1193.37  1197.12  1200.76  1207.30  1226.16  1231.77
eigval :     1243.26  1250.05  1257.82  1274.12  1276.29  1276.75
eigval :     1277.70  1279.29  1283.71  1301.43  1309.63  1313.69
eigval :     1317.50  1319.37  1319.54  1324.96  1326.69  1326.77
eigval :     1330.96  1353.70  1357.69  1371.11  1387.38  1419.92
eigval :     1420.63  1425.50  1430.15  1433.02  1433.53  1441.56
eigval :     1442.03  1447.20  1452.44  1454.68  1465.74  1466.44
eigval :     1466.99  1467.72  1469.29  1485.09  1540.00  1547.91
eigval :     1550.03  1554.06  1566.32  1571.39  1573.36  1573.94
eigval :     1577.59  1577.63  1586.21  1588.28  1588.64  1593.35
eigval :     1594.30  3062.95  3068.31  3068.79  3073.08  3079.30
eigval :     3079.63  3079.78  3080.22  3080.43  3080.73  3081.00
eigval :     3081.18  3081.45  3085.64  3088.73  3088.90  3089.47
eigval :     3089.67  3090.67  3092.06  3092.23  3092.58  3092.82
eigval :     3093.20  3093.50  3094.33  3095.21  3097.00  3099.05
eigval :     3100.29  3100.68  3100.93  3101.45  3104.34  3107.40
 reduced masses (amu)
   1: 11.72   2: 11.43   3: 11.53   4: 11.47   5: 11.53   6: 11.62   7: 11.02   8: 10.94
   9: 11.00  10: 11.20  11: 11.46  12: 11.82  13: 10.79  14: 10.49  15: 10.60  16: 10.18
  17: 10.64  18: 10.83  19: 10.48  20: 11.10  21: 10.67  22: 10.18  23: 10.13  24: 11.06
  25: 10.35  26: 12.28  27: 10.64  28: 10.63  29: 11.75  30: 11.00  31: 11.13  32: 10.77
  33: 11.12  34: 10.61  35: 10.73  36: 10.51  37: 11.23  38: 10.56  39: 11.44  40: 11.44
  41: 11.20  42: 11.13  43: 10.64  44: 11.30  45: 10.94  46: 10.91  47: 10.89  48: 10.89
  49:  9.24  50:  9.06  51:  9.07  52:  9.10  53:  9.12  54:  9.63  55:  9.69  56: 11.24
  57: 11.17  58:  9.72  59: 10.80  60: 10.56  61: 11.21  62: 11.01  63: 10.03  64: 10.62
  65: 10.82  66: 10.62  67: 11.64  68: 11.06  69: 11.20  70: 11.04  71: 11.27  72: 11.16
  73: 11.20  74: 11.16  75: 11.19  76: 11.22  77: 11.31  78: 11.49  79: 11.50  80: 11.40
  81: 11.25  82: 11.14  83: 11.23  84: 11.12  85: 10.13  86:  9.95  87: 10.06  88:  9.94
  89:  9.87  90: 11.72  91: 11.76  92: 11.29  93: 11.31  94:  9.95  95:  5.82  96:  4.09
  97:  4.13  98:  4.67  99:  4.26 100:  6.43 101:  9.21 102:  4.22 103:  4.29 104:  3.28
 105:  3.48 106:  3.55 107:  3.48 108:  3.30 109:  3.33 110:  3.37 111:  3.29 112: 11.01
 113:  6.22 114:  8.92 115:  3.93 116:  3.95 117:  3.80 118:  4.11 119:  3.18 120:  3.53
 121: 11.27 122: 11.43 123:  3.14 124:  3.35 125:  3.56 126:  3.92 127:  3.89 128:  3.29
 129:  3.30 130:  3.18 131:  3.65 132:  3.45 133:  2.89 134: 10.85 135:  3.25 136: 11.76
 137: 10.74 138: 10.83 139: 10.99 140:  8.77 141:  9.93 142: 10.53 143:  9.47 144:  6.83
 145:  6.95 146:  6.82 147:  6.76 148:  6.55 149:  6.55 150:  4.07 151:  4.35 152:  4.02
 153:  4.88 154:  3.96 155:  6.58 156:  3.24 157:  4.24 158:  7.50 159:  3.60 160:  6.70
 161:  1.57 162:  1.31 163:  1.97 164:  1.35 165:  1.47 166:  4.93 167:  4.23 168:  1.82
 169:  1.83 170:  2.55 171:  3.71 172:  4.30 173:  5.85 174:  8.96 175:  6.49 176:  8.63
 177:  3.91 178:  5.37 179:  3.92 180:  3.97 181:  4.31 182:  4.45 183:  6.05 184:  8.98
 185: 10.49 186: 10.72 187: 10.90 188: 11.52 189: 11.49 190: 11.57 191: 11.90 192: 11.87
 193: 10.76 194: 11.36 195: 11.67 196: 11.20 197: 12.02 198:  9.89 199: 10.31 200:  9.87
 201: 10.05 202:  9.13 203:  9.10 204:  9.28 205:  9.24 206:  8.75 207: 10.44 208: 10.70
 209:  9.09 210:  9.10 211:  9.28 212: 10.11 213: 10.48 214: 11.18 215: 11.66 216: 11.54
 217: 11.41 218: 11.58 219: 11.65 220: 11.54 221: 11.48 222: 11.51 223: 11.52 224: 11.52
 225: 11.59 226: 11.45 227: 11.45 228: 11.48 229: 11.49 230:  1.76 231:  1.79 232:  1.79
 233:  1.80 234:  1.84 235:  1.75 236:  1.76 237:  1.77 238:  1.76 239:  1.77 240:  1.77
 241:  1.78 242:  1.78 243:  1.89 244:  1.83 245:  1.83 246:  1.83 247:  1.83 248:  1.83
 249:  1.85 250:  1.85 251:  1.87 252:  1.85 253:  1.87 254:  1.85 255:  1.83 256:  1.79
 257:  1.86 258:  1.85 259:  1.92 260:  1.92 261:  1.92 262:  1.92 263:  1.88 264:  1.88
 IR intensities (km·mol⁻¹)
   1: 22.15   2:  0.33   3:  2.67   4: 13.47   5:  1.16   6:  2.09   7: 20.04   8: 13.21
   9:  4.90  10: 13.14  11:  2.61  12:  6.26  13:  0.84  14:  0.99  15: 23.23  16: 16.12
  17:  0.96  18:  9.83  19: 11.50  20: 31.57  21:  5.89  22: 25.70  23:  5.18  24: 11.42
  25:  0.69  26: 11.98  27:  4.24  28:  7.45  29: 15.45  30: 18.06  31:  5.77  32:  5.69
  33:  2.19  34: 30.74  35:  3.71  36:  4.92  37: 48.71  38:  6.36  39: 11.54  40:  7.24
  41: 11.15  42:  3.07  43:  1.67  44:  6.14  45:  5.31  46:  7.02  47:  7.41  48:  5.02
  49: 22.92  50: 44.90  51:  2.85  52: 27.78  53: 13.95  54:  3.61  55: 15.06  56: 18.06
  57: 13.50  58: 21.48  59: 36.13  60:  4.46  61:  6.59  62: 16.31  63: 17.05  64: 15.03
  65:  7.49  66: 48.70  67: 38.77  68:  7.92  69:  2.87  70: 15.10  71: 32.79  72: 10.90
  73:  1.39  74: 35.73  75:  0.25  76:  0.16  77:  7.27  78:  2.35  79: 12.39  80:  6.97
  81: 20.54  82:  3.98  83:  4.40  84: 13.60  85:  0.45  86: 31.31  87: 14.13  88: 40.54
  89: 11.68  90:  3.69  91: 29.07  92:  7.02  93: 39.60  94: 22.38  95: 74.10  96: 77.41
  97: 66.30  98: 46.83  99:  1.85 100: 14.92 101: 39.32 102: 88.31 103: 49.37 104: 25.99
 105: 27.84 106:203.00 107:  4.13 108:169.22 109: 11.92 110: 11.70 111:329.20 112: 16.65
 113: 70.44 114: 20.94 115: 33.56 116:  3.23 117: 70.41 118: 15.15 119: 27.02 120: 95.80
 121:  2.81 122:  1.99 123:  9.51 124: 32.10 125: 34.55 126: 94.85 127: 18.47 128: 22.44
 129:  7.21 130: 20.42 131: 78.00 132: 26.13 133: 44.17 134:  8.92 135: 58.22 136: 14.72
 137: 72.67 138: 39.06 139:  7.03 140: 36.63 141:110.79 142: 16.36 143: 17.38 144:  3.94
 145:  6.25 146: 94.84 147: 14.16 148:  8.38 149: 18.64 150:173.33 151:  2.32 152: 12.29
 153:  7.55 154: 65.39 155: 56.18 156: 24.65 157: 52.55 158: 10.31 159:113.83 160: 16.71
 161:159.34 162: 14.35 163: 80.72 164:  9.10 165:  9.64 166: 96.71 167:  6.99 168:  9.05
 169:  7.97 170:239.28 171: 23.10 172:356.60 173: 33.46 174: 16.40 175:402.47 176:108.36
 177: 35.86 178:  0.61 179: 18.83 180: 13.80 181: 78.33 182:126.46 183: 29.11 184:163.59
 185: 20.43 186:188.62 187:639.77 188: 66.06 189: 24.00 190:  1.05 191:  3.04 192: 11.22
 193: 27.12 194:128.33 195: 41.95 196:468.52 197:240.49 198:  6.83 199:  8.58 200: 54.07
 201: 27.44 202: 16.16 203: 12.48 204: 15.07 205: 97.56 206: 38.61 207: 12.27 208:121.14
 209: 14.85 210: 88.57 211:223.66 212: 72.47 213: 51.37 214: 25.96 215: 14.23 216:  9.56
 217:  2.66 218: 28.79 219:407.48 220:306.56 221: 31.39 222:104.42 223: 13.51 224:  2.92
 225: 62.78 226: 52.84 227: 56.70 228:  2.53 229:  4.32 230:  3.61 231: 68.83 232: 34.73
 233: 73.32 234:122.96 235: 69.15 236: 17.92 237: 50.93 238:  1.59 239: 39.73 240: 10.36
 241: 11.36 242: 66.57 243:376.76 244: 54.04 245: 46.51 246: 32.18 247:381.39 248: 15.28
 249: 52.25 250:145.40 251:162.30 252:183.76 253:226.51 254: 62.52 255: 12.30 256: 26.34
 257: 92.83 258: 62.87 259: 30.88 260:101.47 261:122.49 262:272.03 263: 68.89 264: 53.82
 Raman intensities (Ä⁴*amu⁻¹)
   1:  0.00   2:  0.00   3:  0.00   4:  0.00   5:  0.00   6:  0.00   7:  0.00   8:  0.00
   9:  0.00  10:  0.00  11:  0.00  12:  0.00  13:  0.00  14:  0.00  15:  0.00  16:  0.00
  17:  0.00  18:  0.00  19:  0.00  20:  0.00  21:  0.00  22:  0.00  23:  0.00  24:  0.00
  25:  0.00  26:  0.00  27:  0.00  28:  0.00  29:  0.00  30:  0.00  31:  0.00  32:  0.00
  33:  0.00  34:  0.00  35:  0.00  36:  0.00  37:  0.00  38:  0.00  39:  0.00  40:  0.00
  41:  0.00  42:  0.00  43:  0.00  44:  0.00  45:  0.00  46:  0.00  47:  0.00  48:  0.00
  49:  0.00  50:  0.00  51:  0.00  52:  0.00  53:  0.00  54:  0.00  55:  0.00  56:  0.00
  57:  0.00  58:  0.00  59:  0.00  60:  0.00  61:  0.00  62:  0.00  63:  0.00  64:  0.00
  65:  0.00  66:  0.00  67:  0.00  68:  0.00  69:  0.00  70:  0.00  71:  0.00  72:  0.00
  73:  0.00  74:  0.00  75:  0.00  76:  0.00  77:  0.00  78:  0.00  79:  0.00  80:  0.00
  81:  0.00  82:  0.00  83:  0.00  84:  0.00  85:  0.00  86:  0.00  87:  0.00  88:  0.00
  89:  0.00  90:  0.00  91:  0.00  92:  0.00  93:  0.00  94:  0.00  95:  0.00  96:  0.00
  97:  0.00  98:  0.00  99:  0.00 100:  0.00 101:  0.00 102:  0.00 103:  0.00 104:  0.00
 105:  0.00 106:  0.00 107:  0.00 108:  0.00 109:  0.00 110:  0.00 111:  0.00 112:  0.00
 113:  0.00 114:  0.00 115:  0.00 116:  0.00 117:  0.00 118:  0.00 119:  0.00 120:  0.00
 121:  0.00 122:  0.00 123:  0.00 124:  0.00 125:  0.00 126:  0.00 127:  0.00 128:  0.00
 129:  0.00 130:  0.00 131:  0.00 132:  0.00 133:  0.00 134:  0.00 135:  0.00 136:  0.00
 137:  0.00 138:  0.00 139:  0.00 140:  0.00 141:  0.00 142:  0.00 143:  0.00 144:  0.00
 145:  0.00 146:  0.00 147:  0.00 148:  0.00 149:  0.00 150:  0.00 151:  0.00 152:  0.00
 153:  0.00 154:  0.00 155:  0.00 156:  0.00 157:  0.00 158:  0.00 159:  0.00 160:  0.00
 161:  0.00 162:  0.00 163:  0.00 164:  0.00 165:  0.00 166:  0.00 167:  0.00 168:  0.00
 169:  0.00 170:  0.00 171:  0.00 172:  0.00 173:  0.00 174:  0.00 175:  0.00 176:  0.00
 177:  0.00 178:  0.00 179:  0.00 180:  0.00 181:  0.00 182:  0.00 183:  0.00 184:  0.00
 185:  0.00 186:  0.00 187:  0.00 188:  0.00 189:  0.00 190:  0.00 191:  0.00 192:  0.00
 193:  0.00 194:  0.00 195:  0.00 196:  0.00 197:  0.00 198:  0.00 199:  0.00 200:  0.00
 201:  0.00 202:  0.00 203:  0.00 204:  0.00 205:  0.00 206:  0.00 207:  0.00 208:  0.00
 209:  0.00 210:  0.00 211:  0.00 212:  0.00 213:  0.00 214:  0.00 215:  0.00 216:  0.00
 217:  0.00 218:  0.00 219:  0.00 220:  0.00 221:  0.00 222:  0.00 223:  0.00 224:  0.00
 225:  0.00 226:  0.00 227:  0.00 228:  0.00 229:  0.00 230:  0.00 231:  0.00 232:  0.00
 233:  0.00 234:  0.00 235:  0.00 236:  0.00 237:  0.00 238:  0.00 239:  0.00 240:  0.00
 241:  0.00 242:  0.00 243:  0.00 244:  0.00 245:  0.00 246:  0.00 247:  0.00 248:  0.00
 249:  0.00 250:  0.00 251:  0.00 252:  0.00 253:  0.00 254:  0.00 255:  0.00 256:  0.00
 257:  0.00 258:  0.00 259:  0.00 260:  0.00 261:  0.00 262:  0.00 263:  0.00 264:  0.00
 output can be read by thermo (or use thermo option).
 writing <g98.out> molden fake output.
 recommended (thermochemical) frequency scaling factor: 1.0
           -------------------------------------------------
          |             Thermodynamic Functions             |
           -------------------------------------------------

Refinement of some symmetry elements was terminated before convergence was reached.
Some symmetry elements may remain unidentified.
Molecule has no symmetry elements
It seems to be the C1 point group
c1  symmetry found (for desy threshold:  0.10E+00) used in thermo

          ...................................................
          :                      SETUP                      :
          :.................................................:
          :  # frequencies                         258      :
          :  # imaginary freq.                       0      :
          :  linear?                             false      :
          :  only rotor calc.                    false      :
          :  symmetry                               c1      :
          :  rotational number                       1      :
          :  scaling factor                  1.0000000      :
          :  rotor cutoff                   50.0000000 cm⁻¹ :
          :  imag. cutoff                  -20.0000000 cm⁻¹ :
          :.................................................:

    mode    ω/cm⁻¹     T·S(HO)/kcal·mol⁻¹    T·S(FR)/kcal·mol⁻¹   T·S(vib)
   ------------------------------------------------------------------------
       1     10.05    -2.38569 (  0.16%)    -1.53190 ( 99.84%)    -1.53329
       2     12.52    -2.25517 (  0.39%)    -1.46663 ( 99.61%)    -1.46972
       3     13.03    -2.23154 (  0.46%)    -1.45481 ( 99.54%)    -1.45838
       4     15.37    -2.13403 (  0.88%)    -1.40604 ( 99.12%)    -1.41248
       5     23.45    -1.88381 (  4.61%)    -1.28085 ( 95.39%)    -1.30867
       6     23.73    -1.87667 (  4.83%)    -1.27728 ( 95.17%)    -1.30624
       7     33.99    -1.66418 ( 17.60%)    -1.17087 ( 82.40%)    -1.25769
       8     38.94    -1.58382 ( 26.90%)    -1.13059 ( 73.10%)    -1.25250
       9     43.01    -1.52522 ( 35.37%)    -1.10119 ( 64.63%)    -1.25117
      10     48.28    -1.45694 ( 46.51%)    -1.06691 ( 53.49%)    -1.24830
      11     54.97    -1.38043 ( 59.37%)    -1.02846 ( 40.63%)    -1.23742
      12     57.41    -1.35484 ( 63.48%)    -1.01559 ( 36.52%)    -1.23096
      13     60.16    -1.32733 ( 67.70%)    -1.00174 ( 32.30%)    -1.22216
      14     67.18    -1.26243 ( 76.52%)    -0.96903 ( 23.48%)    -1.19355
      15     71.17    -1.22856 ( 80.41%)    -0.95194 ( 19.59%)    -1.17439
      16     81.87    -1.14656 ( 87.79%)    -0.91047 ( 12.21%)    -1.11772
      17     84.02    -1.13139 ( 88.86%)    -0.90279 ( 11.14%)    -1.10592
      18     94.41    -1.06339 ( 92.71%)    -0.86826 (  7.29%)    -1.04916
      19    100.75    -1.02558 ( 94.28%)    -0.84900 (  5.72%)    -1.01548
      20    114.60    -0.95094 ( 96.50%)    -0.81084 (  3.50%)    -0.94604
      21    128.66    -0.88432 ( 97.77%)    -0.77656 (  2.23%)    -0.88192
      22    136.36    -0.85100 ( 98.22%)    -0.75933 (  1.78%)    -0.84937
      23    157.95    -0.76750 ( 99.01%)    -0.71580 (  0.99%)    -0.76699
      24    169.80    -0.72680 ( 99.25%)    -0.69437 (  0.75%)    -0.72656
      25    194.89    -0.65019 ( 99.57%)    -0.65353 (  0.43%)    -0.65021
      26    197.14    -0.64389 ( 99.59%)    -0.65014 (  0.41%)    -0.64391
      27    216.57    -0.59259 ( 99.72%)    -0.62229 (  0.28%)    -0.59267
      28    224.21    -0.57388 ( 99.75%)    -0.61202 (  0.25%)    -0.57398
      29    226.06    -0.56946 ( 99.76%)    -0.60958 (  0.24%)    -0.56956
      30    235.23    -0.54820 ( 99.80%)    -0.59780 (  0.20%)    -0.54830
      31    245.72    -0.52506 ( 99.83%)    -0.58488 (  0.17%)    -0.52516
      32    251.82    -0.51216 ( 99.84%)    -0.57762 (  0.16%)    -0.51226
      33    260.51    -0.49444 ( 99.86%)    -0.56757 (  0.14%)    -0.49454
      34    283.16    -0.45155 ( 99.90%)    -0.54287 (  0.10%)    -0.45164
   ------------------------------------------------------------------------

   temp. (K)  partition function   enthalpy   heat capacity  entropy
                                   cal/mol     cal/K/mol   cal/K/mol   J/K/mol
 298.15  VIB  0.604E+21            25455.700    158.736    160.078
         ROT  0.150E+09              888.752      2.981     40.394
         INT  0.906E+29            26344.452    161.717    200.471
         TR   0.172E+29             1481.254      4.968     45.419
         TOT                       27825.7064   166.6855   245.8908  1028.8069

       T/K    H(0)-H(T)+PV         H(T)/Eh          T*S/Eh         G(T)/Eh
   ------------------------------------------------------------------------
    298.15    0.443431E-01    0.722401E+00    0.116831E+00    0.605571E+00
   ------------------------------------------------------------------------

         :::::::::::::::::::::::::::::::::::::::::::::::::::::
         ::                  THERMODYNAMIC                  ::
         :::::::::::::::::::::::::::::::::::::::::::::::::::::
         :: total free energy        -134.954471702749 Eh   ::
         ::.................................................::
         :: total energy             -135.560042511329 Eh   ::
         :: zero point energy           0.678058358530 Eh   ::
         :: G(RRHO) w/o ZPVE           -0.072487549950 Eh   ::
         :: G(RRHO) contrib.            0.605570808580 Eh   ::
         :::::::::::::::::::::::::::::::::::::::::::::::::::::

optimized geometry written to: xtbopt.xyz


           -------------------------------------------------
          | TOTAL ENERGY             -135.560042511329 Eh   |
          | TOTAL ENTHALPY           -134.837641067060 Eh   |
          | TOTAL FREE ENERGY        -134.954471702749 Eh   |
          | GRADIENT NORM               0.000130900182 Eh/α |
           -------------------------------------------------

------------------------------------------------------------------------
 * finished run on 2025/09/12 at 20:01:10.121     
------------------------------------------------------------------------
 total:
 * wall-time:     0 d,  0 h,  0 min, 13.045 sec
 *  cpu-time:     0 d,  0 h,  7 min, 23.354 sec
 * ratio c/w:    33.987 speedup
 SCF:
 * wall-time:     0 d,  0 h,  0 min,  0.488 sec
 *  cpu-time:     0 d,  0 h,  0 min, 18.254 sec
 * ratio c/w:    37.429 speedup
 ANC optimizer:
 * wall-time:     0 d,  0 h,  0 min,  4.272 sec
 *  cpu-time:     0 d,  0 h,  2 min, 50.834 sec
 * ratio c/w:    39.989 speedup
 analytical hessian:
 * wall-time:     0 d,  0 h,  0 min,  8.219 sec
 *  cpu-time:     0 d,  0 h,  4 min, 13.027 sec
 * ratio c/w:    30.785 speedup

