$hessian                                                                        
        0.1959963140   0.1261067274  -0.1770487226  -0.0620670378   0.0130181571
        0.1055155022  -0.0068365120  -0.0012641046   0.0188101606   0.0007932804
       -0.0022872853  -0.0000487785  -0.0003167242  -0.0006583081   0.0009985107
        0.0001184838   0.0004772858  -0.0001039019   0.0000688368  -0.0000250240
        0.0000565130  -0.0000514392  -0.0000180381   0.0000032573   0.0000301733
        0.0000004192  -0.0000034177   0.0000069596   0.0000088846   0.0000015141
       -0.0000155495   0.0000126605  -0.0000071168   0.0000242362  -0.0000118605
        0.0000024538   0.0000178475  -0.0000201869   0.0000087079  -0.0000247976
        0.0000296504   0.0000098075  -0.0000063713   0.0000082204  -0.0000023359
        0.0000000367  -0.0000046362   0.0000042830  -0.0000101913  -0.0000047410
       -0.0000000574   0.0000040784   0.0000026111   0.0000032165   0.0000030499
       -0.0000053551   0.0000038754   0.0000038198   0.0000242801   0.0000027178
       -0.0000432620  -0.0000229355  -0.0000162992   0.0000358246   0.0000247486
        0.0000126554  -0.0000057871  -0.0000174226  -0.0000078181   0.0000144612
        0.0000051164   0.0000051460  -0.0000103120   0.0000066378   0.0000054605
        0.0000216658  -0.0000071853  -0.0000105566  -0.0000267818  -0.0000014916
        0.0000098101   0.0000158639   0.0000127362  -0.0000016172  -0.0000021970
       -0.0000052380   0.0000037795   0.0000031952   0.0000016366  -0.0000002422
       -0.0000026527   0.0000010675  -0.0000005864   0.0000006082  -0.0000018182
        0.0000001340  -0.0000049590   0.0000039372   0.0000013760   0.0000017166
       -0.0000064105   0.0000009014  -0.0000009714   0.0000056895   0.0000006635
        0.0000049758  -0.0000075294   0.0000005158  -0.0000073887   0.0000059914
        0.0000020459  -0.0000004115  -0.0000015735  -0.0000000412   0.0000013210
        0.0000004847   0.0000003937   0.0000003718   0.0000012846  -0.0000001457
       -0.0000005787   0.0000020591  -0.0000004621   0.0000015427  -0.0000010728
       -0.0000001645  -0.0000020325   0.0000000966   0.0000004003  -0.0000032648
        0.0000030931  -0.0000001101  -0.0000008730   0.0000012391   0.0000008137
       -0.0000006357  -0.0000005380   0.0000013216   0.0000006770  -0.0000045759
       -0.0000013356   0.0000018658   0.0000052774  -0.0000021082  -0.0000000911
       -0.0000079429  -0.0000007091  -0.0000119216   0.0000001261   0.0000017113
        0.0000064386  -0.0000027633  -0.0000082815  -0.0000069484  -0.0000009418
        0.0000064353  -0.0002783701   0.0002322460   0.0004103186   0.0006932892
        0.0013205827   0.0005276046  -0.0456996956  -0.0517918509  -0.0171654281
       -0.0838223651  -0.0827859087   0.0725563592   0.0018563539  -0.0018952795
       -0.0052897934  -0.0001019167  -0.0000411410  -0.0000133035  -0.0001744215
       -0.0000657579   0.0001400913   0.0000059474  -0.0000049890  -0.0000061333
       -0.0000290695  -0.0000172791   0.0000227409  -0.0000011508  -0.0000073626
        0.0000002718  -0.0000053881  -0.0000051096  -0.0000008836   0.0000138966
       -0.0000157655  -0.0000124710   0.0000016392  -0.0000082919  -0.0000074735
       -0.0000002481  -0.0000019842  -0.0000029443  -0.0000013602   0.0000000862
       -0.0000018472  -0.0000039767   0.0000007282  -0.0000023019  -0.0000002533
        0.0000049027   0.0000042936  -0.0000011065  -0.0000001686  -0.0000005429
       -0.0000006144   0.0000001442  -0.0000012791   0.0000002181   0.0000011524
        0.0000010229  -0.0000001983  -0.0000014253   0.0000014833  -0.0000003563
       -0.0000012371   0.0000024866  -0.0000010713  -0.0000000298   0.0000006942
       -0.0000010233  -0.0000001786   0.0000016900  -0.0000014683  -0.0000002021
        0.0000007939   0.0000006280  -0.0000006864   0.0000010392   0.0000000961
       -0.0000009971  -0.0000000557   0.0000006638  -0.0000000859  -0.0000006531
       -0.0000003779  -0.0000012301  -0.0000009266  -0.0000002841  -0.0000015219
       -0.0000016286   0.0000015356  -0.0000000336  -0.0000014293   0.0000001498
       -0.0000021321  -0.0000001922   0.0000003878  -0.0000010205   0.0000003573
       -0.0000002322  -0.0000022242   0.0000005702  -0.0000022665  -0.0000002520
        0.0000023548   0.0000250289   0.0000025546   0.0000159128  -0.0001905723
       -0.0002893908   0.0006099268
        0.1261067274   0.5324981813   0.1033772478   0.0076001684  -0.1074014310
       -0.1067139718  -0.0004915401   0.0099551984   0.0127905194  -0.0021853673
       -0.0017764772   0.0030438092  -0.0001747227   0.0004838228   0.0006638245
       -0.0001395856   0.0002755116   0.0006054399   0.0001445139   0.0001357237
       -0.0000450455  -0.0002186203  -0.0000289037  -0.0000372991   0.0001742155
       -0.0000455979   0.0000663821  -0.0000231892  -0.0000077098  -0.0000242018
       -0.0000036300   0.0000011608  -0.0000066404   0.0000281965  -0.0000044778
        0.0000165067   0.0000085580  -0.0000239800   0.0000031813  -0.0000443886
        0.0000381226  -0.0000100085   0.0000066906  -0.0000054150   0.0000045792
       -0.0000118130  -0.0000079383  -0.0000079987  -0.0000052330   0.0000038791
       -0.0000067833  -0.0000074275  -0.0000017279  -0.0000026707   0.0000057739
       -0.0000019113  -0.0000075360  -0.0000132256  -0.0000106490   0.0000065865
       -0.0000295051   0.0000276761  -0.0000305405   0.0000024481   0.0000087133
        0.0000102586  -0.0000020550  -0.0000036366  -0.0000067937   0.0000046637
        0.0000021958  -0.0000004836   0.0000010569  -0.0000017483  -0.0000004722
        0.0000022854  -0.0000005627   0.0000000132  -0.0000051505   0.0000048330
       -0.0000044122  -0.0000001092   0.0000021147   0.0000025925  -0.0000017231
       -0.0000010358  -0.0000006327   0.0000003765   0.0000002010  -0.0000015404
       -0.0000003249   0.0000005753   0.0000001626  -0.0000000563   0.0000010472
       -0.0000028450  -0.0000009969   0.0000002813   0.0000012588  -0.0000026718
        0.0000009472  -0.0000012476   0.0000024017  -0.0000006942  -0.0000005321
        0.0000014304  -0.0000009891   0.0000017178   0.0000002761   0.0000015451
        0.0000006921  -0.0000004558  -0.0000007091  -0.0000003192  -0.0000006084
        0.0000008034  -0.0000004176  -0.0000001128  -0.0000006658  -0.0000008377
       -0.0000012150   0.0000005342   0.0000037748  -0.0000004720  -0.0000003491
       -0.0000013284  -0.0000010871  -0.0000000950  -0.0000013009  -0.0000031334
        0.0000015808  -0.0000005160   0.0000008453   0.0000000965  -0.0000003018
       -0.0000006768   0.0000006568  -0.0000017735  -0.0000026864   0.0000019522
        0.0000004262  -0.0000002972  -0.0000032567  -0.0000013169   0.0000026031
       -0.0000034768   0.0000004653  -0.0000058972   0.0000014868   0.0000038545
        0.0000039830  -0.0000122488  -0.0000095782  -0.0000042911   0.0000094546
        0.0000063186   0.0006191093   0.0005779554  -0.0010285232  -0.0013861837
       -0.0026621041   0.0008368617  -0.0520493157  -0.2574282931  -0.0908414886
       -0.0819178450  -0.1620087494   0.1039902960   0.0051295375  -0.0114653245
       -0.0293639813  -0.0000626448   0.0000174262   0.0003143779  -0.0001236863
       -0.0001071076   0.0003348566  -0.0000162987   0.0000011547   0.0000521356
       -0.0000116637  -0.0000658119   0.0000573275   0.0000028623  -0.0000006612
        0.0000044842  -0.0000075894  -0.0000031856   0.0000015631   0.0000459131
       -0.0000143017   0.0000022879   0.0000126026  -0.0000102689   0.0000079604
       -0.0000015045   0.0000053694   0.0000028150   0.0000003683   0.0000037061
        0.0000030909  -0.0000023315   0.0000033426   0.0000017172  -0.0000007540
       -0.0000006743   0.0000053717  -0.0000032185  -0.0000013968  -0.0000014781
       -0.0000022635   0.0000001864  -0.0000001569  -0.0000009463   0.0000009891
        0.0000004246   0.0000000453  -0.0000000694  -0.0000000146  -0.0000017071
        0.0000008388  -0.0000003425   0.0000000861   0.0000002438   0.0000013685
       -0.0000001915  -0.0000000532  -0.0000000050   0.0000034034   0.0000012229
        0.0000006275   0.0000007929   0.0000007766   0.0000003438   0.0000033470
       -0.0000000972   0.0000002214   0.0000011121   0.0000013928   0.0000001117
        0.0000007265  -0.0000008949   0.0000013852   0.0000011007  -0.0000026874
        0.0000019330   0.0000034427   0.0000003689   0.0000000573   0.0000010497
        0.0000004916   0.0000022422   0.0000008749  -0.0000000591   0.0000018168
        0.0000008182   0.0000012174  -0.0000001527   0.0000011383   0.0000027251
        0.0000011582  -0.0000236598  -0.0000039893   0.0000326526  -0.0009314720
       -0.0009562872   0.0018963890
       -0.1770487226   0.1033772478   0.7499434426   0.0995741166  -0.1232629803
       -0.4745116197   0.0196043998   0.0149551184  -0.0436478274  -0.0000140010
        0.0033169310   0.0051906524   0.0016302195   0.0022893096  -0.0020425911
       -0.0007689710  -0.0011085646   0.0009295740   0.0000378181   0.0001883779
       -0.0002502551   0.0001093008  -0.0000244903   0.0000167332  -0.0001005363
        0.0000255290  -0.0000376990  -0.0000050970  -0.0000072808   0.0000034328
        0.0000108629   0.0000000484   0.0000080155  -0.0000354883   0.0000150183
       -0.0000101021  -0.0000265651   0.0000504609  -0.0000177079   0.0000012602
       -0.0000760818  -0.0000092958   0.0000071610  -0.0000111422   0.0000048615
       -0.0000246795   0.0000030589   0.0000011136   0.0000043079   0.0000024830
        0.0000101121  -0.0000058726  -0.0000161192   0.0000032150   0.0000021207
        0.0000038841   0.0000023876   0.0000119687  -0.0000139369  -0.0000079035
        0.0000715051   0.0000121482   0.0000376212  -0.0000305196  -0.0000307155
       -0.0000217303   0.0000109345   0.0000092407   0.0000069206  -0.0000109765
       -0.0000053572   0.0000016031   0.0000095806  -0.0000025310  -0.0000024244
       -0.0000125276  -0.0000016642  -0.0000005367   0.0000063037  -0.0000006650
       -0.0000020916   0.0000018780  -0.0000018479   0.0000083159  -0.0000011371
       -0.0000019201   0.0000056035   0.0000016508   0.0000008642   0.0000031340
       -0.0000041793   0.0000000037  -0.0000043927  -0.0000011264  -0.0000007606
       -0.0000002044  -0.0000011481  -0.0000012796  -0.0000006397   0.0000007507
       -0.0000012809   0.0000005804   0.0000026256   0.0000006262   0.0000017427
        0.0000024125   0.0000007962   0.0000019858   0.0000006859   0.0000007963
        0.0000018115  -0.0000009178  -0.0000015705  -0.0000005784  -0.0000018821
       -0.0000007568  -0.0000001461   0.0000001981  -0.0000004070  -0.0000007609
        0.0000004599   0.0000016825   0.0000025588   0.0000003553  -0.0000028911
       -0.0000020077  -0.0000032087  -0.0000001026  -0.0000011622  -0.0000014485
        0.0000017448  -0.0000017948   0.0000008053   0.0000041188   0.0000000293
       -0.0000013180  -0.0000002849  -0.0000011143  -0.0000022347   0.0000000713
       -0.0000024632   0.0000027998   0.0000007340   0.0000024201  -0.0000017241
        0.0000046169   0.0000010635   0.0000087379   0.0000037420   0.0000054934
       -0.0000001971  -0.0000003630  -0.0000031635   0.0000019315   0.0000002381
        0.0000056589   0.0008654038   0.0001351623  -0.0026273334  -0.0023889769
       -0.0072789136  -0.0003483295  -0.0174499398  -0.0915605109  -0.0808724028
        0.0735273638   0.1066111751  -0.1365361192   0.0024368947  -0.0078008189
       -0.0156462314  -0.0000517553   0.0002402513   0.0002803205   0.0000844569
        0.0001960801  -0.0001753584   0.0000034436   0.0000425631   0.0000373843
        0.0000593701  -0.0000639786   0.0000528605   0.0000056945   0.0000057757
        0.0000015648   0.0000124106   0.0000055842   0.0000022733  -0.0000168057
        0.0000408621   0.0000003850   0.0000050635   0.0000164015  -0.0000101087
        0.0000068970  -0.0000057211  -0.0000016880   0.0000096075  -0.0000027757
        0.0000021979   0.0000075936   0.0000008026   0.0000015185   0.0000054702
        0.0000020241  -0.0000006195   0.0000026435   0.0000024629   0.0000015111
        0.0000055920   0.0000021857  -0.0000025322   0.0000000320  -0.0000007969
        0.0000009015  -0.0000000694   0.0000002684   0.0000004543   0.0000011835
       -0.0000004484   0.0000022626  -0.0000010072   0.0000005700  -0.0000005903
       -0.0000006179  -0.0000000604   0.0000014615   0.0000017513   0.0000005645
        0.0000004692   0.0000010676   0.0000003019   0.0000020532   0.0000019689
       -0.0000005696   0.0000000349   0.0000003717   0.0000006399   0.0000003123
       -0.0000006226  -0.0000025322   0.0000007940   0.0000002194  -0.0000000234
        0.0000002148   0.0000002570   0.0000009405  -0.0000013200   0.0000026051
       -0.0000015899   0.0000005585   0.0000024543  -0.0000014819   0.0000027490
       -0.0000001756  -0.0000017474  -0.0000007140  -0.0000002055   0.0000010935
       -0.0000004414  -0.0000234758  -0.0000394397   0.0000200404  -0.0001288370
       -0.0002381981   0.0001915963
       -0.0620670378   0.0076001684   0.0995741166   0.2047489319   0.1072618610
       -0.1619831433  -0.0858430307  -0.0439134813   0.0496970164  -0.0043786814
       -0.0022644648   0.0154741151   0.0070766222   0.0005220821   0.0017700401
       -0.0007275918  -0.0010505616   0.0012525878  -0.0013774465   0.0006762317
       -0.0007165433   0.0000779587  -0.0001868322   0.0000876583  -0.0001094743
        0.0000283558  -0.0000240739   0.0000200075  -0.0000056442   0.0000173500
        0.0000069231  -0.0000096410   0.0000034604  -0.0000235346   0.0000066974
       -0.0000071803  -0.0000071287   0.0000274133  -0.0000122161   0.0000724721
       -0.0000405946  -0.0000089768  -0.0000074758  -0.0000004408  -0.0000031955
        0.0000174276   0.0000031398   0.0000076143   0.0000091803   0.0000008464
        0.0000104445   0.0000046743   0.0000003480   0.0000049643   0.0000001322
       -0.0000065944   0.0000027308   0.0000072308   0.0000128380   0.0000001847
        0.0000234986  -0.0000233688   0.0000149833  -0.0000000799  -0.0000022151
       -0.0000014033   0.0000021926   0.0000013090   0.0000035283   0.0000020015
        0.0000005916   0.0000004309   0.0000023422   0.0000006012  -0.0000012987
        0.0000023198   0.0000004395  -0.0000036437  -0.0000018983  -0.0000013622
        0.0000026398   0.0000021355   0.0000021160  -0.0000036196  -0.0000008970
       -0.0000002483  -0.0000004803   0.0000007310   0.0000009270  -0.0000033221
       -0.0000019103   0.0000002537  -0.0000047733  -0.0000005644   0.0000002608
       -0.0000037183  -0.0000021346   0.0000007107  -0.0000027697   0.0000012904
       -0.0000010497  -0.0000028606  -0.0000003672   0.0000011335  -0.0000014872
        0.0000007795   0.0000021661  -0.0000024699  -0.0000003986   0.0000003490
       -0.0000024217   0.0000002387   0.0000003523  -0.0000009472   0.0000008400
       -0.0000004624   0.0000005205   0.0000010930   0.0000002854  -0.0000003106
       -0.0000005695   0.0000005781  -0.0000015634   0.0000013947  -0.0000008889
        0.0000014828   0.0000002769  -0.0000001986   0.0000029087   0.0000009039
       -0.0000012949   0.0000018332   0.0000006979   0.0000004866   0.0000009102
        0.0000004493  -0.0000001321   0.0000002718   0.0000029606  -0.0000016851
       -0.0000027672   0.0000006044   0.0000021142   0.0000001455  -0.0000018785
        0.0000011966  -0.0000031988  -0.0000003772  -0.0000026871  -0.0000025858
       -0.0000067676   0.0000080050   0.0000052460   0.0000030420  -0.0000063721
       -0.0000031601   0.0064445948  -0.0025481466  -0.0011539135  -0.0070665477
       -0.0153062133   0.0054185253   0.0019404239  -0.0011065217  -0.0061069619
       -0.0038430814   0.0022081974   0.0147703808  -0.0511590430  -0.0536392919
       -0.0162191698  -0.0017421181   0.0004066059  -0.0016190648  -0.0001050996
       -0.0001443033   0.0000743168  -0.0000028563   0.0000404546   0.0001322069
        0.0001040245   0.0002053155  -0.0002247013  -0.0000068655   0.0000012219
       -0.0000002491   0.0000008307   0.0000020459  -0.0000000832  -0.0000249136
        0.0000303287   0.0000122966  -0.0000104705   0.0000172782  -0.0000047112
        0.0000030275  -0.0000068724  -0.0000002762   0.0000010327  -0.0000010503
        0.0000000366  -0.0000007396  -0.0000001426  -0.0000010775  -0.0000003077
       -0.0000007134  -0.0000023357   0.0000007610   0.0000007763  -0.0000012087
        0.0000015813   0.0000014600  -0.0000030547  -0.0000015344  -0.0000002549
       -0.0000026263  -0.0000020923  -0.0000000707  -0.0000035181  -0.0000016284
        0.0000000604  -0.0000038614  -0.0000017141   0.0000003842  -0.0000042323
       -0.0000007134   0.0000007827  -0.0000030718  -0.0000004871   0.0000006789
       -0.0000025498   0.0000004826   0.0000010428  -0.0000018281  -0.0000022177
       -0.0000003283  -0.0000018687  -0.0000019573  -0.0000000345  -0.0000008712
       -0.0000009072  -0.0000016468   0.0000012634  -0.0000033766   0.0000002311
       -0.0000007208  -0.0000036640  -0.0000007148  -0.0000000367   0.0000003263
       -0.0000007695   0.0000005189   0.0000009348   0.0000004078  -0.0000007420
       -0.0000005054  -0.0000002085  -0.0000008140  -0.0000016369   0.0000012832
       -0.0000010790  -0.0000593218  -0.0000754367   0.0002179904  -0.0019863295
        0.0012705263  -0.0003959613
        0.0130181571  -0.1074014310  -0.1232629803   0.1072618610   0.5200789023
        0.1211339029  -0.0512314677  -0.1315719544   0.0712379359   0.0011481382
        0.0062852674   0.0017376219  -0.0005951168   0.0021760907  -0.0036371438
       -0.0005725413  -0.0012256707   0.0005355145   0.0001360682  -0.0002152563
        0.0001180826   0.0005040565   0.0001958829   0.0000482378  -0.0002467814
        0.0000941409  -0.0000979907   0.0000524899  -0.0000072369   0.0000370385
        0.0000104365  -0.0000287597   0.0000090497  -0.0000935938   0.0000194381
       -0.0000212625  -0.0000263463   0.0000639581  -0.0000098108   0.0001005143
       -0.0001063340  -0.0000251529  -0.0000002082  -0.0000220787   0.0000011228
        0.0000007998   0.0000008358  -0.0000041768   0.0000262317   0.0000105898
        0.0000154227  -0.0000106676  -0.0000102492  -0.0000002597  -0.0000066113
       -0.0000013903  -0.0000062270   0.0000017502  -0.0000282057  -0.0000109408
        0.0001158262   0.0000163040   0.0000502522  -0.0000636693  -0.0000460620
       -0.0000282734   0.0000158139   0.0000280788   0.0000185457  -0.0000189198
       -0.0000070141  -0.0000048339   0.0000189587  -0.0000118137  -0.0000087611
       -0.0000284664   0.0000079430   0.0000101288   0.0000275200   0.0000001631
       -0.0000065195  -0.0000149636  -0.0000099380   0.0000005742   0.0000018016
        0.0000047476  -0.0000013898  -0.0000011833  -0.0000004899  -0.0000002886
        0.0000007666  -0.0000017778  -0.0000012246  -0.0000007754   0.0000038749
       -0.0000019642   0.0000023684  -0.0000042906  -0.0000007444  -0.0000008725
        0.0000059667  -0.0000032413   0.0000011157  -0.0000053906   0.0000009625
       -0.0000041352   0.0000095266  -0.0000006370   0.0000072666  -0.0000076458
       -0.0000006287  -0.0000008543   0.0000014028  -0.0000015785  -0.0000012843
       -0.0000007880   0.0000018115   0.0000009079  -0.0000025004   0.0000000228
       -0.0000010354  -0.0000012538   0.0000018650  -0.0000002549  -0.0000009202
       -0.0000000010   0.0000026050  -0.0000000957   0.0000020524   0.0000039016
       -0.0000063907   0.0000004102   0.0000014815  -0.0000000842   0.0000000550
       -0.0000007464  -0.0000002573  -0.0000017476   0.0000010919   0.0000035342
        0.0000002820  -0.0000000727  -0.0000060967   0.0000039727  -0.0000037214
        0.0000095680  -0.0000005201   0.0000219011  -0.0000045006  -0.0000027455
       -0.0000169442   0.0000124105   0.0000144703   0.0000112794  -0.0000029846
       -0.0000042241  -0.0025368813  -0.0038005479  -0.0038082145  -0.0158608393
       -0.0274956371   0.0188711804   0.0054531648  -0.0102644102  -0.0286286680
       -0.0052128689   0.0034012764   0.0196793827  -0.0540890623  -0.2513048388
       -0.0724042614   0.0017870488   0.0006333096  -0.0021197364   0.0004092104
        0.0002252828  -0.0008284671   0.0000605971  -0.0000249220  -0.0000904970
        0.0000234281   0.0000435831  -0.0000373108  -0.0000089169   0.0000152226
       -0.0000014098   0.0000039134   0.0000125477   0.0000007093  -0.0000626964
        0.0000355434   0.0000183180  -0.0000129494   0.0000449850   0.0000057664
        0.0000054008  -0.0000012230   0.0000013834   0.0000087081  -0.0000015500
        0.0000052161   0.0000083315   0.0000042293   0.0000032030  -0.0000019925
       -0.0000052289  -0.0000073002  -0.0000013487   0.0000001016  -0.0000006195
        0.0000000614   0.0000012004  -0.0000011359  -0.0000032271  -0.0000010208
       -0.0000017829  -0.0000018372   0.0000000309  -0.0000016748  -0.0000027424
        0.0000013088  -0.0000026657  -0.0000004346   0.0000003758  -0.0000011353
       -0.0000002943   0.0000005711  -0.0000025152   0.0000036342   0.0000018735
       -0.0000012845  -0.0000002156   0.0000021529  -0.0000003245   0.0000007831
        0.0000008010  -0.0000009858  -0.0000011573   0.0000023491   0.0000002385
        0.0000008918   0.0000002025   0.0000020274  -0.0000010502   0.0000043700
        0.0000001314  -0.0000049537  -0.0000003267   0.0000004681   0.0000009953
        0.0000018769   0.0000013902   0.0000010163   0.0000014243   0.0000008985
       -0.0000008240   0.0000018314  -0.0000011489  -0.0000012404   0.0000042051
       -0.0000028482  -0.0005082854  -0.0006814812   0.0008322209   0.0009927568
        0.0008507670   0.0006873864
        0.1055155022  -0.1067139718  -0.4745116197  -0.1619831433   0.1211339029
        0.7438952470   0.0415725072   0.0490689144  -0.1270023484   0.0189140742
        0.0118310116  -0.0432000495   0.0003942421  -0.0071963000  -0.0015711436
        0.0016590035   0.0013953872  -0.0030609803  -0.0005060942  -0.0001621108
        0.0002748698   0.0000205047   0.0000657004   0.0001130308  -0.0000080524
        0.0000192173  -0.0000370706  -0.0000077824   0.0000049661  -0.0000115363
       -0.0000117600   0.0000026578  -0.0000083179  -0.0000113839   0.0000020401
       -0.0000064821   0.0000075907   0.0000005923   0.0000029393  -0.0000378086
        0.0000051804   0.0000368730   0.0000001032  -0.0000000532   0.0000034929
       -0.0000133986   0.0000093677   0.0000064130  -0.0000080673   0.0000050842
       -0.0000027975  -0.0000072723  -0.0000068340  -0.0000024418  -0.0000044916
        0.0000075101  -0.0000079061   0.0000044356  -0.0000001459  -0.0000059033
        0.0000192023   0.0000055137   0.0000074106  -0.0000180274  -0.0000149837
       -0.0000090939   0.0000006704   0.0000064674  -0.0000012460  -0.0000110126
       -0.0000030944   0.0000009949   0.0000049056  -0.0000043832  -0.0000055375
       -0.0000144296   0.0000012321   0.0000032954   0.0000084623  -0.0000033783
       -0.0000088617   0.0000014010  -0.0000024687   0.0000099635  -0.0000007186
       -0.0000017208   0.0000037169   0.0000004752   0.0000001752   0.0000036860
       -0.0000045728  -0.0000001534  -0.0000034553  -0.0000028367   0.0000001578
        0.0000007359   0.0000001189  -0.0000020459  -0.0000007725   0.0000020253
       -0.0000001873  -0.0000005569   0.0000004856   0.0000008065   0.0000020370
        0.0000002800   0.0000034351   0.0000041684   0.0000013126  -0.0000030257
       -0.0000002126  -0.0000026329  -0.0000002479  -0.0000009563  -0.0000010930
        0.0000008889  -0.0000010095  -0.0000008932  -0.0000010879  -0.0000013574
        0.0000006545   0.0000017386   0.0000019045   0.0000023784  -0.0000014799
       -0.0000024125  -0.0000037800   0.0000003100  -0.0000039141  -0.0000020831
        0.0000036145  -0.0000044427   0.0000000984   0.0000022828  -0.0000011187
       -0.0000013502  -0.0000008948  -0.0000019442  -0.0000039317  -0.0000001859
       -0.0000036584   0.0000011857   0.0000006791   0.0000007377  -0.0000009227
        0.0000066886   0.0000034360   0.0000104378   0.0000014933  -0.0000020367
        0.0000084207   0.0000003608   0.0000017614  -0.0000049341   0.0000010606
        0.0000007620  -0.0010205587  -0.0035652815   0.0063251644   0.0048928030
        0.0172274979   0.0037589905   0.0013134675  -0.0083694402  -0.0128205470
        0.0064762637  -0.0031513732  -0.0231702526  -0.0165425450  -0.0736572633
       -0.0675304726  -0.0001043694   0.0020083577   0.0001735242   0.0005940715
        0.0006721736  -0.0010296523  -0.0000905988  -0.0000314248   0.0000145406
       -0.0000296375   0.0001553985  -0.0001569248   0.0000095916   0.0000030494
        0.0000007004   0.0000005649  -0.0000006314   0.0000019969  -0.0000312576
       -0.0000213979  -0.0000339851   0.0000129016  -0.0000037397  -0.0000152343
        0.0000060799  -0.0000032464  -0.0000000777   0.0000037725  -0.0000014296
        0.0000010603   0.0000018454   0.0000007350   0.0000003952   0.0000076520
        0.0000018367   0.0000051312   0.0000011391  -0.0000004786  -0.0000005140
        0.0000045951   0.0000001369  -0.0000031631   0.0000018603  -0.0000001405
        0.0000010618   0.0000011791  -0.0000006576   0.0000011900   0.0000023387
       -0.0000007999   0.0000030340   0.0000004840  -0.0000002214  -0.0000000539
        0.0000003404  -0.0000002245   0.0000015658   0.0000012917   0.0000002994
        0.0000012779   0.0000013599  -0.0000004653   0.0000012835   0.0000027696
       -0.0000006781  -0.0000002784   0.0000020220   0.0000014355  -0.0000004368
        0.0000005535   0.0000000543  -0.0000007863   0.0000021343  -0.0000004836
       -0.0000003657   0.0000022868  -0.0000006579  -0.0000013278   0.0000028209
       -0.0000001732  -0.0000003734   0.0000011156  -0.0000005815   0.0000010434
        0.0000000133  -0.0000009361  -0.0000009401   0.0000014484  -0.0000002706
        0.0000002677  -0.0002561957  -0.0004896942   0.0002880277  -0.0007516083
       -0.0002389678  -0.0007111612
       -0.0068365120  -0.0004915401   0.0196043998  -0.0858430307  -0.0512314677
        0.0415725072   0.2261996439   0.1428891417  -0.1294670613  -0.0638747130
        0.0121871232   0.0505227159  -0.0041306864   0.0013131904   0.0162043661
       -0.0036582616   0.0010416115  -0.0067669009  -0.0002345746  -0.0003993406
        0.0003472917  -0.0000182186   0.0001681005   0.0000367053   0.0001505357
       -0.0000417836   0.0000480808  -0.0000316937   0.0000026175  -0.0000326915
        0.0000034907  -0.0000070203  -0.0000049328  -0.0000085951   0.0000078817
       -0.0000019196  -0.0000117707   0.0000031396  -0.0000097934  -0.0000065606
        0.0000273930  -0.0000524439   0.0000099885  -0.0000074145  -0.0000049391
       -0.0000148339  -0.0000041981  -0.0000266750   0.0000094022   0.0000094423
        0.0000005190  -0.0000032615  -0.0000018339  -0.0000010780  -0.0000001813
        0.0000063369  -0.0000019796  -0.0000119137  -0.0000184600  -0.0000041104
        0.0000156732   0.0000279039  -0.0000009347  -0.0000127019  -0.0000089937
       -0.0000046418   0.0000021593   0.0000078950   0.0000022473  -0.0000051505
       -0.0000019372  -0.0000006544   0.0000042328  -0.0000034660  -0.0000015179
       -0.0000086249   0.0000003444   0.0000041567   0.0000095460  -0.0000008881
       -0.0000016348  -0.0000029445  -0.0000051368   0.0000048471   0.0000022110
       -0.0000009624   0.0000022818   0.0000018715  -0.0000022354   0.0000038839
        0.0000013805  -0.0000020095   0.0000035384   0.0000005536  -0.0000015350
        0.0000045217   0.0000019743  -0.0000033807   0.0000029236   0.0000014553
       -0.0000009103   0.0000026222  -0.0000007642  -0.0000025950   0.0000044268
       -0.0000008515   0.0000012401   0.0000027759   0.0000017328  -0.0000018084
        0.0000033989  -0.0000025281  -0.0000034876   0.0000034230  -0.0000016472
       -0.0000015203   0.0000024180   0.0000004724  -0.0000019965   0.0000031352
        0.0000011347  -0.0000008040   0.0000013668  -0.0000000578  -0.0000007132
        0.0000014306  -0.0000011609  -0.0000012962  -0.0000009787   0.0000011118
       -0.0000012711  -0.0000027410  -0.0000004096  -0.0000009662   0.0000014170
       -0.0000013626  -0.0000006704   0.0000009162  -0.0000005477  -0.0000015112
        0.0000020956  -0.0000014328  -0.0000015681   0.0000035541   0.0000001095
        0.0000017972   0.0000029817   0.0000053959  -0.0000001755  -0.0000004110
       -0.0000009707  -0.0000014090   0.0000034940   0.0000034812   0.0000015263
       -0.0000014706  -0.0090471761  -0.0183671409   0.0103565887  -0.0722574675
       -0.0709037619  -0.0112813846  -0.0042479362   0.0013722063  -0.0019567305
        0.0102101000  -0.0032370021   0.0036921193  -0.0017553533  -0.0075284171
        0.0047287783   0.0017606357  -0.0036740571  -0.0062973165   0.0056855156
       -0.0036437225   0.0041671620   0.0000154785  -0.0000288148  -0.0000974624
       -0.0000999739   0.0001000578  -0.0001016080   0.0000091915   0.0000196078
        0.0000002299  -0.0000027616   0.0000042009   0.0000007782  -0.0000193941
       -0.0000246970   0.0000410312   0.0000018534   0.0000078248   0.0000121348
       -0.0000021816   0.0000021443  -0.0000030150   0.0000023621  -0.0000003319
        0.0000015679   0.0000015465   0.0000006867   0.0000016864  -0.0000017164
       -0.0000018749   0.0000000215  -0.0000007140  -0.0000001485   0.0000009425
        0.0000008179  -0.0000007657   0.0000017495   0.0000011464  -0.0000014827
        0.0000024638   0.0000024314  -0.0000009787   0.0000032394   0.0000032601
       -0.0000017724   0.0000044193   0.0000019228  -0.0000023537   0.0000042547
        0.0000010126  -0.0000019457   0.0000039075  -0.0000008537  -0.0000016672
        0.0000039416  -0.0000016680  -0.0000016927   0.0000031063   0.0000007797
       -0.0000011224   0.0000026390   0.0000007759  -0.0000008861   0.0000018287