$hessian                                                                        
        0.5287916571   0.0014336579  -0.0171073063  -0.0603116802   0.0041307216
       -0.0130354712  -0.0204376532  -0.0077206120  -0.0293121241  -0.0013600370
        0.0013313671  -0.0016916754   0.0000854140  -0.0006181932  -0.0000698313
        0.0015492854  -0.0023024393  -0.0025422138  -0.0012558683   0.0001499828
        0.0005526555   0.0001861031  -0.0005282007   0.0002130677  -0.0003161026
        0.0004096992   0.0000943618   0.0000490003  -0.0003219809  -0.0000246486
        0.0002874786   0.0004840281  -0.0000350391   0.0000885790   0.0001148172
        0.0001161921  -0.0003834735  -0.0003851248  -0.0001280377   0.0001537670
        0.0002813571   0.0000755926   0.0000195434   0.0003341440   0.0000764896
        0.0002450180  -0.0003783289   0.0000390985  -0.0000361241   0.0002424244
       -0.0000010964  -0.0000860079   0.0000353717  -0.0000183952   0.0001612975
       -0.0000765892   0.0000081401  -0.0000670632  -0.0000545373   0.0000013387
        0.0002916626   0.0000561066   0.0000281221  -0.0002381292  -0.0000710502
       -0.0000200289   0.0000012644   0.0000238435   0.0000020994  -0.0000023955
       -0.0000075864  -0.0000049744  -0.0000020156   0.0000060439   0.0000031854
        0.0000024314  -0.0000015675  -0.0000038370  -0.0000039952   0.0000083600
       -0.0000046379   0.0000004972  -0.0000256489  -0.0000032920   0.0000037445
        0.0000009925   0.0000073131  -0.0000115692   0.0000207345  -0.0000127701
        0.0000011304  -0.0000088688  -0.0000010456   0.0000021722   0.0000018371
       -0.0000055735  -0.0000003043  -0.0000029087   0.0000061936  -0.0000048127
        0.0000030485  -0.0000053829   0.0000107812  -0.0000152987   0.0000143896
       -0.0001480769   0.0000226360  -0.0000273077   0.0001306616   0.0001613714
        0.0000056957  -0.0001706259  -0.0000487983   0.0000124481   0.0004560018
       -0.0002940688  -0.0001128014  -0.2442059005  -0.0861773640  -0.0364561043
       -0.1617720467   0.0930668896   0.0791852499  -0.0452460791  -0.0062922558
        0.0028766736   0.0010210672   0.0009530045  -0.0011988830   0.0023466298
        0.0008738591   0.0193299265   0.0002626276   0.0002196117  -0.0000081073
        0.0001531045   0.0004000314   0.0002431716   0.0000534306  -0.0000432641
       -0.0001797340   0.0000291173  -0.0000070662   0.0000022026   0.0001021903
       -0.0000669813  -0.0002064344   0.0000466570   0.0000518312   0.0000004276
       -0.0000250389   0.0000501252  -0.0001051681  -0.0004375661   0.0005906872
       -0.0005691995  -0.0000074385  -0.0000008681  -0.0000034088  -0.0000001065
        0.0000008532   0.0000060334   0.0000007238  -0.0000007323  -0.0000004774
       -0.0000005504  -0.0000020217   0.0000010029  -0.0000011014  -0.0000009730
        0.0000010070  -0.0000011582   0.0000005111   0.0000010640  -0.0000011693
        0.0000018576   0.0000005925  -0.0000002537   0.0000012912  -0.0000002584
        0.0000003313  -0.0000002348   0.0000058485  -0.0000070621  -0.0000061788
       -0.0000067871   0.0000080356  -0.0000033555  -0.0000075307
        0.0014336579   0.5249494352   0.0000766522   0.0040498983  -0.0662922109
        0.0021626303  -0.0091085072   0.0007947869  -0.0120259877  -0.0005799570
        0.0001097335  -0.0005244249  -0.0000402329  -0.0002158382  -0.0000101820
        0.0011007662  -0.0009318541  -0.0008853499  -0.0005593208   0.0000875933
        0.0002123989   0.0000210828  -0.0000826313   0.0000805873  -0.0003026312
        0.0000453193  -0.0000665254   0.0003459049  -0.0001169035   0.0002878511
       -0.0005070520   0.0002321006  -0.0002731648  -0.0000090455   0.0000734380
        0.0000017498  -0.0001344212  -0.0001548430   0.0000011035   0.0000486869
        0.0001053458   0.0000029692  -0.0000358457   0.0001413971   0.0000126549
        0.0001580785  -0.0001817325   0.0000440085  -0.0000268336   0.0001171600
       -0.0000107496  -0.0000730860  -0.0000141745  -0.0000189336   0.0001142767
       -0.0000204065   0.0000102112  -0.0000458380  -0.0000458829  -0.0000006348
        0.0002072186   0.0000555170   0.0000207072  -0.0001736768  -0.0000585336
       -0.0000164149   0.0000012858   0.0000233775   0.0000001307  -0.0000007315
       -0.0000115454  -0.0000058265  -0.0000047768   0.0000049178   0.0000056041
        0.0000026662   0.0000056083  -0.0000035374  -0.0000000213   0.0000015169
       -0.0000069242  -0.0000065848  -0.0000176034   0.0000036303   0.0000031065
       -0.0000018455   0.0000039206  -0.0000084235   0.0000169044  -0.0000076791
        0.0000030237  -0.0000053144  -0.0000013280   0.0000047559   0.0000002725
       -0.0000046062  -0.0000013393  -0.0000027268   0.0000068705  -0.0000044671
        0.0000048725  -0.0000058740   0.0000050175  -0.0000089968   0.0000115549
       -0.0001035988   0.0000127386  -0.0000213188   0.0000924530   0.0001078105
       -0.0000005887  -0.0001318145  -0.0000526206   0.0000117069   0.0002990719
       -0.0001156989  -0.0000642394  -0.0864042707  -0.0814872870  -0.0159043914
        0.0930361221  -0.1195862669  -0.0625857610  -0.0060867811  -0.2546101125
        0.0800139797   0.0033307365  -0.0024773567   0.0284320042  -0.0003372165
       -0.0000396821  -0.0187649071   0.0000173861   0.0001347933  -0.0000602316
       -0.0002256379  -0.0002416488  -0.0005084680   0.0000373194   0.0000374196
        0.0000936664  -0.0000077957  -0.0000453631   0.0000071262   0.0000131435
       -0.0000255052  -0.0000609839   0.0000367319   0.0000041125   0.0000032675
       -0.0000206489   0.0000141642  -0.0000407526   0.0005780604  -0.0002334097
        0.0003677594  -0.0000035520  -0.0000008635  -0.0000009199   0.0000003039
        0.0000021252   0.0000033606   0.0000015937  -0.0000017931  -0.0000028840
       -0.0000010486  -0.0000030144   0.0000001511  -0.0000004948   0.0000000789
        0.0000005312  -0.0000006707   0.0000007413   0.0000019710  -0.0000009016
        0.0000026419   0.0000011351   0.0000011982   0.0000022097  -0.0000001322
        0.0000013002  -0.0000002772   0.0000045699  -0.0000051826  -0.0000052640
       -0.0000030442   0.0000075594   0.0000010750   0.0000003012
       -0.0171073063   0.0000766522   0.4511057756  -0.0078925891   0.0041731109
       -0.1840981547  -0.0207564534  -0.0073365243  -0.0089805874  -0.0000898648
        0.0009249346  -0.0004619529   0.0000467747  -0.0001014532  -0.0002857285
        0.0018485965  -0.0014358091  -0.0004356815  -0.0005831026   0.0000691176
        0.0001051304   0.0001204278  -0.0002636004   0.0000209621  -0.0002799849
        0.0001861414   0.0000679795   0.0002907390  -0.0002569134  -0.0001344224
        0.0002390851   0.0002653454  -0.0005233346  -0.0000360519   0.0002102997
        0.0000130877  -0.0000206745  -0.0001893787   0.0000027874   0.0000306300
        0.0001367059   0.0000210207  -0.0000485468   0.0001740346   0.0000342722
        0.0001161739  -0.0000907484   0.0000211262  -0.0000244155   0.0000630025
       -0.0000029025  -0.0000512924   0.0000180138  -0.0000158624   0.0000230487
       -0.0000383515  -0.0000029557  -0.0000191843  -0.0000358453   0.0000063062
        0.0000833542   0.0000123423  -0.0000001564  -0.0000799167  -0.0000216717
       -0.0000044259   0.0000076743   0.0000426603  -0.0000043969  -0.0000030825
       -0.0000019924   0.0000012207  -0.0000000634   0.0000056295   0.0000003118
        0.0000023499  -0.0000012979  -0.0000041453  -0.0000042528   0.0000073496
       -0.0000009539   0.0000013314  -0.0000183530  -0.0000041411   0.0000004927
        0.0000021759   0.0000024373  -0.0000082602   0.0000123818  -0.0000094020
        0.0000030210  -0.0000075710   0.0000036782  -0.0000004184   0.0000032613
       -0.0000040631   0.0000021769  -0.0000025971   0.0000033508  -0.0000018454
       -0.0000011258   0.0000039109   0.0000299783  -0.0000319243   0.0000148969
       -0.0000469498   0.0000334116  -0.0000127059   0.0000112280   0.0000062070
        0.0000138224  -0.0000958698   0.0000002892  -0.0000142490   0.0002355579
       -0.0001796467  -0.0000073496  -0.0368523182  -0.0161573557  -0.0484181025
        0.0797641779  -0.0622743508  -0.0954180107   0.0031687728   0.0798102555
       -0.0733257063  -0.0024797702   0.0042621887  -0.0175729328   0.0005622236
       -0.0023611792  -0.0220353277   0.0002432607   0.0000261809   0.0000226089
       -0.0000779448   0.0000870686   0.0002860036  -0.0000269619   0.0000298871
        0.0000246761   0.0000215533  -0.0000495207   0.0000554278  -0.0000201999
       -0.0000321102  -0.0000346527   0.0000171951   0.0000366613   0.0000017758
       -0.0000354200   0.0000249390  -0.0000287709  -0.0002372105   0.0001768427
        0.0000137444  -0.0000006215   0.0000054312  -0.0000001532   0.0000032651
        0.0000003045   0.0000011824   0.0000013645  -0.0000026142  -0.0000012917
       -0.0000011079  -0.0000031567   0.0000009832  -0.0000014516  -0.0000024107
        0.0000019097  -0.0000029086   0.0000020268   0.0000015180  -0.0000019634
        0.0000024814   0.0000005869  -0.0000001001   0.0000031084  -0.0000013783
        0.0000029750  -0.0000002209   0.0000011418   0.0000004954  -0.0000049617
        0.0000002248   0.0000101807   0.0000122418  -0.0000099617
       -0.0603116802   0.0040498983  -0.0078925891   0.4743271900  -0.0314323236
       -0.0276429925  -0.1817392574  -0.0492324653  -0.0327296467  -0.0040394928
       -0.0086557211   0.0001985456  -0.0004678627   0.0016936383   0.0008017571
       -0.0332161464  -0.0032045825  -0.0046112917  -0.0004841669   0.0024876577
        0.0002642586  -0.0017120108   0.0000560955  -0.0010196136   0.0013258739
       -0.0005026341   0.0000253435  -0.0017586421   0.0007979976  -0.0004963728
        0.0010428797  -0.0016968345   0.0006241844   0.0001100744  -0.0009101977
       -0.0001955533   0.0004020100   0.0008838623   0.0001808995  -0.0002564862
       -0.0005916775  -0.0001159505   0.0000974613  -0.0008109992  -0.0001312253
       -0.0005948155   0.0006507097  -0.0001257576   0.0000901500  -0.0004044378
        0.0000094970   0.0002589034  -0.0000906962   0.0000513451  -0.0002632149
        0.0001559220  -0.0000135503   0.0001327428   0.0001820972  -0.0000111487
       -0.0005569896  -0.0000779709  -0.0000475765   0.0004923874   0.0001277115
        0.0000530185  -0.0000443228  -0.0002015937  -0.0000139211   0.0000084653
        0.0000016744   0.0000053736   0.0000102190  -0.0000170325  -0.0000172709
       -0.0000130884   0.0000172003   0.0000117512   0.0000044900  -0.0000541985
        0.0000171988  -0.0000209589   0.0000756146   0.0000277724  -0.0000054558
       -0.0000108781  -0.0000053394   0.0000271132  -0.0000432735   0.0000474729
       -0.0000079310   0.0000462219   0.0000034960  -0.0000149989  -0.0000005661
        0.0000158661  -0.0000007143   0.0000132417  -0.0000253547   0.0000185214
       -0.0000095411   0.0000059189  -0.0001505641   0.0001457477  -0.0000737788
        0.0002973688  -0.0000875506   0.0000762444  -0.0001569599  -0.0002187413
       -0.0000123709   0.0004169418   0.0000939911  -0.0000237088  -0.0012089805
        0.0007407129   0.0002885271  -0.0071647941  -0.0012877155  -0.0254978405
        0.0030422467   0.0002873776   0.0207802939   0.0003123809   0.0005281115
        0.0001860213  -0.0414501062  -0.0074751657   0.0045925920  -0.1448293517
        0.0916971259   0.0718123837   0.0001155629  -0.0001273335  -0.0003606420
        0.0000169803   0.0013868554  -0.0005992718   0.0001216197   0.0000835699
        0.0007131546  -0.0001991702  -0.0001283874  -0.0000792203   0.0001218106
        0.0003424075   0.0003259990  -0.0001351528   0.0000575734   0.0000293778
       -0.0002722747   0.0002004676   0.0001586245  -0.0017103516   0.0004449419
        0.0004934717   0.0000107217  -0.0000040835   0.0000011939   0.0000017274
       -0.0000003703  -0.0000237340  -0.0000072590   0.0000107471  -0.0000011103
        0.0000029236   0.0000169410  -0.0000133613   0.0000071236  -0.0000011629
       -0.0000154058   0.0000043800  -0.0000013714  -0.0000120249   0.0000101237
       -0.0000134512  -0.0000009226   0.0000023359  -0.0000088835   0.0000088432
       -0.0000016219  -0.0000036802  -0.0000184768  -0.0000125136   0.0000119025
        0.0000097115  -0.0000253932   0.0000175050   0.0000068855
        0.0041307216  -0.0662922109   0.0041731109  -0.0314323236   0.5458023187
       -0.0046116925  -0.0440557109  -0.0993306902  -0.0192518062  -0.0250038466
       -0.0179033066  -0.0044034904  -0.0001596395  -0.0007753590   0.0003157941
        0.0104224320   0.0090091064   0.0050781833   0.0039847586  -0.0020011808
       -0.0005949595   0.0004540311   0.0005949518   0.0001360532   0.0008770577
       -0.0003184721   0.0001662004  -0.0004171996   0.0011500981  -0.0005960637
        0.0016865056  -0.0017404093   0.0005541681  -0.0001458667  -0.0005850380
       -0.0001410232   0.0004839299   0.0006568784   0.0001141915  -0.0002731685
       -0.0004120514  -0.0000640388  -0.0000161533  -0.0005734954  -0.0000753978
       -0.0003497500   0.0004880126  -0.0000875838   0.0000382834  -0.0003071927
        0.0000135553   0.0001333064  -0.0000717375   0.0000326865  -0.0002074316
        0.0001226651  -0.0000237199   0.0000872054   0.0000986856   0.0000024316
       -0.0004043199  -0.0000728388  -0.0000392724   0.0003363533   0.0000877072
        0.0000394749  -0.0000136207  -0.0000860203  -0.0000163359   0.0000001675
        0.0000143906   0.0000139484   0.0000125823  -0.0000068964  -0.0000163422
       -0.0000075151  -0.0000007967   0.0000055730  -0.0000026588  -0.0000228575
        0.0000152628  -0.0000073317   0.0000486251   0.0000085209  -0.0000066061
       -0.0000063406  -0.0000032802   0.0000235133  -0.0000284683   0.0000203704
       -0.0000032616   0.0000174893   0.0000114943  -0.0000141328   0.0000063789
        0.0000058114   0.0000058940   0.0000082006  -0.0000202334   0.0000138421
       -0.0000132097   0.0000160722  -0.0000642757   0.0000639479  -0.0000380619
        0.0001899255  -0.0000453876   0.0000490908  -0.0001349400  -0.0001854221
       -0.0000230642   0.0002660157   0.0000709293  -0.0000563612  -0.0007242444
        0.0005596783   0.0002559294  -0.0029476287  -0.0004390018  -0.0107503071
       -0.0019257953  -0.0003892675  -0.0174301951   0.0047494246  -0.0016571875
        0.0295434164  -0.0049039883  -0.2386144973   0.0788093091   0.0865726828
       -0.1190619438  -0.0580716311  -0.0016739348  -0.0059001188  -0.0015947515
       -0.0024699167  -0.0003829748  -0.0005990319  -0.0001235064  -0.0000267209
       -0.0000148555   0.0001128799  -0.0000895262   0.0000300212   0.0001072742
        0.0000074103  -0.0004275443  -0.0001173679  -0.0000450761  -0.0000833844
        0.0002353149  -0.0001167915   0.0001067858   0.0026801610  -0.0013010749
       -0.0004572005   0.0000110523   0.0000019055   0.0000007159   0.0000019696
       -0.0000036624  -0.0000166016  -0.0000043092   0.0000028813  -0.0000002787
        0.0000012617   0.0000086462  -0.0000072542   0.0000034269  -0.0000028577
       -0.0000080516   0.0000008034   0.0000010742  -0.0000064784   0.0000055695
       -0.0000070243  -0.0000001335  -0.0000002636  -0.0000032579   0.0000055236
       -0.0000010907   0.0000010732  -0.0000135041  -0.0000003031   0.0000020562
        0.0000090091  -0.0000162447  -0.0000047458   0.0000112258
       -0.0130354712   0.0021626303  -0.1840981547  -0.0276429925  -0.0046116925
        0.4434081931  -0.0277515772  -0.0192027349  -0.0489067166  -0.0035219690
       -0.0012104869  -0.0035605334   0.0001981833  -0.0016289462  -0.0003624949
       -0.0015188594   0.0026872850  -0.0050146343  -0.0003162665  -0.0003231321
        0.0030879111  -0.0004664375  -0.0007151224   0.0009179314   0.0001153127
       -0.0000333910   0.0000037869   0.0001693415   0.0002164336   0.0007944266
        0.0013810921  -0.0000815355  -0.0017766573   0.0000246720  -0.0002866780
       -0.0000848307  -0.0000666841   0.0003144301   0.0001524560  -0.0000476047
       -0.0001881947  -0.0000981905   0.0000768437   0.0001000029  -0.0000513457
       -0.0000777782   0.0001315463   0.0000409156   0.0000313547  -0.0000788876
       -0.0000255658   0.0000457112  -0.0000139578  -0.0000255955  -0.0001445985
        0.0000495259   0.0000330934   0.0000795241   0.0000646105  -0.0000146582
       -0.0001627963  -0.0000828517  -0.0000058940   0.0001445596   0.0000457850
        0.0000068559  -0.0000038066  -0.0000259845  -0.0000034072  -0.0000072037
        0.0000074520   0.0000109210   0.0000021324  -0.0000007222  -0.0000058882
       -0.0000038884  -0.0000010590   0.0000012604  -0.0000021634  -0.0000090861
        0.0000058750  -0.0000019082   0.0000237090   0.0000035577  -0.0000055742
       -0.0000039415  -0.0000081071   0.0000085415  -0.0000184958   0.0000145002
       -0.0000028498   0.0000086178   0.0000032628  -0.0000068277   0.0000025016
        0.0000026013   0.0000011299   0.0000020822  -0.0000073742   0.0000010560
       -0.0000079659   0.0000116557  -0.0000147975   0.0000156597  -0.0000090277
        0.0000406693  -0.0000107778  -0.0000139975  -0.0000121349  -0.0001170236
       -0.0000278209   0.0001898412  -0.0000189647   0.0000220893  -0.0001709086
       -0.0000486641  -0.0001563550  -0.0031169323  -0.0007434827  -0.0074064516
        0.0000774765  -0.0034204553  -0.0203950109  -0.0028501067   0.0043760726
       -0.0169864419   0.0053898425   0.0781000527  -0.0718564896   0.0711423667
       -0.0575236994  -0.0870881324   0.0013201954   0.0018912903   0.0002861639
        0.0003150057   0.0005997081   0.0007035330   0.0000535553  -0.0002426581
       -0.0003303672  -0.0002883227  -0.0001463405  -0.0002871479   0.0000569191
       -0.0000764635  -0.0005454930  -0.0000888114  -0.0000882534   0.0000281414
       -0.0000013992   0.0002071999  -0.0003804510   0.0004395331  -0.0000688795
       -0.0000272544   0.0000078799   0.0000032519   0.0000050074   0.0000021574
       -0.0000006288  -0.0000064496  -0.0000018914  -0.0000012743   0.0000016396
        0.0000023071   0.0000051154  -0.0000021217   0.0000039148  -0.0000012538
       -0.0000035218   0.0000015726   0.0000012760  -0.0000033955   0.0000021311
       -0.0000024206  -0.0000006611  -0.0000017935   0.0000006399   0.0000005364
        0.0000008083   0.0000008563  -0.0000066057   0.0000058136   0.0000069735
        0.0000079695   0.0000029109   0.0000113977   0.0000289602
       -0.0204376532  -0.0091085072  -0.0207564534  -0.1817392574  -0.0440557109
       -0.0277515772   0.6316382724  -0.0711469928   0.0758469968  -0.0783184630
       -0.0048945925  -0.0080540966   0.0036686615   0.0045135499   0.0018111336
       -0.2497267369   0.1115243531  -0.0090019414  -0.0517965561   0.0156080287
       -0.0055201780   0.0001337200  -0.0067229216  -0.0023201276  -0.0076096383
        0.0043754329   0.0004533435   0.0064568615  -0.0030141278  -0.0017183218
       -0.0073494850   0.0227943347   0.0045004384   0.0004795971   0.0004035521
        0.0004790367  -0.0030575286  -0.0035740032  -0.0004856000   0.0012155627
        0.0023138460   0.0004144889  -0.0005508709   0.0040682475   0.0009180822
        0.0031872894  -0.0032304790   0.0006478083  -0.0005469354   0.0020456035
       -0.0001434285  -0.0014177105   0.0001394921  -0.0004209403   0.0017565720
       -0.0008296095   0.0000360373  -0.0007447704  -0.0009501827   0.0000762547
        0.0032590545   0.0007127018   0.0002245331  -0.0027824625  -0.0009208481
       -0.0002080173   0.0000964866   0.0007549073  -0.0000697016  -0.0000594585
       -0.0001501748  -0.0000176677  -0.0000370906   0.0001196272   0.0000648587
        0.0000551782   0.0000170440  -0.0000772679  -0.0000526081   0.0000888038
       -0.0000723718  -0.0000594413  -0.0003847381  -0.0000010442   0.0000345134
       -0.0000035814   0.0000809840  -0.0002036094   0.0003306154  -0.0001773414
        0.0000681249  -0.0001359682   0.0000200180   0.0000230114   0.0000290678
       -0.0000860425  -0.0000175785  -0.0000453984   0.0000862564  -0.0000644811
        0.0000235095  -0.0000229115   0.0003540505  -0.0004465899   0.0002878351
       -0.0016270337   0.0005476147  -0.0003546825   0.0010238958   0.0015916508
        0.0001684758  -0.0025827884  -0.0005270992  -0.0000698735   0.0066759227
       -0.0045561380  -0.0010284794  -0.0006166701  -0.0002881970  -0.0043448991
        0.0011050338   0.0003625037   0.0003314547   0.0005060950   0.0002634063
        0.0007746197  -0.0095699996  -0.0100670582   0.0001275862  -0.0348847813
       -0.0078491035  -0.0031943680  -0.0031822964  -0.0275794388  -0.0049397032
       -0.0024468500   0.0270699741   0.0032701699   0.0001609434   0.0002693615
       -0.0005414744  -0.0002614575  -0.0007067998  -0.0000684567   0.0002672187
        0.0006672043   0.0012395448   0.0012018704   0.0005093826   0.0001846588
       -0.0009586375   0.0005164626  -0.0001265520  -0.0006687934  -0.0005301567
       -0.0003963544  -0.0000262550   0.0000656574  -0.0000203156   0.0000335363
        0.0000393700   0.0000405402   0.0000251451  -0.0000637396  -0.0000420140
       -0.0000116131  -0.0000686063   0.0000121776  -0.0000211919  -0.0000379250
        0.0000273147  -0.0000457149   0.0000269275   0.0000291230  -0.0000370495
        0.0000460933   0.0000064892  -0.0000001075   0.0000493728  -0.0000238167
        0.0000325856   0.0000018079   0.0000535682  -0.0000668073  -0.0001358205
       -0.0000201017   0.0001211795   0.0001350018  -0.0001377066
       -0.0077206120   0.0007947869  -0.0073365243  -0.0492324653  -0.0993306902
       -0.0192027349  -0.0711469928   0.5816556692   0.1030674995  -0.0007905716
       -0.2057279301  -0.0274710198   0.0021623413  -0.0245283394  -0.0215173914
        0.1113254243  -0.1570326507  -0.0138838577   0.0022528000   0.0092805633
        0.0028264994  -0.0040309447   0.0000611360  -0.0023395849   0.0060533063
       -0.0017581140   0.0001742449  -0.0078271192  -0.0023074294  -0.0019918820
        0.0374423882  -0.0386852482  -0.0050249316   0.0016469082  -0.0021527767
       -0.0004810501   0.0009251462   0.0023403533   0.0000536855  -0.0004337208
       -0.0017376533  -0.0001821051   0.0007529990  -0.0024533581  -0.0004312594
       -0.0023126717   0.0020637199  -0.0005126663   0.0004317426  -0.0012839652
        0.0001139203   0.0010997598   0.0000598928   0.0003271235  -0.0012065607
        0.0004498471  -0.0000390343   0.0005181052   0.0006872751  -0.0000480953
       -0.0022273976  -0.0004996166  -0.0001713756   0.0018827939   0.0006754271
        0.0001449006  -0.0000731867  -0.0005392577   0.0000590631   0.0000452365
        0.0001046584  -0.0000005149   0.0000267073  -0.0000860248  -0.0000528230
       -0.0000354978  -0.0000107776   0.0000492566   0.0000315520  -0.0000544942
        0.0000521224   0.0000624981   0.0002445189  -0.0000124188  -0.0000270046
        0.0000198707  -0.0000531728   0.0001275354  -0.0002328612   0.0001295265
       -0.0000455947   0.0000955971  -0.0000175938  -0.0000175955  -0.0000194558
        0.0000599509   0.0000155321   0.0000295464  -0.0000578310   0.0000427627
       -0.0000088658   0.0000136308  -0.0002163405   0.0002812205  -0.0002008775
        0.0011343371  -0.0003395811   0.0002550406  -0.0006833116  -0.0011830144
       -0.0000182741   0.0018340598   0.0004245094   0.0000707049  -0.0046275982
        0.0027688080   0.0006594904   0.0000113673   0.0004625913  -0.0010138233
       -0.0001783717  -0.0003637742   0.0002410013   0.0004869258   0.0003045944
       -0.0001467083  -0.0293640027  -0.0184553138  -0.0057814075   0.0142480212
        0.0055619103   0.0035537024  -0.0073952491  -0.0242701599  -0.0017805274
        0.0058733350  -0.0276367214  -0.0003300402  -0.0000212201   0.0007017991
        0.0006579192  -0.0002059646   0.0009770452   0.0003853485   0.0004654631
       -0.0007927434  -0.0044724416  -0.0002062886  -0.0002129930   0.0006313513
       -0.0008722048   0.0003870171  -0.0000187418  -0.0000135965   0.0012538750
        0.0010587336   0.0000102469  -0.0000365439   0.0000117725  -0.0000190666
       -0.0000316885  -0.0000168561  -0.0000126947   0.0000526811   0.0000346673
        0.0000092524   0.0000458804  -0.0000054754   0.0000102227   0.0000250843
       -0.0000136339   0.0000296885  -0.0000200749  -0.0000191745   0.0000208506
       -0.0000299497  -0.0000066025  -0.0000021875  -0.0000331267   0.0000122897
       -0.0000222794  -0.0000060201  -0.0000344617   0.0000633144   0.0001039394
        0.0000053823  -0.0000743120  -0.0000526036   0.0000380844
       -0.0293121241  -0.0120259877  -0.0089805874  -0.0327296467  -0.0192518062
       -0.0489067166   0.0758469968   0.1030674995   0.1221155137  -0.0061767285
       -0.0343513608  -0.0464731652   0.0006834623  -0.0307616315  -0.0070975425
       -0.0109428478  -0.0120989441  -0.0279205553  -0.0111082134   0.0053902366
        0.0023022030  -0.0012283891  -0.0031343369   0.0014983335   0.0005951565
        0.0009001914   0.0002581794  -0.0026156010  -0.0015585085   0.0024592162
        0.0092556161  -0.0082464916   0.0028787170   0.0005388142  -0.0010196151
        0.0001039097  -0.0003484786   0.0001700781  -0.0003505420   0.0000840797
       -0.0001059257   0.0000844236   0.0001757698   0.0000704908   0.0001003061
       -0.0000871054   0.0000541081   0.0000497190   0.0000208147  -0.0000330363
        0.0000238749   0.0000528876  -0.0000074730   0.0000140381  -0.0000055823
        0.0000228981  -0.0000014933   0.0000229488   0.0000111874   0.0000086193
       -0.0000500325  -0.0000176383  -0.0000232231   0.0000555140   0.0000170677
        0.0000208180  -0.0000045270  -0.0000193183  -0.0000011699   0.0000140983
        0.0000017779  -0.0000109922   0.0000035737  -0.0000053657  -0.0000011321
       -0.0000005086   0.0000006610   0.0000037596   0.0000012504  -0.0000012434
        0.0000026841   0.0000024563  -0.0000025814  -0.0000019726   0.0000025851
        0.0000044949   0.0000072415   0.0000021490   0.0000041346  -0.0000069715
       -0.0000020738   0.0000014239   0.0000016112   0.0000009066  -0.0000008142
        0.0000017064   0.0000008952   0.0000014809  -0.0000003866   0.0000076260
        0.0000035259  -0.0000072023  -0.0000138308   0.0000139208  -0.0000080308
        0.0000172287  -0.0000086019   0.0000198087  -0.0000585229   0.0000265559
        0.0000227379   0.0000646753  -0.0000440037   0.0000612346   0.0001010747
        0.0001500895  -0.0006101976  -0.0026057534  -0.0007102930  -0.0063249690
       -0.0003055969   0.0005985880   0.0021865698   0.0004228628  -0.0009595075
        0.0021016915   0.0040628310  -0.0008512336   0.0033646774   0.0070350771
        0.0037185989   0.0036080334  -0.0023107533   0.0023584130   0.0027919570
        0.0003796398   0.0099376644   0.0039961217  -0.0011756765   0.0001367661
        0.0019327420   0.0005207409  -0.0000243244   0.0022658638   0.0007836625
       -0.0028699991  -0.0059588235   0.0006331802   0.0005969299  -0.0006010539
       -0.0004172049   0.0002208749   0.0000011030   0.0001351932   0.0006440172
       -0.0009641526   0.0000024575  -0.0000023270  -0.0000048263  -0.0000017391
       -0.0000012594   0.0000000809  -0.0000004759   0.0000057571  -0.0000022183
       -0.0000029416  -0.0000013083  -0.0000004952  -0.0000035562   0.0000009559
        0.0000002485  -0.0000019176  -0.0000014360   0.0000007523  -0.0000006730
       -0.0000013566   0.0000012093   0.0000014176  -0.0000037522   0.0000020118
       -0.0000020126  -0.0000013548   0.0000010478  -0.0000054642  -0.0000025715
       -0.0000067169  -0.0000096650  -0.0000049808  -0.0000276296
       -0.0013600370  -0.0005799570  -0.0000898648  -0.0040394928  -0.0250038466
       -0.0035219690  -0.0783184630  -0.0007905716  -0.0061767285   0.5558127986
        0.0049638269   0.0116540816  -0.0698468286   0.0019468642   0.0149471113
        0.0003290792   0.0241818639   0.0058440410  -0.0013416809   0.0010988757
        0.0002235536   0.0005402082   0.0000648016  -0.0003833895  -0.0004041778
        0.0004090066   0.0001645529   0.0003657429   0.0009121377   0.0002550231
       -0.0041899107   0.0026155295  -0.0004434028  -0.0004308191   0.0003705452
        0.0000638111   0.0000551545  -0.0001501594   0.0000374159  -0.0000098961
        0.0001605193   0.0000089441  -0.0000611101   0.0001915404   0.0000077414
        0.0001882465  -0.0000867774  -0.0000071131  -0.0000359813   0.0000424511
        0.0000072519  -0.0001028112  -0.0000505082  -0.0000140997   0.0000916783
       -0.0000179300  -0.0000086578  -0.0000296441  -0.0000552198   0.0000091954
        0.0001541905   0.0000371647   0.0000186905  -0.0001095186  -0.0000648572
       -0.0000062253   0.0000090410   0.0000462971  -0.0000109369  -0.0000013329
       -0.0000117975   0.0000042546  -0.0000036116   0.0000081349   0.0000143845
        0.0000012195   0.0000022710   0.0000015584   0.0000025950  -0.0000027422
       -0.0000055561  -0.0000167808  -0.0000094958   0.0000078336   0.0000068240
       -0.0000084844   0.0000038158  -0.0000047872   0.0000233420  -0.0000162501
        0.0000024272  -0.0000069513   0.0000002805   0.0000040949  -0.0000021168
       -0.0000025526  -0.0000060343  -0.0000001330   0.0000057312  -0.0000032005
        0.0000013595  -0.0000056198  -0.0000022291  -0.0000047378   0.0000151403
       -0.0000834109   0.0000146606  -0.0000215883   0.0000270245   0.0001517199
       -0.0000185998  -0.0001542784  -0.0000550467   0.0000111989   0.0003611674
       -0.0002657911   0.0000780831  -0.0001085610  -0.0000195815  -0.0005398695
       -0.0001006837   0.0001762398   0.0000535786   0.0000567873  -0.0001385333
       -0.0002185378  -0.0043231200  -0.0035563583  -0.0013879600  -0.0000033825
       -0.0025110051  -0.0002769394  -0.2151514529  -0.0716027942   0.0632030713
       -0.1724032162   0.0646396257  -0.0881863197  -0.0055755367   0.0042006552
        0.0279332234   0.0024558094  -0.0034596853  -0.0222387513   0.0000571332