 Entering Gaussian System
 *********************************************
 Gaussian 98:
 frequency output generated by the xtb code
 *********************************************
                         Standard orientation:
 --------------------------------------------------------------------
  Center     Atomic     Atomic              Coordinates (Angstroms)
  Number     Number      Type              X           Y           Z
 --------------------------------------------------------------------
    1          6             0       -5.054683    0.318880    1.793205
    2          6             0       -4.466195    0.141831    0.377937
    3          6             0       -5.603822    0.080010   -0.662538
    4          6             0       -3.697024   -1.158112    0.334750
    5          6             0       -4.348388   -2.356231    0.595274
    6          6             0       -3.682239   -3.568180    0.579708
    7          6             0       -2.320504   -3.602723    0.304594
    8          6             0       -1.646755   -2.433716    0.041211
    9          6             0       -2.320065   -1.199611    0.043948
   10          7             0       -1.620676   -0.048616   -0.231339
   11          6             0       -0.227763   -0.138531   -0.517837
   12          6             0        0.216294   -0.459253   -1.799561
   13          6             0        1.561666   -0.534632   -2.061596
   14          6             0        2.520403   -0.289686   -1.048603
   15          6             0        3.923263   -0.363179   -1.323000
   16          8             0        4.382363   -0.649384   -2.474041
   17          6             0        4.788848   -0.088757   -0.193358
   18          6             0        6.186919   -0.123874   -0.320991
   19          6             0        7.001148    0.142459    0.759596
   20          6             0        6.448871    0.450023    1.993613
   21          6             0        5.067586    0.490109    2.144166
   22          6             0        4.244496    0.223557    1.064203
   23          8             0        2.894006    0.280870    1.287295
   24          6             0        2.048986    0.029859    0.243986
   25          6             0        0.697923    0.106506    0.508066
   26          6             0       -2.220041    1.188757   -0.233822
   27          6             0       -1.454666    2.325485   -0.547611
   28          6             0       -2.022622    3.577403   -0.547933
   29          6             0       -3.369510    3.724937   -0.239288
   30          6             0       -4.131472    2.609267    0.056471
   31          6             0       -3.588619    1.331297    0.063953
   32          1             0       -5.633637    1.234943    1.855431
   33          1             0       -4.252221    0.366498    2.526663
   34          1             0       -5.703540   -0.513853    2.045689
   35          1             0       -5.189518   -0.050713   -1.660203
   36          1             0       -6.269304   -0.751686   -0.453791
   37          1             0       -6.186481    0.995694   -0.648683
   38          1             0       -5.403367   -2.350369    0.818280
   39          1             0       -4.218316   -4.481600    0.785879
   40          1             0       -1.787893   -4.541145    0.297381
   41          1             0       -0.589457   -2.454383   -0.169099
   42          1             0       -0.503535   -0.642245   -2.583356
   43          1             0        1.934151   -0.777885   -3.044647
   44          1             0        6.595464   -0.365132   -1.291153
   45          1             0        8.074096    0.110212    0.638767
   46          1             0        7.083877    0.658934    2.840592
   47          1             0        4.613744    0.726857    3.094237
   48          1             0        0.365725    0.353293    1.504140
   49          1             0       -0.411561    2.205387   -0.792318
   50          1             0       -1.419451    4.438851   -0.789952
   51          1             0       -3.822090    4.704433   -0.235113
   52          1             0       -5.176555    2.744303    0.285348
 --------------------------------------------------------------------
     1 basis functions        1 primitive gaussians
     1 alpha electrons        1 beta electrons
 
 Harmonic frequencies (cm**-1), IR intensities (km*mol⁻¹),
 Raman scattering activities (A**4/amu), Raman depolarization ratios,
 reduced masses (AMU), force constants (mDyne/A) and normal coordinates:
                      1                      2                      3
                        a                      a                      a 
 Frequencies --    13.4117                23.5798                29.7316
 Red. masses --    11.2530                10.0946                12.1487
 Frc consts  --     0.0000                 0.0000                 0.0000
 IR Inten    --     0.7224                 0.3025                 1.4983
 Raman Activ --     0.0000                 0.0000                 0.0000
 Depolar     --     0.0000                 0.0000                 0.0000
 Atom AN      X      Y      Z        X      Y      Z        X      Y      Z
   1   6     0.04  -0.01   0.04    -0.32  -0.02  -0.28    -0.01  -0.12   0.01
   2   6     0.01   0.04   0.02    -0.06  -0.02  -0.18    -0.00  -0.05   0.00
   3   6    -0.01   0.15   0.03     0.13  -0.04  -0.38    -0.01  -0.06   0.01
   4   6    -0.05   0.00  -0.06    -0.03  -0.00  -0.04     0.05  -0.01  -0.04
   5   6    -0.11   0.02  -0.13    -0.05  -0.01  -0.10     0.10  -0.05  -0.07
   6   6    -0.17  -0.01  -0.19    -0.02   0.00   0.01     0.16  -0.02  -0.09
   7   6    -0.17  -0.06  -0.18     0.01   0.02   0.17     0.16   0.05  -0.07
   8   6    -0.11  -0.08  -0.11     0.02   0.02   0.22     0.11   0.09  -0.04
   9   6    -0.05  -0.05  -0.06    -0.00   0.01   0.11     0.06   0.06  -0.03
  10   7    -0.00  -0.07  -0.01     0.01   0.01   0.16     0.00   0.11  -0.02
  11   6    -0.00  -0.11   0.01     0.01   0.00   0.13     0.00   0.15  -0.03
  12   6     0.01  -0.23   0.04    -0.04  -0.01   0.11    -0.00   0.02   0.00
  13   6     0.01  -0.24   0.05    -0.05  -0.02   0.07    -0.00  -0.05   0.02
  14   6     0.00  -0.12   0.03    -0.01  -0.01   0.03    -0.00   0.00  -0.00
  15   6     0.01  -0.11   0.03    -0.02  -0.02  -0.02    -0.00  -0.16   0.03
  16   8     0.01  -0.26   0.07    -0.08  -0.03  -0.04    -0.01  -0.41   0.09
  17   6    -0.00   0.04   0.00     0.02  -0.00  -0.06     0.00  -0.11   0.02
  18   6     0.00   0.08   0.00     0.01   0.00  -0.11     0.00  -0.29   0.06
  19   6    -0.01   0.22  -0.03     0.05   0.02  -0.15     0.01  -0.25   0.04
  20   6    -0.01   0.31  -0.06     0.10   0.02  -0.13     0.01  -0.03  -0.01
  21   6    -0.01   0.27  -0.05     0.11   0.02  -0.07     0.01   0.14  -0.04
  22   6    -0.01   0.14  -0.02     0.07   0.00  -0.04     0.01   0.10  -0.03
  23   8    -0.01   0.13  -0.03     0.08  -0.00   0.01     0.01   0.30  -0.08
  24   6    -0.00  -0.00  -0.00     0.03  -0.00   0.05     0.00   0.17  -0.04
  25   6    -0.00   0.00  -0.01     0.04   0.00   0.09     0.01   0.24  -0.05
  26   6     0.05  -0.04   0.05     0.01   0.01   0.12    -0.05   0.07   0.02
  27   6     0.09  -0.06   0.06     0.04   0.02   0.25    -0.11   0.11   0.03
  28   6     0.15  -0.04   0.12     0.04   0.02   0.23    -0.17   0.09   0.07
  29   6     0.17   0.01   0.16    -0.00   0.01   0.07    -0.17   0.02   0.10
  30   6     0.12   0.03   0.13    -0.03  -0.01  -0.06    -0.11  -0.02   0.08
  31   6     0.06   0.01   0.07    -0.02  -0.00  -0.03    -0.06   0.00   0.04
  32   1     0.02   0.00   0.03    -0.11  -0.02  -0.12    -0.02  -0.04   0.01
  33   1     0.02  -0.02   0.01    -0.13   0.01  -0.04    -0.00  -0.03   0.00
  34   1     0.00   0.00   0.00    -0.09  -0.01  -0.11     0.01  -0.05  -0.00
  35   1    -0.01   0.05   0.01     0.09  -0.02  -0.09    -0.00  -0.01   0.00
  36   1    -0.01   0.05  -0.00     0.03  -0.01  -0.14     0.01  -0.03  -0.00
  37   1     0.01   0.05   0.03     0.04  -0.01  -0.14    -0.01  -0.03   0.01
  38   1    -0.03   0.02  -0.04    -0.02  -0.01  -0.07     0.03  -0.03  -0.02
  39   1    -0.06   0.00  -0.07    -0.01  -0.00  -0.01     0.06  -0.01  -0.04
  40   1    -0.06  -0.03  -0.06     0.01   0.01   0.08     0.06   0.02  -0.02
  41   1    -0.03  -0.04  -0.03     0.01   0.01   0.10     0.03   0.04  -0.01
  42   1     0.00  -0.09   0.02    -0.02  -0.00   0.04    -0.00  -0.01   0.01
  43   1     0.00  -0.10   0.02    -0.02  -0.01   0.02    -0.00  -0.05   0.01
  44   1     0.00   0.00   0.01    -0.01  -0.00  -0.04    -0.00  -0.13   0.03
  45   1    -0.00   0.07  -0.01     0.01   0.01  -0.06     0.00  -0.11   0.02
  46   1    -0.00   0.12  -0.02     0.04   0.01  -0.05     0.00  -0.00  -0.01
  47   1    -0.01   0.10  -0.02     0.04   0.01  -0.02     0.00   0.09  -0.02
  48   1    -0.00   0.03  -0.01     0.02   0.00   0.03     0.00   0.10  -0.02
  49   1     0.02  -0.03   0.01     0.02   0.01   0.11    -0.03   0.05   0.00
  50   1     0.05  -0.02   0.04     0.02   0.01   0.10    -0.06   0.03   0.02
  51   1     0.06   0.01   0.06    -0.00   0.00   0.01    -0.06  -0.00   0.04
  52   1     0.04   0.02   0.05    -0.02  -0.01  -0.05    -0.03  -0.02   0.03
                      4                      5                      6
                        a                      a                      a 
 Frequencies --    55.2921                57.0530                89.1858
 Red. masses --    10.9478                12.5861                 9.7691
 Frc consts  --     0.0000                 0.0000                 0.0000
 IR Inten    --     1.4732                 4.3333                 0.0282
 Raman Activ --     0.0000                 0.0000                 0.0000
 Depolar     --     0.0000                 0.0000                 0.0000
 Atom AN      X      Y      Z        X      Y      Z        X      Y      Z
   1   6    -0.17   0.01  -0.10    -0.04   0.00  -0.02    -0.01   0.18  -0.02
   2   6     0.03  -0.00  -0.01     0.01   0.01  -0.00    -0.00  -0.00   0.01
   3   6     0.17  -0.01  -0.17     0.04  -0.04  -0.04     0.00  -0.17   0.01
   4   6     0.03  -0.00   0.06     0.05   0.03   0.02     0.01   0.00   0.11
   5   6     0.05   0.02   0.21     0.09   0.02   0.08     0.04   0.03   0.31
   6   6     0.05   0.02   0.28     0.13   0.04   0.08    -0.01   0.00   0.16
   7   6     0.03  -0.00   0.17     0.11   0.07  -0.00    -0.10  -0.05  -0.25
   8   6     0.00  -0.03  -0.01     0.06   0.08  -0.07    -0.10  -0.07  -0.35
   9   6     0.00  -0.03  -0.05     0.03   0.06  -0.05    -0.03  -0.03  -0.09
  10   7    -0.02  -0.05  -0.20    -0.01   0.08  -0.09     0.00  -0.03   0.01
  11   6    -0.02  -0.05  -0.20    -0.01   0.08  -0.09     0.00  -0.02   0.01
  12   6     0.02  -0.08  -0.17     0.01   0.19  -0.11     0.00   0.08  -0.01
  13   6     0.04  -0.05  -0.13     0.01   0.09  -0.07     0.00   0.09  -0.02
  14   6     0.00   0.02  -0.11    -0.00  -0.12  -0.01     0.01   0.05  -0.01
  15   6     0.02   0.05  -0.05     0.00  -0.22   0.04     0.00   0.00   0.00
  16   8     0.09   0.09  -0.04     0.02  -0.37   0.08     0.00  -0.02   0.01
  17   6    -0.04   0.03  -0.00    -0.01  -0.10   0.02     0.01  -0.02   0.01
  18   6    -0.03  -0.03   0.09    -0.01   0.14  -0.01     0.01  -0.10   0.02
  19   6    -0.09  -0.07   0.14    -0.03   0.31  -0.04     0.01  -0.07   0.02
  20   6    -0.15  -0.04   0.11    -0.05   0.24  -0.03     0.01   0.04  -0.01
  21   6    -0.15   0.02   0.02    -0.05  -0.01   0.01     0.01   0.10  -0.02
  22   6    -0.09   0.05  -0.03    -0.03  -0.17   0.03     0.01   0.05  -0.01
  23   8    -0.12   0.12  -0.13    -0.04  -0.44   0.07     0.01   0.08  -0.02
  24   6    -0.05   0.04  -0.14    -0.02  -0.20   0.01     0.01   0.02  -0.00
  25   6    -0.06   0.01  -0.18    -0.02  -0.12  -0.03     0.01  -0.04   0.02
  26   6     0.03  -0.03  -0.06    -0.02   0.07  -0.03     0.03  -0.01   0.10
  27   6     0.04  -0.03  -0.04    -0.04   0.09   0.02     0.09   0.01   0.33
  28   6     0.10  -0.01   0.15    -0.06   0.08   0.07     0.07   0.00   0.23
  29   6     0.13   0.02   0.29    -0.06   0.05   0.08    -0.02  -0.03  -0.15
  30   6     0.11   0.02   0.22    -0.04   0.02   0.05    -0.05  -0.04  -0.29
  31   6     0.06  -0.00   0.07    -0.02   0.03   0.01    -0.01  -0.02  -0.09
  32   1    -0.06  -0.01  -0.05    -0.02  -0.01  -0.01     0.02   0.07  -0.04
  33   1    -0.08   0.01   0.00    -0.02   0.01  -0.00    -0.00   0.06  -0.00
  34   1    -0.05  -0.00  -0.05    -0.00  -0.00  -0.01    -0.02   0.07   0.02
  35   1     0.09  -0.01  -0.03     0.02  -0.01  -0.01     0.00  -0.07   0.01
  36   1     0.04  -0.00  -0.07     0.02  -0.02  -0.01     0.02  -0.06   0.03
  37   1     0.05   0.00  -0.07     0.00  -0.02  -0.02    -0.02  -0.06  -0.02
  38   1     0.02   0.01   0.08     0.03  -0.00   0.04     0.03   0.02   0.16
  39   1     0.02   0.01   0.12     0.05   0.01   0.04     0.00   0.01   0.09
  40   1     0.01  -0.00   0.06     0.04   0.02  -0.00    -0.04  -0.02  -0.13
  41   1    -0.01  -0.01  -0.03     0.01   0.03  -0.04    -0.05  -0.03  -0.18
  42   1     0.02  -0.04  -0.05     0.01   0.10  -0.04     0.00   0.04  -0.01
  43   1     0.02  -0.02  -0.03     0.01   0.05  -0.02     0.00   0.04  -0.01
  44   1     0.01  -0.01   0.03     0.00   0.05  -0.00     0.00  -0.05   0.01
  45   1    -0.02  -0.03   0.06    -0.01   0.15  -0.02     0.00  -0.04   0.01
  46   1    -0.05  -0.02   0.04    -0.02   0.11  -0.02     0.00   0.02  -0.01
  47   1    -0.06   0.01  -0.00    -0.02  -0.02   0.00     0.00   0.05  -0.01
  48   1    -0.03   0.01  -0.06    -0.01  -0.06  -0.00     0.00  -0.02   0.01
  49   1     0.00  -0.02  -0.04    -0.01   0.03   0.00     0.04   0.01   0.17
  50   1     0.03  -0.00   0.05    -0.02   0.03   0.03     0.04   0.01   0.12
  51   1     0.05   0.01   0.12    -0.02   0.01   0.04    -0.01  -0.01  -0.09
  52   1     0.04   0.01   0.09    -0.01  -0.00   0.02    -0.03  -0.02  -0.15
                      7                      8                      9
                        a                      a                      a 
 Frequencies --    97.1063               106.0087               130.2249
 Red. masses --     9.7321                10.1965                 2.6865
 Frc consts  --     0.0000                 0.0000                 0.0000
 IR Inten    --     0.9614                 0.0542                 0.1799
 Raman Activ --     0.0000                 0.0000                 0.0000
 Depolar     --     0.0000                 0.0000                 0.0000
 Atom AN      X      Y      Z        X      Y      Z        X      Y      Z
   1   6    -0.33   0.01  -0.02    -0.01   0.04  -0.01    -0.03  -0.20   0.01
   2   6     0.01   0.01   0.14     0.00   0.01   0.00    -0.00  -0.00  -0.01
   3   6     0.25  -0.03  -0.14     0.01  -0.05  -0.00     0.02   0.19  -0.05
   4   6     0.03   0.02   0.19     0.04   0.04   0.02    -0.02  -0.01  -0.07
   5   6     0.02   0.02   0.18     0.08   0.03   0.09     0.00   0.01   0.06
   6   6    -0.04  -0.01  -0.06     0.09   0.04   0.03     0.01   0.01   0.13
   7   6    -0.08  -0.04  -0.29     0.06   0.05  -0.10    -0.01  -0.00   0.04
   8   6    -0.06  -0.03  -0.22     0.03   0.06  -0.14    -0.02  -0.01  -0.06
   9   6    -0.01  -0.00   0.03     0.02   0.06  -0.06    -0.02  -0.01  -0.06
  10   7     0.01   0.00   0.07     0.00   0.09  -0.04    -0.00  -0.01  -0.00
  11   6     0.01   0.02   0.08     0.00   0.05  -0.02     0.00   0.00   0.01
  12   6     0.00   0.04   0.07     0.01  -0.36   0.08     0.00   0.02   0.00
  13   6    -0.00   0.04   0.06     0.00  -0.45   0.11     0.00   0.03   0.00
  14   6     0.00   0.02   0.06     0.01  -0.16   0.04     0.00   0.02   0.00
  15   6    -0.00   0.00   0.03     0.01   0.01  -0.01     0.00   0.00   0.00
  16   8    -0.04  -0.01   0.03     0.01   0.07  -0.02    -0.00  -0.05   0.02
  17   6     0.02  -0.00   0.01     0.01   0.11  -0.03     0.01   0.01  -0.00
  18   6     0.02  -0.01  -0.03     0.01   0.28  -0.07     0.01   0.02  -0.01
  19   6     0.05  -0.01  -0.05     0.01   0.14  -0.03     0.01   0.01  -0.01
  20   6     0.08  -0.01  -0.04     0.00  -0.20   0.05     0.02  -0.02  -0.00
  21   6     0.09  -0.00  -0.00     0.00  -0.28   0.07     0.02  -0.02   0.00
  22   6     0.05   0.00   0.02     0.00  -0.06   0.01     0.01   0.01   0.00
  23   8     0.06   0.01   0.06     0.00  -0.00  -0.00     0.01   0.01   0.00
  24   6     0.02   0.02   0.07     0.00   0.01  -0.01     0.00   0.02   0.00
  25   6     0.02   0.02   0.08     0.00   0.19  -0.05     0.00   0.01   0.01
  26   6    -0.01  -0.00   0.02    -0.02   0.07   0.02     0.01   0.00   0.05
  27   6    -0.08  -0.04  -0.26    -0.04   0.10   0.07     0.00  -0.00   0.03
  28   6    -0.09  -0.04  -0.32    -0.08   0.09   0.07    -0.02  -0.01  -0.05
  29   6    -0.02  -0.01  -0.03    -0.11   0.04  -0.01    -0.03  -0.01  -0.10
  30   6     0.03   0.02   0.22    -0.08   0.01  -0.05    -0.01  -0.01  -0.02
  31   6     0.03   0.02   0.19    -0.03   0.03  -0.02     0.02   0.00   0.07
  32   1    -0.13  -0.02  -0.05    -0.00   0.01  -0.01     0.31   0.13   0.15
  33   1    -0.15   0.04   0.05    -0.00   0.02  -0.00    -0.03  -0.48   0.05
  34   1    -0.09  -0.01  -0.03    -0.00   0.01   0.00    -0.31   0.12  -0.19
  35   1     0.14  -0.02  -0.01     0.00  -0.01  -0.00     0.02   0.38  -0.05
  36   1     0.06  -0.00  -0.07     0.02  -0.03   0.00     0.16  -0.12  -0.22
  37   1     0.08  -0.00  -0.09    -0.01  -0.03  -0.00    -0.16  -0.05   0.23
  38   1     0.01   0.01   0.09     0.03   0.01   0.05     0.00   0.01   0.04
  39   1    -0.01  -0.00  -0.02     0.03   0.01   0.02     0.01   0.01   0.07
  40   1    -0.04  -0.02  -0.15     0.02   0.02  -0.05    -0.00   0.00   0.02
  41   1    -0.03  -0.02  -0.11     0.00   0.02  -0.06    -0.01  -0.01  -0.03
  42   1    -0.00   0.01   0.02     0.00  -0.16   0.04     0.00   0.01   0.00
  43   1    -0.00   0.01   0.02     0.00  -0.20   0.05     0.00   0.01  -0.00
  44   1    -0.00  -0.01  -0.01     0.00   0.14  -0.04     0.00   0.01  -0.00
  45   1     0.01  -0.01  -0.02     0.00   0.07  -0.02     0.00   0.00  -0.00
  46   1     0.03  -0.00  -0.02     0.00  -0.11   0.03     0.01  -0.01   0.00
  47   1     0.03   0.00   0.00     0.00  -0.14   0.03     0.01  -0.01   0.00
  48   1     0.01   0.00   0.02     0.00   0.11  -0.03     0.00   0.00   0.00
  49   1    -0.04  -0.02  -0.13    -0.01   0.04   0.03     0.00   0.00   0.01
  50   1    -0.04  -0.02  -0.17    -0.03   0.03   0.03    -0.01  -0.00  -0.03
  51   1    -0.01  -0.00  -0.01    -0.04   0.01  -0.01    -0.01  -0.01  -0.05
  52   1     0.02   0.01   0.11    -0.03  -0.01  -0.03    -0.01  -0.00  -0.02
                     10                     11                     12
                        a                      a                      a 
 Frequencies --   133.9087               148.4590               154.9394
 Red. masses --    12.3592                10.8658                11.8996
 Frc consts  --     0.0000                 0.0000                 0.0000
 IR Inten    --     3.3443                 1.8941                 6.9302
 Raman Activ --     0.0000                 0.0000                 0.0000
 Depolar     --     0.0000                 0.0000                 0.0000
 Atom AN      X      Y      Z        X      Y      Z        X      Y      Z
   1   6     0.00   0.02  -0.00     0.02  -0.01  -0.07    -0.17   0.01   0.06
   2   6    -0.00  -0.02   0.00    -0.11  -0.02  -0.13    -0.08   0.02   0.09
   3   6    -0.01  -0.02   0.01    -0.23  -0.00  -0.01    -0.05   0.02   0.05
   4   6    -0.02  -0.03   0.01    -0.10  -0.00  -0.16    -0.06   0.04   0.08
   5   6    -0.05  -0.01  -0.00    -0.09   0.04   0.05    -0.13   0.06  -0.02
   6   6    -0.07  -0.03   0.00    -0.09   0.04   0.26    -0.20   0.03  -0.08
   7   6    -0.07  -0.05   0.03    -0.13   0.00   0.11    -0.18   0.01   0.03
   8   6    -0.04  -0.06   0.04    -0.14  -0.04  -0.15    -0.11  -0.01   0.13
   9   6    -0.02  -0.05   0.03    -0.10  -0.02  -0.19    -0.04   0.03   0.11
  10   7    -0.00  -0.07   0.02    -0.04  -0.03  -0.16     0.02   0.01   0.06
  11   6    -0.00  -0.01   0.00     0.03   0.01   0.02     0.03  -0.01  -0.07
  12   6    -0.00   0.13  -0.03     0.10   0.02   0.04     0.07  -0.01  -0.07
  13   6     0.00   0.23  -0.06     0.10   0.04   0.08     0.08  -0.02  -0.11
  14   6     0.00   0.20  -0.05     0.08   0.03   0.09     0.17  -0.04  -0.17
  15   6     0.00   0.00   0.00     0.08   0.01   0.07     0.21  -0.03  -0.09
  16   8    -0.00  -0.54   0.14     0.06   0.02   0.07     0.37  -0.01  -0.06
  17   6     0.00   0.20  -0.05     0.11   0.00   0.04     0.17  -0.02  -0.04
  18   6     0.00   0.33  -0.08     0.10  -0.02  -0.04     0.18   0.02   0.10
  19   6     0.00   0.10  -0.03     0.16  -0.02  -0.09     0.09   0.04   0.17
  20   6     0.00  -0.28   0.07     0.20  -0.01  -0.07    -0.00   0.04   0.12
  21   6     0.00  -0.25   0.06     0.20   0.00  -0.00    -0.01   0.00   0.00
  22   6     0.00   0.07  -0.02     0.13   0.01   0.05     0.09  -0.02  -0.07
  23   8     0.00   0.19  -0.04     0.13   0.01   0.09     0.10  -0.06  -0.17
  24   6     0.00   0.19  -0.05     0.06   0.02   0.09     0.12  -0.05  -0.18
  25   6     0.00   0.08  -0.02     0.03   0.01   0.05     0.12  -0.03  -0.14
  26   6     0.01  -0.06   0.00    -0.10  -0.04  -0.20    -0.04   0.00   0.11
  27   6     0.04  -0.07   0.00    -0.14  -0.01  -0.18    -0.11   0.05   0.12
  28   6     0.07  -0.06  -0.00    -0.10   0.01   0.08    -0.19   0.02   0.00
  29   6     0.07  -0.04  -0.01    -0.06   0.01   0.27    -0.21  -0.02  -0.08
  30   6     0.04  -0.02  -0.02    -0.07  -0.03   0.08    -0.13  -0.05   0.01
  31   6     0.02  -0.03  -0.01    -0.10  -0.04  -0.15    -0.05  -0.01   0.10
  32   1    -0.02  -0.01  -0.01    -0.01  -0.01  -0.01    -0.05  -0.00   0.01
  33   1     0.00   0.03  -0.00     0.03   0.02  -0.05    -0.06   0.01   0.03
  34   1     0.02  -0.00   0.02     0.03  -0.01   0.01    -0.05  -0.00   0.01
  35   1    -0.00  -0.04   0.01    -0.10  -0.02  -0.01    -0.01   0.00   0.02
  36   1    -0.02   0.02   0.02    -0.07   0.01   0.03    -0.02   0.01   0.01
  37   1     0.02   0.01  -0.02    -0.05   0.01   0.01    -0.01   0.01   0.01
  38   1    -0.02   0.00  -0.01    -0.02   0.02   0.03    -0.04   0.03  -0.02
  39   1    -0.03  -0.01  -0.00    -0.02   0.02   0.15    -0.07   0.01  -0.06
  40   1    -0.03  -0.02   0.01    -0.04   0.00   0.06    -0.06  -0.00   0.00
  41   1    -0.01  -0.02   0.01    -0.05  -0.03  -0.08    -0.03  -0.01   0.06
  42   1    -0.00   0.04  -0.01     0.04   0.01   0.00     0.03  -0.01  -0.02
  43   1    -0.00   0.08  -0.02     0.04   0.01   0.02    -0.00  -0.01  -0.04
  44   1     0.00   0.15  -0.04     0.01  -0.01  -0.02     0.08   0.01   0.04
  45   1     0.00   0.05  -0.01     0.05  -0.01  -0.04     0.03   0.02   0.07
  46   1     0.00  -0.16   0.04     0.07  -0.00  -0.03    -0.02   0.02   0.05
  47   1     0.00  -0.13   0.03     0.08   0.00   0.01    -0.03  -0.00  -0.01
  48   1     0.00   0.00  -0.00     0.00   0.00   0.01     0.06  -0.01  -0.03
  49   1     0.01  -0.02   0.00    -0.05   0.00  -0.09    -0.02   0.03   0.05
  50   1     0.03  -0.02   0.00    -0.03   0.01   0.05    -0.06   0.01  -0.01
  51   1     0.03  -0.01  -0.00    -0.01   0.01   0.15    -0.08  -0.02  -0.06
  52   1     0.01   0.00  -0.01    -0.02  -0.01   0.05    -0.04  -0.03  -0.00
                     13                     14                     15
                        a                      a                      a 
 Frequencies --   196.8857               213.9978               220.8168
 Red. masses --     1.6158                 8.1588                10.7811
 Frc consts  --     0.0000                 0.0000                 0.0000
 IR Inten    --     0.0229                 0.4501                 0.2167
 Raman Activ --     0.0000                 0.0000                 0.0000
 Depolar     --     0.0000                 0.0000                 0.0000
 Atom AN      X      Y      Z        X      Y      Z        X      Y      Z
   1   6    -0.01  -0.00  -0.00    -0.04   0.27  -0.04    -0.04  -0.00  -0.01
   2   6    -0.00   0.00  -0.00    -0.03   0.00   0.00    -0.02   0.02  -0.01
   3   6    -0.01   0.15  -0.00    -0.06  -0.23   0.05    -0.05   0.04   0.01
   4   6    -0.01  -0.01  -0.05     0.02   0.02   0.19    -0.01   0.03  -0.02
   5   6     0.01  -0.02  -0.01     0.03  -0.00   0.11     0.04  -0.00  -0.02
   6   6     0.02  -0.01   0.06    -0.02  -0.03  -0.25     0.10   0.03   0.01
   7   6     0.02  -0.01   0.03    -0.01  -0.01  -0.17     0.09   0.06  -0.02
   8   6    -0.01  -0.01  -0.05     0.06   0.04   0.23     0.04   0.08  -0.05
   9   6    -0.01  -0.01  -0.05     0.03   0.03   0.21    -0.01   0.05  -0.01
  10   7    -0.00  -0.01   0.00    -0.01  -0.00   0.00    -0.01   0.05   0.01
  11   6    -0.00  -0.02   0.01    -0.00  -0.01   0.01    -0.00  -0.10   0.04
  12   6    -0.00  -0.00   0.00    -0.00   0.00   0.00    -0.01   0.08  -0.00
  13   6    -0.00   0.00  -0.00    -0.00  -0.01   0.00    -0.01  -0.14   0.03
  14   6    -0.00   0.00  -0.00     0.01  -0.01  -0.00     0.01  -0.18   0.03
  15   6    -0.00   0.01  -0.00     0.01  -0.00  -0.00     0.01   0.04  -0.02
  16   8    -0.00  -0.01   0.00     0.02  -0.00  -0.00     0.01  -0.10   0.01
  17   6    -0.00   0.02  -0.00     0.01   0.01  -0.01     0.01   0.29  -0.08
  18   6    -0.00   0.01  -0.00     0.01   0.01   0.00     0.01   0.19  -0.04
  19   6    -0.00  -0.01   0.00     0.01  -0.01   0.01     0.00  -0.20   0.07
  20   6    -0.00  -0.01   0.00     0.01  -0.01   0.01    -0.01  -0.18   0.06
  21   6    -0.00   0.01  -0.00     0.00   0.01  -0.00    -0.01   0.20  -0.05
  22   6    -0.00   0.01  -0.00     0.01   0.01  -0.01     0.01   0.28  -0.08
  23   8    -0.00   0.01  -0.00     0.01   0.01  -0.01     0.01   0.10  -0.05
  24   6    -0.00  -0.01   0.00     0.01  -0.02  -0.00     0.01  -0.27   0.05
  25   6    -0.00  -0.04   0.01     0.00  -0.03   0.01     0.00  -0.53   0.14
  26   6     0.01  -0.01   0.05    -0.06  -0.03  -0.21    -0.01   0.04  -0.02
  27   6     0.02  -0.01   0.06    -0.06  -0.04  -0.24    -0.03   0.05  -0.01
  28   6    -0.01  -0.02  -0.03     0.05   0.01   0.15    -0.05   0.05  -0.02
  29   6    -0.01  -0.02  -0.07     0.08   0.02   0.25    -0.04   0.04   0.01
  30   6    -0.00  -0.01   0.01    -0.02  -0.00  -0.11    -0.02   0.03   0.03
  31   6     0.01   0.00   0.04    -0.06  -0.02  -0.19    -0.02   0.03  -0.00
  32   1    -0.32  -0.19  -0.11     0.07   0.13  -0.03     0.00   0.01   0.00
  33   1     0.01   0.38  -0.04    -0.02   0.02   0.00    -0.01  -0.02   0.00
  34   1     0.30  -0.19   0.15    -0.09   0.14  -0.01    -0.02   0.00  -0.02
  35   1     0.01   0.45  -0.05    -0.01   0.15  -0.01    -0.02  -0.02   0.00
  36   1     0.20  -0.18  -0.25     0.14  -0.22  -0.09    -0.03   0.03   0.03
  37   1    -0.22  -0.10   0.30    -0.18  -0.17   0.16     0.01   0.03  -0.02
  38   1     0.00  -0.01  -0.01     0.02  -0.01   0.06     0.01  -0.01  -0.01
  39   1     0.01   0.00   0.04    -0.02  -0.02  -0.16     0.04   0.00   0.01
  40   1     0.01  -0.00   0.02    -0.01  -0.01  -0.11     0.04   0.02  -0.01
  41   1    -0.01  -0.00  -0.03     0.02   0.02   0.11     0.01   0.03  -0.02
  42   1    -0.00   0.00  -0.00     0.00   0.00   0.00    -0.00   0.10  -0.02
  43   1     0.00   0.00  -0.00    -0.00  -0.00  -0.00    -0.01  -0.02   0.00
  44   1    -0.00   0.00  -0.00     0.01   0.00   0.00     0.01   0.06  -0.01
  45   1    -0.00  -0.01   0.00     0.00  -0.01   0.00     0.00  -0.14   0.05
  46   1    -0.00  -0.01   0.00     0.00  -0.01   0.00    -0.01  -0.13   0.04
  47   1    -0.00   0.00  -0.00     0.00   0.00  -0.00    -0.01   0.06  -0.02
  48   1    -0.00  -0.02   0.00     0.00  -0.01   0.00     0.01  -0.20   0.05
  49   1     0.01  -0.00   0.03    -0.03  -0.02  -0.11    -0.01   0.01   0.00
  50   1    -0.00  -0.01  -0.02     0.03   0.01   0.10    -0.02   0.02  -0.01
  51   1    -0.01  -0.01  -0.04     0.05   0.02   0.16    -0.01   0.01   0.01
  52   1     0.00  -0.01   0.01    -0.01   0.00  -0.06    -0.00   0.01   0.02
                     16                     17                     18
                        a                      a                      a 
 Frequencies --   232.4698               241.3158               251.1799
 Red. masses --     9.9035                10.9312                12.8353
 Frc consts  --     0.0000                 0.0000                 0.0000
 IR Inten    --     8.0466                 3.6874                 3.1992
 Raman Activ --     0.0000                 0.0000                 0.0000
 Depolar     --     0.0000                 0.0000                 0.0000
 Atom AN      X      Y      Z        X      Y      Z        X      Y      Z
   1   6    -0.34  -0.03  -0.07     0.28  -0.01  -0.05    -0.04   0.00  -0.00
   2   6    -0.17   0.00  -0.02     0.06  -0.02  -0.13    -0.01   0.00   0.01
   3   6    -0.36   0.05   0.17     0.09  -0.04  -0.16    -0.03  -0.00   0.02
   4   6    -0.10  -0.01  -0.04     0.02  -0.03  -0.09    -0.00   0.00   0.00
   5   6     0.07  -0.10  -0.00    -0.02   0.02   0.03     0.01  -0.00   0.01
   6   6     0.23  -0.03   0.05    -0.03   0.01   0.14     0.01  -0.00  -0.01
   7   6     0.20   0.04  -0.06    -0.07  -0.03  -0.04     0.01  -0.00  -0.00
   8   6     0.04   0.10  -0.11    -0.03  -0.06  -0.10     0.00   0.00   0.00
   9   6    -0.08   0.03  -0.02     0.03  -0.02   0.01    -0.00  -0.00  -0.01
  10   7    -0.04   0.02   0.12     0.04   0.03   0.27    -0.00  -0.00  -0.01
  11   6    -0.03   0.03   0.11     0.02   0.04   0.25    -0.00   0.03  -0.02
  12   6    -0.05   0.01   0.11    -0.10   0.02   0.22     0.00  -0.23   0.05
  13   6    -0.07   0.01   0.02    -0.13   0.03   0.04     0.00   0.05  -0.01
  14   6     0.02  -0.00  -0.06    -0.00   0.01  -0.08     0.00   0.26  -0.06
  15   6     0.04  -0.03  -0.06     0.01  -0.02  -0.15     0.00   0.21  -0.05
  16   8     0.05   0.00  -0.08    -0.14  -0.07  -0.23    -0.00  -0.16   0.04
  17   6     0.06  -0.07  -0.04     0.06  -0.03  -0.14     0.00   0.28  -0.06
  18   6     0.08  -0.02   0.05     0.10   0.01   0.09    -0.00   0.07  -0.02
  19   6     0.01   0.07   0.09    -0.06   0.05   0.22     0.00  -0.28   0.06
  20   6    -0.04   0.04   0.07    -0.15   0.05   0.17     0.00  -0.01  -0.00
  21   6    -0.04  -0.05  -0.00    -0.16  -0.00  -0.03     0.01   0.27  -0.07
  22   6     0.04  -0.06  -0.06     0.03  -0.04  -0.15     0.00   0.09  -0.02
  23   8     0.06   0.00  -0.09     0.08  -0.06  -0.13    -0.00  -0.61   0.16
  24   6     0.03   0.03  -0.06     0.05  -0.00  -0.06    -0.00   0.05  -0.01
  25   6     0.05   0.08   0.03     0.10   0.05   0.14    -0.00   0.22  -0.06
  26   6    -0.08  -0.03   0.05     0.02   0.03  -0.00    -0.00  -0.00   0.01
  27   6     0.05  -0.14  -0.02    -0.04   0.03  -0.13     0.01  -0.01   0.00
  28   6     0.21  -0.08  -0.07    -0.07   0.03  -0.04     0.02  -0.01   0.00
  29   6     0.24   0.01  -0.02    -0.02   0.02   0.16     0.02  -0.00  -0.01
  30   6     0.09   0.09  -0.02    -0.02  -0.01   0.03     0.01   0.01  -0.01
  31   6    -0.10   0.00  -0.00     0.01   0.01  -0.10    -0.00  -0.00   0.01
  32   1    -0.11  -0.01  -0.05     0.09  -0.00   0.02    -0.01   0.00  -0.01
  33   1    -0.14  -0.01   0.02     0.13  -0.00  -0.06    -0.02   0.00   0.00
  34   1    -0.10  -0.01  -0.06     0.10  -0.00   0.03    -0.01   0.00  -0.00
  35   1    -0.18  -0.01   0.02     0.04  -0.00  -0.04    -0.01  -0.00   0.00
  36   1    -0.12   0.04   0.11     0.03  -0.02  -0.06    -0.01  -0.00   0.01
  37   1    -0.07   0.03   0.08     0.02  -0.02  -0.05    -0.01  -0.00   0.01
  38   1     0.02  -0.07   0.00    -0.00   0.02   0.01     0.00  -0.00   0.01
  39   1     0.09  -0.02   0.05    -0.01   0.01   0.09     0.00  -0.00  -0.00
  40   1     0.08   0.02  -0.02    -0.03  -0.01  -0.03     0.00   0.00   0.00
  41   1     0.01   0.07  -0.05    -0.01  -0.03  -0.05     0.00   0.00   0.01
  42   1    -0.03  -0.00   0.04    -0.06   0.00   0.09     0.00  -0.16   0.04
  43   1    -0.05  -0.00  -0.01    -0.08   0.01  -0.01     0.00  -0.01   0.00
  44   1     0.05  -0.00   0.03     0.09   0.01   0.05    -0.00   0.01  -0.00
  45   1     0.01   0.04   0.04    -0.01   0.02   0.09     0.00  -0.19   0.05
  46   1    -0.02   0.03   0.03    -0.07   0.02   0.07     0.00  -0.03   0.01
  47   1    -0.04  -0.02  -0.01    -0.10  -0.01  -0.04     0.00   0.09  -0.02
  48   1     0.04   0.03   0.02     0.08   0.02   0.06    -0.00   0.06  -0.02
  49   1     0.01  -0.08  -0.01    -0.02   0.02  -0.07     0.00  -0.01  -0.00
  50   1     0.08  -0.04  -0.03    -0.03   0.01  -0.03     0.01  -0.00   0.00
  51   1     0.09   0.02   0.00    -0.00   0.01   0.10     0.01   0.00  -0.01
  52   1     0.03   0.07  -0.01    -0.01  -0.02   0.01     0.00   0.00  -0.01
                     19                     20                     21
                        a                      a                      a 
 Frequencies --   283.9754               295.4422               311.6217
 Red. masses --    13.4872                 9.9249                 9.9654
 Frc consts  --     0.0000                 0.0000                 0.0000
 IR Inten    --     5.3399                 0.8514                 1.7933
 Raman Activ --     0.0000                 0.0000                 0.0000
 Depolar     --     0.0000                 0.0000                 0.0000
 Atom AN      X      Y      Z        X      Y      Z        X      Y      Z
   1   6     0.14  -0.00  -0.03    -0.01  -0.36   0.05     0.03   0.34  -0.04
   2   6    -0.01  -0.01  -0.09     0.00  -0.03   0.01    -0.00  -0.02  -0.01
   3   6    -0.00  -0.00  -0.10     0.00  -0.34   0.03     0.01   0.31  -0.05
   4   6    -0.03  -0.03  -0.04     0.06   0.03  -0.01    -0.05  -0.09   0.01
   5   6     0.00  -0.03   0.02    -0.05   0.10  -0.01     0.01  -0.13  -0.01
   6   6     0.05  -0.02   0.07    -0.16   0.07   0.03     0.06  -0.13   0.01
   7   6     0.02  -0.01  -0.06    -0.15   0.02   0.04     0.06  -0.10   0.01
   8   6    -0.00   0.00  -0.05    -0.05  -0.03   0.01     0.01  -0.07  -0.01
   9   6    -0.02  -0.00   0.06     0.05   0.02   0.00    -0.02  -0.08   0.02
  10   7    -0.02   0.03   0.23    -0.00   0.07   0.01    -0.01  -0.08   0.03
  11   6    -0.05   0.00   0.11    -0.00   0.20  -0.03    -0.01   0.11  -0.02
  12   6    -0.14  -0.01   0.08    -0.02   0.26  -0.04    -0.01   0.23  -0.05
  13   6    -0.15  -0.00  -0.06    -0.02  -0.06   0.02    -0.01   0.01   0.00
  14   6    -0.02  -0.01  -0.16    -0.00  -0.30   0.06    -0.00  -0.32   0.08
  15   6     0.02   0.01   0.01     0.00  -0.15   0.03    -0.00  -0.20   0.05
  16   8     0.67   0.05   0.26     0.04   0.10  -0.02     0.01   0.12  -0.03
  17   6    -0.14   0.02   0.11    -0.00   0.03  -0.01     0.01  -0.02   0.00
  18   6    -0.18  -0.03  -0.08    -0.00   0.15  -0.04     0.01   0.18  -0.04
  19   6    -0.08  -0.04  -0.18    -0.00  -0.08   0.02     0.01  -0.07   0.02
  20   6     0.00  -0.03  -0.14    -0.00  -0.11   0.02     0.00  -0.12   0.04
  21   6     0.01   0.00   0.03    -0.00   0.15  -0.04     0.00   0.18  -0.04
  22   6    -0.09   0.02   0.10    -0.00   0.06  -0.02     0.01   0.05  -0.01
  23   8    -0.11  -0.01  -0.02     0.00  -0.05   0.01     0.01  -0.06   0.01
  24   6     0.01  -0.02  -0.11     0.00  -0.08   0.01    -0.00  -0.07   0.02
  25   6     0.05  -0.01   0.01     0.01   0.24  -0.05     0.00   0.32  -0.07
  26   6    -0.01   0.02   0.06    -0.05   0.03   0.01     0.01  -0.08   0.03
  27   6    -0.01  -0.01  -0.04     0.04  -0.04  -0.02    -0.02  -0.07   0.02
  28   6     0.00  -0.00  -0.06     0.17   0.00  -0.02    -0.06  -0.10   0.02
  29   6     0.03   0.03   0.07     0.17   0.05  -0.04    -0.06  -0.11   0.03
  30   6    -0.00   0.04   0.02     0.05   0.10  -0.05    -0.02  -0.11   0.03
  31   6    -0.03   0.02  -0.04    -0.06   0.05   0.01     0.03  -0.08   0.01
  32   1     0.05   0.00   0.01    -0.06  -0.14   0.06     0.06   0.14  -0.06
  33   1     0.07  -0.00  -0.04    -0.00  -0.09   0.01     0.01   0.10  -0.02
  34   1     0.05   0.00   0.02     0.05  -0.15  -0.02    -0.04   0.15   0.04
  35   1     0.01  -0.00  -0.02     0.01  -0.08   0.01     0.00   0.09  -0.01
  36   1    -0.00   0.00  -0.03     0.06  -0.14   0.02    -0.06   0.13  -0.04
  37   1     0.00   0.00  -0.03    -0.07  -0.14   0.00     0.07   0.13   0.00
  38   1     0.00  -0.02   0.01    -0.02   0.05  -0.01     0.00  -0.04  -0.01
  39   1     0.02  -0.01   0.05    -0.06   0.03   0.01     0.02  -0.04   0.00
  40   1     0.01  -0.00  -0.04    -0.06  -0.00   0.01     0.03  -0.02   0.00
  41   1    -0.00   0.01  -0.03    -0.01  -0.04  -0.00     0.00  -0.00  -0.01
  42   1    -0.06  -0.01   0.04    -0.01   0.13  -0.02    -0.00   0.11  -0.02
  43   1    -0.09  -0.00  -0.03    -0.01  -0.01   0.00    -0.01   0.03  -0.01
  44   1    -0.10  -0.01  -0.04    -0.00   0.07  -0.02     0.00   0.09  -0.02
  45   1    -0.03  -0.02  -0.07    -0.00  -0.06   0.01     0.00  -0.05   0.01
  46   1     0.02  -0.01  -0.06    -0.00  -0.08   0.02     0.00  -0.09   0.02
  47   1     0.04   0.00   0.03     0.00   0.07  -0.02     0.00   0.09  -0.02
  48   1     0.05  -0.00   0.01     0.01   0.12  -0.03     0.00   0.17  -0.04
  49   1    -0.01  -0.01  -0.02     0.01  -0.04  -0.01    -0.01  -0.00   0.00
  50   1    -0.00  -0.00  -0.04     0.07  -0.01  -0.00    -0.02  -0.02   0.00
  51   1     0.02   0.01   0.05     0.07   0.02  -0.02    -0.02  -0.03   0.01
  52   1    -0.00   0.02   0.00     0.02   0.05  -0.02    -0.01  -0.03   0.01
                     22                     23                     24
                        a                      a                      a 
 Frequencies --   322.2668               331.3758               341.1341
 Red. masses --     8.9249                10.1386                 9.9288
 Frc consts  --     0.0000                 0.0000                 0.0000
 IR Inten    --     0.0420                 0.1148                 1.0320
 Raman Activ --     0.0000                 0.0000                 0.0000
 Depolar     --     0.0000                 0.0000                 0.0000
 Atom AN      X      Y      Z        X      Y      Z        X      Y      Z
   1   6     0.00  -0.38   0.06    -0.06  -0.06  -0.27    -0.25   0.02   0.04
   2   6    -0.01   0.00   0.00     0.04  -0.03  -0.23     0.13   0.02   0.19
   3   6     0.03   0.42  -0.06    -0.29   0.03   0.10     0.10   0.05   0.24
   4   6     0.01   0.00   0.10     0.13   0.06  -0.07     0.13   0.04   0.01
   5   6     0.06   0.01   0.30     0.08   0.16   0.17    -0.01   0.07  -0.27
   6   6     0.01  -0.01   0.01    -0.07   0.10   0.05    -0.05   0.06   0.05
   7   6    -0.03  -0.02  -0.19    -0.12  -0.02  -0.16    -0.02  -0.00   0.18
   8   6     0.03   0.02   0.15     0.06  -0.05   0.13     0.00  -0.09  -0.20
   9   6     0.02   0.01   0.17     0.18   0.02   0.12     0.12  -0.02  -0.07
  10   7    -0.02  -0.01  -0.01     0.22   0.00   0.12     0.15   0.00   0.07
  11   6    -0.01   0.00  -0.00     0.14  -0.01  -0.05     0.12   0.01   0.11
  12   6    -0.01   0.00   0.00     0.09  -0.00  -0.07     0.05   0.02   0.09
  13   6    -0.00   0.00   0.00     0.09  -0.00  -0.05     0.02   0.01  -0.00
  14   6    -0.00  -0.00   0.00     0.01  -0.02   0.02     0.02  -0.01  -0.02
  15   6     0.00  -0.00   0.00    -0.03  -0.02  -0.01    -0.01  -0.02  -0.05
  16   8     0.00   0.00   0.00    -0.09   0.00  -0.03     0.09  -0.01  -0.02
  17   6     0.01  -0.00  -0.00    -0.10  -0.00   0.02    -0.10  -0.00  -0.01
  18   6     0.01   0.00   0.00    -0.12   0.01  -0.03    -0.12  -0.01  -0.05
  19   6     0.01  -0.00   0.01    -0.11  -0.01  -0.05    -0.14  -0.01  -0.05
  20   6     0.01  -0.00   0.00    -0.07  -0.02  -0.03    -0.11  -0.01  -0.04
  21   6     0.01   0.00  -0.00    -0.06   0.02   0.02    -0.09   0.00   0.00
  22   6     0.01  -0.00  -0.00    -0.06   0.01   0.04    -0.07   0.00   0.00
  23   8     0.00  -0.00  -0.00    -0.04   0.02   0.07    -0.03   0.01   0.03
  24   6    -0.00  -0.00  -0.00     0.05  -0.00   0.02     0.05  -0.00   0.00
  25   6    -0.01   0.01  -0.00     0.07   0.02  -0.02     0.09   0.02   0.09
  26   6    -0.05  -0.02  -0.17     0.17  -0.00   0.09     0.10  -0.02  -0.10
  27   6    -0.04  -0.02  -0.14     0.07   0.07   0.09    -0.02   0.03  -0.23
  28   6     0.04   0.01   0.19    -0.11   0.00  -0.14    -0.02   0.04   0.19
  29   6    -0.01  -0.00  -0.02    -0.07  -0.07   0.07    -0.06  -0.05   0.07
  30   6    -0.08  -0.03  -0.29     0.07  -0.12   0.17    -0.04  -0.14  -0.27
  31   6    -0.03  -0.01  -0.10     0.12  -0.08  -0.08     0.12  -0.05   0.00
  32   1    -0.10  -0.17   0.07    -0.03  -0.03  -0.09    -0.09  -0.00  -0.06
  33   1     0.01  -0.06   0.00    -0.04  -0.01  -0.05    -0.15   0.02   0.10
  34   1     0.09  -0.19  -0.01    -0.02  -0.02  -0.10    -0.09   0.00  -0.06
  35   1     0.02   0.06  -0.01    -0.21   0.01  -0.02     0.01   0.01   0.06
  36   1    -0.10   0.21  -0.03    -0.08   0.02   0.11     0.02   0.03   0.08
  37   1     0.13   0.20  -0.04    -0.07   0.02   0.11     0.03   0.02   0.08
  38   1     0.02   0.00   0.11     0.03   0.08   0.07    -0.01   0.04  -0.14
  39   1    -0.00  -0.01  -0.03    -0.04   0.04   0.02    -0.03   0.03   0.04
  40   1    -0.02  -0.01  -0.14    -0.07  -0.03  -0.11    -0.01  -0.01   0.11
  41   1     0.01   0.01   0.06     0.02  -0.04   0.06    -0.01  -0.06  -0.11
  42   1    -0.00  -0.00  -0.00     0.02   0.00  -0.01    -0.01   0.01   0.04
  43   1    -0.00   0.00   0.00     0.05   0.01  -0.01    -0.01   0.00  -0.00
  44   1     0.00   0.00   0.00    -0.05   0.01  -0.01    -0.04  -0.00  -0.02
  45   1     0.00  -0.00   0.00    -0.03  -0.01  -0.02    -0.04  -0.00  -0.02
  46   1     0.00  -0.00   0.00    -0.01  -0.01  -0.02    -0.02  -0.01  -0.02
  47   1     0.00   0.00  -0.00    -0.01   0.01   0.01    -0.03   0.00  -0.00
  48   1    -0.00   0.00  -0.00     0.01   0.01  -0.01     0.04   0.01   0.03
  49   1    -0.01  -0.01  -0.05     0.03   0.06   0.05    -0.02   0.03  -0.12
  50   1     0.03   0.01   0.14    -0.07   0.01  -0.10    -0.01   0.03   0.12
  51   1     0.01   0.00   0.02    -0.04  -0.03   0.03    -0.03  -0.02   0.05
  52   1    -0.03  -0.01  -0.10     0.02  -0.06   0.08    -0.03  -0.07  -0.13
                     25                     26                     27
                        a                      a                      a 
 Frequencies --   380.2340               383.3977               384.8824
 Red. masses --    10.8533                10.9664                10.6920
 Frc consts  --     0.0000                 0.0000                 0.0000
 IR Inten    --     1.8294                 5.3387                 0.6154
 Raman Activ --     0.0000                 0.0000                 0.0000
 Depolar     --     0.0000                 0.0000                 0.0000
 Atom AN      X      Y      Z        X      Y      Z        X      Y      Z
   1   6    -0.07  -0.02  -0.14     0.00   0.03  -0.05     0.00   0.05  -0.01
   2   6     0.16  -0.01  -0.03     0.02  -0.01  -0.03    -0.00  -0.02   0.01
   3   6     0.00   0.01   0.17    -0.02   0.04   0.02     0.01   0.06  -0.01
   4   6     0.03  -0.17   0.01     0.06  -0.03   0.02     0.05  -0.02  -0.02
   5   6     0.05  -0.22   0.06     0.01  -0.03  -0.13     0.04   0.01   0.09
   6   6    -0.05  -0.30  -0.00    -0.00  -0.05   0.12    -0.05  -0.04  -0.07
   7   6    -0.04  -0.29   0.05    -0.03  -0.11   0.00    -0.03  -0.07   0.02
   8   6    -0.05  -0.24   0.08    -0.00  -0.12  -0.09     0.04  -0.08   0.08
   9   6     0.02  -0.15  -0.05     0.10  -0.05   0.18     0.04  -0.06  -0.11
  10   7    -0.09  -0.00  -0.09     0.05   0.02   0.26    -0.04  -0.02  -0.19
  11   6    -0.06  -0.02   0.05    -0.04   0.13  -0.20     0.03   0.25   0.08
  12   6    -0.06  -0.02   0.06    -0.13   0.15  -0.24     0.11   0.31   0.10
  13   6    -0.06   0.05   0.01    -0.10  -0.24  -0.08     0.08  -0.24   0.18
  14   6    -0.03  -0.00  -0.01    -0.10  -0.05  -0.07     0.08  -0.02   0.08
  15   6    -0.00  -0.03   0.02    -0.07   0.18   0.05     0.06   0.18  -0.12
  16   8     0.05   0.02   0.03    -0.19  -0.04   0.07     0.17  -0.08  -0.03
  17   6     0.04  -0.04  -0.00     0.02   0.23   0.02    -0.01   0.26  -0.13
  18   6     0.05   0.03   0.00     0.04  -0.13   0.12    -0.03  -0.21  -0.02
  19   6     0.04   0.00   0.02     0.11   0.01   0.05    -0.09  -0.01  -0.04
  20   6     0.02  -0.02   0.01     0.17   0.15   0.04    -0.14   0.15  -0.10
  21   6     0.01   0.02  -0.03     0.15  -0.14   0.12    -0.13  -0.22  -0.02
  22   6     0.02  -0.01  -0.02     0.08   0.09   0.08    -0.06   0.06  -0.11
  23   8     0.01   0.00  -0.04     0.02  -0.05  -0.03    -0.02  -0.05   0.05
  24   6    -0.03  -0.01  -0.00     0.00   0.00  -0.07    -0.00   0.05   0.05
  25   6    -0.04   0.00   0.03    -0.01  -0.04  -0.17     0.01   0.05   0.14
  26   6     0.05   0.14  -0.11    -0.01   0.01   0.17    -0.10  -0.05  -0.10
  27   6    -0.01   0.28   0.01    -0.06  -0.02  -0.09    -0.01  -0.07   0.10
  28   6    -0.02   0.32  -0.03     0.00   0.00  -0.02     0.02  -0.07   0.01
  29   6    -0.03   0.30  -0.07     0.03   0.06   0.10     0.01  -0.03  -0.08
  30   6     0.08   0.21   0.02    -0.04   0.05  -0.13     0.00   0.03   0.11
  31   6     0.06   0.16  -0.05    -0.03   0.04   0.02    -0.06  -0.00  -0.01
  32   1    -0.04  -0.01  -0.08     0.01   0.01  -0.03     0.01   0.02  -0.02
  33   1    -0.08  -0.00   0.02    -0.01   0.01  -0.01     0.00   0.02  -0.00
  34   1    -0.04  -0.01  -0.09    -0.01   0.01  -0.01    -0.01   0.03   0.01
  35   1    -0.07   0.00   0.02    -0.02   0.02  -0.00     0.00   0.02  -0.00
  36   1     0.01   0.01   0.09    -0.02   0.02   0.01    -0.01   0.03  -0.01
  37   1     0.01   0.01   0.09     0.01   0.02   0.02     0.02   0.03   0.01
  38   1     0.02  -0.06   0.04    -0.01  -0.00  -0.10     0.02   0.02   0.06
  39   1    -0.03  -0.08  -0.01    -0.01  -0.00   0.07    -0.03  -0.01  -0.04
  40   1    -0.00  -0.08   0.02    -0.02  -0.04  -0.02    -0.02  -0.03   0.02
  41   1    -0.01  -0.09   0.04    -0.01  -0.05  -0.08     0.02  -0.03   0.05
  42   1    -0.02  -0.01   0.02    -0.04   0.07  -0.08     0.03   0.13   0.02
  43   1    -0.03   0.03  -0.01    -0.01  -0.12  -0.00     0.01  -0.14   0.06
  44   1     0.02   0.02  -0.00     0.01  -0.11   0.05    -0.00  -0.16   0.02
  45   1     0.01   0.00   0.01     0.03  -0.02  -0.00    -0.02  -0.02   0.01
  46   1    -0.00  -0.01   0.01     0.05   0.07   0.00    -0.04   0.08  -0.04
  47   1     0.00   0.02  -0.01     0.06  -0.11   0.06    -0.05  -0.16   0.01
  48   1    -0.00   0.01   0.01    -0.03  -0.04  -0.05     0.02  -0.02   0.06
  49   1     0.01   0.10   0.02    -0.03  -0.01  -0.07     0.01  -0.02   0.07
  50   1     0.00   0.09  -0.00     0.01  -0.01  -0.02     0.02  -0.03   0.01
  51   1    -0.03   0.07  -0.02     0.02   0.02   0.06     0.01  -0.01  -0.05
  52   1     0.03   0.06   0.03    -0.02   0.02  -0.08     0.01   0.03   0.07
                     28                     29                     30
                        a                      a                      a 
 Frequencies --   408.4278               409.7186               423.7101
 Red. masses --    10.9141                10.8957                 9.8842
 Frc consts  --     0.0000                 0.0000                 0.0000
 IR Inten    --    13.8461                 7.6023                 1.9713
 Raman Activ --     0.0000                 0.0000                 0.0000
 Depolar     --     0.0000                 0.0000                 0.0000
 Atom AN      X      Y      Z        X      Y      Z        X      Y      Z
   1   6     0.05   0.03   0.03    -0.03   0.05  -0.04     0.00   0.00   0.01
   2   6    -0.08   0.05  -0.03     0.06   0.05   0.00    -0.01   0.06  -0.00
   3   6    -0.03   0.02  -0.08     0.02   0.06   0.05    -0.00  -0.01  -0.01
   4   6     0.05   0.03   0.02     0.23   0.14  -0.09     0.05   0.07  -0.05
   5   6     0.07  -0.01  -0.11     0.16   0.26   0.02     0.07   0.10   0.00
   6   6     0.05  -0.04   0.08    -0.00   0.19  -0.09     0.04   0.08  -0.03
   7   6     0.03  -0.16  -0.02     0.01  -0.09   0.03     0.04  -0.05  -0.01
   8   6     0.03  -0.15  -0.04     0.21  -0.19   0.03     0.08  -0.07   0.01
   9   6     0.09  -0.08   0.16     0.21  -0.15  -0.16     0.04  -0.07  -0.05
  10   7     0.02  -0.04   0.14    -0.02  -0.08  -0.11    -0.00  -0.07   0.00
  11   6     0.03   0.01  -0.10    -0.02   0.07   0.05     0.00  -0.20   0.04
  12   6     0.24  -0.04  -0.04    -0.17  -0.03   0.04     0.02  -0.24   0.05
  13   6     0.27   0.00   0.10    -0.19  -0.03  -0.06     0.03   0.35  -0.08
  14   6     0.18   0.13   0.10    -0.13   0.09  -0.12     0.01  -0.29   0.08
  15   6     0.11  -0.05  -0.05    -0.08  -0.03   0.05     0.01  -0.02   0.00
  16   8    -0.00  -0.01  -0.12     0.01   0.03   0.08    -0.00  -0.01  -0.01
  17   6    -0.02  -0.15   0.01     0.02  -0.14   0.05    -0.00   0.25  -0.06
  18   6    -0.04   0.07  -0.09     0.03   0.10   0.03    -0.00  -0.17   0.04
  19   6    -0.08  -0.02  -0.06     0.06   0.00   0.05    -0.01   0.05  -0.02
  20   6    -0.13  -0.08  -0.07     0.09  -0.05   0.07    -0.01   0.07  -0.02
  21   6    -0.11   0.08  -0.08     0.08   0.10   0.01    -0.01  -0.17   0.04
  22   6    -0.10  -0.09  -0.02     0.07  -0.07   0.04    -0.01   0.24  -0.06
  23   8    -0.08   0.05   0.13     0.05  -0.01  -0.10    -0.01   0.05   0.00
  24   6     0.03   0.08   0.06    -0.02   0.05  -0.07     0.00  -0.33   0.08
  25   6     0.00  -0.09  -0.05    -0.01  -0.08   0.08     0.00   0.16  -0.05
  26   6    -0.16  -0.05   0.20    -0.18  -0.13  -0.06    -0.06  -0.05   0.07
  27   6    -0.19  -0.10   0.01    -0.11  -0.19   0.09    -0.10  -0.06   0.01
  28   6    -0.01  -0.02  -0.02    -0.04  -0.17   0.05    -0.04  -0.03   0.01
  29   6     0.03   0.21   0.05    -0.05   0.02  -0.06    -0.03   0.10   0.01
  30   6    -0.09   0.24  -0.09    -0.11   0.11   0.08    -0.06   0.12  -0.02
  31   6    -0.18   0.16   0.05    -0.12   0.09  -0.00    -0.06   0.09   0.03
  32   1     0.03   0.02   0.03    -0.00   0.02  -0.04    -0.00  -0.00   0.01
  33   1     0.04   0.00  -0.02    -0.03   0.02   0.01     0.00  -0.00  -0.00
  34   1     0.02   0.01   0.03    -0.02   0.02  -0.02     0.00  -0.00   0.00
  35   1     0.01   0.01  -0.01    -0.01   0.01   0.01     0.00  -0.01   0.00
  36   1    -0.02   0.01  -0.04    -0.00   0.03   0.02     0.01  -0.01   0.01
  37   1    -0.01   0.01  -0.04     0.02   0.03   0.03    -0.01  -0.01  -0.01
  38   1     0.01  -0.01  -0.08     0.05   0.11   0.04     0.02   0.03   0.02
  39   1    -0.00   0.01   0.04    -0.05   0.08  -0.03    -0.01   0.03  -0.01
  40   1    -0.01  -0.05  -0.03    -0.05  -0.06   0.04    -0.01  -0.02   0.01
  41   1    -0.00  -0.05  -0.06     0.07  -0.08   0.04     0.03  -0.02   0.02
  42   1     0.11  -0.04  -0.04    -0.08  -0.02   0.04     0.01  -0.07   0.01
  43   1     0.11  -0.03   0.05    -0.08  -0.05  -0.02     0.01   0.28  -0.07
  44   1    -0.02   0.07  -0.04     0.02   0.08  -0.00    -0.00  -0.15   0.04
  45   1    -0.02   0.01  -0.00     0.02   0.01   0.00    -0.00   0.00  -0.00
  46   1    -0.04  -0.03  -0.02     0.03  -0.02   0.02    -0.00   0.00  -0.00
  47   1    -0.03   0.08  -0.04     0.02   0.08  -0.01    -0.00  -0.16   0.04
  48   1    -0.02  -0.06  -0.01     0.01  -0.06   0.03     0.00   0.20  -0.05
  49   1    -0.07  -0.06  -0.03    -0.03  -0.06   0.06    -0.03  -0.02  -0.01
  50   1     0.04  -0.04  -0.04     0.02  -0.07   0.03     0.01  -0.03  -0.01
  51   1     0.05   0.08   0.02     0.02   0.02  -0.04     0.01   0.04  -0.00
  52   1    -0.04   0.09  -0.07    -0.02   0.04   0.05    -0.02   0.03  -0.02
                     31                     32                     33
                        a                      a                      a 
 Frequencies --   445.6282               451.1305               496.0316
 Red. masses --     9.5667                11.7232                 9.6655
 Frc consts  --     0.0000                 0.0000                 0.0000
 IR Inten    --     0.0399                 2.6087                 0.0464
 Raman Activ --     0.0000                 0.0000                 0.0000
 Depolar     --     0.0000                 0.0000                 0.0000
 Atom AN      X      Y      Z        X      Y      Z        X      Y      Z
   1   6     0.00  -0.02   0.01     0.02  -0.01  -0.10     0.01   0.08  -0.02
   2   6    -0.01   0.01   0.00     0.09  -0.00  -0.05     0.02  -0.00  -0.00
   3   6    -0.00   0.01  -0.01    -0.00   0.00   0.06     0.00  -0.08   0.02
   4   6     0.05   0.04   0.22     0.06   0.02   0.03    -0.07  -0.04  -0.35
   5   6    -0.05  -0.01  -0.25    -0.02   0.07  -0.07    -0.04  -0.02  -0.14
   6   6     0.05   0.04   0.17     0.01   0.10   0.05     0.05   0.03   0.26
   7   6     0.00  -0.00  -0.04    -0.01   0.04  -0.04    -0.07  -0.03  -0.32
   8   6    -0.02  -0.02  -0.14     0.06  -0.00  -0.04     0.05   0.03   0.22
   9   6     0.10   0.04   0.44     0.06  -0.00   0.14     0.01   0.00   0.06
  10   7    -0.01  -0.01  -0.01    -0.05  -0.00   0.01    -0.01   0.00   0.00
  11   6     0.00  -0.02   0.01    -0.12  -0.02  -0.04    -0.01   0.00  -0.00
  12   6    -0.00  -0.05   0.02    -0.02  -0.01  -0.00    -0.01   0.01  -0.00
  13   6    -0.00   0.04  -0.01     0.01   0.03   0.10    -0.00   0.00   0.01
  14   6    -0.00  -0.02   0.00    -0.08   0.04   0.16     0.01  -0.00   0.00
  15   6    -0.00  -0.02   0.00    -0.01   0.05   0.20     0.01   0.00  -0.02
  16   8    -0.00   0.00  -0.00     0.14   0.07   0.30     0.01  -0.01  -0.02
  17   6    -0.00   0.02  -0.00     0.25  -0.02  -0.08    -0.01   0.00  -0.00
  18   6    -0.00  -0.01   0.00     0.30  -0.03  -0.10    -0.01   0.01   0.01
  19   6    -0.00   0.00   0.00     0.17   0.00  -0.00     0.01  -0.02   0.01
  20   6     0.00   0.01   0.00    -0.14  -0.03  -0.12     0.01   0.02   0.00
  21   6     0.00  -0.01   0.01    -0.15  -0.06  -0.23     0.01  -0.01  -0.00
  22   6     0.00   0.02  -0.00    -0.05  -0.05  -0.24    -0.00  -0.02   0.01
  23   8     0.00  -0.01  -0.00    -0.07  -0.04  -0.16    -0.01   0.01   0.02
  24   6     0.00  -0.02  -0.00    -0.26   0.01   0.08     0.00  -0.00   0.01
  25   6     0.00   0.03  -0.01    -0.27   0.02   0.07    -0.00  -0.01  -0.01
  26   6    -0.11  -0.06  -0.44     0.07   0.03   0.12    -0.01  -0.00  -0.06
  27   6     0.03   0.01   0.15     0.06  -0.01  -0.03    -0.05  -0.03  -0.23
  28   6     0.01  -0.00   0.03    -0.02  -0.04  -0.02     0.07   0.03   0.31
  29   6    -0.04  -0.01  -0.18    -0.01  -0.07   0.07    -0.06  -0.03  -0.26
  30   6     0.05   0.03   0.25    -0.02  -0.08  -0.05     0.02   0.02   0.14
  31   6    -0.06  -0.02  -0.22     0.07  -0.01   0.03     0.08   0.04   0.35
  32   1     0.00  -0.01   0.03    -0.00  -0.01  -0.04     0.02   0.04  -0.05
  33   1     0.00  -0.03   0.00    -0.01  -0.00  -0.01    -0.00   0.04  -0.00
  34   1    -0.00  -0.01  -0.02     0.00  -0.01  -0.05    -0.01   0.05   0.03
  35   1     0.00   0.03  -0.00    -0.04   0.00   0.00    -0.00  -0.04   0.01
  36   1    -0.01   0.00  -0.03     0.00   0.00   0.04     0.03  -0.04   0.04
  37   1     0.01   0.01   0.02    -0.00  -0.00   0.04    -0.03  -0.04  -0.02
  38   1    -0.04  -0.02  -0.22    -0.01   0.02  -0.06    -0.00   0.00   0.01
  39   1     0.01   0.01   0.06     0.00   0.03   0.02     0.05   0.02   0.22
  40   1    -0.02  -0.01  -0.10    -0.02   0.00  -0.03    -0.03  -0.02  -0.16
  41   1    -0.04  -0.02  -0.20     0.01  -0.01  -0.05     0.03   0.02   0.14
  42   1    -0.00  -0.03   0.01     0.01  -0.01  -0.02     0.00   0.00  -0.00
  43   1    -0.00   0.02  -0.01     0.02   0.01   0.04    -0.00   0.00   0.00
  44   1    -0.00  -0.01   0.00     0.10  -0.01  -0.02    -0.00   0.01   0.00
  45   1    -0.00  -0.00  -0.00     0.06   0.02   0.07     0.00  -0.01  -0.00
  46   1     0.00  -0.00   0.00    -0.09  -0.00   0.00     0.00   0.01  -0.00
  47   1     0.00  -0.01   0.00    -0.06  -0.02  -0.07     0.00   0.00  -0.00
  48   1     0.00   0.03  -0.01    -0.11   0.01   0.01    -0.00  -0.00  -0.00
  49   1     0.05   0.02   0.20     0.01   0.01  -0.05    -0.03  -0.02  -0.14
  50   1     0.02   0.01   0.09    -0.03  -0.00  -0.03     0.04   0.02   0.16
  51   1    -0.01  -0.00  -0.06    -0.00  -0.02   0.02    -0.05  -0.02  -0.22
  52   1     0.05   0.02   0.22    -0.02  -0.03  -0.05    -0.00  -0.00  -0.01
                     34                     35                     36
                        a                      a                      a 
 Frequencies --   496.5222               504.8895               524.2071
 Red. masses --    10.3689                12.7372                11.1943
 Frc consts  --     0.0000                 0.0000                 0.0000
 IR Inten    --     0.6881                26.7604                 2.2585
 Raman Activ --     0.0000                 0.0000                 0.0000
 Depolar     --     0.0000                 0.0000                 0.0000
 Atom AN      X      Y      Z        X      Y      Z        X      Y      Z
   1   6     0.00   0.01  -0.01    -0.04   0.02   0.15     0.06   0.03  -0.08
   2   6     0.00  -0.03  -0.00    -0.16   0.01   0.05    -0.05  -0.16  -0.08
   3   6    -0.00   0.01   0.00    -0.07  -0.01  -0.10    -0.11   0.03  -0.08
   4   6     0.01  -0.02  -0.01    -0.04   0.03  -0.05     0.13  -0.07   0.16
   5   6    -0.01  -0.02  -0.00     0.07  -0.03   0.00     0.02  -0.06  -0.02
   6   6    -0.02  -0.02   0.02     0.01  -0.08   0.00    -0.10  -0.12   0.03
   7   6    -0.02   0.00  -0.01    -0.00  -0.08  -0.00    -0.09   0.02   0.07
   8   6    -0.00   0.00   0.01    -0.08  -0.01   0.04    -0.04   0.00  -0.05
   9   6     0.02   0.02   0.00    -0.01   0.03  -0.05     0.15   0.10   0.14
  10   7    -0.00   0.04  -0.01     0.15  -0.00   0.04    -0.05   0.16  -0.35
  11   6    -0.00   0.13  -0.03     0.19   0.00   0.06     0.03   0.36  -0.03
  12   6    -0.01  -0.02   0.01     0.16   0.02   0.01     0.01  -0.16   0.11
  13   6    -0.01  -0.02   0.01     0.11  -0.07  -0.23    -0.02   0.11  -0.07
  14   6     0.00   0.13  -0.03    -0.08  -0.02  -0.08    -0.03   0.02  -0.04
  15   6     0.00  -0.18   0.03    -0.09   0.07   0.30    -0.03   0.14  -0.05
  16   8     0.01   0.08  -0.03    -0.22   0.09   0.35     0.01  -0.06   0.01
  17   6    -0.00  -0.11   0.02     0.11   0.01   0.07    -0.03  -0.06   0.00
  18   6    -0.00  -0.28   0.07     0.06  -0.06  -0.20    -0.04   0.01  -0.01
  19   6     0.00   0.41  -0.10    -0.14  -0.01  -0.08    -0.05  -0.00   0.01
  20   6     0.00  -0.35   0.09    -0.18  -0.03  -0.07     0.02  -0.01   0.04
  21   6     0.00   0.13  -0.03    -0.14   0.04   0.14     0.02   0.03   0.04
  22   6     0.00   0.50  -0.12     0.09   0.01   0.00     0.05  -0.07   0.03
  23   8     0.00  -0.21   0.06     0.15  -0.09  -0.32     0.07   0.13  -0.07
  24   6     0.00   0.05  -0.01     0.04  -0.02  -0.13     0.01  -0.31   0.07
  25   6    -0.00  -0.05   0.01     0.12   0.03   0.11     0.02  -0.03   0.11
  26   6    -0.01   0.02   0.01    -0.01  -0.05  -0.05    -0.06   0.11   0.19
  27   6     0.01   0.00  -0.01    -0.08   0.02   0.01    -0.00   0.01  -0.06
  28   6     0.02   0.00   0.01     0.01   0.08   0.01     0.11   0.03   0.03
  29   6     0.02  -0.03  -0.01     0.01   0.08  -0.04     0.09  -0.12  -0.02
  30   6     0.00  -0.02   0.01     0.08   0.03   0.01    -0.01  -0.06  -0.01
  31   6    -0.01  -0.02   0.02    -0.03  -0.03   0.00    -0.06  -0.07   0.21
  32   1     0.01   0.01  -0.01    -0.00   0.01   0.07     0.05   0.03  -0.05
  33   1     0.00   0.01  -0.00     0.02   0.00   0.01     0.05   0.02  -0.05
  34   1    -0.00   0.01   0.01    -0.00   0.01   0.07     0.00   0.04   0.04
  35   1    -0.00   0.00  -0.00     0.04  -0.00  -0.01    -0.06   0.03  -0.03
  36   1    -0.01   0.01  -0.00    -0.02  -0.01  -0.06    -0.07   0.04  -0.04
  37   1     0.01   0.01   0.01    -0.02  -0.01  -0.06     0.01   0.04   0.02
  38   1    -0.00   0.00  -0.00     0.02  -0.01   0.02    -0.01   0.02  -0.09
  39   1    -0.00  -0.01   0.01    -0.01  -0.01   0.02    -0.04  -0.04  -0.05
  40   1    -0.00   0.00  -0.01     0.02  -0.01   0.00    -0.02   0.01  -0.02
  41   1    -0.00  -0.01   0.00    -0.02   0.00   0.03    -0.03  -0.05  -0.10
  42   1    -0.00  -0.06   0.01     0.01   0.02   0.04    -0.02  -0.10   0.06
  43   1    -0.00  -0.07   0.02     0.03  -0.02  -0.06    -0.02   0.05  -0.03
  44   1    -0.00  -0.17   0.04     0.01  -0.02  -0.06    -0.01   0.04  -0.01
  45   1     0.00   0.20  -0.05    -0.03   0.01   0.03    -0.02   0.02  -0.01
  46   1     0.00  -0.27   0.07    -0.02  -0.02  -0.04     0.02   0.01  -0.00
  47   1     0.00  -0.05   0.01    -0.05   0.01   0.03    -0.00   0.04  -0.00
  48   1    -0.00  -0.07   0.02     0.06   0.01   0.04     0.02   0.02   0.03
  49   1    -0.00  -0.01  -0.01    -0.02   0.00   0.02    -0.03  -0.05  -0.10
  50   1     0.00   0.00   0.00     0.02   0.01   0.02     0.01   0.01  -0.03
  51   1     0.00  -0.01  -0.01    -0.01   0.02  -0.01     0.00  -0.04  -0.06
  52   1    -0.00   0.00  -0.00     0.02   0.01   0.02    -0.02   0.02  -0.08
                     37                     38                     39
                        a                      a                      a 
 Frequencies --   531.0126               541.0084               545.3435
 Red. masses --    10.9012                10.6165                11.8698
 Frc consts  --     0.0000                 0.0000                 0.0000
 IR Inten    --     2.2419                 4.7742                 1.8052
 Raman Activ --     0.0000                 0.0000                 0.0000
 Depolar     --     0.0000                 0.0000                 0.0000
 Atom AN      X      Y      Z        X      Y      Z        X      Y      Z
   1   6    -0.08   0.05   0.11     0.08  -0.02  -0.15    -0.06   0.02   0.18
   2   6     0.04  -0.12   0.14     0.01  -0.02  -0.11    -0.20   0.02   0.04
   3   6     0.15   0.03   0.09    -0.10  -0.00  -0.06    -0.13  -0.01  -0.14
   4   6     0.03  -0.11  -0.23     0.03  -0.01   0.12     0.02   0.10  -0.02
   5   6    -0.00  -0.05  -0.01     0.03   0.01   0.22     0.14   0.05  -0.02
   6   6    -0.07  -0.07   0.07    -0.06  -0.03  -0.26     0.02  -0.02  -0.02
   7   6    -0.10   0.03  -0.09     0.05   0.05   0.28     0.01  -0.13   0.02
   8   6     0.02   0.03   0.10    -0.04  -0.01  -0.21    -0.05  -0.08   0.01
   9   6     0.05   0.04  -0.21    -0.02  -0.01  -0.10     0.04   0.01  -0.03
  10   7     0.07   0.19   0.34     0.07   0.06   0.41     0.12  -0.00   0.03
  11   6    -0.03   0.27  -0.14    -0.03   0.02  -0.06     0.04  -0.02  -0.15
  12   6    -0.03  -0.14  -0.05    -0.02  -0.02  -0.06    -0.20  -0.06  -0.21
  13   6     0.02   0.09   0.04     0.02   0.01   0.05    -0.15   0.03   0.10
  14   6     0.04   0.03   0.04     0.04   0.01   0.03    -0.15   0.04   0.15
  15   6     0.04   0.15   0.00     0.04   0.06   0.03    -0.17  -0.05  -0.10
  16   8    -0.02  -0.05   0.04    -0.04  -0.01   0.03     0.24   0.02   0.04
  17   6     0.04  -0.05   0.02     0.05  -0.01   0.03    -0.03  -0.04  -0.20
  18   6     0.06  -0.01  -0.01     0.06  -0.01  -0.02    -0.02  -0.01  -0.06
  19   6     0.05   0.01  -0.01     0.05   0.01  -0.02    -0.16   0.01   0.07
  20   6    -0.04  -0.04  -0.04    -0.04  -0.03  -0.05    -0.03   0.04   0.12
  21   6    -0.04   0.02  -0.05    -0.04   0.01  -0.03    -0.00  -0.02  -0.05
  22   6    -0.05  -0.06  -0.00    -0.05  -0.02  -0.00     0.17  -0.03  -0.16
  23   8    -0.06   0.12   0.02    -0.06   0.02   0.03     0.28   0.05   0.20
  24   6     0.00  -0.25   0.07     0.01  -0.05   0.01     0.06   0.08   0.27
  25   6    -0.00  -0.06  -0.11     0.01  -0.02  -0.11    -0.01  -0.02  -0.04
  26   6    -0.14   0.06  -0.18    -0.04   0.00  -0.10     0.04  -0.02  -0.02
  27   6     0.04   0.01   0.10    -0.04  -0.03  -0.21    -0.04   0.08  -0.02
  28   6     0.05  -0.01  -0.12     0.07   0.01   0.27     0.02   0.13  -0.00
  29   6     0.08  -0.10   0.04    -0.06  -0.04  -0.26     0.02   0.02  -0.03
  30   6    -0.03  -0.04   0.00     0.03   0.03   0.22     0.14  -0.07  -0.01
  31   6    -0.14  -0.08  -0.21     0.02   0.02   0.11     0.02  -0.10   0.01
  32   1    -0.01   0.02  -0.04     0.03  -0.00  -0.03    -0.00   0.01   0.09
  33   1    -0.06   0.03   0.07     0.04  -0.01  -0.06     0.03  -0.00   0.01
  34   1    -0.05   0.04   0.04     0.03   0.00  -0.02    -0.00   0.01   0.09
  35   1     0.08   0.03   0.04    -0.07   0.00  -0.03     0.02  -0.00  -0.02
  36   1     0.01   0.03  -0.03    -0.03   0.00   0.01    -0.04  -0.01  -0.08
  37   1     0.08   0.03   0.03    -0.02   0.01   0.02    -0.04  -0.01  -0.08
  38   1     0.02   0.03   0.08     0.01   0.01   0.08     0.04   0.02  -0.00
  39   1     0.01  -0.02   0.11    -0.03  -0.02  -0.17    -0.03   0.02   0.00
  40   1    -0.01   0.02   0.01     0.03   0.02   0.16     0.01  -0.04   0.01
  41   1     0.03  -0.02   0.14    -0.01  -0.01  -0.08    -0.01  -0.02   0.01
  42   1     0.01  -0.10  -0.02     0.01  -0.02  -0.03    -0.05  -0.02  -0.06
  43   1     0.02   0.04   0.01     0.02   0.01   0.02     0.02   0.01   0.05
  44   1     0.01   0.03  -0.01     0.01   0.00  -0.01     0.05   0.00   0.01
  45   1     0.02   0.03   0.01     0.02   0.01   0.01    -0.05  -0.00   0.02
  46   1    -0.02   0.00  -0.01    -0.02  -0.01  -0.01    -0.00   0.01   0.03
  47   1    -0.00   0.03  -0.02    -0.00   0.01  -0.01    -0.08  -0.02  -0.05
  48   1    -0.02   0.00  -0.04    -0.01  -0.00  -0.04    -0.10  -0.02  -0.04
  49   1     0.03  -0.02   0.14    -0.01  -0.01  -0.07    -0.01   0.02   0.00
  50   1     0.01   0.01   0.00     0.04   0.02   0.16     0.01   0.04   0.01
  51   1     0.04  -0.02   0.10    -0.03  -0.02  -0.17    -0.04  -0.01   0.00
  52   1     0.02   0.04   0.09     0.01   0.01   0.08     0.04  -0.03   0.00
                     40                     41                     42
                        a                      a                      a 
 Frequencies --   552.0325               554.1636               582.1060
 Red. masses --    11.4912                11.1556                10.9801
 Frc consts  --     0.0000                 0.0000                 0.0000
 IR Inten    --     0.2593                 4.5593                 0.8298
 Raman Activ --     0.0000                 0.0000                 0.0000
 Depolar     --     0.0000                 0.0000                 0.0000
 Atom AN      X      Y      Z        X      Y      Z        X      Y      Z
   1   6    -0.07   0.02   0.21     0.01  -0.02  -0.04     0.00   0.00  -0.01
   2   6    -0.23   0.03   0.05     0.05   0.10  -0.02    -0.01  -0.25   0.02
   3   6    -0.16  -0.01  -0.16     0.03  -0.01   0.03     0.00   0.00   0.00
   4   6     0.03   0.13  -0.03    -0.07   0.03   0.02     0.03  -0.21   0.02
   5   6     0.17   0.09  -0.04    -0.04   0.01  -0.01    -0.31  -0.00   0.07
   6   6     0.04   0.01  -0.02     0.05   0.05  -0.00    -0.05   0.19  -0.01
   7   6     0.03  -0.17   0.02     0.05  -0.01  -0.02    -0.02   0.28  -0.02
   8   6    -0.04  -0.11   0.02    -0.01   0.01   0.01     0.33   0.03  -0.08
   9   6     0.05  -0.01  -0.02    -0.08  -0.04   0.04     0.09  -0.13  -0.00
  10   7     0.09  -0.02   0.01    -0.03  -0.10  -0.02    -0.00  -0.09   0.01
  11   6     0.03  -0.01   0.09    -0.01  -0.14   0.02     0.00  -0.12   0.03
  12   6     0.06   0.06   0.09    -0.02   0.13  -0.05     0.01   0.03  -0.01
  13   6     0.02  -0.05  -0.07    -0.01  -0.13   0.04     0.00  -0.03  -0.00
  14   6     0.01  -0.03  -0.06    -0.01  -0.05   0.03    -0.01  -0.03   0.01
  15   6     0.05   0.13  -0.06    -0.02   0.60  -0.16    -0.01   0.05  -0.02
  16   8    -0.03  -0.06  -0.07     0.03  -0.17   0.06     0.01  -0.01   0.00
  17   6    -0.04  -0.02   0.08    -0.00  -0.16   0.01    -0.01  -0.00  -0.01
  18   6     0.02   0.02   0.24    -0.01  -0.17  -0.01    -0.01  -0.02   0.01
  19   6     0.31   0.06   0.03    -0.08   0.20  -0.05    -0.01   0.02  -0.00
  20   6     0.14  -0.07  -0.04    -0.02  -0.23   0.09     0.01  -0.02   0.01
  21   6     0.07  -0.01  -0.23    -0.01   0.21  -0.00     0.01   0.02  -0.01
  22   6    -0.24  -0.03   0.01     0.07  -0.16   0.03     0.01  -0.02  -0.00
  23   8    -0.33   0.01  -0.00     0.09   0.04  -0.01     0.01  -0.02   0.00
  24   6    -0.14  -0.08  -0.08     0.03  -0.24   0.10    -0.00   0.04  -0.00
  25   6    -0.08   0.06   0.10     0.01   0.15  -0.04    -0.01   0.02   0.00
  26   6     0.07  -0.01  -0.02     0.06  -0.05  -0.01    -0.10  -0.12   0.04
  27   6    -0.03   0.11  -0.02     0.02  -0.04   0.01    -0.33   0.07   0.07
  28   6     0.03   0.16  -0.01    -0.07  -0.07   0.01     0.04   0.27  -0.03
  29   6     0.02   0.00  -0.02    -0.05   0.06   0.01     0.07   0.19  -0.04
  30   6     0.17  -0.11  -0.02    -0.02   0.04  -0.01     0.30  -0.03  -0.07
  31   6     0.04  -0.13   0.01     0.06   0.07  -0.03    -0.04  -0.20   0.03
  32   1    -0.01   0.01   0.10    -0.02  -0.02   0.02     0.03   0.03  -0.08
  33   1     0.03  -0.00   0.01    -0.01  -0.02   0.00     0.00   0.04  -0.01
  34   1    -0.01   0.01   0.10     0.02  -0.03  -0.05    -0.03   0.05   0.07
  35   1     0.02  -0.01  -0.02    -0.00  -0.02   0.01     0.00   0.04  -0.00
  36   1    -0.05  -0.01  -0.08     0.04  -0.02   0.04    -0.06   0.03  -0.06
  37   1    -0.05  -0.01  -0.09    -0.02  -0.02  -0.00     0.06   0.04   0.05
  38   1     0.05   0.03  -0.01    -0.01  -0.03  -0.01    -0.09   0.02   0.02
  39   1    -0.04   0.03   0.00     0.02   0.01  -0.00     0.06   0.01  -0.01
  40   1     0.00  -0.05   0.01     0.01  -0.00  -0.01    -0.07   0.04   0.01
  41   1    -0.01  -0.03   0.01    -0.00   0.03  -0.01     0.09  -0.02  -0.02
  42   1    -0.01   0.04   0.04    -0.00   0.10  -0.03     0.00   0.03  -0.01
  43   1    -0.02  -0.00  -0.03     0.01   0.03  -0.00     0.00   0.01  -0.00
  44   1    -0.03   0.02   0.05     0.01   0.03  -0.02     0.00  -0.00   0.00
  45   1     0.08   0.03  -0.03    -0.02   0.16  -0.04    -0.00   0.01  -0.00
  46   1    -0.02  -0.01   0.03     0.01  -0.07   0.02     0.00  -0.01   0.00
  47   1     0.07   0.02  -0.04    -0.02   0.14  -0.03    -0.00   0.01  -0.01
  48   1     0.01   0.03   0.03    -0.00   0.11  -0.03    -0.00   0.02  -0.00
  49   1    -0.01   0.04  -0.01     0.01   0.02  -0.00    -0.09  -0.01   0.02
  50   1     0.00   0.05   0.00    -0.01  -0.02   0.00     0.07   0.03  -0.02
  51   1    -0.05  -0.02   0.01     0.00   0.02   0.00    -0.06   0.02   0.01
  52   1     0.05  -0.04  -0.00    -0.01  -0.02   0.00     0.09   0.01  -0.02
                     43                     44                     45
                        a                      a                      a 
 Frequencies --   599.2350               615.9876               642.7941
 Red. masses --    11.4148                11.0426                11.5625
 Frc consts  --     0.0000                 0.0000                 0.0000
 IR Inten    --     6.1698                21.1372                57.4805
 Raman Activ --     0.0000                 0.0000                 0.0000
 Depolar     --     0.0000                 0.0000                 0.0000
 Atom AN      X      Y      Z        X      Y      Z        X      Y      Z
   1   6     0.04  -0.01  -0.09     0.00   0.02  -0.01     0.05  -0.01  -0.10
   2   6     0.09  -0.01  -0.01    -0.01  -0.18   0.02     0.06   0.01  -0.02
   3   6     0.08   0.01   0.07    -0.00   0.02  -0.00     0.07   0.00   0.07
   4   6    -0.02  -0.07  -0.01     0.20  -0.04  -0.03     0.03   0.05   0.02
   5   6    -0.03  -0.11   0.03     0.18  -0.01  -0.04     0.14  -0.04  -0.05
   6   6    -0.05  -0.13   0.01    -0.09  -0.14   0.04    -0.02  -0.13   0.04
   7   6    -0.05   0.12   0.01    -0.11   0.05   0.02    -0.05   0.06  -0.01
   8   6    -0.11   0.14  -0.01    -0.06   0.05   0.01    -0.22   0.15   0.05
   9   6    -0.02   0.11  -0.02     0.15   0.16  -0.04    -0.03   0.17  -0.00
  10   7     0.18   0.01   0.09     0.01   0.21  -0.05     0.13  -0.04  -0.19
  11   6     0.22   0.01  -0.00    -0.00  -0.49   0.11     0.11   0.01   0.01
  12   6     0.20  -0.03  -0.08    -0.01   0.02  -0.03    -0.24  -0.01  -0.04
  13   6     0.13  -0.07  -0.28    -0.01  -0.02   0.01    -0.22   0.02   0.06
  14   6    -0.18   0.00  -0.01    -0.00  -0.20   0.05     0.01  -0.01  -0.03
  15   6    -0.23  -0.02  -0.05     0.00   0.12  -0.02     0.05   0.01   0.06
  16   8     0.11   0.03   0.10    -0.00  -0.02   0.01    -0.07   0.01   0.05
  17   6    -0.16  -0.03  -0.12     0.01   0.05  -0.01     0.09   0.02   0.07
  18   6    -0.14   0.05   0.20     0.01  -0.07   0.01     0.15  -0.00   0.01
  19   6     0.06   0.02   0.10     0.01   0.07  -0.02     0.18  -0.00  -0.02
  20   6     0.15   0.03   0.11    -0.01  -0.07   0.01    -0.15  -0.04  -0.16
  21   6     0.11  -0.07  -0.28    -0.01   0.07  -0.02    -0.13  -0.02  -0.09
  22   6    -0.04  -0.04  -0.18    -0.00  -0.09   0.02    -0.14  -0.00   0.01
  23   8     0.03   0.00   0.01    -0.00  -0.09   0.04    -0.10   0.06   0.25
  24   6    -0.10   0.02   0.10     0.01   0.33  -0.07     0.21   0.00   0.02
  25   6    -0.05   0.06   0.24     0.01  -0.02  -0.02     0.24  -0.03  -0.10
  26   6    -0.04  -0.09  -0.00    -0.14   0.18   0.02    -0.02  -0.18   0.03
  27   6    -0.09  -0.12   0.03     0.05   0.03  -0.02    -0.24  -0.13   0.09
  28   6    -0.05  -0.12   0.04     0.10   0.03  -0.03    -0.07  -0.06   0.01
  29   6    -0.03   0.11  -0.02     0.08  -0.15  -0.00    -0.02   0.16   0.01
  30   6    -0.04   0.12   0.02    -0.18   0.02   0.04     0.17   0.01  -0.06
  31   6    -0.03   0.07  -0.03    -0.20  -0.01   0.05     0.06  -0.05   0.02
  32   1     0.01  -0.01  -0.04     0.03   0.03  -0.07     0.01  -0.01  -0.04
  33   1    -0.01  -0.00  -0.01     0.00   0.03  -0.01     0.00  -0.00  -0.02
  34   1     0.00  -0.00  -0.04    -0.03   0.05   0.06     0.01  -0.01  -0.05
  35   1     0.00   0.00   0.01    -0.00   0.03  -0.00    -0.00  -0.00   0.01
  36   1     0.02   0.00   0.03    -0.05   0.04  -0.05     0.03   0.00   0.04
  37   1     0.03   0.00   0.04     0.06   0.04   0.04     0.02  -0.00   0.03
  38   1    -0.01  -0.02   0.02     0.05   0.07  -0.02     0.04   0.01  -0.03
  39   1     0.02  -0.05   0.00    -0.04  -0.03   0.01    -0.02  -0.03   0.00
  40   1     0.03   0.06   0.00     0.00   0.03  -0.01     0.05   0.05  -0.04
  41   1    -0.03   0.04   0.01    -0.02  -0.06   0.01    -0.07   0.05  -0.01
  42   1     0.01   0.00   0.02    -0.00   0.16  -0.05    -0.09   0.00   0.01
  43   1     0.08  -0.02  -0.06     0.00   0.09  -0.02    -0.08   0.00   0.01
  44   1    -0.01   0.02   0.07     0.00  -0.02   0.00     0.01  -0.00  -0.01
  45   1     0.01  -0.01  -0.04     0.00   0.03  -0.00     0.06   0.01   0.05
  46   1    -0.01   0.02   0.07    -0.00  -0.02   0.00    -0.09  -0.00  -0.01
  47   1    -0.01  -0.03  -0.10    -0.00   0.03  -0.01    -0.01  -0.00  -0.01
  48   1    -0.05   0.02   0.05    -0.00   0.06  -0.02     0.08  -0.01  -0.02
  49   1    -0.02  -0.03   0.02     0.01  -0.06   0.00    -0.07  -0.04   0.01
  50   1     0.03  -0.06   0.02    -0.00   0.03  -0.00     0.04  -0.07  -0.02
  51   1     0.03   0.05  -0.01     0.04  -0.03  -0.01    -0.02   0.04  -0.01
  52   1    -0.01   0.03   0.02    -0.04   0.08  -0.00     0.04  -0.03  -0.03
                     46                     47                     48
                        a                      a                      a 
 Frequencies --   650.4853               664.8071               680.1833
 Red. masses --    11.6097                11.3632                11.8783
 Frc consts  --     0.0000                 0.0000                 0.0000
 IR Inten    --     0.5447                19.4247                10.5373
 Raman Activ --     0.0000                 0.0000                 0.0000
 Depolar     --     0.0000                 0.0000                 0.0000
 Atom AN      X      Y      Z        X      Y      Z        X      Y      Z
   1   6    -0.00  -0.00   0.00     0.06  -0.02  -0.14     0.00  -0.00  -0.00
   2   6     0.00   0.06  -0.01     0.08  -0.01  -0.01    -0.00  -0.02   0.00
   3   6    -0.00  -0.00   0.00     0.13   0.01   0.11     0.00  -0.00   0.00
   4   6    -0.07   0.01   0.00     0.05   0.14  -0.05     0.02  -0.00  -0.01
   5   6    -0.05  -0.00   0.02     0.27   0.09  -0.05     0.02   0.00  -0.00
   6   6     0.02   0.03  -0.01     0.02  -0.05  -0.01    -0.01  -0.01   0.00
   7   6     0.03  -0.03   0.00    -0.01  -0.06   0.02    -0.01   0.01   0.00
   8   6     0.01  -0.02  -0.00    -0.28   0.10   0.03    -0.00   0.01  -0.00
   9   6    -0.04  -0.04   0.02    -0.08   0.14   0.01     0.01   0.01  -0.00
  10   7    -0.00  -0.04   0.02    -0.02   0.02   0.10    -0.00   0.01  -0.00
  11   6     0.01   0.34  -0.08    -0.13  -0.00  -0.02    -0.00  -0.15   0.04
  12   6     0.01  -0.18   0.05     0.06   0.01   0.05     0.00   0.10  -0.03
  13   6     0.01   0.21  -0.05     0.07   0.02   0.07     0.00  -0.10   0.02
  14   6    -0.00  -0.42   0.10     0.03   0.00   0.04     0.00   0.35  -0.09
  15   6    -0.00   0.04  -0.01     0.07  -0.02  -0.09    -0.00  -0.36   0.09
  16   8    -0.00  -0.01   0.00     0.07  -0.04  -0.16     0.00   0.07  -0.02
  17   6    -0.00   0.31  -0.08     0.02  -0.01  -0.01     0.00   0.48  -0.12
  18   6    -0.01  -0.16   0.05    -0.02  -0.02  -0.09     0.00  -0.16   0.04
  19   6    -0.00   0.14  -0.03    -0.13  -0.01  -0.02    -0.00   0.16  -0.04
  20   6     0.00  -0.15   0.04     0.09   0.02   0.09     0.00  -0.14   0.04
  21   6     0.00   0.17  -0.05     0.07   0.05   0.23     0.00   0.18  -0.04
  22   6    -0.00  -0.34   0.08     0.12   0.03   0.09     0.00  -0.43   0.11
  23   8     0.00  -0.01  -0.01    -0.01  -0.06  -0.22    -0.00   0.13  -0.03
  24   6    -0.00   0.40  -0.10    -0.23   0.00  -0.03    -0.01  -0.28   0.07
  25   6    -0.00  -0.20   0.06    -0.27   0.02   0.07    -0.01   0.11  -0.02
  26   6     0.04  -0.05  -0.01    -0.09  -0.11   0.04    -0.01   0.01  -0.00
  27   6    -0.00  -0.01   0.01    -0.28  -0.06   0.06    -0.00   0.01  -0.00
  28   6    -0.03  -0.02   0.01     0.00   0.06   0.01     0.01   0.01  -0.00
  29   6    -0.02   0.03   0.00     0.03   0.03  -0.03     0.01  -0.01   0.00
  30   6     0.05  -0.01  -0.01     0.24  -0.12  -0.03    -0.02   0.00   0.00
  31   6     0.06   0.00  -0.01     0.02  -0.16  -0.03    -0.02  -0.00   0.01
  32   1    -0.01  -0.01   0.02     0.01  -0.01  -0.06     0.00   0.00  -0.01
  33   1    -0.00  -0.01   0.00    -0.00  -0.00  -0.02     0.00   0.00  -0.00
  34   1     0.01  -0.01  -0.02     0.01  -0.01  -0.06    -0.00   0.01   0.01
  35   1     0.00  -0.01   0.00     0.01   0.00   0.02     0.00   0.00  -0.00
  36   1     0.02  -0.01   0.02     0.04   0.00   0.05    -0.01   0.00  -0.01
  37   1    -0.02  -0.01  -0.02     0.04   0.01   0.05     0.01   0.00   0.01
  38   1    -0.01  -0.02   0.01     0.08   0.04  -0.01     0.01   0.01  -0.00
  39   1     0.01   0.01  -0.00    -0.05   0.03   0.01    -0.00  -0.00   0.00
  40   1    -0.00  -0.01   0.00     0.06   0.02   0.00     0.00   0.00  -0.00
  41   1     0.00   0.02  -0.00    -0.08   0.05   0.02    -0.00  -0.00  -0.00
  42   1     0.00  -0.08   0.02     0.05  -0.00  -0.01     0.00  -0.01   0.00
  43   1    -0.00   0.05  -0.01     0.01   0.01   0.02     0.00  -0.06   0.01
  44   1    -0.00  -0.05   0.01     0.01  -0.00  -0.02     0.00  -0.10   0.02
  45   1    -0.00   0.05  -0.02    -0.04  -0.00  -0.02    -0.00  -0.01   0.00
  46   1     0.00  -0.01   0.00     0.09  -0.00  -0.02     0.00  -0.03   0.01
  47   1     0.00   0.07  -0.02     0.03   0.02   0.07     0.00   0.05  -0.01
  48   1    -0.00  -0.10   0.03    -0.10   0.00   0.01    -0.00   0.04  -0.01
  49   1     0.00   0.02  -0.00    -0.08  -0.04   0.03    -0.00  -0.00   0.00
  50   1    -0.00  -0.01  -0.00     0.05  -0.02   0.00     0.00   0.00   0.00
  51   1    -0.01   0.01   0.00    -0.05  -0.02   0.02     0.00  -0.00   0.00
  52   1     0.01  -0.03  -0.00     0.07  -0.04   0.01    -0.00   0.01  -0.00
[...]
  39   1    -0.00  -0.00   0.00    -0.00  -0.00   0.00    -0.00  -0.00   0.00
  40   1    -0.00   0.00   0.00    -0.00   0.01   0.00    -0.00   0.00   0.00
  41   1    -0.00   0.00   0.00     0.02  -0.00  -0.00     0.00  -0.00  -0.00
  42   1     0.00   0.00   0.00     0.60   0.15   0.66     0.00   0.00   0.00
  43   1     0.00  -0.00  -0.00     0.11  -0.07  -0.30    -0.00   0.00   0.01
  44   1    -0.11   0.06   0.25    -0.00   0.00   0.00     0.19  -0.11  -0.44
  45   1     0.86  -0.03  -0.10    -0.01   0.00   0.00    -0.09   0.00   0.01
  46   1    -0.18  -0.06  -0.24     0.00   0.00   0.00    -0.40  -0.13  -0.53
  47   1    -0.02   0.01   0.03     0.00  -0.00  -0.00    -0.20   0.11   0.42
  48   1     0.00  -0.00  -0.00    -0.01   0.01   0.04     0.00  -0.00  -0.01
  49   1    -0.00  -0.00   0.00     0.01  -0.00  -0.00     0.00  -0.00  -0.00
  50   1    -0.00  -0.00   0.00    -0.00  -0.00   0.00    -0.00  -0.01   0.00
  51   1    -0.00   0.00  -0.00    -0.00   0.00  -0.00    -0.00   0.00   0.00
  52   1     0.00  -0.00  -0.00    -0.00   0.00   0.00     0.00  -0.00  -0.00
                    139                    140                    141
                        a                      a                      a 
 Frequencies --  3089.2826              3089.9491              3091.7163
 Red. masses --     1.7696                 1.7681                 1.8480
 Frc consts  --     0.0000                 0.0000                 0.0000
 IR Inten    --     1.0040                 0.9393                82.7393
 Raman Activ --     0.0000                 0.0000                 0.0000
 Depolar     --     0.0000                 0.0000                 0.0000
 Atom AN      X      Y      Z        X      Y      Z        X      Y      Z
   1   6    -0.00   0.01   0.00    -0.00  -0.00   0.00    -0.00  -0.00   0.00
   2   6    -0.00   0.00   0.00    -0.00  -0.00   0.00     0.00  -0.00  -0.00
   3   6    -0.00   0.01  -0.00    -0.00  -0.01   0.00    -0.00  -0.00   0.00
   4   6     0.00  -0.00  -0.00    -0.00   0.00   0.00    -0.00   0.00   0.00
   5   6     0.00  -0.00  -0.00    -0.06   0.00   0.01    -0.00   0.00   0.00
   6   6    -0.00  -0.01   0.00     0.09   0.16  -0.04     0.00   0.00  -0.00
   7   6    -0.00   0.01   0.00     0.08  -0.15  -0.00     0.00  -0.00  -0.00
   8   6     0.00   0.00  -0.00    -0.03  -0.00   0.01     0.00  -0.00  -0.00
   9   6    -0.00  -0.00   0.00    -0.00   0.00   0.00    -0.00  -0.00  -0.00
  10   7    -0.00   0.00  -0.00    -0.00  -0.00   0.00    -0.00   0.00   0.00
  11   6     0.00   0.00  -0.00     0.00  -0.00  -0.00    -0.00  -0.00  -0.00
  12   6     0.00   0.00   0.00     0.00   0.00   0.00     0.00   0.00   0.00
  13   6    -0.00   0.00   0.00    -0.00   0.00   0.00    -0.00   0.00   0.01
  14   6    -0.00   0.00   0.00    -0.00   0.00  -0.00     0.00   0.00   0.00
  15   6     0.00  -0.00  -0.00     0.00  -0.00  -0.00     0.00  -0.00  -0.00
  16   8    -0.00   0.00   0.00    -0.00   0.00   0.00    -0.00   0.00   0.00
  17   6     0.00   0.00   0.00     0.00   0.00   0.00    -0.00  -0.00  -0.00
  18   6    -0.00   0.00   0.00    -0.00   0.00   0.00     0.08  -0.05  -0.19
  19   6    -0.00   0.00   0.00    -0.00   0.00   0.00     0.10  -0.00  -0.01
  20   6    -0.00  -0.00  -0.00    -0.00  -0.00  -0.00     0.02   0.01   0.03
  21   6    -0.00   0.00   0.00    -0.00   0.00   0.00     0.06  -0.03  -0.13
  22   6    -0.00   0.00   0.00    -0.00  -0.00  -0.00     0.00  -0.00  -0.00
  23   8    -0.00  -0.00  -0.00    -0.00  -0.00  -0.00     0.00  -0.00  -0.00
  24   6     0.00   0.00   0.00     0.00   0.00   0.00    -0.00  -0.00  -0.00
  25   6    -0.00   0.00   0.00    -0.00   0.00   0.00    -0.00   0.00   0.00
  26   6    -0.00  -0.00   0.00    -0.00   0.00   0.00    -0.00   0.00  -0.00
  27   6    -0.03   0.00   0.01    -0.00   0.00   0.00     0.00   0.00  -0.00
  28   6     0.09   0.13  -0.04     0.00   0.00  -0.00     0.00  -0.00   0.00
  29   6     0.08  -0.18  -0.00     0.00  -0.01  -0.00     0.00  -0.00  -0.00
  30   6    -0.06   0.01   0.01    -0.00   0.00   0.00    -0.00   0.00   0.00
  31   6    -0.00  -0.00   0.00    -0.00  -0.00   0.00    -0.00  -0.00   0.00
  32   1     0.02  -0.02  -0.00     0.00  -0.00   0.00     0.00  -0.00  -0.00
  33   1    -0.00   0.00  -0.00    -0.00  -0.00  -0.00     0.00   0.00   0.00
  34   1    -0.00   0.00  -0.00     0.02   0.02  -0.01     0.00   0.00  -0.00
  35   1    -0.00   0.00   0.00    -0.00  -0.00   0.00     0.00  -0.00  -0.00
  36   1    -0.00   0.00   0.00     0.02   0.02  -0.01     0.00   0.00  -0.00
  37   1     0.01  -0.02  -0.00     0.00  -0.00   0.00     0.00  -0.00   0.00
  38   1    -0.01   0.00   0.00     0.24  -0.00  -0.05     0.00  -0.00  -0.00
  39   1     0.01   0.02  -0.00    -0.34  -0.58   0.13    -0.01  -0.01   0.00
  40   1     0.01  -0.02  -0.00    -0.30   0.53   0.00    -0.00   0.00   0.00
  41   1    -0.01   0.00   0.00     0.14  -0.00  -0.03    -0.00   0.00   0.00
  42   1    -0.00  -0.00  -0.00    -0.01  -0.00  -0.01    -0.01  -0.00  -0.01
  43   1     0.00  -0.00  -0.00     0.00  -0.00  -0.00     0.01  -0.01  -0.03
  44   1     0.00  -0.00  -0.00     0.00  -0.00  -0.01    -0.29   0.17   0.66
  45   1     0.00  -0.00  -0.00     0.00  -0.00  -0.00    -0.30   0.01   0.03
  46   1     0.00   0.00   0.01     0.00   0.00   0.01    -0.08  -0.03  -0.11
  47   1     0.00  -0.00  -0.00     0.00  -0.00  -0.00    -0.21   0.11   0.45
  48   1     0.00  -0.00  -0.00     0.00  -0.00  -0.00     0.00  -0.00  -0.01
  49   1     0.11  -0.01  -0.03     0.00  -0.00  -0.00     0.00  -0.00  -0.00
  50   1    -0.33  -0.47   0.13    -0.01  -0.02   0.00    -0.00  -0.00   0.00
  51   1    -0.30   0.65   0.00    -0.01   0.03   0.00    -0.00   0.01   0.00
  52   1     0.24  -0.03  -0.05     0.01  -0.00  -0.00     0.00  -0.00  -0.00
                    142                    143                    144
                        a                      a                      a 
 Frequencies --  3096.8705              3096.9935              3099.0141
 Red. masses --     1.8283                 1.8246                 1.8698
 Frc consts  --     0.0000                 0.0000                 0.0000
 IR Inten    --    18.4211                40.3209               128.5901
 Raman Activ --     0.0000                 0.0000                 0.0000
 Depolar     --     0.0000                 0.0000                 0.0000
 Atom AN      X      Y      Z        X      Y      Z        X      Y      Z
   1   6    -0.00   0.01   0.00    -0.00  -0.01   0.00     0.00  -0.00  -0.00
   2   6    -0.00   0.00   0.00    -0.00  -0.00   0.00    -0.00  -0.00   0.00
   3   6    -0.00   0.00  -0.00    -0.00  -0.01   0.00     0.00   0.00   0.00
   4   6    -0.00   0.00   0.00    -0.00   0.00   0.00     0.00  -0.00  -0.00
   5   6    -0.03  -0.00   0.01    -0.13  -0.00   0.03    -0.00   0.00   0.00
   6   6     0.01   0.03  -0.01     0.06   0.10  -0.02    -0.00  -0.00   0.00
   7   6    -0.02   0.04   0.00    -0.09   0.15   0.00     0.00  -0.00  -0.00
   8   6     0.02  -0.00  -0.00     0.07  -0.00  -0.01     0.00   0.00  -0.00
   9   6     0.00   0.00  -0.00     0.00  -0.00  -0.00    -0.00   0.00   0.00
  10   7    -0.00  -0.00   0.00    -0.00   0.00   0.00    -0.00   0.00   0.00
  11   6    -0.00  -0.00   0.00    -0.00   0.00   0.00     0.00  -0.00  -0.00
  12   6    -0.00  -0.00  -0.00    -0.00  -0.00  -0.00     0.06   0.02   0.06
  13   6     0.00  -0.00  -0.00    -0.00   0.00   0.00    -0.08   0.05   0.20
  14   6     0.00   0.00   0.00     0.00  -0.00   0.00    -0.01   0.00   0.00
  15   6    -0.00   0.00   0.00    -0.00   0.00   0.00     0.00  -0.00  -0.00
  16   8     0.00  -0.00  -0.00     0.00  -0.00  -0.00    -0.00   0.00   0.00
  17   6    -0.00  -0.00  -0.00     0.00  -0.00  -0.00     0.00  -0.00  -0.00
  18   6     0.00  -0.00  -0.00    -0.00   0.00   0.00     0.01  -0.01  -0.03
  19   6     0.00  -0.00  -0.00     0.00  -0.00  -0.00     0.04  -0.00  -0.01
  20   6     0.00   0.00   0.00     0.00   0.00   0.00     0.05   0.02   0.07
  21   6    -0.00   0.00   0.00    -0.00   0.00   0.00    -0.04   0.02   0.09
  22   6    -0.00  -0.00   0.00    -0.00   0.00   0.00    -0.00   0.00   0.00
  23   8     0.00   0.00   0.00     0.00  -0.00   0.00     0.00   0.00   0.00
  24   6    -0.00  -0.00  -0.00    -0.00  -0.00  -0.00     0.00  -0.00  -0.00
  25   6     0.00  -0.00  -0.01     0.00  -0.00  -0.00    -0.00   0.00   0.01
  26   6     0.00  -0.00  -0.00    -0.00  -0.00   0.00    -0.00  -0.00   0.00
  27   6     0.06  -0.00  -0.01    -0.01   0.00   0.00    -0.00  -0.00   0.00
  28   6    -0.10  -0.15   0.04     0.03   0.04  -0.01     0.00   0.00  -0.00
  29   6     0.05  -0.11  -0.00    -0.01   0.03   0.00    -0.00   0.00   0.00
  30   6    -0.12   0.02   0.03     0.03  -0.00  -0.01    -0.00   0.00   0.00
  31   6    -0.00  -0.00   0.00     0.00   0.00  -0.00     0.00   0.00  -0.00
  32   1     0.02  -0.03  -0.00    -0.01   0.01   0.00    -0.00   0.00   0.00
  33   1    -0.00   0.00  -0.00    -0.00  -0.00  -0.00     0.00   0.00   0.00
  34   1     0.00   0.01  -0.00     0.02   0.03  -0.01    -0.00  -0.00   0.00
  35   1    -0.00   0.00   0.00    -0.00  -0.00   0.00     0.00  -0.00  -0.00
  36   1     0.00   0.01  -0.00     0.03   0.03  -0.01    -0.00  -0.00   0.00
  37   1     0.02  -0.02  -0.00    -0.01   0.01   0.00    -0.00   0.00   0.00
  38   1     0.12  -0.00  -0.03     0.49  -0.00  -0.10     0.00  -0.00  -0.00
  39   1    -0.05  -0.09   0.02    -0.21  -0.36   0.08     0.00   0.01  -0.00
  40   1     0.07  -0.13  -0.00     0.30  -0.53  -0.00    -0.00   0.00   0.00
  41   1    -0.06   0.00   0.01    -0.25   0.01   0.05     0.00   0.00   0.00
  42   1     0.01   0.00   0.01     0.01   0.00   0.01    -0.18  -0.05  -0.20
  43   1    -0.00   0.00   0.00     0.00  -0.00  -0.00     0.26  -0.18  -0.71
  44   1    -0.00   0.00   0.00     0.00  -0.00  -0.00    -0.04   0.02   0.09
  45   1    -0.01   0.00   0.00    -0.00   0.00   0.00    -0.12   0.00   0.01
  46   1    -0.01  -0.00  -0.01    -0.00  -0.00  -0.01    -0.18  -0.06  -0.24
  47   1     0.01  -0.00  -0.02     0.00  -0.00  -0.01     0.14  -0.08  -0.31
  48   1    -0.01   0.01   0.03    -0.00   0.00   0.01     0.01  -0.01  -0.03
  49   1    -0.23   0.03   0.05     0.06  -0.01  -0.01     0.00  -0.00  -0.00
  50   1     0.37   0.52  -0.15    -0.09  -0.13   0.04    -0.00  -0.00   0.00
  51   1    -0.17   0.37   0.00     0.04  -0.09  -0.00     0.00  -0.01  -0.00
  52   1     0.45  -0.06  -0.10    -0.11   0.01   0.02     0.00  -0.00  -0.00
                    145                    146                    147
                        a                      a                      a 
 Frequencies --  3099.5480              3103.1858              3106.0899
 Red. masses --     1.8899                 1.8286                 1.8746
 Frc consts  --     0.0000                 0.0000                 0.0000
 IR Inten    --   120.8868                52.6618                70.6246
 Raman Activ --     0.0000                 0.0000                 0.0000
 Depolar     --     0.0000                 0.0000                 0.0000
 Atom AN      X      Y      Z        X      Y      Z        X      Y      Z
   1   6    -0.00  -0.00   0.00    -0.00   0.00   0.00     0.00   0.01  -0.00
   2   6     0.00  -0.00  -0.00     0.00   0.00  -0.00     0.00   0.00  -0.00
   3   6    -0.00   0.00   0.00    -0.00   0.00  -0.00     0.00   0.01  -0.00
   4   6    -0.00  -0.00   0.00    -0.00   0.00   0.00     0.00  -0.01   0.00
   5   6     0.01  -0.00  -0.00    -0.00  -0.00   0.00     0.17  -0.00  -0.04
   6   6     0.00   0.00  -0.00     0.00   0.00  -0.00     0.06   0.10  -0.02
   7   6     0.00  -0.00  -0.00    -0.00   0.01  -0.00    -0.02   0.04   0.00
   8   6    -0.00  -0.00   0.00    -0.01  -0.00   0.00     0.06  -0.00  -0.01
   9   6    -0.00   0.00  -0.00     0.00  -0.00   0.00     0.00   0.00  -0.00
  10   7     0.00  -0.00  -0.00     0.00  -0.00  -0.00     0.00  -0.00   0.00
  11   6    -0.00   0.00   0.00    -0.01   0.00   0.00    -0.00   0.00   0.00
  12   6    -0.03  -0.01  -0.04    -0.01  -0.00  -0.02    -0.00   0.00  -0.00
  13   6     0.05  -0.03  -0.12     0.01  -0.00  -0.02    -0.00   0.00   0.00
  14   6     0.00  -0.00  -0.00     0.00  -0.00  -0.00     0.00  -0.00   0.00
  15   6    -0.00  -0.00  -0.00    -0.00   0.00   0.00    -0.00   0.00   0.00
  16   8    -0.00   0.00   0.00    -0.00  -0.00  -0.00     0.00  -0.00  -0.00
  17   6     0.00  -0.00  -0.00     0.00  -0.00  -0.00    -0.00  -0.00  -0.00
  18   6     0.02  -0.01  -0.06     0.00  -0.00  -0.01    -0.00   0.00   0.00
  19   6     0.07  -0.00  -0.01     0.01  -0.00  -0.00    -0.00   0.00   0.00
  20   6     0.09   0.03   0.12     0.01   0.00   0.01    -0.00  -0.00  -0.00
  21   6    -0.07   0.04   0.14    -0.01   0.00   0.01     0.00  -0.00  -0.00
  22   6    -0.01   0.00   0.00    -0.00  -0.00  -0.00     0.00   0.00   0.00
  23   8     0.00   0.00   0.00    -0.00  -0.00  -0.00    -0.00   0.00   0.00
  24   6    -0.00  -0.00  -0.00     0.01   0.00   0.01     0.00  -0.00  -0.00
  25   6     0.01  -0.01  -0.03    -0.08   0.06   0.25     0.00   0.00  -0.00
  26   6    -0.00  -0.00  -0.00     0.00   0.00   0.00     0.00   0.00  -0.00
  27   6    -0.00   0.00   0.00    -0.02   0.00   0.00    -0.03   0.00   0.01
  28   6     0.00   0.00  -0.00    -0.01  -0.01   0.00     0.02   0.03  -0.01
  29   6     0.00  -0.00   0.00     0.00  -0.00  -0.00    -0.04   0.08   0.00
  30   6     0.01  -0.00  -0.00    -0.01   0.00   0.00    -0.13   0.02   0.03
  31   6    -0.00   0.00   0.00    -0.00  -0.00   0.00    -0.00  -0.00   0.00
  32   1     0.00  -0.00  -0.00     0.00  -0.00  -0.00     0.02  -0.02  -0.00
  33   1    -0.00  -0.00  -0.00    -0.00  -0.00  -0.00     0.00   0.00   0.00
  34   1     0.00   0.00  -0.00     0.00   0.00  -0.00    -0.02  -0.03   0.01
  35   1     0.00   0.00  -0.00    -0.00   0.00   0.00     0.00   0.00  -0.00
  36   1     0.00   0.00  -0.00     0.00   0.00  -0.00    -0.02  -0.03   0.01
  37   1     0.00  -0.00   0.00     0.00  -0.00  -0.00     0.01  -0.02  -0.00
  38   1    -0.02   0.00   0.00     0.01  -0.00  -0.00    -0.59   0.01   0.12
  39   1    -0.00  -0.01   0.00    -0.01  -0.01   0.00    -0.19  -0.33   0.07
  40   1    -0.00   0.01   0.00     0.01  -0.03  -0.00     0.07  -0.12  -0.00
  41   1     0.01  -0.00  -0.00     0.04  -0.00  -0.01    -0.21   0.00   0.04
  42   1     0.11   0.03   0.12     0.04   0.01   0.05     0.00   0.00   0.00
  43   1    -0.15   0.10   0.42    -0.02   0.01   0.05     0.00  -0.00  -0.00
  44   1    -0.08   0.05   0.20    -0.01   0.00   0.02     0.00  -0.00  -0.00
  45   1    -0.22   0.01   0.03    -0.02   0.00   0.00     0.00  -0.00  -0.00
  46   1    -0.30  -0.10  -0.41    -0.02  -0.01  -0.03     0.00   0.00   0.00
  47   1     0.23  -0.12  -0.49     0.02  -0.01  -0.05    -0.00   0.00   0.00
  48   1    -0.03   0.02   0.09     0.29  -0.22  -0.88    -0.00   0.00   0.00
  49   1     0.01  -0.00  -0.00     0.05  -0.01  -0.01     0.11  -0.01  -0.03
  50   1    -0.01  -0.01   0.00     0.02   0.03  -0.01    -0.07  -0.10   0.03
  51   1    -0.00   0.00   0.00    -0.00   0.01   0.00     0.12  -0.26  -0.00
  52   1    -0.03   0.00   0.01     0.02  -0.00  -0.00     0.47  -0.06  -0.10
                    148                    149                    150
                        a                      a                      a 
 Frequencies --  3106.3704              3112.9517              3114.6950
 Red. masses --     1.8729                 1.8709                 1.8619
 Frc consts  --     0.0000                 0.0000                 0.0000
 IR Inten    --   434.6025                30.6765                19.0308
 Raman Activ --     0.0000                 0.0000                 0.0000
 Depolar     --     0.0000                 0.0000                 0.0000
 Atom AN      X      Y      Z        X      Y      Z        X      Y      Z
   1   6    -0.01   0.00   0.00    -0.00  -0.00   0.00     0.00  -0.00  -0.00
   2   6    -0.00   0.00   0.00    -0.00   0.00  -0.00     0.00   0.00  -0.00
   3   6    -0.01   0.00  -0.00    -0.00  -0.00   0.00     0.00  -0.00  -0.00
   4   6    -0.00   0.00  -0.00    -0.00   0.00   0.00     0.00   0.00  -0.00
   5   6    -0.13   0.00   0.03    -0.03   0.00   0.01     0.01  -0.00  -0.00
   6   6    -0.04  -0.08   0.02    -0.03  -0.04   0.01     0.00   0.01  -0.00
   7   6     0.02  -0.03  -0.00     0.05  -0.09  -0.00    -0.01   0.01   0.00
   8   6    -0.05   0.00   0.01     0.24  -0.00  -0.05    -0.03   0.00   0.01
   9   6    -0.00  -0.00   0.00     0.00   0.00  -0.00    -0.00  -0.00   0.00
  10   7    -0.00  -0.00   0.00     0.00   0.00  -0.00    -0.00   0.00   0.00
  11   6     0.00  -0.00  -0.00    -0.00   0.00   0.00     0.00   0.00  -0.00
  12   6    -0.00  -0.00  -0.00    -0.00  -0.00  -0.00     0.00   0.00   0.00
  13   6     0.00  -0.00  -0.01     0.00  -0.00  -0.00    -0.00   0.00   0.00
  14   6     0.00   0.00   0.00     0.00  -0.00   0.00    -0.00   0.00   0.00
  15   6     0.00  -0.00  -0.00    -0.00  -0.00  -0.00     0.00  -0.00   0.00
  16   8    -0.00   0.00   0.00    -0.00  -0.00   0.00     0.00  -0.00  -0.00
  17   6     0.00   0.00   0.00     0.00   0.00   0.00    -0.00  -0.00  -0.00
  18   6     0.00  -0.00  -0.00     0.00  -0.00  -0.00    -0.00   0.00   0.00
  19   6     0.00  -0.00  -0.00     0.00  -0.00  -0.00    -0.00   0.00   0.00
  20   6     0.00   0.00   0.00     0.00   0.00   0.00    -0.00  -0.00  -0.00
  21   6    -0.00   0.00   0.00    -0.00   0.00   0.00     0.00  -0.00  -0.00
  22   6    -0.00  -0.00  -0.00    -0.00  -0.00  -0.00     0.00   0.00   0.00
  23   8     0.00  -0.00  -0.00    -0.00  -0.00  -0.00    -0.00  -0.00  -0.00
  24   6     0.00   0.00  -0.00     0.00   0.00   0.00    -0.00  -0.00  -0.00
  25   6     0.00  -0.00  -0.01    -0.00   0.00   0.01     0.01  -0.00  -0.02
  26   6     0.00   0.00  -0.00    -0.00   0.00   0.00    -0.00   0.01   0.00
  27   6    -0.04   0.00   0.01    -0.03   0.00   0.01    -0.25   0.03   0.06
  28   6     0.03   0.04  -0.01    -0.01  -0.01   0.00    -0.05  -0.07   0.02
  29   6    -0.05   0.10   0.00     0.00  -0.00  -0.00     0.02  -0.03  -0.00
  30   6    -0.18   0.02   0.04     0.00  -0.00  -0.00     0.02  -0.00  -0.01
  31   6    -0.00  -0.00   0.00     0.00   0.00  -0.00     0.00  -0.00  -0.00
  32   1     0.02  -0.03  -0.00     0.00  -0.00  -0.00    -0.00   0.00   0.00
  33   1    -0.01   0.00  -0.00    -0.00  -0.00  -0.00     0.00   0.00   0.00
  34   1     0.02   0.02  -0.01     0.00   0.00  -0.00    -0.00  -0.00   0.00
  35   1    -0.00   0.00   0.01    -0.00   0.00   0.00     0.00   0.00  -0.00
  36   1     0.02   0.02  -0.01     0.00   0.00  -0.00    -0.00  -0.00   0.00
  37   1     0.02  -0.02  -0.00     0.00  -0.00   0.00    -0.00   0.00   0.00
  38   1     0.45  -0.00  -0.10     0.12  -0.00  -0.02    -0.02   0.00   0.00
  39   1     0.14   0.25  -0.06     0.09   0.14  -0.03    -0.01  -0.02   0.00
  40   1    -0.05   0.09   0.00    -0.17   0.29   0.00     0.02  -0.04  -0.00
  41   1     0.17  -0.00  -0.03    -0.85   0.02   0.17     0.10  -0.00  -0.02
  42   1     0.00   0.00   0.00     0.01   0.00   0.01    -0.01  -0.00  -0.01
  43   1    -0.01   0.00   0.02    -0.00   0.00   0.00     0.00  -0.00  -0.00
  44   1    -0.00   0.00   0.01    -0.00   0.00   0.00     0.00  -0.00  -0.00
  45   1    -0.01   0.00   0.00    -0.00   0.00   0.00     0.00  -0.00  -0.00
  46   1    -0.00  -0.00  -0.01    -0.00  -0.00  -0.00     0.00   0.00   0.00
  47   1     0.00  -0.00  -0.01     0.00  -0.00  -0.01    -0.00   0.00   0.01
  48   1    -0.01   0.00   0.02     0.01  -0.01  -0.04    -0.02   0.01   0.06
  49   1     0.16  -0.02  -0.04     0.11  -0.01  -0.02     0.87  -0.10  -0.20
  50   1    -0.09  -0.12   0.04     0.02   0.03  -0.01     0.16   0.23  -0.07
  51   1     0.15  -0.33  -0.00    -0.00   0.01   0.00    -0.05   0.11   0.00
  52   1     0.61  -0.08  -0.13    -0.00   0.00   0.00    -0.08   0.01   0.02
