52
 energy: -81.722601848198 gnorm: 0.000036828979 xtb: 6.7.1 (edcfbbe)
C           -5.05468221064186        0.31887992456933        1.79320448413254
C           -4.46619433199809        0.14183082582189        0.37793719341333
C           -5.60382106211170        0.08001038061218       -0.66253822117678
C           -3.69702371646074       -1.15811157048668        0.33474979230060
C           -4.34838711782404       -2.35623069586778        0.59527370795659
C           -3.68223839030607       -3.56817991483316        0.57970779899031
C           -2.32050381687443       -3.60272300688283        0.30459415052688
C           -1.64675494798531       -2.43371627284238        0.04121147738133
C           -2.32006477683785       -1.19961126010581        0.04394785243620
N           -1.62067578057513       -0.04861639942043       -0.23133902186642
C           -0.22776271307941       -0.13853145041604       -0.51783720898534
C            0.21629390074532       -0.45925345590496       -1.79956092508747
C            1.56166598035885       -0.53463234876712       -2.06159617555693
C            2.52040310819030       -0.28968608430775       -1.04860240961237
C            3.92326234072607       -0.36317922770575       -1.32299965407880
O            4.38236268253935       -0.64938441257931       -2.47404065393826
C            4.78884708809148       -0.08875730140962       -0.19335801605438
C            6.18691872500055       -0.12387443653367       -0.32099076613464
C            7.00114700408115        0.14245872054117        0.75959601074833
C            6.44886999310988        0.45002267320567        1.99361289205890
C            5.06758577401785        0.49010930567496        2.14416539113121
C            4.24449530164426        0.22355658560334        1.06420249115760
O            2.89400542779306        0.28087037917364        1.28729503232094
C            2.04898599579525        0.02985930404230        0.24398619924464
C            0.69792281645362        0.10650636745090        0.50806559644089
C           -2.22004065793621        1.18875707005379       -0.23382169823420
C           -1.45466568106507        2.32548476189560       -0.54761132143695
C           -2.02262137348322        3.57740226162178       -0.54793252093385
C           -3.36950934742078        3.72493697792859       -0.23928791034549
C           -4.13147163235090        2.60926721555771        0.05647119236947
C           -3.58861830633534        1.33129721961398        0.06395332427618
H           -5.63363679401560        1.23494246522381        1.85543102711515
H           -4.25222093939356        0.36649813816828        2.52666234584114
H           -5.70353948974193       -0.51385289508096        2.04568891467610
H           -5.18951715467249       -0.05071340995728       -1.66020257375779
H           -6.26930359688342       -0.75168598877936       -0.45379067270797
H           -6.18648004413607        0.99569413387676       -0.64868339264153
H           -5.40336622946457       -2.35036845963691        0.81828039777347
H           -4.21831595448547       -4.48159920588684        0.78587857458451
H           -1.78789250593860       -4.54114476934935        0.29738131225123
H           -0.58945676035912       -2.45438273153425       -0.16909943875721
H           -0.50353493707408       -0.64224543468558       -2.58335572048703
H            1.93415081140584       -0.77788447713984       -3.04464702538041
H            6.59546362381672       -0.36513204952528       -1.29115297049223
H            8.07409574476658        0.11021166442674        0.63876684040332
H            7.08387664145927        0.65893431638101        2.84059168523268
H            4.61374339727072        0.72685736439095        3.09423676897699
H            0.36572494863568        0.35329337338365        1.50413958245293
H           -0.41156098529539        2.20538647483224       -0.79231820757112
H           -1.41945128942808        4.43885016920651       -0.78995194817446
H           -3.82208968604403        4.70443242804862       -0.23511269071316
H           -5.17655417534654        2.74430262100765        0.28534777436979
