94
 energy: -139.236747121328 gnorm: 0.000033561060 xtb: 6.7.1 (edcfbbe)
C            6.28341313105901        0.24850064653065       -0.41684325514867
C            5.67503625594207       -1.04795895853050        0.15213199573568
C            6.78645436456831       -1.96934068699875        0.69116059925496
C            4.94139836096832       -1.75851095046637       -0.96653690471478
C            5.64903200582124       -2.15976325826781       -2.09254834558421
C            5.03308356861119       -2.76547886935135       -3.17148669593399
C            3.66239081396348       -2.95923539675461       -3.14504013817988
C            2.93677872275640       -2.57418162587751       -2.03861431008431
C            3.56052577207121       -1.99450454788895       -0.92688589528043
N            2.81144230679776       -1.66344210150027        0.19395513494113
C            1.39815955221540       -1.69339855174481        0.12423524640266
C            0.69320960179645       -2.89826943962401        0.06549889398510
C           -0.67944838486755       -2.90169316533415       -0.06072312668770
C           -1.39027265123468       -1.70036036710374       -0.12103180591110
N           -2.80369799267474       -1.67745121345800       -0.19044983697982
C           -3.55084672426870       -2.01042595743160        0.93110727407448
C           -2.92400560470914       -2.58551882326965        2.04347262403253
C           -3.64743998087019       -2.97238677274594        3.15068898488915
C           -5.01900286584714       -2.78494406904626        3.17735031855744
C           -5.63816030357995       -2.18374533879781        2.09772304599170
C           -4.93280900433992       -1.78088206151477        0.97085702851943
C           -5.67022325153612       -1.07571066225948       -0.14874608934217
C           -6.77724902865244       -2.00345321611275       -0.68593857269841
C           -6.28506553151258        0.21856478698742        0.41824693419547
C           -4.74578762396848       -0.71875509526198       -1.29306580655120
C           -5.25691730856897       -0.06972977442832       -2.40942418727418
C           -4.46936587973226        0.24121563370101       -3.50242727737596
C           -3.13457218025361       -0.12995733526950       -3.50419141328860
C           -2.60267735338212       -0.77297310641816       -2.40851722890724
C           -3.38392179197552       -1.04563826875451       -1.27763862057781
C           -0.71334323998415       -0.46792224483512       -0.06224652082187
N           -1.36302598654045        0.69452495935911       -0.08922446271621
C           -0.70654661577947        1.85719336795350       -0.01320327578960
C           -1.53520914249573        3.06032283777287        0.06001334507802
C           -2.70097326979976        3.12395553133182       -0.70463698595655
C           -3.52022643580110        4.23435316523658       -0.64042320455224
C           -3.19591681708703        5.29194333333537        0.19469259655688
C           -2.05281114782813        5.22525100134748        0.97664693118135
C           -1.22840198934070        4.11818783528652        0.91590593354030
C            0.69710462080808        1.86063554253686        0.01175143104682
C            1.51998599406914        3.06764148258208       -0.06285826639351
C            1.20808528742250        4.12315162007231       -0.91982173364206
C            2.02738710854743        5.23392108419178       -0.98197972974281
C            3.17037980306459        5.30673225334473       -0.20040652026184
C            3.49970825575335        4.25160826376652        0.63586332987759
C            2.68557509722458        3.13753875937566        0.70152246902951
N            1.35923091764259        0.70125760806653        0.08914190274457
C            0.71521060510409       -0.46436511823201        0.06367512526283
C            3.38827782880565       -1.02708985203083        1.28031239892064
C            2.60541099941630       -0.75624981649616        2.41050609066174
C            3.13390276320422       -0.10888258631739        3.50526617340126
C            4.46692549204067        0.26857660731214        3.50333297299297
C            5.25628060676796       -0.04046749219621        2.41109229867694
C            4.74857296562453       -0.69370374055476        1.29563417047532
H            5.49273012594750        0.88680497618976       -0.80757829162376
H            6.97720594772512        0.02835055779238       -1.22307854527518
H            6.81783168483586        0.79569101770001        0.35421957861362
H            7.48432271064359       -2.23554290731578       -0.09711271458434
H            6.34931801363727       -2.88398820312040        1.08795998965518
H            7.34130278171525       -1.48064807022359        1.48659337041448
H            6.71374656116225       -1.99064709478377       -2.13660794456710
H            5.61407172286412       -3.06799116069207       -4.02935815450086
H            3.15477544483426       -3.40747517297652       -3.98631332050839
H            1.86768295022168       -2.71505724557728       -2.03562752232280
H            1.23979777638689       -3.82743606296767        0.12298565906055
H           -1.22155094766214       -3.83356930155894       -0.11692349294961
H           -1.85426576909995       -2.72140665612222        2.04033333759522
H           -3.13744455444527       -3.41704283991510        3.99242027630937
H           -5.59827239668168       -3.08886823830320        4.03588540518575
H           -6.70364145878109       -2.01956931371514        2.14191606580824
H           -7.47390416085911       -2.27125516668089        0.10286659493763
H           -7.33433864295573       -1.51903492577137       -1.48241272849068
H           -6.33587223907199       -2.91688242389044       -1.08082326797383
H           -6.82249261350962        0.76170332896977       -0.35358954956586
H           -5.49765983180778        0.86163624939174        0.80775420892949
H           -6.97753093836846       -0.00382387057310        1.22501041111243
H           -6.30032135912089        0.20453496578109       -2.43233439017815
H           -4.89563156197981        0.75534658540586       -4.35047764584344
H           -2.50801127238439        0.07872081623615       -4.35897617796006
H           -1.56641447683713       -1.07519983312039       -2.42199845257923
H           -2.94559071395192        2.29196714848999       -1.34884874117485
H           -4.41573597346253        4.27405096446476       -1.24361230739064
H           -3.83488794928734        6.16132873391148        0.24343891748858
H           -1.80504645507941        6.03879418039821        1.64306916270293
H           -0.34818827232908        4.06395785037376        1.54042299692284
H            0.32799818709099        4.06419461442692       -1.54409653423527
H            1.77574908500088        6.04557087263193       -1.64925536789724
H            3.80535643624144        6.17897588072173       -0.25029587265631
H            4.39512715122843        4.29610459959361        1.23885591322242
H            2.93413886732979        2.30742225279990        1.34664989423805
H            1.57054503428345       -1.06320453698863        2.42421624868548
H            2.50606577619448        0.09827447624283        4.35948388495105
H            4.89049379898077        0.78609559400939        4.35067323146717
H            6.29837677888305        0.23871726708242        2.43385660908216
