62
 energy: -101.903717185242 gnorm: 0.000149529596 xtb: 6.7.1 (edcfbbe)
O           -0.15559954982465       -4.00571957528612        1.34815245111655
C           -0.90861742788537       -3.25977941459455        0.68074390215698
C           -2.17529327033681       -3.68091999335695        0.18537661865155
C           -2.98301919918968       -3.05296850151521       -0.79988822184332
N           -4.12252999287225       -3.53228395225110       -1.20864366757662
C           -4.56132939380873       -4.68188809966557       -0.70119550013591
N           -3.84209459437958       -5.38034629454482        0.17340463340499
C           -2.70413569934298       -4.94242807798010        0.59919043929340
C           -0.45584083276216       -1.87810602510316        0.37830610455002
C           -1.31894612334279       -0.78237515344975        0.39676154238499
C           -0.81917261081337        0.49740170684496        0.17781761462972
N           -1.67877085995440        1.60115791812952        0.24960517033311
C           -2.87898783733530        1.74502924972747       -0.41756311760851
C           -3.46985371975135        0.91869286473563       -1.36202675606528
C           -4.67932023394682        1.31320810655638       -1.90175613683784
C           -5.28619635137409        2.50809435976636       -1.52372352383941
C           -4.68878273276588        3.35030448375286       -0.60460457065583
C           -3.47593679208665        2.97224676128542       -0.04737818150813
C           -2.58629945161696        3.58930068546778        0.89900187287874
C           -2.63062528799530        4.77593477951853        1.61616191808055
C           -1.59268793392090        5.06437328304680        2.48225226385454
C           -0.53028428580649        4.17961410975985        2.64761189589692
C           -0.46417198920975        2.99156979077772        1.94386147374651
C           -1.49110368425576        2.70861898278317        1.05455082334157
C            0.54023409069083        0.69840853297882       -0.04144255926359
C            1.40545782263157       -0.39272702106299       -0.02793313356381
N            2.77573845760464       -0.20575344443790       -0.23311462948224
C            3.35140748203272        0.52767165166354       -1.25151507825066
C            2.75122025978248        1.20268529419998       -2.30535224953888
C            3.57376598063991        1.84872412780800       -3.20955681478510
C            4.95965645482085        1.82002867708220       -3.08039085105647
C            5.56401928348822        1.12737587480792       -2.04741676250518
C            4.75931014054690        0.47125312042726       -1.12823228839306
C            5.03618100652049       -0.34133827428619        0.02607540573027
C            6.20801979252085       -0.74050735716757        0.65156605955981
C            6.11681129103723       -1.52805773682681        1.78442222504807
C            4.87863853638756       -1.90280048015746        2.29960469056322
C            3.69706855867022       -1.51525308309509        1.69536461676447
C            3.78404157073489       -0.74478263408736        0.54390924482415
C            0.90785663527435       -1.67270735027286        0.17529059101150
H           -2.64532128905903       -2.14754761058726       -1.28798908006682
H           -5.51292117370417       -5.06658638236439       -1.02305005768242
H           -2.12497346077057       -5.53988723999071        1.29175071388456
H           -2.36119914526741       -0.90227073141777        0.65016558988713
H           -2.99815385231129        0.00147173307044       -1.67797683607559
H           -5.16086405789287        0.68125566084735       -2.63249146247516
H           -6.23291843219515        2.78156335391856       -1.96452024107893
H           -5.15098196832922        4.28503230630564       -0.32600469179934
H           -3.46181449790772        5.45460071469765        1.50029384123869
H           -1.60679780994483        5.98369507596558        3.04805126411166
H            0.25800651102483        4.42411429250964        3.34374312073593
H            0.35354757585768        2.30348389655413        2.09515640302210
H            0.92177303534288        1.69553400385017       -0.19548416965176
H            1.67898923575297        1.21310442739798       -2.42842719214977
H            3.13069201596804        2.38323774178343       -4.03649972359414
H            5.56825092664688        2.33874597791362       -3.80568152395799
H            6.63897241249239        1.09169709912069       -1.95771828177436
H            7.16776904502546       -0.43807977497205        0.26112367506747
H            7.01697446685307       -1.85295036408018        2.28415361364178
H            4.83849783567399       -2.50838772693777        3.19228139357785
H            2.74395695749086       -1.80253154236600        2.11120440029406
H            1.56818543322726       -2.52547482509912        0.15899697627496
