112
 energy: -165.566883386794 gnorm: 0.000092639439 xtb: 6.7.1 (edcfbbe)
C           -6.78571432861487        6.23816357864806        0.55692855635515
C           -5.46439944109593        5.64948126482243        0.03996983946420
C           -4.31753462089557        6.02666055124948        0.98976483079900
C           -5.17155515235099        6.26412650365524       -1.33204035865981
C           -5.58487937105448        4.13432016087632       -0.01061499838053
C           -5.43436085454055        3.40190990708036       -1.18315979593740
C           -5.55225353805787        2.02299593414144       -1.19261273859254
C           -5.82451857641003        1.33876324426256       -0.01525390799163
N           -5.94875774453556       -0.06703182135139       -0.02081645055796
C           -4.89754282884128       -1.00107170826556       -0.09909490119189
C           -3.52032334914327       -0.75246735979975       -0.09965064394522
C           -2.64598664829910       -1.86497725410020       -0.31962902131396
C           -1.29726155970581       -1.72569149219683       -0.33832148319180
C           -0.66493955986277       -0.46302382433098       -0.14349039216557
C            0.75478172555757       -0.30988617714976       -0.17259613078097
C            1.36616228112088        0.94960734503845       -0.39430610202811
C            2.72845705165745        1.10153882738807       -0.40998066281091
C            3.56960257902266        0.00050332708145       -0.21077643884852
N            4.97784955344996        0.11720870478411       -0.23347163058147
C            5.66492242445365       -0.42619886162699       -1.30943581780798
C            4.97396219256937       -0.79185729673169       -2.46987877180539
C            5.65220237582297       -1.27911038251232       -3.56722332424020
C            7.03326703039531       -1.39459434765514       -3.53720759157790
C            7.72404193763335       -1.03123664653395       -2.39434369113185
C            7.05980815895769       -0.55184631759340       -1.27497659577384
C            7.79809636751383       -0.24394580614052        0.00908884416582
C            9.21720551178543        0.19461860013912       -0.31686272123545
C           10.33588652493947       -0.54790672426410        0.03221381643130
C           11.60528689904246       -0.10634037178861       -0.30644919641329
C           11.77202208505974        1.07816192604871       -1.00132184306658
C           10.65886178308931        1.81973349723471       -1.36448700953383
C            9.39325744721540        1.37969142208287       -1.02689430656562
C            7.78130058374218       -1.48099367475860        0.91810332939726
C            7.43084243668308       -2.73603457602518        0.43660577113401
C            7.41963042801234       -3.83877675995960        1.27488368587904
C            7.76089807110449       -3.70767880290416        2.60890853870103
C            8.11905097755947       -2.46225892129713        3.09719936739643
C            8.12753615309076       -1.36122017441044        2.26042368589651
C            7.05491797086975        0.84841807612973        0.75517506720020
C            7.72175675577217        1.72075191496476        1.60227395310777
C            7.03104036759176        2.58878554296859        2.43052299031713
C            5.64630708329861        2.55332520066856        2.44870742406684
C            4.96259627027880        1.71493710768152        1.59293695737320
C            5.65270021313578        0.89065487668071        0.69822508845404
C            2.99248633411479       -1.26047348817017       -0.02048389289069
C            1.63094801525550       -1.40965095366166        0.00729945152554
C           -1.53714402846526        0.63670258956501        0.09644088714157
C           -2.89007100131738        0.50694696845574        0.12653391000857
N           -5.39349698736652       -2.25424136068819       -0.14804635784234
C           -6.71651296887094       -2.14760529175088       -0.08372554975206
C           -7.67552409208288       -3.20344669890863       -0.06676729843962
C           -7.26925673289951       -4.53974153406615       -0.10162143641729
C           -8.19862994020553       -5.55419594225065       -0.06184327679907
C           -9.55027700924500       -5.23261793191419        0.01660092990983
C           -9.96260970109048       -3.91777019455210        0.04813397206454
C           -9.04597212134748       -2.85634968804585        0.00295700857562
C           -9.44988735230192       -1.46217800023429        0.01723460599906
C          -10.79767022646368       -1.08823635988805        0.03442295490422
C          -11.19700157584759        0.22999497389257        0.02959805532660
C          -10.24309332624377        1.24850622166834       -0.00283790760544
C           -8.91111765481679        0.93112410014595       -0.01694728869091
C           -8.47416756395456       -0.41089754660509        0.00111586471709
C           -7.11704424682635       -0.78721165953677       -0.01495001373542
C           -5.97784609640952        2.05407863401731        1.16887069421212
C           -5.85820248723220        3.42913851732676        1.16138681168467
H           -6.72631560657072        7.32414671966656        0.57856228357491
H           -7.01090432604888        5.89037692865207        1.56128576277233
H           -7.60722510891507        5.95055709183313       -0.09652462231500
H           -4.20152823782488        7.10778293007860        1.02280338345759
H           -3.38286462596673        5.58972144452561        0.64339458015224
H           -4.50496946704979        5.67381445287141        2.00015066604147
H           -4.22828768865913        5.89924301931225       -1.73205698139463
H           -5.09860475152483        7.34540679486037       -1.23470302026057
H           -5.96916519264529        6.04462648513957       -2.03822249018375
H           -5.22340677204735        3.89567566582363       -2.11697540294471
H           -5.43016515625433        1.46946002664927       -2.11254283841163
H           -3.10776955998518       -2.82544045817596       -0.48673704031993
H           -0.69002893114014       -2.59379190743662       -0.54494942721596
H            0.74881502753525        1.80901774856168       -0.60351026072889
H            3.16368672859092        2.06886867580413       -0.61812485670673
H            3.90136063653258       -0.68048345104303       -2.50635219097841
H            5.10099226580191       -1.55912897735425       -4.45246715675625
H            7.56939298644477       -1.77120244824409       -4.39485441060159
H            8.79835599579322       -1.13560193276937       -2.36339190585770
H           10.22260529457612       -1.47787958710147        0.56925796573447
H           12.46642670767350       -0.69534536871665       -0.02504483399370
H           12.76251253052311        1.42099806776303       -1.26288437393267
H           10.77769057500234        2.74297878327309       -1.91297700827948
H            8.52705300887223        1.95944433885768       -1.31383552025375
H            7.16602579916779       -2.86611049140302       -0.60189830022991
H            7.14240485217221       -4.80485280540909        0.87774931444267
H            7.75041283445549       -4.56780783960750        3.26232877131420
H            8.39371059127403       -2.34515857761475        4.13562912867266
H            8.41055757435556       -0.39892429750895        2.65872364941794
H            8.80195983871364        1.71575645100236        1.62005652031813
H            7.57125819546998        3.26150313038140        3.07910928759059
H            5.09373027633919        3.18492246059711        3.12822364867543
H            3.88523823178635        1.69085239282232        1.62088662312635
H            3.63861192817112       -2.11334733870494        0.13115364696363
H            1.22237761748226       -2.38653013062875        0.21087966000152
H           -1.11235861814897        1.60621820007070        0.30994274070336
H           -3.49171223358326        1.37166028003005        0.35361149072771
H           -6.21048397400292       -4.74314395594283       -0.15538738157849
H           -7.88551293973472       -6.58734267514003       -0.08782643131337
H          -10.28764510390200       -6.02178987778266        0.05373568427562
H          -11.02086045802763       -3.72056420720060        0.11174255608466
H          -11.56312706205781       -1.84749697057362        0.04633491339642
H          -12.24871977192982        0.47494944773824        0.04345160679846
H          -10.55412085232596        2.28275877107925       -0.01874030635190
H           -8.17768536167748        1.71979859627233       -0.05134414246314
H           -6.19112378846414        1.52423856230451        2.08634549745347
H           -5.98023961705595        3.95588217093513        2.09512508188994
