      -----------------------------------------------------------      
     |                   =====================                   |     
     |                           x T B                           |     
     |                   =====================                   |     
     |                         S. Grimme                         |     
     |          Mulliken Center for Theoretical Chemistry        |     
     |                    University of Bonn                     |     
      -----------------------------------------------------------      

   * xtb version 6.7.1 (edcfbbe) compiled by 'albert@albert-system' on 2024-07-22

   xtb is free software: you can redistribute it and/or modify it under
   the terms of the GNU Lesser General Public License as published by
   the Free Software Foundation, either version 3 of the License, or
   (at your option) any later version.
   
   xtb is distributed in the hope that it will be useful,
   but WITHOUT ANY WARRANTY; without even the implied warranty of
   MERCHANTABILITY or FITNESS FOR A PARTICULAR PURPOSE.  See the
   GNU Lesser General Public License for more details.
   
   Cite this work as:
   * C. Bannwarth, E. Caldeweyher, S. Ehlert, A. Hansen, P. Pracht,
     J. Seibert, S. Spicher, S. Grimme, WIREs Comput. Mol. Sci., 2020, 11,
     e01493. DOI: 10.1002/wcms.1493
   
   for GFN2-xTB:
   * C. Bannwarth, S. Ehlert and S. Grimme., J. Chem. Theory Comput., 2019,
     15, 1652-1671. DOI: 10.1021/acs.jctc.8b01176
   for GFN1-xTB:
   * S. Grimme, C. Bannwarth, P. Shushkov, J. Chem. Theory Comput., 2017,
     13, 1989-2009. DOI: 10.1021/acs.jctc.7b00118
   for GFN0-xTB:
   * P. Pracht, E. Caldeweyher, S. Ehlert, S. Grimme, ChemRxiv, 2019, preprint.
     DOI: 10.26434/chemrxiv.8326202.v1
   for GFN-FF:
   * S. Spicher and S. Grimme, Angew. Chem. Int. Ed., 2020, 59, 15665-15673.
     DOI: 10.1002/anie.202004239
   
   for ALPB and GBSA implicit solvation:
   * S. Ehlert, M. Stahn, S. Spicher, S. Grimme, J. Chem. Theory Comput.,
     2021, 17, 4250-4261. DOI: 10.1021/acs.jctc.1c00471
   
   for ddCOSMO and CPCM-X implicit solvation:
   * M. Stahn, S. Ehlert, S. Grimme, J. Phys. Chem. A,
     2023, XX, XXXX-XXXX. DOI: 10.1021/acs.jpca.3c04382
   
   for DFT-D4:
   * E. Caldeweyher, C. Bannwarth and S. Grimme, J. Chem. Phys., 2017,
     147, 034112. DOI: 10.1063/1.4993215
   * E. Caldeweyher, S. Ehlert, A. Hansen, H. Neugebauer, S. Spicher,
     C. Bannwarth and S. Grimme, J. Chem. Phys., 2019, 150, 154122.
     DOI: 10.1063/1.5090222
   * E. Caldeweyher, J.-M. Mewes, S. Ehlert and S. Grimme, Phys. Chem. Chem. Phys.
     2020, 22, 8499-8512. DOI: 10.1039/D0CP00502A
   
   for sTDA-xTB:
   * S. Grimme and C. Bannwarth, J. Chem. Phys., 2016, 145, 054103.
     DOI: 10.1063/1.4959605
   
   in the mass-spec context:
   * V. Asgeirsson, C. Bauer and S. Grimme, Chem. Sci., 2017, 8, 4879.
     DOI: 10.1039/c7sc00601b
   * J. Koopman and S. Grimme, ACS Omega 2019, 4, 12, 15120-15133.
     DOI: 10.1021/acsomega.9b02011
   
   for metadynamics refer to:
   * S. Grimme, J. Chem. Theory Comput., 2019, 155, 2847-2862
     DOI: 10.1021/acs.jctc.9b00143
   
   for SPH calculations refer to:
   * S. Spicher and S. Grimme, J. Chem. Theory Comput., 2021, 17, 1701-1714
     DOI: 10.1021/acs.jctc.0c01306
   
   for ONIOM refer to:
   * C. Plett, A. Katbashev, S. Ehlert, S. Grimme, M. Bursch,
     Phys. Chem. Chem. Phys., 2023, 25, 17860-17868. DOI: 10.1039/D3CP02178E
   
   for DIPRO refer to:
   * J. Kohn, N. Gildemeister, S. Grimme, D. Fazzi, A. Hansen,
     J. Chem. Phys., 2023, just accepted.
   
   for PTB refer to:
   * S. Grimme, M. Mueller, A. Hansen, J. Chem. Phys., 2023, 158, 124111.
     DOI: 10.1063/5.0137838
   
   with help from (in alphabetical order)
   P. Atkinson, C. Bannwarth, F. Bohle, G. Brandenburg, E. Caldeweyher
   M. Checinski, S. Dohm, S. Ehlert, S. Ehrlich, I. Gerasimov, C. Hölzer
   A. Katbashev, J. Kohn, J. Koopman, C. Lavigne, S. Lehtola, F. März, M. Müller,
   F. Musil, H. Neugebauer, J. Pisarek, C. Plett, P. Pracht, F. Pultar,
   J. Seibert, P. Shushkov, S. Spicher, M. Stahn, M. Steiner, T. Strunk,
   J. Stückrath, T. Rose, and J. Unsleber
   
 * started run on 2025/09/02 at 22:25:23.314     
   ID    Z sym.   atoms
    1    8 O      1, 13
    2    6 C      2, 4-6, 8-12, 15-17, 19-22
    3    7 N      3, 14
    4   16 S      7, 18
    5    1 H      23-30

           -------------------------------------------------
          |                Calculation Setup                |
           -------------------------------------------------

          program call               : xtb data2507/toluene/TPTI/TPTI_toluene_S0_finalOpt.xtbopt.xyz --gfn 2 --uhf 2 --gbsa toluene --ohess vtight --parallel 40 --molden --ceasefiles --namespace data2507/toluene/TPTI/TPTI_toluene_T1_preOpt
          calculation namespace      : data2507/toluene/TPTI/TPTI_toluene_T1_preOpt
          coordinate file            : data2507/toluene/TPTI/TPTI_toluene_S0_finalOpt.xtbopt.xyz
          omp threads                :                    40


           -------------------------------------------------
          |                 G F N 2 - x T B                 |
           -------------------------------------------------

        Reference                      10.1021/acs.jctc.8b01176
      * Hamiltonian:
        H0-scaling (s, p, d)           1.850000    2.230000    2.230000
        zeta-weighting                 0.500000
      * Dispersion:
        s8                             2.700000
        a1                             0.520000
        a2                             5.000000
        s9                             5.000000
      * Repulsion:
        kExp                           1.500000    1.000000
        rExp                           1.000000
      * Coulomb:
        alpha                          2.000000
        third order                    shell-resolved
        anisotropic                    true
        a3                             3.000000
        a5                             4.000000
        cn-shift                       1.200000
        cn-exp                         4.000000
        max-rad                        5.000000

      * Solvation model:               GBSA
        Solvent                        toluene
        Parameter file                 internal GFN2-xTB/GBSA
        Dielectric constant                7.0000E+00
        Reference state                gsolv [1 M gas/solution]
        Free energy shift                  4.5239E-03 Eh       2.8388E+00 kcal/mol
        Temperature                        2.9815E+02 K
        Density                            8.6700E-01 kg/L
        Solvent mass                       9.2140E+01 g/mol
        Interaction kernel             Still
        Born radius scaling (c1)           1.5686E+00
        Born radii integrator          GBOBC
        Born offset                        0.0000E+00 a0       0.0000E+00 AA
        H-bond correction              false
        Ion screening                  false
        Surface tension                    1.0000E-05 Eh       1.5569E+01 dyn/cm
        Grid points                               230 per atom

          ...................................................
          :                      SETUP                      :
          :.................................................:
          :  # basis functions                 108          :
          :  # atomic orbitals                 106          :
          :  # shells                           54          :
          :  # electrons                       106          :
          :  max. iterations                   250          :
          :  Hamiltonian                  GFN2-xTB          :
          :  restarted?                      false          :
          :  GBSA solvation                   true          :
          :  PC potential                    false          :
          :  electronic temp.          300.0000000     K    :
          :  accuracy                    1.0000000          :
          :  -> integral cutoff          0.2500000E+02      :
          :  -> integral neglect         0.1000000E-07      :
          :  -> SCF convergence          0.1000000E-05 Eh   :
          :  -> wf. convergence          0.1000000E-03 e    :
          :  Broyden damping             0.4000000          :
          :  net charge                          0          :
          :  unpaired electrons                  2          :
          ...................................................

 iter      E             dE          RMSdq      gap      omega  full diag
   1    -59.4893711 -0.594894E+02  0.514E+00    0.40       0.0  T
   2    -59.5862634 -0.968923E-01  0.344E+00    0.51       1.0  T
   3    -59.5848365  0.142691E-02  0.216E+00    0.37       1.0  T
   4    -59.6365417 -0.517052E-01  0.125E+00    0.38       1.0  T
   5    -59.6656873 -0.291456E-01  0.300E-01    0.03       1.0  T
   6    -59.6660151 -0.327758E-03  0.202E-01    0.06       1.0  T
   7    -59.6659492  0.658130E-04  0.193E-01    0.03       1.0  T
   8    -59.6666885 -0.739229E-03  0.457E-02    0.03       1.0  T
   9    -59.6667068 -0.183389E-04  0.426E-02    0.04       1.0  T
  10    -59.6667327 -0.259105E-04  0.144E-02    0.03       1.3  T
  11    -59.6667346 -0.184738E-05  0.639E-03    0.03       2.9  T
  12    -59.6667349 -0.349192E-06  0.332E-03    0.03       5.5  T
  13    -59.6667350 -0.726028E-07  0.182E-03    0.03      10.0  T
  14    -59.6667350 -0.541429E-07  0.351E-04    0.03      52.0  T
  15    -59.6667350  0.978265E-08  0.661E-04    0.03      27.6  T

   *** convergence criteria satisfied after 15 iterations ***

         #    Occupation            Energy/Eh            Energy/eV
      -------------------------------------------------------------
         1        2.0000           -0.7456096             -20.2891
       ...           ...                  ...                  ...
        48        2.0000           -0.4174585             -11.3596
        49        2.0000           -0.4162738             -11.3274
        50        2.0000           -0.4102645             -11.1639
        51        2.0000           -0.4029393             -10.9645
        52        1.9998           -0.3976959             -10.8219
        53        1.0002           -0.3810255             -10.3682
        54        0.6548           -0.2897572              -7.8847 (HOMO)
        55        0.3452           -0.2885404              -7.8516 (LUMO)
        56                         -0.2602523              -7.0818
        57                         -0.2282923              -6.2121
        58                         -0.2197127              -5.9787
        59                         -0.2174910              -5.9182
       ...                                ...                  ...
       106                          0.7012280              19.0814
      -------------------------------------------------------------
                  HL-Gap            0.0012168 Eh            0.0331 eV
             Fermi-level           -0.3392538 Eh           -9.2316 eV
 
 transition dipole moment (au) for excitation:          53          54
     X       Y       Z   
  -2.8912  -0.3009  -0.0001  total (au/Debye):    2.907   7.389
 dE (eV)             :    2.484
 oscillator strength :  0.72710E+00

 SCC (total)                   0 d,  0 h,  0 min,  0.112 sec
 SCC setup                      ...        0 min,  0.001 sec (  1.015%)
 Dispersion                     ...        0 min,  0.001 sec (  1.186%)
 classical contributions        ...        0 min,  0.001 sec (  0.488%)
 integral evaluation            ...        0 min,  0.009 sec (  8.261%)
 iterations                     ...        0 min,  0.083 sec ( 73.952%)
 molecular gradient             ...        0 min,  0.005 sec (  4.724%)
 printout                       ...        0 min,  0.012 sec ( 10.290%)

         :::::::::::::::::::::::::::::::::::::::::::::::::::::
         ::                     SUMMARY                     ::
         :::::::::::::::::::::::::::::::::::::::::::::::::::::
         :: total energy             -58.821703222698 Eh    ::
         :: total w/o Gsasa/hb       -58.800543018478 Eh    ::
         :: gradient norm              0.094483807039 Eh/a0 ::
         :: HOMO-LUMO gap              0.033109856092 eV    ::
         ::.................................................::
         :: SCC energy               -59.666975639022 Eh    ::
         :: -> isotropic ES            0.085860913831 Eh    ::
         :: -> anisotropic ES          0.001339625859 Eh    ::
         :: -> anisotropic XC          0.015829224864 Eh    ::
         :: -> dispersion             -0.042453729661 Eh    ::
         :: -> Gsolv                  -0.030417365572 Eh    ::
         ::    -> Gelec               -0.009257161352 Eh    ::
         ::    -> Gsasa               -0.025684084092 Eh    ::
         ::    -> Ghb                  0.000000000000 Eh    ::
         ::    -> Gshift               0.004523879872 Eh    ::
         :: repulsion energy           0.845272416323 Eh    ::
         :: add. restraining           0.000000000000 Eh    ::
         :: total charge               0.000000000001 e     ::
         :::::::::::::::::::::::::::::::::::::::::::::::::::::

      ----------------------------------------------------------- 
     |                   =====================                   |
     |                        A N C O P T                        |
     |                   =====================                   |
     |               Approximate Normal Coordinate               |
     |                Rational Function Optimizer                |
      ----------------------------------------------------------- 

Optimization log is written to '/dev/null'
      ----------------------------------------------------------- 
     |                   =====================                   |
     |                        A N C O P T                        |
     |                   =====================                   |
     |               Approximate Normal Coordinate               |
     |                Rational Function Optimizer                |
      ----------------------------------------------------------- 

          ...................................................
          :                      SETUP                      :
          :.................................................:
          :   optimization level         verytight          :
          :   max. optcycles                   600          :
          :   ANC micro-cycles                  20          :
          :   degrees of freedom                84          :
          :.................................................:
          :   RF solver                   davidson          :
          :   write xtbopt.log                true          :
          :   linear?                        false          :
          :   energy convergence         0.1000000E-06 Eh   :
          :   grad. convergence          0.2000000E-03 Eh/α :
          :   maxmium RF displ.          1.0000000          :
          :   Hlow (freq-cutoff)         0.1000000E-01      :
          :   Hmax (freq-cutoff)         5.0000000          :
          :   S6 in model hess.         20.0000000          :
          ...................................................

generating ANC from exact Hessian ...
Using Lindh-Hessian (1995)
 Shifting diagonal of input Hessian by   9.209660351273369E-003
 Lowest  eigenvalues of input Hessian
    0.000000    0.000000    0.000000    0.000000    0.000000    0.000000
    0.010000    0.011435    0.014469    0.014830    0.016584    0.019180
    0.021043    0.022918    0.026655    0.028937    0.030451    0.033890
 Highest eigenvalues
    2.030550    2.034804    2.083155    2.169727    2.393876    2.403763
 

........................................................................
.............................. CYCLE    1 ..............................
........................................................................

 iter      E             dE          RMSdq      gap      omega  full diag
   1    -59.6667350 -0.596667E+02  0.441E-04    0.03       0.0  T
   2    -59.6667350  0.438982E-07  0.131E-03    0.03      13.9  T
   3    -59.6667350 -0.474959E-07  0.188E-04    0.03      97.4  T
   4    -59.6667350 -0.424002E-09  0.117E-04    0.03     156.1  T
     SCC iter.                  ...        0 min,  0.022 sec
     gradient                   ...        0 min,  0.004 sec
 * total energy  :   -58.8217032 Eh     change       -0.1059667E-07 Eh
   gradient norm :     0.0944730 Eh/α   predicted     0.0000000E+00 (-100.00%)
   displ. norm   :     0.1018445 α      lambda       -0.5786163E-02
   maximum displ.:     0.0451769 α      in ANC's #18, #20, #75, ...

........................................................................
.............................. CYCLE    2 ..............................
........................................................................

 iter      E             dE          RMSdq      gap      omega  full diag
   1    -59.6546553 -0.596547E+02  0.243E-01    0.09       0.0  T
   2    -59.6424478  0.122074E-01  0.700E-01    0.05       1.0  T
   3    -59.6555840 -0.131362E-01  0.117E-01    0.07       1.0  T
   4    -59.6556792 -0.951624E-04  0.828E-02    0.06       1.0  T
   5    -59.6558116 -0.132386E-03  0.839E-03    0.05       2.2  T
   6    -59.6558112  0.327735E-06  0.769E-03    0.05       2.4  T
   7    -59.6558120 -0.790721E-06  0.411E-03    0.05       4.4  T
   8    -59.6558123 -0.253965E-06  0.202E-03    0.05       9.0  T
   9    -59.6558123 -0.673071E-07  0.834E-04    0.05      21.9  T
  10    -59.6558124 -0.120347E-07  0.315E-04    0.05      58.0  T
     SCC iter.                  ...        0 min,  0.029 sec
     gradient                   ...        0 min,  0.004 sec
 * total energy  :   -58.8258463 Eh     change       -0.4143080E-02 Eh
   gradient norm :     0.0477806 Eh/α   predicted    -0.2923101E-02 ( -29.45%)
   displ. norm   :     0.0791037 α      lambda       -0.2472220E-02
   maximum displ.:     0.0404889 α      in ANC's #9, #75, #18, ...

........................................................................
.............................. CYCLE    3 ..............................
........................................................................

 iter      E             dE          RMSdq      gap      omega  full diag
   1    -59.6524628 -0.596525E+02  0.258E-01    0.15       0.0  T
   2    -59.6432294  0.923344E-02  0.600E-01    0.02       1.0  T
   3    -59.6532494 -0.100201E-01  0.165E-01    0.11       1.0  T
   4    -59.6535276 -0.278155E-03  0.109E-01    0.11       1.0  T
   5    -59.6537544 -0.226835E-03  0.179E-02    0.09       1.0  T
   6    -59.6537539  0.498788E-06  0.128E-02    0.09       1.4  T
   7    -59.6537565 -0.260954E-05  0.733E-03    0.09       2.5  T
   8    -59.6537572 -0.616563E-06  0.384E-03    0.09       4.8  T
   9    -59.6537573 -0.181936E-06  0.194E-03    0.09       9.4  T
  10    -59.6537574 -0.110089E-06  0.427E-04    0.09      42.7  T
  11    -59.6537574 -0.307281E-08  0.197E-04    0.09      92.8  T
     SCC iter.                  ...        0 min,  0.032 sec
     gradient                   ...        0 min,  0.004 sec
 * total energy  :   -58.8272612 Eh     change       -0.1414880E-02 Eh
   gradient norm :     0.0203924 Eh/α   predicted    -0.1243955E-02 ( -12.08%)
   displ. norm   :     0.0254978 α      lambda       -0.3050348E-03
   maximum displ.:     0.0140752 α      in ANC's #82, #14, #29, ...

........................................................................
.............................. CYCLE    4 ..............................
........................................................................

 iter      E             dE          RMSdq      gap      omega  full diag
   1    -59.6547276 -0.596547E+02  0.125E-01    0.15       0.0  T
   2    -59.6540221  0.705498E-03  0.172E-01    0.08       1.0  T
   3    -59.6548820 -0.859899E-03  0.772E-02    0.13       1.0  T
   4    -59.6549665 -0.844406E-04  0.416E-02    0.12       1.0  T
   5    -59.6549961 -0.296805E-04  0.738E-03    0.12       2.5  T
   6    -59.6549963 -0.181406E-06  0.364E-03    0.12       5.0  T
   7    -59.6549966 -0.284641E-06  0.158E-03    0.12      11.6  T
   8    -59.6549966 -0.266315E-07  0.709E-04    0.12      25.7  T
   9    -59.6549966 -0.315899E-08  0.223E-04    0.12      81.9  T
     SCC iter.                  ...        0 min,  0.027 sec
     gradient                   ...        0 min,  0.004 sec
 * total energy  :   -58.8275084 Eh     change       -0.2471889E-03 Eh
   gradient norm :     0.0179286 Eh/α   predicted    -0.1526242E-03 ( -38.26%)
   displ. norm   :     0.0554561 α      lambda       -0.5767451E-03
   maximum displ.:     0.0327808 α      in ANC's #82, #14, #35, ...

........................................................................
.............................. CYCLE    5 ..............................
........................................................................

 iter      E             dE          RMSdq      gap      omega  full diag
   1    -59.6582319 -0.596582E+02  0.125E-01    0.26       0.0  T
   2    -59.6583161 -0.842265E-04  0.679E-02    0.21       1.0  T
   3    -59.6583619 -0.457588E-04  0.508E-02    0.24       1.0  T
   4    -59.6583824 -0.205322E-04  0.286E-02    0.23       1.0  T
   5    -59.6583968 -0.144399E-04  0.796E-03    0.23       2.3  T
   6    -59.6583973 -0.497888E-06  0.388E-03    0.23       4.7  T
   7    -59.6583977 -0.337948E-06  0.140E-03    0.23      13.0  T
   8    -59.6583976  0.487654E-07  0.153E-03    0.23      11.9  T
   9    -59.6583977 -0.595777E-07  0.567E-04    0.23      32.2  T
  10    -59.6583977 -0.531706E-08  0.152E-04    0.23     120.0  T
     SCC iter.                  ...        0 min,  0.029 sec
     gradient                   ...        0 min,  0.004 sec
 * total energy  :   -58.8277254 Eh     change       -0.2169842E-03 Eh
   gradient norm :     0.0145026 Eh/α   predicted    -0.2892770E-03 (  33.32%)
   displ. norm   :     0.0191404 α      lambda       -0.1681569E-03
   maximum displ.:     0.0092851 α      in ANC's #82, #9, #29, ...

........................................................................
.............................. CYCLE    6 ..............................
........................................................................

 iter      E             dE          RMSdq      gap      omega  full diag
   1    -59.6574163 -0.596574E+02  0.277E-02    0.19       0.0  T
   2    -59.6574106  0.571755E-05  0.272E-02    0.20       1.0  T
   3    -59.6574263 -0.157446E-04  0.118E-02    0.19       1.6  T
   4    -59.6574273 -0.919441E-06  0.570E-03    0.19       3.2  T
   5    -59.6574277 -0.474940E-06  0.128E-03    0.19      14.2  T
   6    -59.6574277 -0.124286E-07  0.737E-04    0.19      24.8  T
   7    -59.6574278 -0.132093E-07  0.195E-04    0.19      93.5  T
     SCC iter.                  ...        0 min,  0.021 sec
     gradient                   ...        0 min,  0.004 sec
 * total energy  :   -58.8278213 Eh     change       -0.9593310E-04 Eh
   gradient norm :     0.0065919 Eh/α   predicted    -0.8435371E-04 ( -12.07%)
   displ. norm   :     0.0085557 α      lambda       -0.4319318E-04
   maximum displ.:     0.0037135 α      in ANC's #75, #18, #9, ...

........................................................................
.............................. CYCLE    7 ..............................
........................................................................

 iter      E             dE          RMSdq      gap      omega  full diag
   1    -59.6575400 -0.596575E+02  0.172E-02    0.20       0.0  T
   2    -59.6575365  0.350675E-05  0.183E-02    0.20       1.0  T
   3    -59.6575431 -0.661939E-05  0.637E-03    0.20       2.9  T
   4    -59.6575434 -0.314792E-06  0.225E-03    0.20       8.1  T
   5    -59.6575435 -0.261036E-07  0.932E-04    0.20      19.6  T
   6    -59.6575435 -0.252432E-07  0.271E-04    0.20      67.3  T
     SCC iter.                  ...        0 min,  0.018 sec
     gradient                   ...        0 min,  0.004 sec
 * total energy  :   -58.8278501 Eh     change       -0.2881094E-04 Eh
   gradient norm :     0.0025490 Eh/α   predicted    -0.2181673E-04 ( -24.28%)
   displ. norm   :     0.0067952 α      lambda       -0.1132453E-04
   maximum displ.:     0.0030322 α      in ANC's #14, #20, #29, ...

........................................................................
.............................. CYCLE    8 ..............................
........................................................................

 iter      E             dE          RMSdq      gap      omega  full diag
   1    -59.6576024 -0.596576E+02  0.105E-02    0.21       0.0  T
   2    -59.6576016  0.877356E-06  0.101E-02    0.21       1.8  T
   3    -59.6576034 -0.188272E-05  0.430E-03    0.21       4.2  T
   4    -59.6576036 -0.146969E-06  0.165E-03    0.21      11.0  T
   5    -59.6576036 -0.990689E-08  0.961E-04    0.21      19.0  T
   6    -59.6576036 -0.244780E-07  0.472E-04    0.21      38.7  T
     SCC iter.                  ...        0 min,  0.018 sec
     gradient                   ...        0 min,  0.004 sec
 * total energy  :   -58.8278568 Eh     change       -0.6666971E-05 Eh
   gradient norm :     0.0006709 Eh/α   predicted    -0.5704773E-05 ( -14.43%)
   displ. norm   :     0.0061471 α      lambda       -0.1364802E-05
   maximum displ.:     0.0031193 α      in ANC's #14, #35, #20, ...

........................................................................
.............................. CYCLE    9 ..............................
........................................................................

 iter      E             dE          RMSdq      gap      omega  full diag
   1    -59.6575811 -0.596576E+02  0.443E-03    0.21       0.0  T
   2    -59.6575811  0.114322E-07  0.292E-03    0.21       6.3  T
   3    -59.6575811  0.669040E-09  0.253E-03    0.21       7.2  T
   4    -59.6575811 -0.701915E-07  0.691E-04    0.21      26.4  T
   5    -59.6575811 -0.115259E-07  0.253E-04    0.21      72.1  T
     SCC iter.                  ...        0 min,  0.015 sec
     gradient                   ...        0 min,  0.004 sec
 * total energy  :   -58.8278578 Eh     change       -0.1061451E-05 Eh
   gradient norm :     0.0003741 Eh/α   predicted    -0.6992419E-06 ( -34.12%)
   displ. norm   :     0.0018432 α      lambda       -0.1805392E-06
   maximum displ.:     0.0011951 α      in ANC's #1, #35, #18, ...

........................................................................
.............................. CYCLE   10 ..............................
........................................................................

 iter      E             dE          RMSdq      gap      omega  full diag
   1    -59.6575692 -0.596576E+02  0.203E-03    0.21       0.0  T
   2    -59.6575691  0.407929E-07  0.202E-03    0.21       9.0  T
   3    -59.6575692 -0.765552E-07  0.873E-04    0.21      20.9  T
   4    -59.6575692 -0.474220E-08  0.256E-04    0.21      71.4  T
     SCC iter.                  ...        0 min,  0.012 sec
     gradient                   ...        0 min,  0.004 sec
 * total energy  :   -58.8278580 Eh     change       -0.1722061E-06 Eh
   gradient norm :     0.0001427 Eh/α   predicted    -0.1008143E-06 ( -41.46%)
   displ. norm   :     0.0012208 α      lambda        0.1205441E-06
   maximum displ.:     0.0007274 α      in ANC's #35, #1, #18, ...

........................................................................
.............................. CYCLE   11 ..............................
........................................................................

 iter      E             dE          RMSdq      gap      omega  full diag
   1    -59.6575505 -0.596576E+02  0.167E-03    0.21       0.0  T
   2    -59.6575505  0.260752E-07  0.165E-03    0.21      11.1  T
   3    -59.6575506 -0.480916E-07  0.748E-04    0.21      24.4  T
   4    -59.6575506 -0.338017E-08  0.210E-04    0.21      87.0  T
     SCC iter.                  ...        0 min,  0.012 sec
     gradient                   ...        0 min,  0.004 sec
 * total energy  :   -58.8278579 Eh     change        0.8287424E-07 Eh
   gradient norm :     0.0003621 Eh/α   predicted     0.5624657E-07 ( -32.13%)
   displ. norm   :     0.0013651 α      lambda       -0.1443604E-06
   maximum displ.:     0.0010108 α      in ANC's #1, #35, #14, ...

........................................................................
.............................. CYCLE   12 ..............................
........................................................................

 iter      E             dE          RMSdq      gap      omega  full diag
   1    -59.6575768 -0.596576E+02  0.140E-03    0.21       0.0  T
   2    -59.6575768  0.108070E-07  0.125E-03    0.21      14.6  T
   3    -59.6575768 -0.195506E-07  0.686E-04    0.21      26.6  T
   4    -59.6575768 -0.189583E-08  0.319E-04    0.21      57.2  T
     SCC iter.                  ...        0 min,  0.012 sec
     gradient                   ...        0 min,  0.004 sec
 * total energy  :   -58.8278580 Eh     change       -0.1209396E-06 Eh
   gradient norm :     0.0000508 Eh/α   predicted    -0.7454200E-07 ( -38.36%)
   displ. norm   :     0.0010355 α      lambda        0.1035441E-06
   maximum displ.:     0.0007413 α      in ANC's #1, #35, #14, ...

........................................................................
.............................. CYCLE   13 ..............................
........................................................................

 iter      E             dE          RMSdq      gap      omega  full diag
   1    -59.6576111 -0.596576E+02  0.107E-03    0.21       0.0  T
   2    -59.6576111  0.875606E-08  0.956E-04    0.21      19.1  T
   3    -59.6576111 -0.115273E-07  0.575E-04    0.21      31.7  T
     SCC iter.                  ...        0 min,  0.009 sec
     gradient                   ...        0 min,  0.004 sec
 * total energy  :   -58.8278580 Eh     change        0.5570278E-07 Eh
   gradient norm :     0.0002314 Eh/α   predicted     0.3982747E-07 ( -28.50%)
   displ. norm   :     0.0021514 α      lambda       -0.7894568E-07
   maximum displ.:     0.0019508 α      in ANC's #1, #35, #18, ...

........................................................................
.............................. CYCLE   14 ..............................
........................................................................

 iter      E             dE          RMSdq      gap      omega  full diag
   1    -59.6575759 -0.596576E+02  0.110E-03    0.21       0.0  T
   2    -59.6575759  0.210366E-07  0.115E-03    0.21      15.9  T
   3    -59.6575759 -0.274025E-07  0.546E-04    0.21      33.4  T
   4    -59.6575759  0.588685E-09  0.414E-04    0.21      44.0  T
     SCC iter.                  ...        0 min,  0.012 sec
     gradient                   ...        0 min,  0.004 sec
 * total energy  :   -58.8278581 Eh     change       -0.6651239E-07 Eh
   gradient norm :     0.0000325 Eh/α   predicted    -0.4026754E-07 ( -39.46%)
   displ. norm   :     0.0020618 α      lambda        0.5692611E-07
   maximum displ.:     0.0018584 α      in ANC's #1, #35, #18, ...

   *** GEOMETRY OPTIMIZATION CONVERGED AFTER 14 ITERATIONS ***

------------------------------------------------------------------------
 total energy gain   :        -0.0061548 Eh       -3.8622 kcal/mol
 total RMSD          :         0.0353662 a0        0.0187 Å
 total power (kW/mol):        -1.1542516 (step)  -43.5720 (real)
------------------------------------------------------------------------

 ANCopt (total)                0 d,  0 h,  0 min,  0.371 sec
 optimizer setup                ...        0 min,  0.000 sec (  0.044%)
 model hessian                  ...        0 min,  0.005 sec (  1.363%)
 ANC generation                 ...        0 min,  0.002 sec (  0.466%)
 coordinate transformation      ...        0 min,  0.000 sec (  0.082%)
 single point calculation       ...        0 min,  0.359 sec ( 96.661%)
 optimization log               ...        0 min,  0.002 sec (  0.454%)
 hessian update                 ...        0 min,  0.001 sec (  0.322%)
 rational function              ...        0 min,  0.001 sec (  0.285%)

================
 final structure:
================
30
 xtb: 6.7.1 (edcfbbe)
O            1.32198618182435        3.46848558483480       -0.00476472895790
C            1.72586155375737        2.31432133479070       -0.00284183040920
N            3.07570951191100        2.06481278444649       -0.00072962998243
C            3.63954283149164        0.81880302987580        0.00121856753624
C            4.99451096300566        0.49009863743315        0.00399873652003
C            5.20031936533837       -0.86558825202801        0.00519689725956
S            3.73113476965590       -1.78816859833499        0.00279362101330
C            2.78412168403286       -0.32156156299986        0.00030490732999
C            1.40765585311094       -0.19440726145727       -0.00165295827415
C            0.50791169481180       -1.30768377294498       -0.00245322784893
C           -0.84633362542028       -1.12913626617779       -0.00248674294723
C           -1.72582864120230       -2.31435582492090       -0.00289518232930
O           -1.32195160793367       -3.46851947491341       -0.00472842964564
N           -3.07567696561819       -2.06484985125042       -0.00091206326981
C           -3.63951539146510       -0.81883469789422        0.00093364554120
C           -4.99448233734230       -0.49013059902366        0.00358066106785
C           -5.20029558394217        0.86555990080831        0.00470540464009
S           -3.73110954969368        1.78814279602020        0.00240130353822
C           -2.78409272092038        0.32153096304014        0.00005145448024
C           -1.40762634996100        0.19437552667644       -0.00178040980602
C           -0.50788072088335        1.30765323719386       -0.00254884238514
C            0.84636487548644        1.12910326533681       -0.00245990539629
H            3.68262253167489        2.87706823930757       -0.00072034776184
H            5.79231547365349        1.21029417770790        0.00515595420990
H            6.13717061750947       -1.38456837207608        0.00737767809179
H            0.91183707333711       -2.30903074454877       -0.00278413376884
H           -3.68258961373351       -2.87710474432062       -0.00091533269413
H           -5.79228513823690       -1.21032676983359        0.00469677594170
H           -6.13714734317653        1.38453735051822        0.00678305951071
H           -0.91180625807169        2.30900006852042       -0.00294743081313
 
 Bond Distances (Angstroems)
 ---------------------------
O1-C2=1.2228         C2-O1=1.2228         C2-N3=1.3727         C2-C22=1.4759        N3-C2=1.3727         N3-C4=1.3676         
N3-H23=1.0140        C4-N3=1.3676         C4-C5=1.3943         C4-C8=1.4255         C5-C4=1.3943         C5-C6=1.3712         
C5-H24=1.0748        C6-C5=1.3712         C6-S7=1.7348         C6-H25=1.0710        S7-C6=1.7348         S7-C8=1.7458         
C8-C4=1.4255         C8-S7=1.7458         C8-C9=1.3823         C9-C8=1.3823         C9-C10=1.4314        C9-C22=1.4376        
C10-C9=1.4314        C10-C11=1.3660       C10-H26=1.0797       C11-C10=1.3660       C11-C12=1.4759       C11-C20=1.4376       
C12-C11=1.4759       C12-O13=1.2228       C12-N14=1.3727       O13-C12=1.2228       N14-C12=1.3727       N14-C15=1.3677       
N14-H27=1.0140       C15-N14=1.3677       C15-C16=1.3943       C15-C19=1.4255       C16-C15=1.3943       C16-C17=1.3712       
C16-H28=1.0748       C17-C16=1.3712       C17-S18=1.7348       C17-H29=1.0710       S18-C17=1.7348       S18-C19=1.7458       
C19-C15=1.4255       C19-S18=1.7458       C19-C20=1.3823       C20-C11=1.4376       C20-C19=1.3823       C20-C21=1.4314       
C21-C20=1.4314       C21-C22=1.3660       C21-H30=1.0797       C22-C2=1.4759        C22-C9=1.4376        C22-C21=1.3660       
H23-N3=1.0140        H24-C5=1.0748        H25-C6=1.0710        H26-C10=1.0797       H27-N14=1.0140       H28-C16=1.0748       
H29-C17=1.0710       H30-C21=1.0797       
 C  H  Rav=1.0752 sigma=0.0036  Rmin=1.0710  Rmax=1.0797     6
 C  C  Rav=1.4105 sigma=0.0358  Rmin=1.3660  Rmax=1.4759    16
 N  H  Rav=1.0140 sigma=0.0000  Rmin=1.0140  Rmax=1.0140     2
 N  C  Rav=1.3702 sigma=0.0025  Rmin=1.3676  Rmax=1.3727     4
 O  C  Rav=1.2228 sigma=0.0000  Rmin=1.2228  Rmax=1.2228     2
 S  C  Rav=1.7403 sigma=0.0055  Rmin=1.7348  Rmax=1.7458     4
 
 selected bond angles (degree)
 --------------------
N3-C2-O1=119.76                C22-C2-O1=124.14               C22-C2-N3=116.10               C4-N3-C2=124.82                
H23-N3-C2=116.29               H23-N3-C4=118.89               C5-C4-N3=127.98                C8-C4-N3=118.78                
C8-C4-C5=113.24                C6-C5-C4=112.27                H24-C5-C4=124.29               H24-C5-C6=123.44               
S7-C6-C5=113.49                H25-C6-C5=127.62               H25-C6-S7=118.89               C8-S7-C6= 90.72                
S7-C8-C4=110.27                C9-C8-C4=121.60                C9-C8-S7=128.13                C10-C9-C8=123.67               
C22-C9-C8=118.26               C22-C9-C10=118.07              C11-C10-C9=121.43              H26-C10-C9=119.09              
H26-C10-C11=119.48             
 
 selected dihedral angles (degree)
 ---------------------------------
C4-N3-C2-O1=180.02            C4-N3-C2-C22=  0.00           H23-N3-C2-O1=  0.00           H23-N3-C2-C22=180.02          
C5-C4-N3-C2=180.03            C5-C4-N3-H23=  0.04           C8-C4-N3-C2=  0.04            C8-C4-N3-H23=180.04           
C6-C5-C4-N3=180.01            C6-C5-C4-C8=  0.00            H24-C5-C4-N3=  0.00           H24-C5-C4-C8=180.01           
S7-C6-C5-C4=  0.00            S7-C6-C5-H24=180.00           H25-C6-C5-C4=180.01           H25-C6-C5-H24=  0.00          
C8-S7-C6-C5=  0.00            C8-S7-C6-H25=179.99           S7-C8-C4-N3=179.99            S7-C8-C4-C5=  0.00            
C9-C8-C4-N3=359.96            C9-C8-C4-C5=179.96            C4-C8-S7-C6=  0.00            C9-C8-S7-C6=180.04            
C10-C9-C8-C4=180.01           C10-C9-C8-S7=359.98           C22-C9-C8-C4=  0.00           C22-C9-C8-S7=179.95           
C11-C10-C9-C8=179.91          C11-C10-C9-C22=359.93         H26-C10-C9-C8=359.92          H26-C10-C9-C22=179.94         
           -------------------------------------------------
          |                Final Singlepoint                |
           -------------------------------------------------

          ...................................................
          :                      SETUP                      :
          :.................................................:
          :  # basis functions                 108          :
          :  # atomic orbitals                 106          :
          :  # shells                           54          :
          :  # electrons                       106          :
          :  max. iterations                   250          :
          :  Hamiltonian                  GFN2-xTB          :
          :  restarted?                      false          :
          :  GBSA solvation                   true          :
          :  PC potential                    false          :
          :  electronic temp.          300.0000000     K    :
          :  accuracy                    1.0000000          :
          :  -> integral cutoff          0.2500000E+02      :
          :  -> integral neglect         0.1000000E-07      :
          :  -> SCF convergence          0.1000000E-05 Eh   :
          :  -> wf. convergence          0.1000000E-03 e    :
          :  Broyden damping             0.4000000          :
          :  net charge                          0          :
          :  unpaired electrons                  2          :
          ...................................................

 iter      E             dE          RMSdq      gap      omega  full diag
   1    -59.6575759 -0.596576E+02  0.873E-05    0.21       0.0  T
   2    -59.6575759  0.341174E-09  0.129E-04    0.21     141.7  T
   3    -59.6575759 -0.493614E-09  0.280E-05    0.21     653.0  T

   *** convergence criteria satisfied after 3 iterations ***

         #    Occupation            Energy/Eh            Energy/eV
      -------------------------------------------------------------
         1        2.0000           -0.7410534             -20.1651
       ...           ...                  ...                  ...
        48        2.0000           -0.4215940             -11.4722
        49        2.0000           -0.4159865             -11.3196
        50        2.0000           -0.4137990             -11.2600
        51        2.0000           -0.4010612             -10.9134
        52        2.0000           -0.3966850             -10.7943
        53        1.0000           -0.3735437             -10.1646
        54        0.9842           -0.2970812              -8.0840 (HOMO)
        55        0.0158           -0.2892266              -7.8703 (LUMO)
        56                         -0.2628308              -7.1520
        57                         -0.2321633              -6.3175
        58                         -0.2196667              -5.9774
        59                         -0.2171275              -5.9083
       ...                                ...                  ...
       106                          0.7140503              19.4303
      -------------------------------------------------------------
                  HL-Gap            0.0078545 Eh            0.2137 eV
             Fermi-level           -0.3391318 Eh           -9.2282 eV
 
 transition dipole moment (au) for excitation:          53          54
     X       Y       Z   
   3.1708   0.6611   0.0001  total (au/Debye):    3.239   8.233
 dE (eV)             :    2.081
 oscillator strength :  0.75632E+00

 SCC (total)                   0 d,  0 h,  0 min,  0.026 sec
 SCC setup                      ...        0 min,  0.000 sec (  0.992%)
 Dispersion                     ...        0 min,  0.000 sec (  0.768%)
 classical contributions        ...        0 min,  0.000 sec (  0.094%)
 integral evaluation            ...        0 min,  0.002 sec (  6.261%)
 iterations                     ...        0 min,  0.009 sec ( 34.274%)
 molecular gradient             ...        0 min,  0.004 sec ( 16.400%)
 printout                       ...        0 min,  0.011 sec ( 40.941%)

         :::::::::::::::::::::::::::::::::::::::::::::::::::::
         ::                     SUMMARY                     ::
         :::::::::::::::::::::::::::::::::::::::::::::::::::::
         :: total energy             -58.827858065367 Eh    ::
         :: total w/o Gsasa/hb       -58.806644734917 Eh    ::
         :: gradient norm              0.000030151278 Eh/a0 ::
         :: HOMO-LUMO gap              0.213732870827 eV    ::
         ::.................................................::
         :: SCC energy               -59.657810598956 Eh    ::
         :: -> isotropic ES            0.082296858103 Eh    ::
         :: -> anisotropic ES          0.001033260524 Eh    ::
         :: -> anisotropic XC          0.016447775361 Eh    ::
         :: -> dispersion             -0.042341183102 Eh    ::
         :: -> Gsolv                  -0.029251108069 Eh    ::
         ::    -> Gelec               -0.008037777619 Eh    ::
         ::    -> Gsasa               -0.025737210322 Eh    ::
         ::    -> Ghb                  0.000000000000 Eh    ::
         ::    -> Gshift               0.004523879872 Eh    ::
         :: repulsion energy           0.829952533589 Eh    ::
         :: add. restraining           0.000000000000 Eh    ::
         :: total charge               0.000000000000 e     ::
         :::::::::::::::::::::::::::::::::::::::::::::::::::::

           ------------------------------------------------- 
          |                Numerical Hessian                |
           ------------------------------------------------- 
step length          :   0.00500
SCC accuracy         :   0.30000
Hessian scale factor :   1.00000
frozen atoms in %    :   0.00000    0
RMS gradient         :   0.00003
estimated CPU  time      1.66 min
estimated wall time      0.04 min

writing file <hessian>.

 projected vibrational frequencies (cm⁻¹)
eigval :       -0.00    -0.00    -0.00     0.00     0.00     0.00
eigval :       25.55    56.85    80.48   100.29   101.75   116.70
eigval :      162.59   165.39   184.57   251.22   253.88   284.09
eigval :      306.15   324.03   345.52   371.80   395.02   411.85
eigval :      412.29   418.62   457.98   465.59   489.85   568.02
eigval :      568.69   573.69   582.55   607.79   613.21   632.19
eigval :      639.50   640.82   656.96   659.07   687.05   687.27
eigval :      701.96   703.21   710.55   718.36   803.43   808.76
eigval :      811.34   811.56   829.91   837.36   861.91   950.06
eigval :     1008.42  1022.55  1057.78  1066.62  1067.51  1088.27
eigval :     1163.95  1168.62  1183.67  1204.13  1210.61  1241.14
eigval :     1269.19  1277.61  1282.28  1283.49  1344.27  1355.12
eigval :     1406.95  1407.15  1436.36  1460.36  1485.26  1492.14
eigval :     1494.72  1531.27  1644.06  1651.85  3093.61  3093.96
eigval :     3135.60  3135.65  3172.72  3172.76  3379.02  3379.76
           -------------------------------------------------
          |                Property Printout                |
           -------------------------------------------------

    * Orbital Energies and Occupations

         #    Occupation            Energy/Eh            Energy/eV
      -------------------------------------------------------------
         1        2.0000           -0.7410536             -20.1651
       ...           ...                  ...                  ...
        42        2.0000           -0.4702040             -12.7949
        43        2.0000           -0.4679597             -12.7338
        44        2.0000           -0.4604398             -12.5292
        45        2.0000           -0.4538581             -12.3501
        46        2.0000           -0.4469292             -12.1616
        47        2.0000           -0.4356999             -11.8560
        48        2.0000           -0.4215940             -11.4722
        49        2.0000           -0.4159865             -11.3196
        50        2.0000           -0.4137991             -11.2600
        51        2.0000           -0.4010612             -10.9134
        52        2.0000           -0.3966850             -10.7943
        53        1.0000           -0.3735438             -10.1646
        54        0.9842           -0.2970812              -8.0840 (HOMO)
        55        0.0158           -0.2892267              -7.8703 (LUMO)
        56                         -0.2628308              -7.1520
        57                         -0.2321633              -6.3175
        58                         -0.2196668              -5.9774
        59                         -0.2171276              -5.9083
        60                         -0.2168718              -5.9014
        61                         -0.1939599              -5.2779
        62                         -0.1822231              -4.9585
        63                         -0.1378339              -3.7507
        64                         -0.1344746              -3.6592
        65                         -0.1323236              -3.6007
       ...                                ...                  ...
       106                          0.7140503              19.4303
      -------------------------------------------------------------
                  HL-Gap            0.0078545 Eh            0.2137 eV
             Fermi-level           -0.3391318 Eh           -9.2282 eV

     #   Z          covCN         q      C6AA      α(0)
     1   8 O        0.859    -0.457    22.855     6.410
     2   6 C        2.765     0.267    22.494     7.767
     3   7 N        2.694    -0.128    23.776     7.242
     4   6 C        3.075     0.053    26.733     8.477
     5   6 C        3.050    -0.062    29.490     8.906
     6   6 C        2.943    -0.016    28.400     8.740
     7  16 S        2.228    -0.024   142.052    20.060
     8   6 C        2.992     0.013    27.713     8.635
     9   6 C        2.990     0.004    27.918     8.667
    10   6 C        2.917    -0.026    28.651     8.777
    11   6 C        2.973    -0.020    28.514     8.759
    12   6 C        2.765     0.267    22.494     7.767
    13   8 O        0.859    -0.457    22.855     6.410
    14   7 N        2.694    -0.128    23.776     7.242
    15   6 C        3.075     0.053    26.733     8.477
    16   6 C        3.050    -0.062    29.490     8.906
    17   6 C        2.943    -0.016    28.400     8.740
    18  16 S        2.228    -0.024   142.052    20.060
    19   6 C        2.992     0.013    27.713     8.635
    20   6 C        2.990     0.004    27.918     8.667
    21   6 C        2.917    -0.026    28.651     8.777
    22   6 C        2.973    -0.020    28.514     8.759
    23   1 H        0.860     0.199     1.110     1.650
    24   1 H        0.926     0.060     2.196     2.317
    25   1 H        0.926     0.069     2.098     2.265
    26   1 H        0.926     0.067     2.115     2.274
    27   1 H        0.860     0.199     1.110     1.650
    28   1 H        0.926     0.060     2.196     2.317
    29   1 H        0.926     0.069     2.098     2.265
    30   1 H        0.926     0.067     2.115     2.274

 Mol. C6AA /au·bohr⁶  :      18935.323426
 Mol. C8AA /au·bohr⁸  :     552012.906135
 Mol. α(0) /au        :        221.897384


MOs/occ written to file <molden.input>


molecular dipole:
                 x           y           z       tot (Debye)
 q only:        0.000       0.000       0.007
   full:        0.000       0.000       0.007       0.017
molecular quadrupole (traceless):
                xx          xy          yy          xz          yz          zz
 q only:       42.190       2.022     -34.608       0.002       0.001      -7.582
  q+dip:       51.374      11.160     -39.481       0.002       0.001     -11.893
   full:       48.506      10.971     -41.857       0.002       0.001      -6.649

           -------------------------------------------------
          |                Geometry Summary                 |
           -------------------------------------------------

      molecular mass/u    :      324.3770915
   center of mass at/Å    :        0.0000146      -0.0000156       0.0000584
  moments of inertia/u·Å² :        0.9873085E+03   0.3282070E+04   0.4269373E+04
rotational constants/cm⁻¹ :        0.1707433E-01   0.5136281E-02   0.3948503E-02

 * 30 selected distances

     #   Z          #   Z                                           value/Å
     1   8 O        2   6 C                                       1.2227896
     2   6 C        3   7 N                                       1.3727159
     3   7 N        4   6 C                                       1.3676449
     4   6 C        5   6 C                                       1.3942716
     5   6 C        6   6 C                                       1.3712206
     6   6 C        7  16 S                                       1.7348384
     4   6 C        8   6 C                                       1.4255448
     7  16 S        8   6 C                                       1.7457883
     8   6 C        9   6 C                                       1.3823280
     9   6 C       10   6 C                                       1.4314067
    10   6 C       11   6 C                                       1.3659648
    12   6 C       13   8 O                                       1.2227894
    12   6 C       14   7 N                                       1.3727156
    14   7 N       15   6 C                                       1.3676517
    15   6 C       16   6 C                                       1.3942701
    16   6 C       17   6 C                                       1.3712248
    17   6 C       18  16 S                                       1.7348408
    15   6 C       19   6 C                                       1.4255465
    18  16 S       19   6 C                                       1.7457942 (max)
    19   6 C       20   6 C                                       1.3823284
    20   6 C       21   6 C                                       1.4314085
    21   6 C       22   6 C                                       1.3659654
     3   7 N       23   1 H                                       1.0139539
     5   6 C       24   1 H                                       1.0747908
     6   6 C       25   1 H                                       1.0709975
    10   6 C       26   1 H                                       1.0797462
    14   7 N       27   1 H                                       1.0139532 (min)
    16   6 C       28   1 H                                       1.0747899
    17   6 C       29   1 H                                       1.0709964
    21   6 C       30   1 H                                       1.0797461

 * 6 distinct bonds (by element types)

   Z      Z             #   av. dist./Å        max./Å        min./Å
   1 H    6 C           6     1.0751778     1.0797462     1.0709964
   6 C    6 C          12     1.3951234     1.4314085     1.3659648
   1 H    7 N           2     1.0139536     1.0139539     1.0139532
   6 C    7 N           4     1.3701820     1.3727159     1.3676449
   6 C    8 O           2     1.2227895     1.2227896     1.2227894
   6 C   16 S           4     1.7403154     1.7457942     1.7348384

           -------------------------------------------------
          |               Frequency Printout                |
           -------------------------------------------------
 projected vibrational frequencies (cm⁻¹)
eigval :       -0.00    -0.00    -0.00     0.00     0.00     0.00
eigval :       25.55    56.85    80.48   100.29   101.75   116.70
eigval :      162.59   165.39   184.57   251.22   253.88   284.09
eigval :      306.15   324.03   345.52   371.80   395.02   411.85
eigval :      412.29   418.62   457.98   465.59   489.85   568.02
eigval :      568.69   573.69   582.55   607.79   613.21   632.19
eigval :      639.50   640.82   656.96   659.07   687.05   687.27
eigval :      701.96   703.21   710.55   718.36   803.43   808.76
eigval :      811.34   811.56   829.91   837.36   861.91   950.06
eigval :     1008.42  1022.55  1057.78  1066.62  1067.51  1088.27
eigval :     1163.95  1168.62  1183.67  1204.13  1210.61  1241.14
eigval :     1269.19  1277.61  1282.28  1283.49  1344.27  1355.12
eigval :     1406.95  1407.15  1436.36  1460.36  1485.26  1492.14
eigval :     1494.72  1531.27  1644.06  1651.85  3093.61  3093.96
eigval :     3135.60  3135.65  3172.72  3172.76  3379.02  3379.76
 reduced masses (amu)
   1: 16.25   2: 16.39   3: 17.25   4: 16.73   5: 15.84   6: 18.32   7: 16.31   8: 16.28
   9: 18.17  10: 16.44  11: 18.03  12: 11.82  13: 22.94  14: 14.13  15: 13.26  16: 12.70
  17: 15.71  18: 12.04  19: 16.95  20: 11.63  21: 15.36  22: 10.75  23: 20.78  24: 11.71
  25: 12.35  26: 15.57  27: 13.55  28: 13.64  29: 10.63  30: 16.69  31: 12.77  32: 11.29
  33: 11.14  34: 16.35  35:  8.84  36: 14.88  37: 14.48  38: 11.65  39:  3.59  40:  5.78
  41:  3.23  42:  3.22  43: 11.50  44: 12.09  45: 14.64  46: 14.05  47: 13.20  48: 12.49
  49:  3.16  50:  3.15  51:  3.72  52:  4.43  53: 12.39  54: 12.10  55:  9.39  56:  7.48
  57:  8.44  58:  3.23  59:  6.16  60:  8.20  61:  5.01  62:  4.54  63:  6.62  64: 11.23
  65:  9.35  66:  8.94  67:  8.18  68: 11.57  69:  8.79  70:  7.74  71: 11.78  72: 10.17
  73: 11.11  74: 11.07  75: 11.50  76: 11.83  77: 11.79  78: 11.92  79: 11.88  80: 11.86
  81: 13.14  82: 13.08  83:  1.82  84:  1.82  85:  1.85  86:  1.85  87:  1.88  88:  1.88
  89:  1.83  90:  1.83
 IR intensities (km·mol⁻¹)
   1:  0.07   2:  0.02   3:  0.02   4:  0.04   5:  0.00   6:  0.00   7:  3.91   8:  2.38
   9:  0.02  10: 10.29  11:  2.45  12:  0.01  13:  0.00  14:  0.22  15:  0.00  16:  0.01
  17:  0.00  18:  5.84  19: 14.22  20:  0.05  21:  0.00  22:  1.28  23:  5.27  24:  0.27
  25:  0.00  26:  0.00  27:  0.00  28:  0.22  29:  1.92  30:  0.00  31: 32.72  32:  0.08
  33:  1.67  34: 37.51  35:  0.01  36:  0.00  37: 33.86  38:  0.00  39:217.72  40:  0.03
  41:  0.11  42: 54.07  43:  0.00  44: 53.18  45:  0.00  46: 94.50  47:  0.00  48:159.40
  49:  0.11  50: 22.70  51:  0.00  52:  9.42  53:  0.00  54:110.18  55:  0.00  56:  4.83
  57:  0.00  58:195.19  59:  0.00  60: 11.40  61:  0.00  62: 60.02  63:  0.00  64: 16.59
  65:  0.00  66: 34.57  67:  0.00  68:131.36  69:  0.00  70: 94.10  71:  0.00  72:127.97
  73:  1.06  74:837.44  75:  0.00  76:335.15  77: 35.34  78:  0.00  79:409.78  80:  0.00
  81:******  82:  0.01  83:  0.00  84: 12.85  85: 96.97  86:  0.64  87: 27.10  88:  0.34
  89:369.28  90:  0.01
 Raman intensities (Ä⁴*amu⁻¹)
   1:  0.00   2:  0.00   3:  0.00   4:  0.00   5:  0.00   6:  0.00   7:  0.00   8:  0.00
   9:  0.00  10:  0.00  11:  0.00  12:  0.00  13:  0.00  14:  0.00  15:  0.00  16:  0.00
  17:  0.00  18:  0.00  19:  0.00  20:  0.00  21:  0.00  22:  0.00  23:  0.00  24:  0.00
  25:  0.00  26:  0.00  27:  0.00  28:  0.00  29:  0.00  30:  0.00  31:  0.00  32:  0.00
  33:  0.00  34:  0.00  35:  0.00  36:  0.00  37:  0.00  38:  0.00  39:  0.00  40:  0.00
  41:  0.00  42:  0.00  43:  0.00  44:  0.00  45:  0.00  46:  0.00  47:  0.00  48:  0.00
  49:  0.00  50:  0.00  51:  0.00  52:  0.00  53:  0.00  54:  0.00  55:  0.00  56:  0.00
  57:  0.00  58:  0.00  59:  0.00  60:  0.00  61:  0.00  62:  0.00  63:  0.00  64:  0.00
  65:  0.00  66:  0.00  67:  0.00  68:  0.00  69:  0.00  70:  0.00  71:  0.00  72:  0.00
  73:  0.00  74:  0.00  75:  0.00  76:  0.00  77:  0.00  78:  0.00  79:  0.00  80:  0.00
  81:  0.00  82:  0.00  83:  0.00  84:  0.00  85:  0.00  86:  0.00  87:  0.00  88:  0.00
  89:  0.00  90:  0.00
 output can be read by thermo (or use thermo option).
 writing <g98.out> molden fake output.
 recommended (thermochemical) frequency scaling factor: 1.0
           -------------------------------------------------
          |             Thermodynamic Functions             |
           -------------------------------------------------

Molecule has the following symmetry elements: (i) (C2) (sigma) 
It seems to be the C2h point group
c2h symmetry found (for desy threshold:  0.10E+00) used in thermo

          ...................................................
          :                      SETUP                      :
          :.................................................:
          :  # frequencies                          84      :
          :  # imaginary freq.                       0      :
          :  linear?                             false      :
          :  only rotor calc.                    false      :
          :  symmetry                              c2h      :
          :  rotational number                       2      :
          :  scaling factor                  1.0000000      :
          :  rotor cutoff                   50.0000000 cm⁻¹ :
          :  imag. cutoff                  -20.0000000 cm⁻¹ :
          :.................................................:

    mode    ω/cm⁻¹     T·S(HO)/kcal·mol⁻¹    T·S(FR)/kcal·mol⁻¹   T·S(vib)
   ------------------------------------------------------------------------
       1     25.55    -1.83293 (  6.39%)    -1.25533 ( 93.61%)    -1.29222
       2     56.85    -1.36066 ( 62.56%)    -1.01849 ( 37.44%)    -1.23256
       3     80.48    -1.15659 ( 87.03%)    -0.91553 ( 12.97%)    -1.12533
       4    100.29    -1.02820 ( 94.18%)    -0.85032 (  5.82%)    -1.01785
       5    101.75    -1.01980 ( 94.49%)    -0.84604 (  5.51%)    -1.01023
       6    116.70    -0.94044 ( 96.74%)    -0.80544 (  3.26%)    -0.93604
       7    162.59    -0.75118 ( 99.11%)    -0.70721 (  0.89%)    -0.75079
       8    165.39    -0.74156 ( 99.17%)    -0.70215 (  0.83%)    -0.74123
       9    184.57    -0.68028 ( 99.46%)    -0.66964 (  0.54%)    -0.68022
      10    251.22    -0.51342 ( 99.84%)    -0.57832 (  0.16%)    -0.51352
      11    253.88    -0.50789 ( 99.85%)    -0.57520 (  0.15%)    -0.50799
      12    284.09    -0.44988 ( 99.90%)    -0.54189 (  0.10%)    -0.44997
   ------------------------------------------------------------------------

   temp. (K)  partition function   enthalpy   heat capacity  entropy
                                   cal/mol     cal/K/mol   cal/K/mol   J/K/mol
 298.15  VIB  0.453E+06             9190.944     62.781     54.278
         ROT  0.449E+07              888.752      2.981     33.422
         INT  0.203E+13            10079.696     65.762     87.699
         TR   0.565E+28             1481.254      4.968     43.206
         TOT                       11560.9502    70.7297   130.9051   547.7071

       T/K    H(0)-H(T)+PV         H(T)/Eh          T*S/Eh         G(T)/Eh
   ------------------------------------------------------------------------
    298.15    0.184235E-01    0.213698E+00    0.621973E-01    0.151501E+00
   ------------------------------------------------------------------------

         :::::::::::::::::::::::::::::::::::::::::::::::::::::
         ::                  THERMODYNAMIC                  ::
         :::::::::::::::::::::::::::::::::::::::::::::::::::::
         :: total free energy         -58.676356969082 Eh   ::
         ::.................................................::
         :: total energy              -58.827858061107 Eh   ::
         :: zero point energy           0.195274804923 Eh   ::
         :: G(RRHO) w/o ZPVE           -0.043773712898 Eh   ::
         :: G(RRHO) contrib.            0.151501092025 Eh   ::
         :::::::::::::::::::::::::::::::::::::::::::::::::::::

optimized geometry written to: xtbopt.xyz


           -------------------------------------------------
          | TOTAL ENERGY              -58.827858061107 Eh   |
          | TOTAL ENTHALPY            -58.614159709305 Eh   |
          | TOTAL FREE ENERGY         -58.676356969082 Eh   |
          | GRADIENT NORM               0.000030243056 Eh/α |
          | HOMO-LUMO GAP               0.213732454013 eV   |
           -------------------------------------------------

------------------------------------------------------------------------
 * finished run on 2025/09/02 at 22:25:24.347     
------------------------------------------------------------------------
 total:
 * wall-time:     0 d,  0 h,  0 min,  1.032 sec
 *  cpu-time:     0 d,  0 h,  0 min, 40.499 sec
 * ratio c/w:    39.242 speedup
 SCF:
 * wall-time:     0 d,  0 h,  0 min,  0.113 sec
 *  cpu-time:     0 d,  0 h,  0 min,  4.372 sec
 * ratio c/w:    38.783 speedup
 ANC optimizer:
 * wall-time:     0 d,  0 h,  0 min,  0.398 sec
 *  cpu-time:     0 d,  0 h,  0 min, 15.898 sec
 * ratio c/w:    39.916 speedup
 analytical hessian:
 * wall-time:     0 d,  0 h,  0 min,  0.461 sec
 *  cpu-time:     0 d,  0 h,  0 min, 18.065 sec
 * ratio c/w:    39.211 speedup

