$hessian                                                                        
        0.6216803321   0.0211837518  -0.0280187088  -0.2461771956  -0.1004487332
       -0.0018160249   0.0016622049  -0.0454724406  -0.0048881395   0.0076475568
        0.0121573291   0.0015909918   0.0014341393   0.0009220325  -0.0006403263
       -0.0055114606  -0.0043797459   0.0000128322   0.0047265986   0.0042473895
        0.0011216606   0.0036503884  -0.0038914603  -0.0008879265  -0.0036841433
        0.0010731491  -0.0000389687  -0.0015672600  -0.0010489451  -0.0021150584
       -0.0012794030   0.0028336982   0.0019827692   0.0012752623  -0.0025520203
       -0.0013964003  -0.0002928091   0.0000849597  -0.0000566075   0.0014412069
       -0.0013780563  -0.0004513822   0.0005913628   0.0029455440   0.0027683078
       -0.0005182798  -0.0027691659  -0.0028270650   0.0017281818   0.0002744205
        0.0008283318  -0.0003081589   0.0000703853   0.0000916096   0.0019813401
        0.0011177376   0.0019119977  -0.0019193867  -0.0014665221  -0.0023214894
       -0.0006755615   0.0023979876   0.0015529890  -0.0008725409  -0.0004824519
       -0.0014601778  -0.0208226827  -0.0175371397   0.0002352943  -0.0027213358
        0.0735999449   0.0089835824   0.0058451904  -0.0016953961  -0.0004254613
       -0.0006480030   0.0026598744  -0.0009432366  -0.0000253274  -0.0005375951
        0.0007291814  -0.0000691709   0.0002550830  -0.0001508430  -0.0000771257
       -0.0001718556   0.0002390644  -0.0000921130   0.0003279854  -0.0003570938
        0.0005461359  -0.0004611476   0.0001150578   0.0006288923  -0.0002036234
       -0.0003972500  -0.0001826323  -0.0002595348   0.0004026056   0.0000907527
        0.0002204892  -0.0002321261  -0.0000708857   0.0000448347   0.0003429476
        0.0004323382   0.0004152054  -0.0008630950  -0.0021410154  -0.0015953766
        0.0015136515  -0.2638066310   0.0339276546   0.0167350204  -0.0488644876
        0.0343666349   0.0055831185  -0.0284336595  -0.0158101761  -0.0006547781
       -0.0001840948   0.0000936010  -0.0003978997   0.0001252718  -0.0005337248
        0.0002457631  -0.0000514612   0.0001656277  -0.0000865438   0.0000184656
       -0.0000134844  -0.0000342509   0.0000292754  -0.0000046451  -0.0000691370
       -0.0000056586  -0.0000699716   0.0000922029   0.0000392430   0.0000190704
       -0.0000364529   0.0000342595   0.0000068839   0.0000296157   0.0000013587
        0.0000095452   0.0000114399   0.0000019523  -0.0000178233  -0.0001151870
       -0.0000848856   0.0005194306   0.0019159054  -0.0003488364   0.0001710615
       -0.0007784885   0.0000295642   0.0000685633  -0.0002958855  -0.0000105554
       -0.0000106165  -0.0000099346   0.0000136198  -0.0000064906  -0.0000380131
        0.0000627704   0.0000045062  -0.0000017000   0.0000588078   0.0000182920
        0.0000060871  -0.0000100380  -0.0000430496  -0.0000336332   0.0000057298
        0.0000346080  -0.0000202955  -0.0004466455  -0.0002947359   0.0006064338
       -0.0238787572   0.0069186472   0.0032111195
        0.0211837518   0.6533075103   0.0737030015  -0.1687508398  -0.1929079683
       -0.0103834123  -0.0175717334  -0.0442059787  -0.0042927827   0.0028493654
       -0.0030104452  -0.0010440836  -0.0013205172  -0.0024310000   0.0000689979
       -0.0003166500   0.0026885736  -0.0001344812   0.0001722158  -0.0002361962
       -0.0001862547  -0.0001857066  -0.0008690192   0.0004837957   0.0000477589
       -0.0001651113   0.0000547219  -0.0004102979  -0.0003454658  -0.0003179651
       -0.0001574996   0.0005803808   0.0004024124   0.0002087388  -0.0003884523
       -0.0002997142   0.0001387160   0.0001203079   0.0001806106   0.0002989156
       -0.0005901099  -0.0004018872   0.0000697923   0.0009368437   0.0008742403
       -0.0002286583  -0.0008739136  -0.0008987889   0.0004410687   0.0003201014
        0.0004374078   0.0000543995  -0.0002018582  -0.0001217604   0.0003013800
        0.0002495693   0.0003327098  -0.0003083260  -0.0003780465  -0.0004977463
       -0.0002709503   0.0005006969   0.0002363024   0.0007034147   0.0001668839
        0.0004430547  -0.0059989966   0.0029526955   0.0009038654   0.0281577692
       -0.0191144648  -0.0040505947   0.0024509349  -0.0066587292  -0.0010190785
        0.0006932764   0.0003741030  -0.0004979257  -0.0001480021  -0.0000984315
        0.0001597653  -0.0001505703  -0.0000432309  -0.0000455902   0.0000122209
       -0.0000737611   0.0000776092   0.0001008511   0.0001117018  -0.0001782813
        0.0005984559  -0.0001275712   0.0001724101   0.0003184807  -0.0001030876
        0.0000846072   0.0000219891  -0.0000382045   0.0001453448   0.0000165162
        0.0000376497  -0.0000603863  -0.0000467978   0.0000874373  -0.0000458335
       -0.0000158476   0.0000396642   0.0000753107  -0.0003317803  -0.0006049817
       -0.0000202792   0.1116305623  -0.1165933488  -0.0175521058   0.0342532081
       -0.2849353222  -0.0371019579   0.0082299506   0.0054906810  -0.0004735484
        0.0001585441   0.0004470262   0.0000038462  -0.0000290082   0.0000885904
       -0.0001251545  -0.0000798857  -0.0000111996   0.0000378501  -0.0000039902
       -0.0000152892  -0.0000425585   0.0000356321  -0.0000386509  -0.0000184280
        0.0000316696  -0.0000072611   0.0000160841   0.0000418488  -0.0000067034
       -0.0000188916   0.0000357014   0.0000194276   0.0000277224   0.0000020478
        0.0000320948   0.0000208947  -0.0000370147   0.0000197495  -0.0000015534
       -0.0001506136  -0.0001296107  -0.0002366004  -0.0001242781   0.0007092468
       -0.0002220491   0.0000851581   0.0000102135  -0.0000068560   0.0000029927
        0.0000069894  -0.0000055141  -0.0000030011   0.0000365233   0.0000160216
       -0.0000175567  -0.0000419326  -0.0000197772  -0.0000226696   0.0000137488
        0.0000037261  -0.0000401001   0.0000035790   0.0000144660  -0.0000142603
        0.0000052684   0.0000180859   0.0000444988   0.0001337163  -0.0001302688
       -0.0166562743   0.0057543719   0.0014572449
       -0.0280187088   0.0737030015   0.1172591250  -0.0099134779  -0.0161689563
       -0.0414115613  -0.0018932042  -0.0016145599   0.0007361230  -0.0004960489
       -0.0016811537   0.0020553161  -0.0005470309  -0.0003905104   0.0005005894
       -0.0001226402   0.0011274367   0.0001275944  -0.0000039438  -0.0006512180
       -0.0002563049  -0.0007266598  -0.0000230337   0.0007972510   0.0004029661
       -0.0001375619  -0.0000386376   0.0001205933  -0.0000203478   0.0001648345
        0.0001560382  -0.0002155940  -0.0001219633  -0.0001064366   0.0002445512
        0.0000998222   0.0000973922   0.0000402288   0.0000983978  -0.0001113958
       -0.0000177742  -0.0000777975  -0.0000911821  -0.0001098718  -0.0001019247
       -0.0000152763   0.0001039075   0.0001273622  -0.0001037948   0.0000773223
        0.0000530233   0.0000566518  -0.0000892435  -0.0000489801  -0.0001860940
       -0.0000650914  -0.0001782359   0.0001762554   0.0000779981   0.0001683136
        0.0000212762  -0.0001705051  -0.0000948686   0.0011951632  -0.0000847081
        0.0004013260  -0.0008412839   0.0014437351  -0.0022976553   0.0056301696
       -0.0049291336  -0.0019845466  -0.0007614587  -0.0016022051   0.0059613849
        0.0010482958  -0.0005721886   0.0000941268   0.0000251854   0.0001186004
       -0.0001230585   0.0000303828  -0.0000925694   0.0000246229  -0.0000322520
       -0.0000060227  -0.0000035993   0.0000825722   0.0000019626  -0.0000676756
        0.0000300517  -0.0003171073   0.0000595964  -0.0002501077  -0.0001072638
       -0.0000104216  -0.0000339846   0.0000070132   0.0000135215  -0.0000156519
        0.0000274801  -0.0000307261   0.0000688396   0.0000304315  -0.0000644696
        0.0000812987  -0.0000391132   0.0000097555  -0.0003901847   0.0005621638
       -0.0000767878   0.0278261415  -0.0139670617  -0.0423028167   0.0057182531
       -0.0371711418  -0.0390373894   0.0029829434   0.0016965008   0.0005767358
        0.0001081348   0.0001374576   0.0002098176  -0.0000290084   0.0000442696
       -0.0003133429  -0.0000127081  -0.0000283103   0.0000251886  -0.0000008282
       -0.0000019803   0.0000060098   0.0000016729  -0.0000125791   0.0000223089
        0.0000111782   0.0000108132   0.0000012639   0.0000025259  -0.0000001414
        0.0000094594  -0.0000048600  -0.0000033771   0.0000154520  -0.0000023242
        0.0000043534   0.0000087628  -0.0000139296   0.0000036092   0.0000245216
        0.0001480317   0.0001408275  -0.0004502245  -0.0000203996   0.0001041964
       -0.0004575946   0.0000079638   0.0000176473   0.0000242568   0.0000095476
       -0.0000057948  -0.0000057661   0.0000050931   0.0000055218  -0.0000075718
        0.0000207075  -0.0000078982   0.0000093823  -0.0000122642   0.0000188926
        0.0000175190  -0.0000139586   0.0000003518  -0.0000126442  -0.0000143187
       -0.0000053186   0.0000059799   0.0000634670   0.0000222344  -0.0000311305
       -0.0013433751   0.0005368283  -0.0001010497
       -0.2461771956  -0.1687508398  -0.0099134779   0.6727488350   0.0380647976
       -0.0342245861  -0.0755263093   0.0422362903   0.0059910515  -0.0009464717
       -0.0294674379  -0.0020977924  -0.0031713010  -0.0012100409   0.0004322934
        0.0019983285  -0.0003097296  -0.0003200959  -0.0021443725  -0.0003213478
       -0.0001729155  -0.0006941730   0.0002234857  -0.0002970712   0.0012808657
       -0.0003415027  -0.0000496128   0.0005304854   0.0005112993   0.0008491103
        0.0004102065  -0.0009739581  -0.0009697364  -0.0004059198   0.0008346371
        0.0005122911  -0.0000089303  -0.0001493200  -0.0001294208  -0.0005059797
        0.0008343135   0.0004848165  -0.0000182500  -0.0013762480  -0.0012065703
        0.0004631867   0.0012220499   0.0012745029  -0.0007097895  -0.0003808382
       -0.0005726872   0.0000435302   0.0001932731   0.0001265692  -0.0006907924
       -0.0004002374  -0.0006190401   0.0006467237   0.0006892409   0.0009557429
        0.0002425022  -0.0008920187  -0.0007018946  -0.0005355641   0.0001871499
        0.0003726995  -0.0003871546   0.0321722793   0.0035477844  -0.0023013155
       -0.0233887032  -0.0027785217  -0.0026095640   0.0008273462   0.0002466130
        0.0004494870  -0.0014980219   0.0005023416   0.0001320742   0.0002408300
       -0.0004757858  -0.0000396701   0.0000302248  -0.0000137710   0.0002519698
        0.0002332075  -0.0003424245  -0.0000741508  -0.0004931592   0.0005470946
       -0.0002939611   0.0005503435  -0.0003405656  -0.0004188075  -0.0001952403
        0.0004864729   0.0001220254   0.0004689372  -0.0005344823   0.0000673673
       -0.0003645934   0.0002972673  -0.0000249164  -0.0000920722  -0.0000169807
       -0.0000397493  -0.0002704470   0.0004515934   0.0012200635   0.0008125610
       -0.0007601772  -0.0773816685   0.0143388515   0.0065436583   0.0017443251
        0.0000699747   0.0003080661  -0.2553339571   0.0938295095   0.0318389279
       -0.0000560167  -0.0000594660   0.0000099821  -0.0000537075   0.0001437731
        0.0002595079   0.0000324394  -0.0001221163   0.0000269939  -0.0000319116
        0.0000709371   0.0000824109  -0.0000549845   0.0000444176   0.0000469615
       -0.0000384649   0.0000237735  -0.0000314445  -0.0000708085   0.0000025278
        0.0000209025  -0.0000569116  -0.0000234822  -0.0000483167  -0.0000111302
       -0.0000441116  -0.0000349506   0.0000442672  -0.0000132256   0.0000068461
       -0.0019584368  -0.0023086052  -0.0011913159  -0.0049353095   0.0024073813
        0.0012713108  -0.0000574286   0.0000160835   0.0001500893  -0.0000028009
       -0.0000184263   0.0000276686   0.0000303974  -0.0000201294   0.0000182800
        0.0000330502  -0.0000113398  -0.0000153629   0.0000314398  -0.0000246940
       -0.0000103197   0.0000430242   0.0000205791  -0.0000132569  -0.0000160390
        0.0000306670  -0.0000182791  -0.0000529724   0.0001586516  -0.0001593677
       -0.0047297080   0.0020319586   0.0003703735
       -0.1004487332  -0.1929079683  -0.0161689563   0.0380647976   0.5685530392
        0.0607966783   0.0235778943  -0.2173327212  -0.0235640714  -0.0351328351
       -0.0465085926  -0.0012530151  -0.0022985515  -0.0003750808   0.0009770101
        0.0040903004   0.0086453235   0.0002878446  -0.0039969922  -0.0141149387
       -0.0016093979  -0.0097886561   0.0113039704  -0.0016817219   0.0093974958
       -0.0029652646   0.0007807323   0.0031103585   0.0027114819   0.0044814183
        0.0032288942  -0.0059807193  -0.0038952862  -0.0026912162   0.0055054269
        0.0031885099   0.0009289044   0.0002650301   0.0006149803  -0.0032598752
        0.0021466729   0.0001897180  -0.0014988522  -0.0054241535  -0.0052267355
        0.0004423171   0.0052932571   0.0052440350  -0.0034803267   0.0002576869
       -0.0009411601   0.0008349872  -0.0007388900  -0.0006801084  -0.0043040424
       -0.0027298254  -0.0041729277   0.0044173977   0.0028288795   0.0048678724
        0.0012977409  -0.0051232831  -0.0032314905   0.0070204717  -0.0017765222
        0.0019480464   0.0384674666  -0.0184560607  -0.0086829897  -0.0091188476
       -0.0027401815   0.0031722593   0.0031269182  -0.0023522184  -0.0003686011
        0.0002094963   0.0012526621   0.0002796517  -0.0002591527  -0.0000231345
        0.0001758437  -0.0000335017  -0.0002881601  -0.0002902519  -0.0002193239
       -0.0000262522   0.0002260281   0.0001200095   0.0000712929  -0.0001909762
       -0.0000679090   0.0002234882   0.0000792975  -0.0004408179  -0.0000010426
        0.0000569787   0.0001377679   0.0000801086  -0.0000462432  -0.0000327919
        0.0000144605   0.0000245291  -0.0000277420  -0.0002747524  -0.0001893363
        0.0001235156   0.0000699038  -0.0000668221  -0.0003525008  -0.0005658309
       -0.0005782156  -0.0348272430   0.0171158971   0.0061717544  -0.0235048285
       -0.0234285705  -0.0012171137   0.0923235079  -0.0831007224  -0.0149282546
        0.0002691768   0.0003214242  -0.0001965708  -0.0002724391   0.0010601886
        0.0003531400   0.0001193459  -0.0001348973  -0.0000084126  -0.0000596286
       -0.0000885787  -0.0000400742  -0.0000607236  -0.0000212296   0.0001272947
        0.0000986210   0.0001118863  -0.0001646156   0.0000164493  -0.0000806630
        0.0001022672  -0.0000338755  -0.0000051515  -0.0000672090  -0.0000185053
        0.0000547364   0.0000585139  -0.0000661845   0.0000628620   0.0000969176
        0.0002818567  -0.0010417165  -0.0021098795   0.0017294365   0.0002062771
       -0.0011174724   0.0001942800   0.0000900389   0.0002374913   0.0000087081
        0.0000000812  -0.0000021043   0.0000102954   0.0001117325   0.0000744001
       -0.0000775342  -0.0000404647  -0.0000430197  -0.0000503681  -0.0000055204
       -0.0000092155  -0.0000095434   0.0000421521   0.0000654441  -0.0000121992
       -0.0000092849  -0.0000045726   0.0001456622   0.0001744546  -0.0000164174
        0.0026516676   0.0000879769  -0.0019154181
       -0.0018160249  -0.0103834123  -0.0414115613  -0.0342245861   0.0607966783
        0.1088503771  -0.0034534544  -0.0273207752  -0.0479878769   0.0016478077
        0.0010526615   0.0036863755  -0.0003031518  -0.0014236772   0.0041224642
        0.0008860508   0.0002378338  -0.0005840104  -0.0000584268  -0.0021378033
        0.0003988485   0.0009317675   0.0029729524  -0.0026217059   0.0003961470
       -0.0002965440   0.0005534920  -0.0000590070   0.0002387039   0.0000644848
       -0.0001063769  -0.0000184596  -0.0000784497  -0.0000214653  -0.0000514695
        0.0000606985  -0.0000310576  -0.0000217384  -0.0000296696  -0.0000234156
        0.0000724768   0.0000638528   0.0001038562  -0.0000053617   0.0000288507
        0.0000605980  -0.0000139694   0.0000068247  -0.0000309928  -0.0000021374
       -0.0000353511   0.0000099692   0.0000205774  -0.0000219580  -0.0000513358
       -0.0000479403   0.0000047266   0.0000791988   0.0000479964   0.0000480872
       -0.0001057807  -0.0001030844  -0.0001124009  -0.0027577723  -0.0003694871
       -0.0014049519   0.0102810926  -0.0043452134  -0.0012275119  -0.0024723070
        0.0003258991  -0.0027566735   0.0010166100  -0.0005931354  -0.0004772053
        0.0001038957   0.0001246224   0.0000230450   0.0002365012  -0.0001401858
        0.0000381185  -0.0000424341   0.0001739810  -0.0001606732   0.0001066625
        0.0000966983  -0.0001566077  -0.0000739231  -0.0001924818   0.0002358904
       -0.0001899223   0.0002369843  -0.0001012446  -0.0002440327  -0.0001032544
        0.0001650154   0.0000279078   0.0002354892  -0.0001943877   0.0000591020
       -0.0001674938   0.0001636278  -0.0001806335  -0.0000764342   0.0001437642
        0.0001834400   0.0000026078  -0.0000404836  -0.0001191687  -0.0002635101
        0.0000072543   0.0009810771   0.0014865207   0.0025124632  -0.0034026344
       -0.0033030587   0.0005791729   0.0309256608  -0.0143358832  -0.0333820694
        0.0000850106  -0.0000846593  -0.0010719821   0.0000291169   0.0000875344
        0.0007931543  -0.0001409356  -0.0000318886   0.0000189273  -0.0000275357
       -0.0000051432   0.0000169716   0.0000166054  -0.0000050709  -0.0000028463
        0.0000131036  -0.0000007433   0.0000228023   0.0000129204  -0.0000005318
        0.0000001351   0.0000158684   0.0000337110  -0.0000217895  -0.0000034516
        0.0000298320  -0.0000088832  -0.0000059999   0.0000440824  -0.0000546702
       -0.0000067560  -0.0004650651   0.0007138800   0.0008495405  -0.0010845339
        0.0053460875   0.0000530996  -0.0000532934   0.0000253000  -0.0000073735
       -0.0000494925   0.0000155130  -0.0000028944  -0.0000161544  -0.0000165104
        0.0000041638  -0.0000161292  -0.0000135365   0.0000112664  -0.0000048217
       -0.0000055400   0.0000062890   0.0000243970   0.0000169952   0.0000029299
        0.0000422556  -0.0000069670  -0.0000346128   0.0000621366   0.0000060519
        0.0008602040  -0.0009125943   0.0052542652
        0.0016622049  -0.0175717334  -0.0018932042  -0.0755263093   0.0235778943
       -0.0034534544   0.5898321145   0.0162311418  -0.0263955676  -0.1787588318
       -0.0748778700   0.0044551208   0.0006970156  -0.0250009346  -0.0007779379
       -0.0052198257  -0.0036672967  -0.0006912552   0.0076723693   0.0017735831
        0.0022684489   0.0118375010   0.0055823374  -0.0057014430  -0.0103431512
        0.0013099771  -0.0000233830  -0.0036695929  -0.0036385741  -0.0056780009
       -0.0033622044   0.0073470112   0.0052427844   0.0031614914  -0.0064673548
       -0.0037068427  -0.0006111149   0.0002786586  -0.0000567039   0.0038165967
       -0.0038656558  -0.0014716629   0.0012774230   0.0080349582   0.0074268299
       -0.0018556405  -0.0074259349  -0.0076576676   0.0046411558   0.0009937776
        0.0024459984  -0.0006588777  -0.0000489222   0.0001077337   0.0049334398
        0.0029593087   0.0049509741  -0.0048468829  -0.0039568376  -0.0061946900
       -0.0014931501   0.0064499560   0.0047223751  -0.0542444600  -0.0161722320
       -0.0035624102  -0.2175090711   0.0801721882   0.0262256375  -0.0640006469
       -0.0309582817  -0.0009563461   0.0026775055  -0.0035750182   0.0013705481
        0.0001199258   0.0012064374  -0.0011392398   0.0004546570  -0.0008941893
        0.0008208909   0.0003312420   0.0005209643  -0.0003924456  -0.0001665998
       -0.0001003984   0.0003009089  -0.0001720886   0.0004238224  -0.0001882137
       -0.0004479481  -0.0006622515   0.0010372979  -0.0000355608   0.0007278042
       -0.0007271362  -0.0003716941  -0.0002171117   0.0003725310  -0.0001768707
        0.0004523076  -0.0001961671   0.0001618616  -0.0002573831   0.0004941545
        0.0000077540   0.0003759366  -0.0008479545  -0.0019815169  -0.0013769717
        0.0013366138   0.0041122211   0.0138651305   0.0008117579  -0.0029793052
       -0.0036071929   0.0011025108  -0.0062982025   0.0259645453   0.0048800841
       -0.0006647038   0.0000482921  -0.0023956550   0.0003836244  -0.0005896664
        0.0020057847  -0.0001106425   0.0002375803  -0.0003421680   0.0000793488
        0.0000086060  -0.0000696156   0.0001074457  -0.0000249679  -0.0001927051
       -0.0000242569  -0.0001413913   0.0002107919   0.0000776738   0.0000641168
       -0.0001174773   0.0001084323   0.0000467816   0.0000968729   0.0000104048
        0.0000020442   0.0000262458   0.0000187765   0.0000724345  -0.0001077670
        0.0016008428   0.0003887656   0.0034447567  -0.0042855157   0.0049291105
       -0.0009980737  -0.0001506173   0.0003636635  -0.0007251181  -0.0000121818
       -0.0000163051  -0.0000410610  -0.0000003767  -0.0000108699  -0.0000705071
        0.0000520934   0.0000219642   0.0000189963  -0.0000219993  -0.0000278184
       -0.0000422489  -0.0000267882  -0.0000423758  -0.0000009152  -0.0000131153
        0.0000267290   0.0000166294  -0.0001703506  -0.0001642569   0.0001188414
        0.0003749728   0.0009019674   0.0005029192
       -0.0454724406  -0.0442059787  -0.0016145599   0.0422362903  -0.2173327212
       -0.0273207752   0.0162311418   0.5457989949   0.0463190807  -0.0757910074
       -0.1375442342  -0.0021335869  -0.0251105819  -0.0321559610  -0.0013732519
        0.0024349255  -0.0125530499  -0.0003132249  -0.0012902069   0.0159200207
        0.0011384761   0.0172696169  -0.0127372572   0.0037051309  -0.0102441736
        0.0035638550  -0.0006624492  -0.0040853272  -0.0037178986  -0.0055563340
       -0.0040515231   0.0075917451   0.0051678865   0.0033121151  -0.0070391459
       -0.0043175573  -0.0010357209  -0.0002818899  -0.0006816520   0.0042619298
       -0.0029567392  -0.0004265917   0.0021373935   0.0072746348   0.0071628731
       -0.0004168327  -0.0073262413  -0.0071091431   0.0045770831  -0.0002274837
        0.0013201894  -0.0009449015   0.0007886457   0.0008056913   0.0053995543
        0.0036920305   0.0054036934  -0.0056474219  -0.0037097016  -0.0063687875
       -0.0017529729   0.0065826468   0.0040620118  -0.0174245667   0.0102772470
       -0.0034541286   0.0621227935  -0.1015185867  -0.0066638927  -0.0000507042
       -0.0020795149  -0.0023266654  -0.0108236781   0.0018768690   0.0002941919
       -0.0001691652  -0.0029476784   0.0000112276   0.0004328118   0.0001679491
       -0.0004107735   0.0001342869   0.0004193066   0.0002770163   0.0002366882
        0.0001836492  -0.0004108866  -0.0000681865  -0.0002112422   0.0004866246
       -0.0005830147  -0.0000961795   0.0001956985  -0.0000633306   0.0004471349
        0.0001007781  -0.0001133986   0.0001041510  -0.0001929336  -0.0000444198
       -0.0001551754   0.0001506341   0.0001850389   0.0001709079   0.0001017924
       -0.0001222270  -0.0003888746   0.0003305460   0.0010548706   0.0015787555
       -0.0001923100   0.0144831938   0.0079938750  -0.0013652506  -0.0028068302
       -0.0006070713  -0.0014271039   0.0046209389  -0.0121258461  -0.0008277781
       -0.0002627774   0.0010307462   0.0000938676   0.0003649613  -0.0009166879
       -0.0002281769  -0.0000568688   0.0002202936  -0.0001852413   0.0000677751
        0.0000907148  -0.0000034996   0.0000857281  -0.0000041458  -0.0001713619
       -0.0001022170  -0.0001341521   0.0002135122   0.0000182000   0.0001016261
       -0.0001508050   0.0000578842   0.0000187952   0.0001232217   0.0000130500
       -0.0000465136  -0.0000480781  -0.0000097874  -0.0000220092   0.0000156050
        0.0008417751   0.0004589005   0.0011989374   0.0254969766  -0.0131107192
       -0.0033548135   0.0000835041  -0.0001930609  -0.0001889270   0.0000080097
       -0.0000136326   0.0000196833  -0.0000438442  -0.0001068752  -0.0001078667
        0.0000424957   0.0000547580   0.0000630803  -0.0000131296  -0.0000126385
       -0.0000110502  -0.0000139575  -0.0000236810  -0.0000331142   0.0000045319
        0.0000124260  -0.0000089253  -0.0001769532  -0.0000907740  -0.0000403103
        0.0005766026   0.0001726826   0.0009203562
       -0.0048881395  -0.0042927827   0.0007361230   0.0059910515  -0.0235640714
       -0.0479878769  -0.0263955676   0.0463190807   0.1157049503  -0.0015645781
        0.0020133263  -0.0359592172   0.0016624161  -0.0022803709   0.0003106689
       -0.0002279729  -0.0002443533   0.0022184716   0.0013859681  -0.0020737137
        0.0006217455  -0.0001976496   0.0043207161  -0.0007438460   0.0003480942
       -0.0003453819   0.0009076489  -0.0003136946   0.0002199895  -0.0001673138
       -0.0004484795   0.0005809697   0.0003193986   0.0005509784  -0.0006953416
       -0.0002081966  -0.0003996323  -0.0001021420  -0.0003163325   0.0003714348
        0.0000048724   0.0001657865  -0.0000458649   0.0003908648   0.0002353569
       -0.0002355443  -0.0001868245  -0.0003263089   0.0003741356  -0.0001841157
       -0.0000200918  -0.0002666610   0.0003279374   0.0001626785   0.0006861942
        0.0000811502   0.0005132791  -0.0005482644  -0.0002395054  -0.0004108064
        0.0000287698   0.0002566899   0.0000742883  -0.0042383727  -0.0023733641
       -0.0010988475   0.0179835085  -0.0129664918  -0.0441259886   0.0025978543
        0.0054432591  -0.0019795448   0.0015281532  -0.0021751343   0.0073680565
        0.0008661456  -0.0000084269  -0.0001639956   0.0000195495  -0.0000023102
       -0.0000280506  -0.0001684855   0.0002276509  -0.0000571220   0.0001992139
        0.0001120453  -0.0002157854  -0.0000056300  -0.0002437046   0.0002264052
        0.0001720449  -0.0000403908  -0.0003874475  -0.0003064801  -0.0005700703
        0.0004568471  -0.0000356852   0.0002590925  -0.0003136171   0.0001746329
       -0.0002651065   0.0001462290  -0.0002763594  -0.0000131222   0.0001017112
        0.0001374446   0.0000998604  -0.0001307246  -0.0011653932   0.0006159366
        0.0006497889   0.0009921776  -0.0012482736  -0.0045199655   0.0001359971
       -0.0010686704   0.0078627129   0.0009592093  -0.0035876795   0.0010441092
       -0.0001097264  -0.0001347333  -0.0015981700   0.0000127797   0.0000139543
        0.0008276554  -0.0000118944   0.0000900029  -0.0000347286  -0.0000066457
       -0.0000012636   0.0000065828   0.0000090662   0.0000244266  -0.0000317354
       -0.0000172564  -0.0000132784   0.0000324243  -0.0000068869  -0.0000136550
        0.0000162739   0.0000141998   0.0000182094  -0.0000144589  -0.0000050343
       -0.0000069914   0.0000072626   0.0000255434   0.0000141547  -0.0000798111
        0.0000760901  -0.0002100708   0.0001255054   0.0045359646  -0.0022655244
        0.0006485868   0.0000781472  -0.0000995767   0.0000839872  -0.0000040841
       -0.0000231504   0.0000358729  -0.0000026473  -0.0000149866  -0.0000140659
        0.0000359765  -0.0000068219   0.0000206086  -0.0000160597  -0.0000081571
        0.0000121790   0.0000028935   0.0000021655  -0.0000010770  -0.0000032096
        0.0000139889  -0.0000253284   0.0000071342   0.0000119820  -0.0000083441
       -0.0000508696   0.0001072321  -0.0006743962
        0.0076475568   0.0028493654  -0.0004960489  -0.0009464717  -0.0351328351
        0.0016478077  -0.1787588318  -0.0757910074  -0.0015645781   0.5581197545
        0.0694008223   0.0242019510  -0.0640534682  -0.0095477736   0.0064194771
       -0.0219697376  -0.0145621565  -0.0023025685   0.0268547687  -0.0266760357
        0.0022958688  -0.0799144943   0.0054180971  -0.0039130157   0.0165199364
       -0.0070750940  -0.0012236131   0.0054096818   0.0064939810   0.0073269936
        0.0035671491  -0.0088467696  -0.0068245530  -0.0016668383   0.0072291716
        0.0053510212  -0.0009700343  -0.0006041811  -0.0010831824  -0.0044012849
        0.0053620224   0.0023225445  -0.0036655378  -0.0104454211  -0.0111244994
        0.0001223004   0.0110406006   0.0104960529  -0.0056274981  -0.0017711483
       -0.0032016372  -0.0004771188   0.0014013344   0.0002880238  -0.0039556722
       -0.0046915924  -0.0058561273   0.0051918968   0.0047620530   0.0077847369
        0.0010111488  -0.0089262934  -0.0064549072  -0.1859400891   0.0639943626
       -0.0246458928  -0.0629343099  -0.0155792047  -0.0015230982   0.0054242455
        0.0194033032   0.0034499728  -0.0016042128  -0.0018000802  -0.0001612620
       -0.0001382938   0.0006336111   0.0004994239  -0.0004938250   0.0002832669
       -0.0000817310  -0.0001044024  -0.0004867709   0.0000502768  -0.0001048002
       -0.0001118300   0.0000773300   0.0003466044   0.0000297923  -0.0002750328
        0.0006167247   0.0001634630  -0.0003997616   0.0000713980  -0.0004426005
        0.0003900720   0.0002346737  -0.0000353943   0.0000557076   0.0000290023
       -0.0001217532  -0.0000305268  -0.0000646855   0.0001832988  -0.0003816303
       -0.0000168514   0.0000329464   0.0002526641  -0.0002873153   0.0003595642
       -0.0007716214  -0.0027075965  -0.0087793141  -0.0005142111   0.0001409539
        0.0002843762  -0.0000488051  -0.0002142111   0.0014469627  -0.0010112751
       -0.0065858934   0.0246230179   0.0015615028   0.0002425161   0.0007942750
       -0.0014630105  -0.0000839184   0.0005000446   0.0008447653  -0.0001151594
       -0.0001379473   0.0001218115  -0.0000721312   0.0000843524   0.0002133763
        0.0000570659   0.0001660256  -0.0002077323  -0.0001535312  -0.0002010624
        0.0002672304  -0.0000973376  -0.0000084282  -0.0002189459  -0.0000058160
        0.0000862153  -0.0000543194  -0.0001642590  -0.0001711868  -0.0002208945
       -0.0052467257   0.0055120036   0.0004221314   0.0018093854  -0.0006843023
       -0.0003837584   0.0000880179   0.0000702156   0.0002968832   0.0000226268
        0.0000133613   0.0000308482  -0.0000235109   0.0000838836   0.0000099918
       -0.0000714880  -0.0000457212  -0.0000293475  -0.0000217934   0.0000261048
        0.0000277007  -0.0000352629   0.0000126487   0.0000634268   0.0000107422
        0.0000021421  -0.0000073972   0.0000548079   0.0000955938   0.0000264459
        0.0001014502  -0.0001663745  -0.0003210542
        0.0121573291  -0.0030104452  -0.0016811537  -0.0294674379  -0.0465085926
        0.0010526615  -0.0748778700  -0.1375442342   0.0020133263   0.0694008223
        0.4853184119  -0.0231374462   0.0377160433  -0.1607126286  -0.0019924036