$hessian                                                                        
        0.6769391915   0.0010013540  -0.0003061003  -0.1544006212  -0.0430247120
       -0.1351536429  -0.0369112633  -0.0072380970  -0.0241341206   0.0067198173
        0.0000312932   0.0000171326  -0.0026685334  -0.0000046575   0.0000004280
        0.0007247421  -0.0003423082  -0.0006564212  -0.0003778088  -0.0002715122
       -0.0000026989   0.0004506877   0.0000008991  -0.0000001510  -0.0003224856
       -0.0000007927   0.0000000865   0.0000590667  -0.0001429776  -0.0000333627
        0.0000173575   0.0000515269  -0.0000189134   0.0000010459  -0.0000059903
        0.0000039519   0.0000024261   0.0000046497  -0.0000053266  -0.0000091206
       -0.0000069076   0.0000090663  -0.0000199430   0.0000318098  -0.0000016668
       -0.0000827567  -0.0000001773  -0.0000000108   0.0001426451   0.0000003012
        0.0000000092  -0.0000380346  -0.0001172681  -0.0000422788   0.0000097134
        0.0000901849   0.0000522989  -0.0001067172  -0.0000580187  -0.0000363401
        0.0000999003  -0.0000493864  -0.0000418028  -0.0000277954   0.0000875851
        0.0000472405   0.0000371369  -0.0000850835  -0.0000522190  -0.0000693308
       -0.0000001588  -0.0000000284   0.0000148769   0.0000000355   0.0000000029
       -0.0000077242   0.0000064623   0.0000087902   0.0000023204   0.0000005234
        0.0000036494  -0.0000103043  -0.0000000173   0.0000000017  -0.0000041856
       -0.0000000078   0.0000000014  -0.0000016307  -0.0000013747  -0.0000001219
       -0.0000000974   0.0000005144  -0.0000002205  -0.0000019944   0.0000000066
       -0.0000000065  -0.0000000973  -0.0000005236   0.0000002343  -0.0000016236
        0.0000013735   0.0000001233   0.0000023304  -0.0000005133  -0.0000036481
       -0.0000076900  -0.0000064966  -0.0000087897   0.0000367125   0.0000852450
        0.0000522440  -0.0000273736  -0.0000876246  -0.0000472334   0.0000996335
        0.0000497186   0.0000418463  -0.0001070680   0.0000575697   0.0000362960
        0.0000101942  -0.0000901614  -0.0000522872  -0.0000385836   0.0001170840
        0.0000422822  -0.0000197884  -0.0000318926   0.0000016789  -0.0000092231
        0.0000069827  -0.0000090741   0.0000024142  -0.0000047628   0.0000053421
        0.0000009602   0.0000059151  -0.0000039483   0.0000175517  -0.0000513532
        0.0000188943   0.0000585075   0.0001432082   0.0000333364  -0.0003788761
        0.0002700103   0.0000030599   0.0007238622   0.0003452069   0.0006560548
       -0.0369893993   0.0070879692   0.0241337461  -0.1545523754   0.0426717532
        0.1353557354  -0.3004560574  -0.0005020574   0.0000598838   0.0066785831
        0.0036864596   0.0120245178  -0.0059672916  -0.0001673294  -0.0002403670
       -0.0000079902  -0.0001145604  -0.0000261025   0.0000344679  -0.0000472440
       -0.0000182968   0.0000057867  -0.0000111334   0.0000049843  -0.0000055444
       -0.0000017113  -0.0000007994  -0.0000000248  -0.0000041205   0.0000029684
        0.0000028357  -0.0000002798   0.0000013285  -0.0000031218   0.0000022804
        0.0000023447  -0.0000044867   0.0000032817   0.0000058155   0.0000020737
        0.0000045150   0.0000031462   0.0000049363   0.0000012685   0.0000009040
       -0.0000001507  -0.0000004592  -0.0000006753   0.0000004270  -0.0000011318
       -0.0000023104  -0.0000009579   0.0000013147  -0.0000006936  -0.0000010436
        0.0000002143  -0.0000002566  -0.0000010250  -0.0000000014   0.0000000029
       -0.0000010416  -0.0000002113   0.0000002576  -0.0000009543  -0.0000013117
        0.0000006986   0.0000004199   0.0000011420   0.0000023168  -0.0000001527
        0.0000004678   0.0000006736   0.0000049423  -0.0000012375  -0.0000009037
        0.0000020913  -0.0000044859  -0.0000031405  -0.0000044636  -0.0000032932
       -0.0000058208  -0.0000031156  -0.0000022810  -0.0000023539   0.0000028444
        0.0000002945  -0.0000013299  -0.0000000377   0.0000041340  -0.0000029738
       -0.0000055512   0.0000016964   0.0000008036   0.0000057395   0.0000111861
       -0.0000049922   0.0000342831   0.0000473454   0.0000182614  -0.0000085311
        0.0001144233   0.0000259619  -0.0059675536   0.0001146736   0.0002510248
        0.0066790157  -0.0036582552  -0.0120079975
        0.0010013540   0.1646144555   0.1540080556  -0.0194296207  -0.0684587312
       -0.0648915632  -0.0254859130   0.0034040625   0.0070118190   0.0000311235
       -0.0115945011  -0.0165813757  -0.0000043476  -0.0003235962   0.0000668384
        0.0001148607  -0.0000378129   0.0000114351  -0.0000115368   0.0000050572
       -0.0000630066   0.0000007353   0.0000415294   0.0000170366  -0.0000006002
       -0.0000145708   0.0000266225   0.0000022168   0.0000001065  -0.0000022814
        0.0000005247   0.0000029245   0.0000011021  -0.0000045067  -0.0000025643
        0.0000026863   0.0000003879  -0.0000033752   0.0000020661   0.0000043503
        0.0000026534  -0.0000010072   0.0000025293  -0.0000001360  -0.0000004595
       -0.0000001595   0.0000012234   0.0000008217   0.0000002674  -0.0000015778
       -0.0000011200  -0.0000003337  -0.0000023459  -0.0000016850  -0.0000021242
       -0.0000000136   0.0000007910   0.0000023907   0.0000023079   0.0000011218
        0.0000017283  -0.0000005087  -0.0000006537  -0.0000021024   0.0000014529
        0.0000009395   0.0000014959   0.0000002202   0.0000006795  -0.0000001192
       -0.0000004954  -0.0000002318   0.0000000159   0.0000002315  -0.0000001957
        0.0000002295   0.0000000212   0.0000000465  -0.0000005410   0.0000000233
        0.0000002728  -0.0000000155   0.0000002290  -0.0000006623  -0.0000000254
       -0.0000009366   0.0000009209   0.0000014902   0.0000006300  -0.0000006773
       -0.0000013324   0.0000006955  -0.0000007907   0.0000000291  -0.0000009103
        0.0000005779   0.0000013401   0.0000006599  -0.0000007899  -0.0000014949
        0.0000006170  -0.0000006769   0.0000005368  -0.0000000089   0.0000002738
       -0.0000002755   0.0000000250  -0.0000000056  -0.0000013469   0.0000005400
        0.0000008806   0.0000019730   0.0000011318   0.0000007564  -0.0000013412
       -0.0000003049  -0.0000004895  -0.0000027953   0.0000025110   0.0000012613
        0.0000021611  -0.0000003317   0.0000005953   0.0000001996  -0.0000019034
       -0.0000015260  -0.0000025862  -0.0000002528  -0.0000004536  -0.0000044025
        0.0000027023  -0.0000010614  -0.0000003838  -0.0000034210   0.0000021146
        0.0000045318  -0.0000025330   0.0000026841  -0.0000004500   0.0000027575
        0.0000011626  -0.0000019763   0.0000006923  -0.0000021838   0.0000100588
        0.0000060919  -0.0000630350  -0.0001119865  -0.0000369246   0.0000139950
        0.0253355494   0.0035276910   0.0070923118   0.0190766353  -0.0682249642
       -0.0643884455  -0.0005022337  -0.0348931182  -0.0028944228  -0.0034314691
       -0.0017224117  -0.0078191657   0.0000585594   0.0076605201  -0.0019068964
       -0.0000434337   0.0000478511   0.0000600525   0.0000081041   0.0000069521
        0.0000048331   0.0000007360  -0.0000030556  -0.0000017599   0.0000005783
        0.0000013143  -0.0000004282  -0.0000000219  -0.0000001771   0.0000004428
        0.0000001691   0.0000011768   0.0000005885   0.0000005393  -0.0000002652
       -0.0000002863   0.0000002487   0.0000003782   0.0000007168  -0.0000000527
       -0.0000001947   0.0000000604  -0.0000001318   0.0000001888   0.0000002932
       -0.0000001884  -0.0000001158   0.0000000176   0.0000000488  -0.0000001038
       -0.0000002556  -0.0000000101  -0.0000003384  -0.0000001843  -0.0000000465
       -0.0000004413  -0.0000002565  -0.0000000074  -0.0000001164  -0.0000005168
        0.0000000158  -0.0000004243  -0.0000002524   0.0000000459  -0.0000003339
       -0.0000001797  -0.0000000187  -0.0000001028  -0.0000002484   0.0000001596
       -0.0000001161   0.0000000506   0.0000001789   0.0000001621   0.0000002869
        0.0000000875  -0.0000002397   0.0000000109  -0.0000002936   0.0000003416
        0.0000006893  -0.0000005816  -0.0000002434  -0.0000002959  -0.0000001951
        0.0000011754   0.0000005877   0.0000000034  -0.0000001770   0.0000004607
       -0.0000005811   0.0000012961  -0.0000004205  -0.0000006876  -0.0000030452
       -0.0000017765  -0.0000080082   0.0000070724   0.0000049123   0.0000432816
        0.0000484452   0.0000601387  -0.0001111658   0.0076608635  -0.0019059971
        0.0034599723  -0.0017232403  -0.0078662903
       -0.0003061003   0.1540080556   0.6011860349  -0.0587942112  -0.0644043330
       -0.2514711912  -0.0814531085   0.0073612530   0.0245025284   0.0000187468
       -0.0173792910  -0.0594781940   0.0000012275  -0.0003314349  -0.0003469338
        0.0004940677  -0.0003064564   0.0000919777  -0.0001197857   0.0000184111
       -0.0001423128  -0.0000005324   0.0002254828   0.0000853084   0.0000000962
       -0.0000276803   0.0000783254   0.0000147649  -0.0000007705  -0.0000033018
        0.0000087396   0.0000034276   0.0000064963   0.0000018497   0.0000053680
        0.0000009860   0.0000000069   0.0000033119  -0.0000030833  -0.0000043487
       -0.0000009780   0.0000011532  -0.0000016161  -0.0000049546   0.0000019588
        0.0000000250  -0.0000010226   0.0000038638   0.0000000480   0.0000001858
       -0.0000026015  -0.0000005131  -0.0000012374  -0.0000006454   0.0000029568
       -0.0000002483   0.0000003919   0.0000020029   0.0000009707   0.0000000100
        0.0000000529   0.0000009112   0.0000006976  -0.0000010304   0.0000003060
        0.0000002599  -0.0000002476   0.0000007405   0.0000015630  -0.0000000445
       -0.0000009962  -0.0000001306   0.0000000083   0.0000001958  -0.0000000834
        0.0000006981  -0.0000000908  -0.0000002878  -0.0000004402  -0.0000002930
        0.0000004741   0.0000000003  -0.0000003043  -0.0000010750   0.0000000107
        0.0000002880  -0.0000013029  -0.0000011884  -0.0000007954  -0.0000001310
        0.0000012714  -0.0000010990  -0.0000001906  -0.0000000052   0.0000002214
       -0.0000016486  -0.0000012604  -0.0000011034  -0.0000002366   0.0000011686
       -0.0000007938  -0.0000001437   0.0000004406  -0.0000003723   0.0000004712
       -0.0000007025  -0.0000000073  -0.0000002924   0.0000002743   0.0000008333
        0.0000016113   0.0000010237   0.0000002170   0.0000002046   0.0000000417
        0.0000009613   0.0000007410  -0.0000021035   0.0000010160   0.0000000814
       -0.0000029604  -0.0000003421   0.0000003353   0.0000004412  -0.0000011282
       -0.0000005896   0.0000016087  -0.0000048466   0.0000018853   0.0000043846
       -0.0000011050   0.0000012430  -0.0000001708   0.0000034207  -0.0000031519
       -0.0000017337   0.0000054413   0.0000009245  -0.0000087922   0.0000032901
        0.0000065744  -0.0000147504  -0.0000007793  -0.0000033748   0.0001197961
        0.0000187814  -0.0001424471  -0.0004932877  -0.0003085841   0.0000919498
        0.0814509947   0.0076673946   0.0244571620   0.0589950212  -0.0642017232
       -0.2515518327   0.0000598955  -0.0028682414  -0.0431650152  -0.0110220912
       -0.0081961130  -0.0242181493   0.0003142635  -0.0017941645   0.0019047900
       -0.0000504378   0.0002127508   0.0001865923   0.0000150994   0.0000212618
        0.0000216428  -0.0000002963  -0.0000051342  -0.0000067670  -0.0000003584
       -0.0000013997   0.0000032375   0.0000002302  -0.0000001743   0.0000013180
        0.0000016965   0.0000018525   0.0000037227   0.0000000889   0.0000000280
        0.0000004228   0.0000007459   0.0000017229   0.0000020115   0.0000007612
        0.0000002367   0.0000005860   0.0000003189   0.0000001567   0.0000006841
       -0.0000005430  -0.0000000848   0.0000002073  -0.0000004940  -0.0000002874
       -0.0000003410   0.0000001706  -0.0000005043  -0.0000007723   0.0000002218
       -0.0000006423  -0.0000013299  -0.0000000051  -0.0000008876  -0.0000011999
       -0.0000002144  -0.0000006442  -0.0000013138  -0.0000000822  -0.0000005049
       -0.0000007670   0.0000005841  -0.0000002834  -0.0000003401   0.0000004521
       -0.0000000802   0.0000002912  -0.0000002427   0.0000000773   0.0000006856
       -0.0000006818   0.0000001464   0.0000004962  -0.0000008401   0.0000016330
        0.0000020128  -0.0000001776   0.0000001171   0.0000004218  -0.0000017791
        0.0000018462   0.0000037203  -0.0000003164  -0.0000002563   0.0000014085
        0.0000004480  -0.0000014864   0.0000032390   0.0000003812  -0.0000052294
       -0.0000067630  -0.0000152071   0.0000210927   0.0000216409   0.0000497832
        0.0002129026   0.0001865900  -0.0003039982  -0.0017949238   0.0019047141
        0.0110397892  -0.0081524965  -0.0242177077
       -0.1544006212  -0.0194296207  -0.0587942112   0.6600390345  -0.0005604510
       -0.0090996782  -0.3366506578  -0.0135554190  -0.0365515728  -0.0379481659
        0.0247834825   0.0773992415   0.0035156917   0.0012066698   0.0024390258
       -0.0020829765   0.0007882741   0.0008838012   0.0006347297   0.0004429053
        0.0001584189  -0.0007127957  -0.0001372546  -0.0000369715   0.0004990835
        0.0000214010  -0.0000690433  -0.0000784088   0.0002076897   0.0000615980
       -0.0000278883  -0.0000446819   0.0000060581   0.0000092788  -0.0000001959
       -0.0000029103  -0.0000200106  -0.0000161532   0.0000174935  -0.0000058421
        0.0000448136  -0.0000361664   0.0000414231  -0.0000414733   0.0000050865
        0.0000911231   0.0000023599  -0.0000013474  -0.0001640041   0.0000010158
        0.0000035562   0.0000411054   0.0001377711   0.0000478464   0.0000005270
       -0.0001236509  -0.0000684803   0.0001303780   0.0000826411   0.0000420852
       -0.0001208168   0.0000644215   0.0000562957   0.0000050384  -0.0001075479
       -0.0000646324  -0.0000322754   0.0000958685   0.0000618947   0.0000732640
        0.0000006218   0.0000006893  -0.0000376318  -0.0000006512   0.0000009370
        0.0000129571  -0.0000017182   0.0000018145  -0.0000075871  -0.0000000859
       -0.0000025065   0.0000050079  -0.0000003319  -0.0000003647  -0.0000102912
       -0.0000005177  -0.0000006257   0.0000062405  -0.0000015473  -0.0000016687
       -0.0000017481   0.0000017583  -0.0000018933   0.0000005190  -0.0000006857
       -0.0000011279  -0.0000019989  -0.0000031553   0.0000000807   0.0000061811
        0.0000005294   0.0000002862  -0.0000077092  -0.0000004103   0.0000022217
        0.0000138287   0.0000015058  -0.0000020435  -0.0000341729  -0.0000954806
       -0.0000612217   0.0000046543   0.0001084427   0.0000645408  -0.0001210118
       -0.0000633718  -0.0000543316   0.0001278654  -0.0000753997  -0.0000395097
       -0.0000009249   0.0001204001   0.0000687283   0.0000402748  -0.0001399512
       -0.0000480584   0.0000409177   0.0000500609  -0.0000018317  -0.0000031845
       -0.0000422907   0.0000365400  -0.0000251341   0.0000175990  -0.0000119123
        0.0000062577  -0.0000039060   0.0000039964  -0.0000262689   0.0000366681
       -0.0000230349  -0.0000564221  -0.0002052495  -0.0000519580   0.0005929540
       -0.0003405244   0.0000638243  -0.0004025164  -0.0003252409  -0.0010286859
       -0.0480722888  -0.0083875904  -0.0269280633   0.0601173789  -0.0086799336
       -0.0282826030  -0.0187940609  -0.0080074525  -0.0248873403  -0.1072188854
        0.0329607250   0.1049822905  -0.0180672830  -0.0011987247  -0.0025699767
        0.0000260008  -0.0002755526  -0.0001503359  -0.0000409812   0.0000051387
       -0.0000641491  -0.0000060425  -0.0000004527   0.0000153513  -0.0000066754
       -0.0000064788   0.0000057490   0.0000021160  -0.0000031760   0.0000062420
        0.0000018535   0.0000010223  -0.0000005042  -0.0000017445   0.0000007200
        0.0000016201  -0.0000026934   0.0000081803   0.0000038761   0.0000045247
        0.0000067486   0.0000038333   0.0000059809   0.0000025324  -0.0000003998
       -0.0000001520  -0.0000016716   0.0000003597   0.0000040718  -0.0000001488
       -0.0000037907   0.0000002892   0.0000007656  -0.0000007519   0.0000028288
       -0.0000023211   0.0000003236   0.0000037547  -0.0000009080  -0.0000013108
        0.0000024756   0.0000006705  -0.0000024582   0.0000001210  -0.0000019835
       -0.0000003466   0.0000050531  -0.0000005210   0.0000037394   0.0000003429
        0.0000014444   0.0000005026   0.0000045932  -0.0000022697   0.0000008293
        0.0000022467  -0.0000058923  -0.0000022645  -0.0000029250  -0.0000070811
       -0.0000011166  -0.0000007340   0.0000005162   0.0000027541   0.0000022660
       -0.0000022230   0.0000002642   0.0000014089   0.0000043256  -0.0000018759
       -0.0000048117   0.0000089009  -0.0000007470  -0.0000000726   0.0000149954
        0.0000144169   0.0000467643  -0.0000240695   0.0000524103  -0.0002192394
       -0.0001061233  -0.0001854516  -0.0002014254  -0.0003436286  -0.0006169593
       -0.0005513259   0.0011415836   0.0032356102
       -0.0430247120  -0.0684587312  -0.0644043330  -0.0005604510   0.1659060440
        0.1576115493   0.0108894239  -0.0510120455  -0.0134421323   0.0067078225
        0.0028940443   0.0066938335   0.0015591722   0.0063018888  -0.0032085743
       -0.0011216356   0.0001539045   0.0001955613   0.0002094071   0.0000322890
        0.0006472793  -0.0001538326  -0.0001565703  -0.0001231168   0.0001111846
        0.0000600903  -0.0000702844  -0.0000407755   0.0000563898   0.0000122114
        0.0000000437  -0.0000167523   0.0000038424  -0.0000026589  -0.0000077047
        0.0000006007  -0.0000073235  -0.0000083181   0.0000079224   0.0000065484
        0.0000104074  -0.0000088391   0.0000125630  -0.0000103953   0.0000018649
        0.0000219014   0.0000052369  -0.0000050674  -0.0000412807   0.0000003073
        0.0000032919   0.0000127229   0.0000311786   0.0000110038  -0.0000066759
       -0.0000281049  -0.0000150801   0.0000311124   0.0000202692   0.0000125146
       -0.0000238298   0.0000133177   0.0000113058   0.0000036926  -0.0000254513
       -0.0000136988  -0.0000074315   0.0000241709   0.0000138069   0.0000227672
        0.0000004420   0.0000000366  -0.0000074781  -0.0000001528   0.0000003343
        0.0000007401  -0.0000019269  -0.0000007943  -0.0000021919   0.0000002977
       -0.0000013325   0.0000030347   0.0000004015  -0.0000004624   0.0000016730
       -0.0000005644   0.0000010977   0.0000018165   0.0000008581  -0.0000000966
       -0.0000011322   0.0000009755  -0.0000004430   0.0000003067  -0.0000004395
        0.0000009432   0.0000012248   0.0000008668  -0.0000001107  -0.0000007442
        0.0000006804  -0.0000004045  -0.0000009273   0.0000000466   0.0000023691
       -0.0000000420   0.0000020596   0.0000012938  -0.0000102664  -0.0000234719
       -0.0000144177   0.0000071249   0.0000289868   0.0000158242  -0.0000273992
       -0.0000154648  -0.0000130350   0.0000281636  -0.0000168261  -0.0000110823
       -0.0000001387   0.0000281483   0.0000169463   0.0000120053  -0.0000357135
       -0.0000132614   0.0000026490   0.0000136236   0.0000007840  -0.0000012376
       -0.0000005078   0.0000006014  -0.0000006147  -0.0000013403   0.0000022507
        0.0000021702  -0.0000043455  -0.0000004004   0.0000007206   0.0000120742
       -0.0000047214   0.0000039744  -0.0000357584  -0.0000049519   0.0000221817
       -0.0000455388   0.0004515650   0.0007191397  -0.0001354077  -0.0001182278
       -0.0091461855  -0.0061462710  -0.0020893941   0.0089192770  -0.0051154556
       -0.0200367188  -0.0006605249   0.0005389825  -0.0006175206   0.0327182503
       -0.0522394367  -0.0570436542  -0.0079421235   0.0004934667  -0.0008708592
       -0.0000290751   0.0000749472  -0.0001458871  -0.0000789264   0.0000331673
       -0.0000144785   0.0000001826  -0.0000010673   0.0000029280   0.0000016379
        0.0000013886  -0.0000010895  -0.0000013766   0.0000017518  -0.0000004039
       -0.0000020224  -0.0000008146  -0.0000024351   0.0000018083  -0.0000009591
       -0.0000013384   0.0000017309  -0.0000012477  -0.0000017580  -0.0000016259
       -0.0000018977  -0.0000010713  -0.0000013308   0.0000002791  -0.0000001705
        0.0000002614   0.0000003005  -0.0000003721   0.0000001098   0.0000004793
        0.0000003910   0.0000001844  -0.0000002877   0.0000002759   0.0000002148
       -0.0000000685   0.0000003245   0.0000003101   0.0000003288   0.0000001029
        0.0000004212   0.0000001210   0.0000001344   0.0000002615   0.0000003242
       -0.0000000914  -0.0000003859  -0.0000002418  -0.0000008658   0.0000004836
       -0.0000003156   0.0000000022  -0.0000006807   0.0000003989   0.0000000474
       -0.0000006459   0.0000008994   0.0000006892   0.0000013022   0.0000006374
        0.0000013028   0.0000002961  -0.0000002859  -0.0000002259  -0.0000003628
       -0.0000012984  -0.0000025279  -0.0000007724  -0.0000007671   0.0000017524
        0.0000005375   0.0000017406  -0.0000023881  -0.0000034584  -0.0000044310
        0.0000029352   0.0000425962   0.0000060267  -0.0000170080   0.0001289979
        0.0000640610  -0.0001575818  -0.0001879361  -0.0001472795   0.0002640913
        0.0008860616   0.0068853563  -0.0035129036
       -0.1351536429  -0.0648915632  -0.2514711912  -0.0090996782   0.1576115493
        0.6190671908   0.0380778501  -0.0139434915  -0.0908133901   0.0230231208
        0.0084424313   0.0246256418   0.0035079505  -0.0031738755  -0.0032473095
        0.0007539240   0.0001660059   0.0002633927   0.0003688001  -0.0002236627
        0.0000039423  -0.0003397682  -0.0000188747  -0.0000143862   0.0002146503
        0.0000479918  -0.0000390535  -0.0000587202   0.0000780692   0.0000313514
        0.0000010598  -0.0000223546   0.0000062943  -0.0000007553  -0.0000143723
        0.0000111929  -0.0000099221  -0.0000061980   0.0000026987   0.0000010328
        0.0000108943  -0.0000084185   0.0000155121  -0.0000186392  -0.0000006237
        0.0000517486   0.0000010837  -0.0000018513  -0.0001065709   0.0000013772
        0.0000012081   0.0000302302   0.0000769213   0.0000291841  -0.0000137799
       -0.0000605092  -0.0000356305   0.0000650334   0.0000398853   0.0000268772
       -0.0000585394   0.0000349300   0.0000284873   0.0000256939  -0.0000581468
       -0.0000310692  -0.0000280720   0.0000599000   0.0000291349   0.0000639551
        0.0000001657  -0.0000001040  -0.0000054107  -0.0000002063   0.0000002510
       -0.0000013644  -0.0000083465  -0.0000110257  -0.0000011034  -0.0000001299
       -0.0000046602   0.0000083759   0.0000001760  -0.0000003656   0.0000122029
        0.0000009623  -0.0000001806  -0.0000040871  -0.0000002382   0.0000045360
        0.0000042801  -0.0000023240   0.0000023521   0.0000013193   0.0000011394
        0.0000002433   0.0000020502   0.0000017954   0.0000005760  -0.0000015085
       -0.0000001422  -0.0000021815  -0.0000000609   0.0000001418   0.0000071819
       -0.0000039461   0.0000083847   0.0000119911  -0.0000258902  -0.0000591132
       -0.0000299919   0.0000263190   0.0000596612   0.0000323667  -0.0000586434
       -0.0000359556  -0.0000290523   0.0000663159  -0.0000426230  -0.0000286226
       -0.0000131519   0.0000621208   0.0000362788   0.0000298107  -0.0000771346
       -0.0000286187   0.0000213959   0.0000172938   0.0000019080   0.0000110066
       -0.0000169877   0.0000102728  -0.0000042196   0.0000130391  -0.0000082529
       -0.0000062975   0.0000224153  -0.0000195497  -0.0000083839   0.0000172307
        0.0000056458  -0.0000361846  -0.0000786672  -0.0000290946   0.0002413999
       -0.0001599302   0.0001182130  -0.0007138766  -0.0004081263  -0.0002915804
       -0.0289827706  -0.0020232794  -0.0123936624   0.0283059040  -0.0199252491
       -0.0615899360  -0.0019253830  -0.0004959920  -0.0009797084   0.1051320443
       -0.0568159295  -0.2183313135  -0.0256496294  -0.0010569895  -0.0020660534
        0.0000396504   0.0000555712  -0.0000130530   0.0000594064   0.0000275377
       -0.0000043023  -0.0000007045  -0.0000066822  -0.0000037600   0.0000073772
        0.0000062094  -0.0000019810  -0.0000065356   0.0000072010  -0.0000068505
       -0.0000050853  -0.0000017884  -0.0000022211   0.0000060459  -0.0000014199
       -0.0000022714   0.0000072356  -0.0000070017  -0.0000076701  -0.0000065077
       -0.0000101090  -0.0000061092  -0.0000070419  -0.0000021891  -0.0000003628
        0.0000019550   0.0000022175  -0.0000007481  -0.0000034705   0.0000015784
        0.0000049353   0.0000015130  -0.0000013596   0.0000006875  -0.0000011643
        0.0000019472  -0.0000008605  -0.0000022630   0.0000003107   0.0000010327
       -0.0000010141  -0.0000009950   0.0000018955   0.0000015453   0.0000020524
        0.0000000362  -0.0000039956  -0.0000010934  -0.0000052811   0.0000023716
       -0.0000018955   0.0000000493  -0.0000063197   0.0000024522   0.0000005960
       -0.0000049665   0.0000085064   0.0000053437   0.0000060725   0.0000062603
        0.0000060576   0.0000042385   0.0000001733  -0.0000005231  -0.0000056433
        0.0000002341   0.0000007109  -0.0000062563  -0.0000069117   0.0000071200
        0.0000066156  -0.0000098111   0.0000023059  -0.0000042763   0.0000046555
       -0.0000105483  -0.0000347300  -0.0000436361   0.0000030170  -0.0000338153
        0.0001575401  -0.0001537596  -0.0005510728   0.0001858300   0.0005552496
        0.0027892102  -0.0035118977  -0.0032202697
       -0.0369112633  -0.0254859130  -0.0814531085  -0.3366506578   0.0108894239
        0.0380778501   0.6665095338   0.0045437161   0.0129748177  -0.1401363274
        0.0165620843   0.0582577384  -0.0309183905   0.0080808052   0.0247944933
       -0.0018394754  -0.0025461166  -0.0015172062  -0.0023004869   0.0007438224
       -0.0006679885   0.0014468890   0.0004924881   0.0002577478  -0.0008346782
       -0.0001512742   0.0002128005   0.0001663089  -0.0003987782  -0.0000831051
        0.0000399881   0.0001168204  -0.0000760116   0.0000044836  -0.0000465271
        0.0000384816   0.0000028099   0.0000293116  -0.0000298597   0.0000137098
       -0.0000467976   0.0000429309  -0.0000628188   0.0000647815   0.0000001307
       -0.0001511384  -0.0000067577   0.0000061500   0.0002747863  -0.0000013658
       -0.0000065777  -0.0000697108  -0.0002467973  -0.0000858607  -0.0000078912
        0.0002114968   0.0001177533  -0.0002294731  -0.0001343937  -0.0000681711
        0.0002235367  -0.0001134902  -0.0001010661  -0.0000120715   0.0001824654
        0.0001123093   0.0000707262  -0.0001725460  -0.0001123626  -0.0001252410
       -0.0000020209  -0.0000013480   0.0000586934   0.0000004413  -0.0000013519
       -0.0000292308   0.0000022517   0.0000059174   0.0000112828   0.0000012946
       -0.0000028623  -0.0000067057   0.0000003525  -0.0000001724   0.0000234222
        0.0000007181   0.0000005195  -0.0000093110  -0.0000006023   0.0000048888
        0.0000065363  -0.0000024866   0.0000021457  -0.0000002954   0.0000008502
        0.0000010123   0.0000062298   0.0000034808   0.0000001791  -0.0000085805
        0.0000010558  -0.0000029760   0.0000114740  -0.0000009809   0.0000039746
       -0.0000316043  -0.0000023368  -0.0000038562   0.0000724981   0.0001731441
        0.0001133740  -0.0000119278  -0.0001852302  -0.0001139396   0.0002240438
        0.0001135878   0.0000991874  -0.0002277812   0.0001327073   0.0000683887
        0.0000038201  -0.0002104341  -0.0001224909  -0.0000715802   0.0002507875
        0.0000873135  -0.0000635373  -0.0000783923  -0.0000078358   0.0000058468
        0.0000386001  -0.0000396830   0.0000042400  -0.0000240740   0.0000163761
        0.0000083076   0.0000498273  -0.0000382223   0.0000632959  -0.0001135481
        0.0000483373   0.0000594414   0.0003706408   0.0000701116  -0.0006593396
        0.0010445678  -0.0006707340   0.0004498254   0.0018106653   0.0029180653
        0.0561377699   0.0070910026   0.0245427594  -0.0481140564   0.0089856345
        0.0290056736  -0.0006330844  -0.0009305763  -0.0028024792  -0.0182793419
        0.0006562363   0.0028596364  -0.1055583253  -0.0306139267  -0.1052694805
       -0.0000033387  -0.0001275681   0.0003159423  -0.0003608443   0.0000061273
        0.0000445851  -0.0000003879  -0.0000346216   0.0000414598   0.0000058266
        0.0000244904  -0.0000121883  -0.0000107712   0.0000106196  -0.0000128933
       -0.0000046958   0.0000037362   0.0000029012   0.0000063430   0.0000027919
        0.0000032969   0.0000050410  -0.0000149752  -0.0000049384  -0.0000075973
       -0.0000130776  -0.0000062529  -0.0000061998  -0.0000023249   0.0000014657
        0.0000026067   0.0000030718  -0.0000031438  -0.0000047746  -0.0000001020
        0.0000068156   0.0000019474  -0.0000008381   0.0000004157  -0.0000036623
        0.0000037980  -0.0000016655  -0.0000055198   0.0000008392   0.0000014208
       -0.0000031647  -0.0000021127   0.0000038265   0.0000020961   0.0000022096
        0.0000008826  -0.0000062991   0.0000008560  -0.0000070532   0.0000022554
       -0.0000025846   0.0000018593  -0.0000058789   0.0000013711  -0.0000008870
       -0.0000053962   0.0000115660   0.0000049656   0.0000059979   0.0000094840
        0.0000006206   0.0000042276  -0.0000021407  -0.0000026562  -0.0000071870
        0.0000032604   0.0000044114  -0.0000104733  -0.0000098900   0.0000085604
        0.0000064176  -0.0000135130   0.0000066102   0.0000085067   0.0000367981
       -0.0000315666  -0.0000432913   0.0000350581  -0.0000435399  -0.0004943618
       -0.0004670978   0.0007363219  -0.0008582999  -0.0007901582  -0.0032284754
       -0.0001542960   0.0001952311   0.0007065839
       -0.0072380970   0.0034040625   0.0073612530  -0.0135554190  -0.0510120455
       -0.0139434915   0.0045437161   0.1616827526   0.1500268806   0.0326717206
       -0.0688533254  -0.0595249568   0.0091346033   0.0010340153  -0.0005018253
       -0.0010355149   0.0014488972   0.0001640020   0.0008864046   0.0004137247
        0.0000631331  -0.0011289805   0.0001454758   0.0000904586   0.0006583464
        0.0000137979  -0.0000205776  -0.0000915234   0.0002065129   0.0000779849
       -0.0000718559  -0.0000788064   0.0000179668  -0.0000370946   0.0000039109