$hessian                                                                        
        0.4564798598  -0.0717167652   0.2311967888  -0.1926439793   0.0588994857
       -0.0911972832   0.0069734790   0.0687373364   0.0280362271  -0.0349454150
       -0.0027590859  -0.0227242711   0.0147303936  -0.0570051470  -0.0091822598
       -0.1842963761  -0.0272501255  -0.1102123206   0.0067060018   0.0048982324
        0.0013257897  -0.0007214303  -0.0003596653  -0.0005618633   0.0002619860
       -0.0006380929   0.0002852350   0.0008691839   0.0008085447   0.0007901677
       -0.0017305753  -0.0001690962  -0.0011384106   0.0011529870   0.0005397842
        0.0008447417  -0.0013374357   0.0032584992   0.0001585298   0.0009348026
       -0.0002048764  -0.0000087358  -0.0004388476  -0.0002152303   0.0006361842
        0.0009596168  -0.0001423444  -0.0000530854  -0.0020515786  -0.0002227648
        0.0000814619   0.0016785741  -0.0002756071   0.0001012001   0.0000130783
       -0.0019108921   0.0006378618  -0.0000857326  -0.0004947975   0.0001601114
        0.0014083031  -0.0010164909  -0.0003764268   0.0013599473   0.0023810627
       -0.0006856105  -0.0014738489  -0.0017999216   0.0005059826  -0.0009994738
        0.0008030145   0.0004830145   0.0001223160  -0.0016199074  -0.0005953118
        0.0000938042   0.0016007585   0.0005456316  -0.0006345225  -0.0001464375
        0.0004447856   0.0006264665   0.0004720853  -0.0002588249   0.0004752562
       -0.0007008555  -0.0006058550  -0.0005813701   0.0005627763   0.0006393406
        0.0003625074   0.0007320149  -0.0000480782  -0.0001148526  -0.0007227226
       -0.0002117156   0.0013518823   0.0001459675  -0.0009897804  -0.0013649618
        0.0000738211   0.0010139395   0.0008003318  -0.0010174086  -0.0004027497
       -0.0004785481   0.0009648629   0.0004362411  -0.0019180433   0.0012118067
       -0.0003874086   0.0009515182   0.0012605536  -0.0004782650  -0.0004231906
       -0.0005705835  -0.0001963557  -0.0416847878   0.0191390237   0.0001629195
       -0.0170341536   0.0100799578  -0.0092871140   0.0037325925   0.0013193271
       -0.0027928122  -0.0171027288  -0.0069586123  -0.0158493624   0.0000467410
        0.0001485012  -0.0001001465  -0.0000144628  -0.0000271463   0.0000243667
       -0.0000639578  -0.0000076142  -0.0000032286  -0.0000401910  -0.0000442331
       -0.0000585362   0.0000680434   0.0000275049  -0.0001022678  -0.0000145707
       -0.0001230969  -0.0000834206  -0.0000104769   0.0001185931   0.0001108609
        0.0000382982   0.0000424541   0.0001054638  -0.0000457260  -0.0000183259
        0.0000281434   0.0000228586  -0.0000371358  -0.0000769371   0.0000062517
        0.0000190819  -0.0000262713  -0.0000023109  -0.0000281577  -0.0000205095
       -0.0000213149  -0.0000211579   0.0000250912   0.0000144005  -0.0000435280
       -0.0000021514  -0.0000330655   0.0000085117   0.0000412131  -0.0000308505
       -0.0000570020  -0.0000174327  -0.0000060411  -0.0000142570  -0.0001038078
        0.0001033388   0.0000855229   0.0000173166
       -0.0717167652   0.6281970192   0.1173519158   0.1266321227  -0.1556759953
        0.0591739834   0.0204539465  -0.0453142342   0.0000596692   0.0043539991
        0.0075059050   0.0077637906  -0.0204127017  -0.0283529972  -0.0249165707
       -0.0857714562  -0.1235334082  -0.0895034091   0.0036726186  -0.0023540591
       -0.0004922703  -0.0009129101   0.0000147626  -0.0007084016  -0.0003162136
        0.0005937519   0.0001829387  -0.0003153235  -0.0004345624  -0.0004000923
        0.0006377031  -0.0004968916   0.0004268881   0.0010354270  -0.0020216631
        0.0003507718  -0.0009510100  -0.0053322853  -0.0022478262  -0.0016067219
        0.0009281389  -0.0001472304   0.0006860429  -0.0005788559  -0.0000356989
       -0.0012423994   0.0004056663  -0.0001311814   0.0014020749   0.0002064268
       -0.0000703799  -0.0005017790   0.0004276891  -0.0001225333  -0.0003697287
        0.0005476571  -0.0001852910   0.0003357143   0.0002049984  -0.0000706459
       -0.0004999893   0.0001314581   0.0001033188  -0.0000583635  -0.0005615462
        0.0001903362   0.0002767099   0.0003316619  -0.0001032195   0.0003695586
       -0.0001454216  -0.0002254441  -0.0000945475   0.0006348230   0.0002857575
       -0.0000443992  -0.0006106022  -0.0001979990   0.0001197931   0.0001054730
       -0.0000593413  -0.0001223884  -0.0003621250  -0.0000369607  -0.0003021886
        0.0005060075   0.0003891101   0.0004376942  -0.0003406653  -0.0004402128
       -0.0002947641  -0.0001580405   0.0001770176   0.0000693519   0.0001423202
        0.0000142038  -0.0005028636  -0.0000596487   0.0003581193   0.0005346091
       -0.0000738123  -0.0004142613  -0.0001594164   0.0003987439   0.0001484882
       -0.0003193070  -0.0004761526  -0.0000255788   0.0013499147  -0.0001981221
        0.0000498180  -0.0013673397  -0.0000744310   0.0000478879   0.0012462440
       -0.0003469874   0.0000829825   0.0191666609  -0.2808028694  -0.0688992501
       -0.0080008884   0.0059682962  -0.0046889278   0.0017566017  -0.0045867645
       -0.0028836640   0.0114865422   0.0059486907   0.0099666920  -0.0000540639
       -0.0000379864  -0.0001114287  -0.0000065834  -0.0000118796  -0.0000075331
        0.0000195653   0.0000204956  -0.0000180236  -0.0000422210  -0.0000884512
       -0.0000779716   0.0000452990   0.0000279238  -0.0000250431   0.0000122552
        0.0000325250   0.0000588687   0.0000067156  -0.0000124199  -0.0000199801
       -0.0000166383  -0.0000166492  -0.0000368284   0.0000027456  -0.0000028263
       -0.0000061273   0.0000389459   0.0000061923  -0.0000018974  -0.0000043132
       -0.0000345469  -0.0000067124  -0.0000132811  -0.0000047309   0.0000151345
       -0.0000060070  -0.0000096607  -0.0000062424  -0.0000220010   0.0000057216
        0.0000184905  -0.0000061115   0.0000138973   0.0000032064   0.0000136819
        0.0000123011  -0.0000052362  -0.0000208895  -0.0000315717   0.0000406952
       -0.0000869629  -0.0001756829   0.0000693297
        0.2311967888   0.1173519158   0.3236844749  -0.0672376724   0.0073270218
       -0.0965112102   0.0112397561   0.0366873092   0.0223194153  -0.0200439158
        0.0017048369  -0.0204163658   0.0027461858  -0.0515594093  -0.0137061814
       -0.1305562614  -0.0466519851  -0.1551477241   0.0011947579   0.0003012124
        0.0075945682  -0.0006337506  -0.0002962955  -0.0004750884   0.0005156995
       -0.0001191392  -0.0003392811   0.0006290741   0.0004915483   0.0005964903
       -0.0009559104  -0.0000739614  -0.0010729243   0.0009001217  -0.0001793808
        0.0006495113  -0.0010021810   0.0009893326  -0.0005875375   0.0004515133
        0.0005157003  -0.0001676354  -0.0001822996  -0.0006141218   0.0005647733
        0.0004502706   0.0000610079  -0.0000867034  -0.0014157635  -0.0004139047
        0.0001725304   0.0010603320  -0.0001529207   0.0000622566  -0.0000574966
       -0.0011238959   0.0003808478  -0.0000869524  -0.0003887972   0.0001241531
        0.0009317799  -0.0005058834  -0.0003165347   0.0011880190   0.0014788777
       -0.0003919811  -0.0010366276  -0.0012622647   0.0003513425  -0.0006853265
        0.0005826583   0.0003332375   0.0000738873  -0.0011281940  -0.0004059033
        0.0000518638   0.0011198495   0.0003845134  -0.0004402102  -0.0000747337
        0.0003238217   0.0004505374   0.0003324289  -0.0001892508   0.0003088259
       -0.0004821293  -0.0004066607  -0.0004018627   0.0003658505   0.0004340474
        0.0002627187   0.0005263898  -0.0000299425  -0.0000651533  -0.0005096358
       -0.0001559688   0.0009484877   0.0000937254  -0.0006961657  -0.0009576405
        0.0000405453   0.0007075174   0.0005798404  -0.0006967661  -0.0002959579
       -0.0005527888   0.0006180591   0.0003116752  -0.0010293208   0.0007557537
       -0.0003017535   0.0003782526   0.0013462209  -0.0004589545  -0.0000576047
       -0.0005747856   0.0000873006   0.0001317217  -0.0688791653  -0.0561598214
       -0.0162689707   0.0095957142  -0.0080723232  -0.0028300733  -0.0032808052
        0.0047110793  -0.0089639550  -0.0032169574  -0.0073827443  -0.0001437553
        0.0000434398   0.0000827291  -0.0000043093  -0.0000175415   0.0000127739
       -0.0001060119  -0.0000324705   0.0000709317  -0.0000172934  -0.0000668744
       -0.0000772166   0.0000606538   0.0000266465  -0.0000832656  -0.0000038105
       -0.0000899865  -0.0000774822  -0.0000059100   0.0000857933   0.0000777539
        0.0000195276   0.0000246826   0.0000656175  -0.0000289570  -0.0000148997
        0.0000197445   0.0000303606  -0.0000234172  -0.0000636144  -0.0000017688
       -0.0000030947  -0.0000190373  -0.0000117319  -0.0000270111  -0.0000106610
       -0.0000222924  -0.0000233691   0.0000154387   0.0000034086  -0.0000261673
        0.0000025314  -0.0000248422   0.0000125778   0.0000306611  -0.0000160797
       -0.0000368528  -0.0000136538  -0.0000057495  -0.0000200354  -0.0000802427
        0.0000498649   0.0000877533   0.0000280497
       -0.1926439793   0.1266321227  -0.0672376724   0.4614428504  -0.0660818796
        0.2446340631  -0.0775340528  -0.0006678424  -0.0272409665   0.0197683093
       -0.0131235734   0.0106296739  -0.0077011070   0.0233950948   0.0057107473
       -0.0456599754  -0.0205340568  -0.0419445757  -0.0029181647  -0.0015180317
       -0.0024268185   0.0010242932  -0.0000949926   0.0006369540  -0.0003290093
        0.0007733439   0.0001261915   0.0009061866  -0.0009520291   0.0004142419
       -0.0008633020  -0.0001796061  -0.0005639456   0.0004962197  -0.0003785645
       -0.0000209688  -0.0012447045  -0.0054069064  -0.0072820071  -0.0010744332
       -0.0000096142  -0.0002077822   0.0001542178   0.0005168059  -0.0001751052
       -0.0004622381  -0.0001423671   0.0001025091   0.0008887965   0.0002167815
       -0.0001553215  -0.0005617842   0.0002811193  -0.0000880845   0.0004263150
       -0.0000001165  -0.0000270456  -0.0003363881  -0.0000742165   0.0000173932
        0.0000701428   0.0001275789  -0.0000002069  -0.0002984724  -0.0001873152
        0.0000844559   0.0001903296   0.0002260294  -0.0001069601   0.0002248766
       -0.0000915838  -0.0001198260  -0.0000364850   0.0003588502   0.0001489850
       -0.0000792397  -0.0003067961  -0.0000562174   0.0001029020   0.0000605939
       -0.0000615034  -0.0000824366  -0.0001729251  -0.0000142963  -0.0001610859
        0.0002459510   0.0001943937   0.0002058967  -0.0001784398  -0.0002099340
       -0.0001251894  -0.0001085945   0.0000724777   0.0000491873   0.0001047989
        0.0000127440  -0.0002721161  -0.0000389417   0.0002018914   0.0002906097
       -0.0000438136  -0.0002297643  -0.0001121550   0.0002085973   0.0000847224
        0.0003198813   0.0000989693  -0.0001347926  -0.0003244249  -0.0001907883
        0.0001431222   0.0005711820  -0.0010868989   0.0003344820  -0.0002469221
        0.0008709591   0.0001062447  -0.0024749556   0.0032228600  -0.0014118308
       -0.1490024862  -0.0667918287  -0.1128390832  -0.0030618849   0.0216018727
        0.0043578136   0.0001530192  -0.0007158603  -0.0056608074   0.0001446356
       -0.0000181177   0.0001141525   0.0000084379   0.0000152393   0.0000066005
        0.0000558165  -0.0000198061  -0.0000677883   0.0000140223   0.0000302396
        0.0000416903   0.0000392401   0.0000316331   0.0000300724   0.0000225319
        0.0000512969   0.0000338945   0.0000111423  -0.0000080795  -0.0000188132
       -0.0000484352  -0.0000175465   0.0000015568   0.0000439186   0.0000332593
        0.0000076221   0.0000072870  -0.0000145484  -0.0000011349  -0.0000114872
       -0.0000363526   0.0000230507  -0.0000054332  -0.0000061689   0.0000090069
       -0.0000069016  -0.0000076770  -0.0000176350  -0.0000147509   0.0000260653
       -0.0000031335   0.0000167157   0.0000105692  -0.0000135528   0.0000128998
        0.0000182861   0.0000092831   0.0000278289  -0.0000202324  -0.0000028407
        0.0000043081   0.0000671943   0.0000503778
        0.0588994857  -0.1556759953   0.0073270218  -0.0660818796   0.5918164522
        0.1127109910   0.0609687333  -0.2924173068  -0.0376090571  -0.0604731515
       -0.0441198612  -0.0588998305   0.0211325058  -0.0277413190   0.0083973108
        0.0280506767   0.0406372524   0.0345913315  -0.0047179332  -0.0073653733
       -0.0062990677   0.0045145411  -0.0032349415   0.0023143678  -0.0002249352
        0.0010765702   0.0003033519   0.0077468869   0.0011429219   0.0061624424
       -0.0088989541  -0.0007173295  -0.0071947355   0.0012401222   0.0078041607
        0.0014530914  -0.0047578133   0.0191666617   0.0015661591   0.0086276108
       -0.0089924056   0.0022903609  -0.0036925863   0.0074992737   0.0000538900
        0.0087225747  -0.0037322558   0.0010450027  -0.0093480828   0.0014026847
       -0.0001036694   0.0056271279  -0.0010496290   0.0000184768   0.0024112166
       -0.0087628020   0.0026207731  -0.0017884841  -0.0018108930   0.0007661398
        0.0057284668  -0.0051573683  -0.0011350029   0.0022523973   0.0098574844
       -0.0029006855  -0.0049265051  -0.0059030651   0.0015374209  -0.0040515987
        0.0025773261   0.0021777170   0.0005087953  -0.0069237483  -0.0026917419
        0.0002913884   0.0067778794   0.0018880208  -0.0015419104  -0.0006140002
        0.0010394449   0.0016823240   0.0032447215  -0.0001362009   0.0025390369
       -0.0044449021  -0.0034589388  -0.0037467901   0.0029109017   0.0038488432
        0.0026089179   0.0021488713  -0.0012321901  -0.0004456596  -0.0019735213
       -0.0004394389   0.0056161214   0.0005073661  -0.0039044668  -0.0057791056
        0.0003712586   0.0043771709   0.0026578457  -0.0041754427  -0.0016124570
        0.0009833449   0.0040868309   0.0009800059  -0.0122056646   0.0046967767
       -0.0008547856   0.0099498814  -0.0017523256  -0.0002090580  -0.0071668009
        0.0020983037  -0.0023675192   0.0216842977  -0.0195858185   0.0093917124
       -0.0675620180  -0.0864229212  -0.0689177808   0.0039845812  -0.0181081871
       -0.0037175811  -0.0013501990   0.0009415202  -0.0034467263  -0.0003213219
        0.0003457515  -0.0001498101   0.0000806407   0.0000877991   0.0000676460
       -0.0000359221  -0.0001501328  -0.0001862093   0.0001313593   0.0001518626
        0.0002004001   0.0000785026  -0.0001705052   0.0000195200  -0.0000006080
       -0.0001439164  -0.0002681979   0.0001252736   0.0001442012   0.0001619333
       -0.0002046762   0.0000568090   0.0005702509  -0.0000269669  -0.0000364067
        0.0000210452  -0.0000306248  -0.0000299305   0.0001317824  -0.0000165172
        0.0000766161   0.0002089340  -0.0000730881  -0.0000828986  -0.0000070396
       -0.0000637247  -0.0000432254  -0.0000766629   0.0000595936   0.0001655159
       -0.0001705783   0.0001421526   0.0000464247  -0.0000371281   0.0000004229
        0.0000144226   0.0000543253   0.0000629003  -0.0002435958  -0.0003533980
        0.0004237957  -0.0002725969   0.0000830740
       -0.0911972832   0.0591739834  -0.0965112102   0.2446340631   0.1127109910
        0.3376393802  -0.0059434172  -0.0847337881  -0.0765650542  -0.0058955702
       -0.0255646463  -0.0129273467   0.0051846367   0.0097243306   0.0020798478
       -0.0254223189  -0.0016994898  -0.0182186814  -0.0035908374  -0.0035145322
       -0.0041358507   0.0022958991  -0.0011481605   0.0012197151  -0.0003592075
        0.0009656131   0.0002494349   0.0033961399  -0.0003591532   0.0023718228
       -0.0036695182  -0.0003431952  -0.0030706901   0.0006361484   0.0019630235
        0.0010492453  -0.0077085294   0.0019114610   0.0003769369   0.0021749813
       -0.0042832168   0.0018345255  -0.0011836483   0.0040275322  -0.0006524199
        0.0033453971  -0.0018076142   0.0004971478  -0.0027230937   0.0012943551
       -0.0003010678   0.0019411580  -0.0002434631  -0.0000758911   0.0009713981
       -0.0035215507   0.0010446335  -0.0004098797  -0.0004449812   0.0002237892
        0.0020316557  -0.0024368027  -0.0002008710   0.0000124662   0.0038680185
       -0.0012009103  -0.0015668926  -0.0019632654   0.0004766491  -0.0011636787
        0.0007947435   0.0005553075   0.0001410968  -0.0018914342  -0.0007181937
        0.0000415776   0.0019301071   0.0005932419  -0.0004928767  -0.0001837203
        0.0003327850   0.0005181615   0.0007627987  -0.0001267454   0.0006355185
       -0.0010844077  -0.0008712954  -0.0008996894   0.0007549873   0.0009583382
        0.0006080570   0.0006433147  -0.0002351141  -0.0001174126  -0.0006450506
       -0.0001533433   0.0015988778   0.0001541236  -0.0010811017  -0.0016090622
        0.0000794377   0.0012063088   0.0007638869  -0.0011899384  -0.0003915299
        0.0009283871   0.0014845172   0.0002850490  -0.0047314721   0.0018376807
       -0.0002370801   0.0039944514  -0.0021702325   0.0003528115  -0.0025927589
        0.0015273412  -0.0009861131   0.0050170349  -0.0044606762   0.0028209589
       -0.1123863034  -0.0694720238  -0.1430918584  -0.0014996350   0.0103401893
        0.0028778520  -0.0059688080  -0.0028750883   0.0025420134  -0.0000033665
        0.0001010137   0.0000345232   0.0000354509   0.0000442432   0.0000178880
        0.0000164558  -0.0000704515  -0.0001106333   0.0000587109   0.0000727531
        0.0001015665   0.0000464372  -0.0000385777  -0.0000114331   0.0000130336
        0.0000117874   0.0000261732   0.0000471476   0.0000460825   0.0000228212
       -0.0001051629   0.0000043871   0.0002254150   0.0000144344   0.0000294145
       -0.0000069576  -0.0000229734  -0.0000308684   0.0000008901  -0.0000195653
       -0.0000008735   0.0000820284  -0.0000155617  -0.0000290409  -0.0000014511
       -0.0000237945  -0.0000149802  -0.0000406926   0.0000132361   0.0000766658
       -0.0000652948   0.0000623037   0.0000178530  -0.0000266780  -0.0000007175
        0.0000095595   0.0000210920   0.0000316192  -0.0001021282  -0.0000873156
        0.0001132127  -0.0000389574  -0.0000173670
        0.0069734790   0.0204539465   0.0112397561  -0.0775340528   0.0609687333
       -0.0059434172   0.4688701857  -0.1011568302   0.2488407378  -0.1806334614
       -0.0598803720  -0.1277969387  -0.0341983719   0.0126607801  -0.0214460983
       -0.0038548431  -0.0120882043  -0.0051752303  -0.0013504032   0.0041965413
       -0.0027426909  -0.0010118090   0.0001678108  -0.0010170773  -0.0004270593
       -0.0000820146  -0.0001298413  -0.0006149631  -0.0002634715  -0.0005115380
        0.0008031272  -0.0004172475  -0.0000201579   0.0029880733   0.0002541840
        0.0008851743  -0.0007283655  -0.0190832036  -0.0062005512  -0.0024692081
        0.0031276474   0.0000977803   0.0010166029  -0.0025056658   0.0004718119
       -0.0022047811   0.0010848320  -0.0004334342   0.0014210595  -0.0006938494
        0.0001736090  -0.0007848571   0.0004392850  -0.0000599357  -0.0003870003
        0.0010284007  -0.0002936522   0.0001282109  -0.0000327817  -0.0000257985
       -0.0004171857   0.0007559420  -0.0000263692   0.0003915697  -0.0010537505
        0.0004312239   0.0002942933   0.0003321779  -0.0001098514   0.0003337512
        0.0000003329  -0.0001371539  -0.0001282471   0.0005141666   0.0002855672
       -0.0000316257  -0.0005243440  -0.0001490850   0.0001085769   0.0000928188
       -0.0000624513  -0.0000902456  -0.0002990683  -0.0000318365  -0.0002580423
        0.0004201057   0.0003342117   0.0003610331  -0.0002912159  -0.0003730263
       -0.0002332426  -0.0001421010   0.0001157691   0.0000596544   0.0001408876
        0.0000168259  -0.0004415936  -0.0000534376   0.0002868747   0.0004712585
       -0.0000650231  -0.0003587428  -0.0000768324   0.0003370706   0.0000615258
       -0.0006334158  -0.0004573388  -0.0001287725   0.0018527265  -0.0004826388
       -0.0000623593  -0.0020448400   0.0015813275  -0.0002965775   0.0018554114
       -0.0001907201   0.0008274068  -0.0006950574   0.0037977492  -0.0043185861
        0.0007376642  -0.0187304648  -0.0058875392  -0.1776193255   0.1064213190
       -0.0811428925   0.0002571481  -0.0003972831   0.0002537819   0.0001603082
       -0.0001287391   0.0001017984  -0.0000601894  -0.0000550299  -0.0000148177
       -0.0000212999  -0.0000245190   0.0000771686  -0.0000081946   0.0000666859
       -0.0000168507   0.0000455085   0.0000257941  -0.0000147611  -0.0000016903
       -0.0000328545   0.0000397828  -0.0000078734   0.0000272592  -0.0000058403
       -0.0000203734  -0.0000215818  -0.0000487208  -0.0000196611   0.0000330046
       -0.0000045370   0.0000263877  -0.0000444791  -0.0000185394   0.0000068234
       -0.0000273754  -0.0000109722  -0.0000014498  -0.0000029149   0.0000024905
       -0.0000066894  -0.0000107437  -0.0000066107  -0.0000237882  -0.0000039134
        0.0000146935  -0.0000068978   0.0000062093   0.0000011853   0.0000066429
        0.0000059944   0.0000026250  -0.0000392041  -0.0000430092   0.0000798588
       -0.0000833557   0.0003451805   0.0003815957
        0.0687373364  -0.0453142342   0.0366873092  -0.0006678424  -0.2924173068
       -0.0847337881  -0.1011568302   0.5972026618   0.0866783257  -0.0190343260
       -0.0905387966  -0.0331674570  -0.0161561976   0.0265381212  -0.0038104316
       -0.0226187397  -0.0226039945  -0.0237466374   0.0108461071   0.0079811998
        0.0092661822  -0.0045669835   0.0043986618  -0.0021270932   0.0005401898
       -0.0020610911  -0.0003971034  -0.0089502679  -0.0010606679  -0.0070805705
        0.0083874084   0.0008638119   0.0068226859  -0.0003333828  -0.0145137301
       -0.0036481892  -0.0176235030  -0.0383072348  -0.0265101798  -0.0108033532
        0.0112777562  -0.0035219467   0.0040947792  -0.0087764745   0.0003731298
       -0.0095313770   0.0044356751  -0.0012553392   0.0095739022  -0.0023117126
        0.0004184883  -0.0059526794   0.0011368142   0.0000182880  -0.0026239776
        0.0094620560  -0.0028001244   0.0017834049   0.0017875690  -0.0007903455
       -0.0060369153   0.0058914390   0.0010383079  -0.0016290826  -0.0106045339
        0.0031673155   0.0049895243   0.0060117215  -0.0015677461   0.0042054457
       -0.0026226223  -0.0022634267  -0.0005046116   0.0072316509   0.0027153245
       -0.0003292489  -0.0069872907  -0.0018722861   0.0015204816   0.0006295006
       -0.0010135998  -0.0016715505  -0.0034433081   0.0000750762  -0.0026763079
        0.0046992828   0.0036503154   0.0039449416  -0.0030772341  -0.0040592072
       -0.0027732475  -0.0021585559   0.0013328139   0.0004546797   0.0019599695
        0.0004302957  -0.0058190141  -0.0005105175   0.0040246587   0.0059846766
       -0.0004019684  -0.0045321297  -0.0026402648   0.0043305468   0.0016207842
       -0.0015064469  -0.0042812267  -0.0008658678   0.0131969763  -0.0050401716
        0.0007690834  -0.0111520842   0.0033892199  -0.0003846531   0.0083534580
       -0.0039163824   0.0022327338   0.0037376444  -0.0008887519   0.0003015728
       -0.0000886241  -0.0148769905  -0.0062744752   0.1065036937  -0.1213945977
        0.0561824994  -0.0002997552  -0.0006904829  -0.0001708333   0.0003228130
       -0.0003516322   0.0001439630  -0.0000817859  -0.0000467722   0.0000038419
       -0.0001211451   0.0001837505   0.0001800240  -0.0001820173  -0.0000145308
       -0.0002130167   0.0000387502   0.0002997225  -0.0001517992   0.0000042248
        0.0000989290   0.0002277888  -0.0001398687  -0.0001308446  -0.0001478534
        0.0002380852  -0.0000497458  -0.0006078897   0.0000646499   0.0000078498
        0.0000264142   0.0000199142   0.0000354819  -0.0001678102   0.0000041220
       -0.0001037075  -0.0002282979   0.0000730270   0.0000787839   0.0000014131
        0.0000615245   0.0000375474   0.0000797433  -0.0000664711  -0.0001869682
        0.0001820099  -0.0001567282  -0.0000501334   0.0000470129  -0.0000021621
       -0.0000283313  -0.0000619297  -0.0000093700   0.0003072238   0.0002680857
        0.0002244016  -0.0005144032  -0.0007934596
        0.0280362271   0.0000596692   0.0223194153  -0.0272409665  -0.0376090571
       -0.0765650542   0.2488407378   0.0866783257   0.3343326513  -0.1149135670
       -0.0636843368  -0.1567630255  -0.0309689869   0.0185113640  -0.0171334016
       -0.0086045898  -0.0162417341  -0.0146545560  -0.0006961622   0.0038474697
        0.0056212863  -0.0025665864   0.0015873798  -0.0008555624   0.0001733604
       -0.0010789359  -0.0006581967  -0.0038589466  -0.0001245417  -0.0031078123
        0.0032261289  -0.0001959281   0.0038039445  -0.0003600320  -0.0052635815
        0.0015326251  -0.0038332962  -0.0257249548  -0.0144786491  -0.0045158901
        0.0067510603  -0.0021882847   0.0020490988  -0.0055622206   0.0007499365
       -0.0054535114   0.0025546822  -0.0007920792   0.0047542324  -0.0010232296
        0.0002237930  -0.0024805924   0.0006344299  -0.0000568252  -0.0013656902
        0.0039996024  -0.0011750006   0.0009588940   0.0006976758  -0.0003127537
       -0.0024526068   0.0022737527   0.0003946975  -0.0003009930  -0.0041964934
        0.0013370040   0.0018750322   0.0022002726  -0.0006045413   0.0015452712
       -0.0008603825  -0.0008051992  -0.0002697497   0.0025772598   0.0010941278
       -0.0001565250  -0.0026023525  -0.0006605684   0.0005836247   0.0002870875
       -0.0003787211  -0.0005788343  -0.0011997267   0.0000264032  -0.0009904261
        0.0016884777   0.0013320464   0.0014428008  -0.0011196979  -0.0014853315
       -0.0009575412  -0.0007829222   0.0004463771   0.0002078648   0.0007728660
        0.0001432782  -0.0021487689  -0.0002449908   0.0014546586   0.0022014572
       -0.0001609365  -0.0016520833  -0.0009877134   0.0015826996   0.0005851647
       -0.0011833771  -0.0018974020  -0.0003553072   0.0062499455  -0.0018930121
        0.0002238936  -0.0059205092   0.0021811897  -0.0003090604   0.0049148333
       -0.0018153245   0.0006453277  -0.0043899688   0.0004214251   0.0035233977
        0.0003956798  -0.0196128427  -0.0065154046  -0.0806321000   0.0555238688
       -0.0779032690   0.0002336699  -0.0004826613  -0.0000344267   0.0001934893
       -0.0002230836   0.0001703918  -0.0000132407  -0.0000272841  -0.0000866041
        0.0000929462   0.0001126488  -0.0000723559  -0.0000887313   0.0000373455
       -0.0000468369  -0.0000402760   0.0000273277  -0.0000551926  -0.0000194297
       -0.0000003219   0.0001477326  -0.0000428548  -0.0000374317  -0.0000473012
        0.0000911586  -0.0000502544  -0.0002360840  -0.0000217046   0.0000764185
       -0.0000421684   0.0000305667  -0.0000399846  -0.0001031076   0.0000146572
       -0.0000490044  -0.0000926129   0.0000234167   0.0000204218  -0.0000021399
        0.0000126223  -0.0000036561   0.0000253117  -0.0000407933  -0.0000670606
        0.0000717774  -0.0000586431  -0.0000064450   0.0000199345   0.0000085444
       -0.0000008985  -0.0000253924  -0.0000966271   0.0000342298   0.0002212121
        0.0000939718  -0.0012562607  -0.0001914790
       -0.0349454150   0.0043539991  -0.0200439158   0.0197683093  -0.0604731515
       -0.0058955702  -0.1806334614  -0.0190343260  -0.1149135670   0.4988973788
       -0.0218684851   0.2719333872  -0.1766130212   0.0650113429  -0.0619400483
        0.0077431153   0.0439027220   0.0217416214  -0.0395756361  -0.0113916756
       -0.0355747427   0.0061524480  -0.0043338969   0.0011433358  -0.0015621751
        0.0006380360  -0.0006416132   0.0060756027  -0.0007191190   0.0038209601
       -0.0100290701   0.0007364289  -0.0091642565  -0.0094882979  -0.0172304193
       -0.0147804444  -0.0795528073   0.0114793320  -0.0219756855   0.0096198994
        0.0048847220   0.0114900085  -0.0036045753   0.0102677933  -0.0018813428
        0.0072692683  -0.0030774361   0.0001970884  -0.0055666909   0.0033144788
       -0.0009470568   0.0043025351  -0.0006901082   0.0000998172   0.0012538805
       -0.0064970605   0.0019643154  -0.0003665686  -0.0006476468   0.0003343711
        0.0035417096  -0.0048044399  -0.0002357601  -0.0001726886   0.0072772119
       -0.0023553400  -0.0029562252  -0.0036279010   0.0009907535  -0.0024143489
        0.0015098765   0.0012396680   0.0003163403  -0.0040440300  -0.0015402671
        0.0002372547   0.0039427176   0.0010928396  -0.0009926372  -0.0003906806
        0.0006545464   0.0010215569   0.0017659689  -0.0001395497   0.0014693812
       -0.0024718679  -0.0019640739  -0.0020544435   0.0017162080   0.0021617933
        0.0013961458   0.0013032625  -0.0006085545  -0.0002879388  -0.0012556393
       -0.0002883205   0.0033155104   0.0003261541  -0.0022720154  -0.0033735017
        0.0001982365   0.0025445230   0.0015287526  -0.0024489232  -0.0008957798
        0.0015827376   0.0024522292   0.0006641343  -0.0082362249   0.0034541707
       -0.0004154040   0.0065678091  -0.0049974998   0.0001908210  -0.0068706632
        0.0038477189  -0.0029410456  -0.0004663416   0.0000445368  -0.0004583582
        0.0033979892   0.0021886187  -0.0024787323  -0.0176900586  -0.0063521377
       -0.0158637159   0.0032928418   0.0012866463  -0.0032814441  -0.0001515944
        0.0002138162  -0.0001545809  -0.0000980631  -0.0001745190   0.0000633410
       -0.0003487953  -0.0000331423  -0.0001659121   0.0000632828   0.0003117179
        0.0002404372  -0.0002022068  -0.0003208793   0.0001542367  -0.0001145431
        0.0000809883   0.0000937478   0.0000773502   0.0000852162   0.0000942057
       -0.0000866536   0.0000665272   0.0003748920  -0.0000060993  -0.0000341879
       -0.0000260039  -0.0000121428   0.0000022292   0.0000584714  -0.0000051506
        0.0000742056   0.0000922377  -0.0000290749  -0.0000366026  -0.0000052604
       -0.0000260098  -0.0000116342  -0.0000149782   0.0000473952   0.0000684008
       -0.0000879060   0.0000578021   0.0000207913   0.0000005432  -0.0000196607
       -0.0000009518   0.0000177651  -0.0000069225  -0.0001442651  -0.0001507294
       -0.0004365892   0.0002863224   0.0006481129
       -0.0027590859   0.0075059050   0.0017048369  -0.0131235734  -0.0441198612
       -0.0255646463  -0.0598803720  -0.0905387966  -0.0636843368  -0.0218684851
        0.5468605122   0.1277350198   0.0901079571  -0.1241909816   0.0416966963