$hessian                                                                        
        0.4509967914  -0.0763185115   0.2314297022  -0.1918914926   0.0590190370
       -0.0925814551   0.0057239531   0.0684792604   0.0282574006  -0.0343801503
       -0.0029698307  -0.0229900103   0.0153893021  -0.0558926269  -0.0089568369
       -0.1798413277  -0.0262409588  -0.1099784493   0.0066697126   0.0049856066
        0.0013881968  -0.0007433550  -0.0003999361  -0.0005914849   0.0002224537
       -0.0005682311   0.0002754976   0.0008519779   0.0007822584   0.0008297894
       -0.0017163545  -0.0002063143  -0.0011726643   0.0011097573   0.0005366139
        0.0008338527  -0.0013557514   0.0033449758   0.0001866034   0.0010526257
       -0.0002708133   0.0000461200  -0.0004799003  -0.0001099585   0.0005851506
        0.0010712835  -0.0002523958  -0.0000216762  -0.0021257962  -0.0001745126
        0.0001007589   0.0017419475  -0.0002768342   0.0000697451   0.0000048877
       -0.0019688993   0.0006958281  -0.0000605619  -0.0004463498   0.0001431515
        0.0013899880  -0.0010940007  -0.0004005950   0.0014275583   0.0024650851
       -0.0007181237  -0.0015053005  -0.0018228197   0.0005241063  -0.0009979409
        0.0007823449   0.0004638873   0.0001010497  -0.0015594845  -0.0006130929
        0.0001262990   0.0015527719   0.0005053925  -0.0006535471  -0.0001239961
        0.0004678189   0.0006173478   0.0004032007  -0.0002810536   0.0003699267
       -0.0006469783  -0.0005667588  -0.0004893299   0.0004919502   0.0005763569
        0.0003012274   0.0007074285  -0.0000003608  -0.0001290848  -0.0007869360
       -0.0002099928   0.0013083229   0.0001662929  -0.0009947854  -0.0013015523
        0.0000780593   0.0010148287   0.0007682897  -0.0009804900  -0.0003713992
       -0.0005144236   0.0009774778   0.0004400109  -0.0019217088   0.0012063638
       -0.0003724701   0.0010282485   0.0011973929  -0.0004370783  -0.0004950641
       -0.0005490454  -0.0002147504  -0.0419952953   0.0220637626   0.0011000230
       -0.0167307968   0.0097517826  -0.0093665638   0.0037454727   0.0014502176
       -0.0028269345  -0.0168083540  -0.0069413878  -0.0161395910   0.0000684930
        0.0001329882  -0.0000804052   0.0000351979  -0.0000183203   0.0000452900
       -0.0000332376  -0.0000065005  -0.0000014528  -0.0000171135   0.0000002758
       -0.0000102823   0.0001064661   0.0000843303  -0.0000805911  -0.0000516097
       -0.0001133255  -0.0001011813   0.0000229382   0.0000973031   0.0000877990
        0.0000069116  -0.0000140263   0.0001303823  -0.0000650501   0.0000187868
        0.0000667744   0.0000076036  -0.0000220008  -0.0000336181  -0.0000034479
        0.0000299372   0.0000177112   0.0000084471  -0.0000108135  -0.0000068055
        0.0000109981   0.0000098433   0.0000024782   0.0000410643  -0.0000064543
       -0.0000307164   0.0000104583  -0.0000018066   0.0000035896  -0.0000087261
       -0.0000768245  -0.0000495623  -0.0000645003  -0.0000163007  -0.0001175934
        0.0000437715   0.0000723365   0.0000300897
       -0.0763185115   0.6253132034   0.1202595267   0.1258378618  -0.1546373752
        0.0597066915   0.0208108964  -0.0446666747   0.0001953706   0.0039821236
        0.0074284181   0.0077362250  -0.0195930615  -0.0282570903  -0.0252432055
       -0.0840400431  -0.1237373171  -0.0914288874   0.0035542519  -0.0023914956
       -0.0006583021  -0.0007290703  -0.0000137120  -0.0005882402  -0.0003045510
        0.0005157581   0.0001804473  -0.0002201594  -0.0003999036  -0.0003126678
        0.0005046647  -0.0004910556   0.0003309670   0.0010816994  -0.0019258390
        0.0004226329  -0.0008579115  -0.0053553061  -0.0022946023  -0.0016140211
        0.0010206888  -0.0002023835   0.0005964907  -0.0005996998  -0.0000619247
       -0.0012101276   0.0004005249  -0.0001312470   0.0013210642   0.0001042790
       -0.0000508094  -0.0005773783   0.0003243398  -0.0000878077  -0.0001903245
        0.0005102391  -0.0001712471   0.0002010266   0.0001322108  -0.0000454388
       -0.0003785860   0.0002037693   0.0001023661  -0.0001893368  -0.0005801416
        0.0002014171   0.0003116791   0.0003749427  -0.0001171122   0.0003793372
       -0.0001515708  -0.0002234250  -0.0000921188   0.0006505158   0.0002949471
       -0.0000561555  -0.0006157733  -0.0001874980   0.0001299754   0.0000920504
       -0.0000695231  -0.0001276108  -0.0003540717  -0.0000344358  -0.0002612069
        0.0005089668   0.0003928056   0.0004111820  -0.0003198944  -0.0004330437
       -0.0002901104  -0.0001499677   0.0001665875   0.0000740023   0.0001648541
        0.0000148359  -0.0005099487  -0.0000622936   0.0003711302   0.0005386986
       -0.0000780832  -0.0004335826  -0.0001580240   0.0004007240   0.0001464272
       -0.0001189983  -0.0003477910  -0.0000742578   0.0010590733  -0.0002550602
        0.0000530187  -0.0011127025  -0.0000687237   0.0000412340   0.0011112907
       -0.0002093543   0.0000700044   0.0221157864  -0.2794406919  -0.0700360974
       -0.0079824730   0.0059260288  -0.0047491707   0.0018854029  -0.0045486963
       -0.0029710660   0.0111765990   0.0059214946   0.0100416572  -0.0000328862
       -0.0000401983  -0.0001193444  -0.0000039905  -0.0000166609  -0.0000050668
        0.0000204802   0.0000239165  -0.0000046992  -0.0000434745  -0.0000996565
       -0.0000876364   0.0000381366   0.0000194450  -0.0000254158   0.0000225825
        0.0000451161   0.0000642031  -0.0000086841  -0.0000006830  -0.0000209724
       -0.0000215947  -0.0000010712  -0.0000426430   0.0000123921  -0.0000119699
       -0.0000248977   0.0000445847  -0.0000018256  -0.0000156375  -0.0000038977
       -0.0000485102  -0.0000208276  -0.0000220034  -0.0000109598   0.0000117559
       -0.0000190309  -0.0000244175  -0.0000016305  -0.0000428344  -0.0000017464
        0.0000310841  -0.0000169047   0.0000232953   0.0000152015   0.0000088084
        0.0000277987   0.0000105969  -0.0000040105  -0.0000402303   0.0000505296
       -0.0000783474  -0.0001770682   0.0000630839
        0.2314297022   0.1202595267   0.3318245648  -0.0677798201   0.0071494686
       -0.0983055512   0.0108788014   0.0373684461   0.0231408683  -0.0202767399
        0.0016944990  -0.0209856735   0.0034657031  -0.0523769587  -0.0142623690
       -0.1310244338  -0.0479212652  -0.1595297631   0.0011637140   0.0002943465
        0.0075875956  -0.0006022593  -0.0003489633  -0.0004632292   0.0005092353
       -0.0000835806  -0.0003324423   0.0006621282   0.0004942011   0.0006708550
       -0.0010178318  -0.0001108824  -0.0011596504   0.0009316110  -0.0001678517
        0.0006901898  -0.0010338592   0.0010157205  -0.0006181147   0.0005334918
        0.0005129638  -0.0001457123  -0.0002674030  -0.0005389601   0.0005249281
        0.0005741292  -0.0000341367  -0.0000613560  -0.0015494739  -0.0004245736
        0.0001912575   0.0011160058  -0.0002081894   0.0000579150   0.0000138852
       -0.0012170347   0.0004402771  -0.0001198328  -0.0003824107   0.0001206750
        0.0009843371  -0.0005496012  -0.0003442059   0.0012191087   0.0015699509
       -0.0004264248  -0.0010719854  -0.0012960046   0.0003685583  -0.0006866823
        0.0005793787   0.0003203602   0.0000565537  -0.0010824670  -0.0004187931
        0.0000777985   0.0010914580   0.0003636916  -0.0004666017  -0.0000668287
        0.0003493396   0.0004565541   0.0002669086  -0.0002181212   0.0002381823
       -0.0004235089  -0.0003676212  -0.0003307279   0.0003184301   0.0003839436
        0.0002075971   0.0005232729   0.0000120449  -0.0000766677  -0.0005677807
       -0.0001603051   0.0009200518   0.0001138279  -0.0007011420  -0.0009113235
        0.0000411420   0.0007051791   0.0005656705  -0.0006760892  -0.0002731573
       -0.0005040655   0.0007056444   0.0003054959  -0.0011941776   0.0007422201
       -0.0002953883   0.0005782175   0.0013100378  -0.0004338281  -0.0001808034
       -0.0004933436   0.0000499861   0.0010882652  -0.0700567740  -0.0570331309
       -0.0165356057   0.0096257464  -0.0084296652  -0.0028289847  -0.0033544829
        0.0045486270  -0.0090422439  -0.0032681516  -0.0077415732  -0.0001255953
        0.0000322511   0.0000863915   0.0000302705  -0.0000144210   0.0000284408
       -0.0000864480  -0.0000324966   0.0000780379  -0.0000016927  -0.0000408708
       -0.0000456015   0.0000900593   0.0000666598  -0.0000711887  -0.0000251041
       -0.0000762090  -0.0000901671   0.0000115152   0.0000741413   0.0000655251
       -0.0000029143  -0.0000084720   0.0000819712  -0.0000414704   0.0000074224
        0.0000419965   0.0000226227  -0.0000160310  -0.0000421607  -0.0000083915
       -0.0000012471   0.0000042480  -0.0000076891  -0.0000164435  -0.0000017127
       -0.0000035986  -0.0000067974   0.0000025091   0.0000149299  -0.0000059149
       -0.0000115848   0.0000008377   0.0000097301   0.0000102085  -0.0000026908
       -0.0000462050  -0.0000319345  -0.0000438344  -0.0000262344  -0.0000876039
        0.0000099735   0.0000737874   0.0000334907
       -0.1918914926   0.1258378618  -0.0677798201   0.4556892868  -0.0702368418
        0.2448117935  -0.0776211928   0.0024943285  -0.0268979681   0.0202903988
       -0.0123127490   0.0114978908  -0.0081907923   0.0234050732   0.0056514326
       -0.0447088310  -0.0209531444  -0.0426936073  -0.0028051131  -0.0014258521
       -0.0023684936   0.0009609505  -0.0000531937   0.0006329612  -0.0003093387
        0.0007248074   0.0001309042   0.0007733568  -0.0009466860   0.0003400102
       -0.0007229714  -0.0001499314  -0.0004697137   0.0004931239  -0.0004702113
       -0.0000401725  -0.0009482660  -0.0056011847  -0.0073586036  -0.0012167333
        0.0001299946  -0.0002843557   0.0002196002   0.0003527254  -0.0001732564
       -0.0006249310  -0.0000312056   0.0000754707   0.0010353681   0.0001624007
       -0.0001657128  -0.0006628773   0.0002814250  -0.0000721196   0.0003929398
        0.0001486472  -0.0000800758  -0.0003067268  -0.0000478457   0.0000079421
       -0.0000246832   0.0002357524   0.0000186648  -0.0003425617  -0.0003813674
        0.0001488480   0.0002612109   0.0003174577  -0.0001321188   0.0002737266
       -0.0001152576  -0.0001340743  -0.0000447191   0.0004179156   0.0001813935
       -0.0000879031  -0.0003681044  -0.0000555896   0.0001284431   0.0000525947
       -0.0000798217  -0.0000914645  -0.0001798432  -0.0000060605  -0.0001347724
        0.0002783603   0.0002203178   0.0002065432  -0.0001809425  -0.0002260479
       -0.0001392718  -0.0001163357   0.0000626798   0.0000567896   0.0001562813
        0.0000163414  -0.0003247869  -0.0000467843   0.0002460932   0.0003364229
       -0.0000537172  -0.0002785007  -0.0001244506   0.0002496034   0.0000927393
        0.0003164454   0.0000281519  -0.0001386057  -0.0001442398  -0.0002806190
        0.0001437401   0.0004058057  -0.0010194184   0.0003150333  -0.0001325584
        0.0008327582   0.0001261381  -0.0027687981   0.0035222291  -0.0015159749
       -0.1447217042  -0.0656201014  -0.1126461408  -0.0033254088   0.0215530109
        0.0044189709   0.0003176831  -0.0006723311  -0.0057033577   0.0001561380
       -0.0000251670   0.0001017889  -0.0000034779   0.0000056030   0.0000049548
        0.0000437511  -0.0000134695  -0.0000480136  -0.0000027311   0.0000127532
        0.0000193579   0.0000188040   0.0000093384   0.0000133140   0.0000424621
        0.0000612032   0.0000442457  -0.0000104602  -0.0000064740   0.0000003503
       -0.0000308569   0.0000189919  -0.0000330767   0.0000563618   0.0000205541
       -0.0000168475   0.0000224405  -0.0000248939  -0.0000380249  -0.0000102410
       -0.0000550260  -0.0000117747  -0.0000194169  -0.0000155952   0.0000047977
       -0.0000229395  -0.0000285070   0.0000036266  -0.0000357979  -0.0000006048
        0.0000268463  -0.0000155384   0.0000254409   0.0000174833   0.0000092529
        0.0000389646   0.0000256698   0.0000466247  -0.0000126377   0.0000100648
        0.0000141183   0.0000718144   0.0000360637
        0.0590190370  -0.1546373752   0.0071494686  -0.0702368418   0.5892801506
        0.1153960277   0.0631682769  -0.2912708520  -0.0383012446  -0.0590920401
       -0.0443736009  -0.0598047358   0.0212495652  -0.0275884550   0.0084059427
        0.0270953902   0.0405799163   0.0351804261  -0.0045264279  -0.0073150497
       -0.0062186523   0.0044232183  -0.0032763991   0.0023211365  -0.0001447619
        0.0011229750   0.0004262020   0.0075645434   0.0011302467   0.0062109028
       -0.0087037667  -0.0005795203  -0.0072406128   0.0012538248   0.0077820298
        0.0014560670  -0.0048793261   0.0190858727   0.0015523456   0.0085179394
       -0.0089245068   0.0022767454  -0.0036220252   0.0073215570   0.0001797700
        0.0085447271  -0.0034419006   0.0010265062  -0.0092070478   0.0014044052
       -0.0002671079   0.0056534100  -0.0011219186   0.0001309661   0.0022660918
       -0.0086459629   0.0024000336  -0.0016021371  -0.0017090198   0.0006934573
        0.0055780966  -0.0050943414  -0.0011844319   0.0021112779   0.0097047931
       -0.0028539583  -0.0049253122  -0.0058576737   0.0015622808  -0.0039968570
        0.0026380633   0.0022704101   0.0003888529  -0.0070206949  -0.0027705127
        0.0003783229   0.0068528055   0.0020940716  -0.0015552765  -0.0006479065
        0.0010770713   0.0018559304   0.0032774323  -0.0001681080   0.0026468899
       -0.0044503732  -0.0035683418  -0.0037822281   0.0030249497   0.0040219894
        0.0026214395   0.0022560461  -0.0012908882  -0.0004717969  -0.0018797408
       -0.0004906318   0.0056390362   0.0005163939  -0.0040069888  -0.0058276603
        0.0003400722   0.0045055199   0.0027136518  -0.0042463241  -0.0016972787
        0.0010633392   0.0038808911   0.0011997868  -0.0120243748   0.0046500753
       -0.0009008522   0.0097310005  -0.0016469876  -0.0002943300  -0.0070542002
        0.0020624329  -0.0025180448   0.0216485278  -0.0193115289   0.0095711779
       -0.0663366349  -0.0866143777  -0.0703832177   0.0042978316  -0.0179243003
       -0.0035783073  -0.0013194153   0.0009272313  -0.0035069922  -0.0003313853
        0.0004043650  -0.0002623630  -0.0000425835   0.0000474044   0.0000316265
       -0.0001711592  -0.0001875378  -0.0001558253   0.0000700691   0.0000520871
        0.0001514668   0.0000104659  -0.0002711071  -0.0000964517   0.0001257891
       -0.0000579537  -0.0002447103   0.0000180600   0.0001010447   0.0003222656
       -0.0001121156   0.0002714767   0.0003703543   0.0000325376  -0.0000927824
       -0.0000566103   0.0000323898  -0.0000526513  -0.0001070867  -0.0000175937
       -0.0000226337   0.0000148201  -0.0001526067  -0.0001298363  -0.0000214698
       -0.0001291115  -0.0001552296   0.0000699506  -0.0000127287  -0.0000099877
       -0.0000012735  -0.0000603461   0.0001347745   0.0001494697  -0.0000173921
        0.0001131047   0.0001097250   0.0001313330  -0.0001961187  -0.0003166612
        0.0005042870  -0.0002079490  -0.0000202945
       -0.0925814551   0.0597066915  -0.0983055512   0.2448117935   0.1153960277
        0.3458568452  -0.0048977469  -0.0860964141  -0.0777428103  -0.0056620126
       -0.0260037388  -0.0133962804   0.0052196889   0.0100562485   0.0024147569
       -0.0255214882  -0.0019786625  -0.0189242535  -0.0037013915  -0.0036306477
       -0.0043374777   0.0024443149  -0.0012211891   0.0013572683  -0.0003344874
        0.0009842232   0.0003041570   0.0034500743  -0.0003522376   0.0024991801
       -0.0037438131  -0.0003147499  -0.0032287037   0.0006580955   0.0020830784
        0.0010848170  -0.0077795103   0.0018768044   0.0001621652   0.0022308757
       -0.0043046877   0.0018112326  -0.0012839499   0.0040244124  -0.0006052063
        0.0034323571  -0.0017671855   0.0005171285  -0.0028117687   0.0012626955
       -0.0003635137   0.0020343246  -0.0002839994  -0.0000249988   0.0009214824
       -0.0035187729   0.0009655644  -0.0003533611  -0.0004099818   0.0001983012
        0.0019661141  -0.0023955453  -0.0002458066   0.0000591676   0.0038084662
       -0.0011765778  -0.0016127263  -0.0019943198   0.0004999203  -0.0012116889
        0.0008269406   0.0006257542   0.0001045157  -0.0020776335  -0.0007950376
        0.0000600950   0.0020939005   0.0007285825  -0.0005051040  -0.0002026281
        0.0003568246   0.0006198541   0.0008925405  -0.0001276491   0.0007705514
       -0.0012116099  -0.0009951646  -0.0010452327   0.0008798912   0.0011324103
        0.0007112418   0.0007347560  -0.0003194164  -0.0001266840  -0.0006134388
       -0.0001819722   0.0017150374   0.0001570796  -0.0011875392  -0.0017492779
        0.0000709563   0.0013318133   0.0008091505  -0.0012962681  -0.0004404672
        0.0009242715   0.0014523889   0.0003803574  -0.0047766726   0.0018082853
       -0.0002485764   0.0041023319  -0.0021734465   0.0003107828  -0.0027016472
        0.0016205325  -0.0010922342   0.0050902659  -0.0044122048   0.0029400537
       -0.1121988838  -0.0709687223  -0.1470684682  -0.0015953248   0.0104856568
        0.0030018021  -0.0060275499  -0.0029700798   0.0023079138  -0.0000053441
        0.0001265880  -0.0000192757  -0.0000151722   0.0000214135   0.0000043305
       -0.0000380548  -0.0000831311  -0.0000894757   0.0000273829   0.0000295059
        0.0000750813   0.0000205050  -0.0000924494  -0.0000665690   0.0000729138
        0.0000522927   0.0000370066  -0.0000032608   0.0000319435   0.0000991421
       -0.0000570938   0.0001084197   0.0001414425   0.0000469758   0.0000025039
       -0.0000534421   0.0000171800  -0.0000506205  -0.0001125494  -0.0000192482
       -0.0000535287  -0.0000113247  -0.0000603585  -0.0000572426  -0.0000079092
       -0.0000629618  -0.0000750509   0.0000258317  -0.0000294960  -0.0000024694
        0.0000152100  -0.0000310650   0.0000639355   0.0000635593  -0.0000082908
        0.0000627730   0.0000526465   0.0000748040  -0.0000871219  -0.0000719623
        0.0001567572  -0.0000211731  -0.0000616687
        0.0057239531   0.0208108964   0.0108788014  -0.0776211928   0.0631682769
       -0.0048977469   0.4638575812  -0.1048521160   0.2492302355  -0.1768092502
       -0.0589263752  -0.1282777589  -0.0333174533   0.0121883790  -0.0213953275
       -0.0034122878  -0.0118413306  -0.0049785182  -0.0015857592   0.0039929024
       -0.0030697524  -0.0007748333   0.0001091524  -0.0009039616  -0.0004369313
       -0.0000875795  -0.0001451116  -0.0003613770  -0.0002370381  -0.0003316750
        0.0005567404  -0.0004467562  -0.0002373578   0.0030182114   0.0005581414
        0.0010110168  -0.0003350781  -0.0183962982  -0.0059233186  -0.0022751454
        0.0030193583   0.0001270710   0.0008435001  -0.0023472534   0.0004541653
       -0.0019813328   0.0009472981  -0.0004051519   0.0011936288  -0.0007228580
        0.0002016493  -0.0007175138   0.0003657680  -0.0000495488  -0.0002496891
        0.0008870566  -0.0002550857   0.0000171573  -0.0001017850  -0.0000090154
       -0.0002791778   0.0007282243  -0.0000488437   0.0003835832  -0.0009281389
        0.0003747993   0.0002548765   0.0002779225  -0.0000983606   0.0002548358
        0.0000132936  -0.0000939493  -0.0001035532   0.0003831947   0.0002353705
       -0.0000441587  -0.0004021032  -0.0001097313   0.0000990972   0.0000931266
       -0.0000541275  -0.0000750420  -0.0001940956  -0.0000139747  -0.0002010775
        0.0002934439   0.0002523967   0.0002585601  -0.0002331800  -0.0002854315
       -0.0001455009  -0.0001128557   0.0000755738   0.0000601452   0.0001215434
        0.0000114610  -0.0003367744  -0.0000563813   0.0002141497   0.0003578499
       -0.0000461651  -0.0002815924  -0.0000577524   0.0002587961   0.0000305029
       -0.0005288680  -0.0003081607  -0.0001513736   0.0014935859  -0.0004413697
       -0.0000599779  -0.0016809539   0.0015157187  -0.0002828406   0.0015777579
       -0.0000758682   0.0007838589  -0.0006626312   0.0038060673  -0.0043795580
        0.0009572105  -0.0182312444  -0.0058548618  -0.1771765506   0.1057249062
       -0.0821220267   0.0002778505  -0.0003892378   0.0002810523   0.0001568040
       -0.0001249684   0.0000907183  -0.0000447182  -0.0000527956  -0.0000102927
       -0.0000307557  -0.0000246073   0.0000684390   0.0000014962   0.0000722756
       -0.0000102668   0.0000560413   0.0000348528   0.0000006848  -0.0000061064
       -0.0000326231   0.0000252656   0.0000022534   0.0000264228  -0.0000032610
       -0.0000186436  -0.0000214542  -0.0000415253  -0.0000147056   0.0000373372
       -0.0000026091   0.0000266893  -0.0000472699  -0.0000172996   0.0000067617
       -0.0000204241  -0.0000095968   0.0000001126  -0.0000042308   0.0000055078
       -0.0000056763  -0.0000067305  -0.0000012191  -0.0000173604  -0.0000035185
        0.0000158006  -0.0000074987   0.0000041628   0.0000039678   0.0000097881
       -0.0000022240  -0.0000065813  -0.0000336635  -0.0000527401   0.0000691471
       -0.0000970585   0.0003332592   0.0003769962
        0.0684792604  -0.0446666747   0.0373684461   0.0024943285  -0.2912708520
       -0.0860964141  -0.1048521160   0.5946399777   0.0889630888  -0.0186077268
       -0.0904207007  -0.0341449748  -0.0165094200   0.0265598003  -0.0037009373
       -0.0222019071  -0.0227960569  -0.0244071882   0.0105411419   0.0079356009
        0.0091422209  -0.0044381097   0.0044733553  -0.0020934514   0.0004304052
       -0.0021260549  -0.0005575154  -0.0086804127  -0.0010610728  -0.0071183215
        0.0081491900   0.0006908817   0.0068119409  -0.0002212267  -0.0144183089
       -0.0036238534  -0.0169486671  -0.0383063567  -0.0269517537  -0.0107106766
        0.0113222426  -0.0035320972   0.0040512142  -0.0086598741   0.0002596776
       -0.0094460761   0.0041447960  -0.0012512822   0.0094791692  -0.0023207837
        0.0006137955  -0.0060254697   0.0012121519  -0.0001171754  -0.0024336969
        0.0093739965  -0.0025686745   0.0015404611   0.0016410687  -0.0007066463
       -0.0058612302   0.0058596746   0.0010898199  -0.0015159103  -0.0104871947
        0.0031160558   0.0050197913   0.0059989626  -0.0016036723   0.0041224838
       -0.0026743540  -0.0023255093  -0.0003696593   0.0072770726   0.0027749794
       -0.0004287481  -0.0070369268  -0.0020847735   0.0015597093   0.0006913331
       -0.0010641945  -0.0018745182  -0.0033953338   0.0001420642  -0.0027794333
        0.0046004179   0.0037064646   0.0039128058  -0.0031711523  -0.0041762612
       -0.0027071991  -0.0022836380   0.0013533912   0.0004896314   0.0018721579
        0.0004879076  -0.0058152519  -0.0005359289   0.0040876328   0.0059964847
       -0.0003498675  -0.0046272812  -0.0027027103   0.0043806029   0.0016730172
       -0.0015794135  -0.0040467090  -0.0011320413   0.0130106087  -0.0050086000
        0.0008334194  -0.0109523048   0.0033284424  -0.0002945379   0.0082543002
       -0.0038775527   0.0024864058   0.0037966411  -0.0010269508   0.0002175356
        0.0000171836  -0.0148654969  -0.0064689544   0.1057269115  -0.1204103403
        0.0565014291  -0.0002160621  -0.0006097106  -0.0001608189   0.0003273367
       -0.0004186141   0.0002585323   0.0000697066   0.0000014876   0.0000529763
        0.0000148200   0.0002263017   0.0001351872  -0.0001051676   0.0001037163
       -0.0001492221   0.0001195304   0.0004252546  -0.0000044394  -0.0001552573
       -0.0000097496   0.0001939616   0.0000031001  -0.0000906628  -0.0003300497
        0.0001293851  -0.0002940601  -0.0003878467  -0.0000070650   0.0000811875
        0.0001274305  -0.0000500697   0.0000674151   0.0001020299   0.0000049495
        0.0000110242  -0.0000109407   0.0001645019   0.0001328453   0.0000242037
        0.0001407239   0.0001703243  -0.0000740928   0.0000207588   0.0000075960
       -0.0000023573   0.0000681370  -0.0001513623  -0.0001614885   0.0000207624
       -0.0001482772  -0.0001392138  -0.0000919380   0.0002504879   0.0002224460
        0.0001320100  -0.0005409582  -0.0006780793
        0.0282574006   0.0001953706   0.0231408683  -0.0268979681  -0.0383012446
       -0.0777428103   0.2492302355   0.0889630888   0.3420811497  -0.1147183700
       -0.0649698320  -0.1607038531  -0.0315655901   0.0185984078  -0.0177821833
       -0.0085585475  -0.0164374658  -0.0151860635  -0.0006795367   0.0039623458
        0.0056566378  -0.0026802683   0.0016913720  -0.0009633158   0.0001290061
       -0.0011069304  -0.0007429731  -0.0039132667  -0.0001570959  -0.0032673009
        0.0033048731  -0.0002627868   0.0039453579  -0.0002919023  -0.0054290588
        0.0015437523  -0.0035460130  -0.0262323209  -0.0149485566  -0.0046753844
        0.0068953007  -0.0022086441   0.0021565674  -0.0056252412   0.0007077381
       -0.0055996752   0.0025355447  -0.0008288098   0.0048595647  -0.0010455120
        0.0003122232  -0.0026125733   0.0006756750  -0.0001104224  -0.0012491753
        0.0040446584  -0.0011154060   0.0007975858   0.0006000512  -0.0002806850
       -0.0023675668   0.0023597300   0.0004205160  -0.0003335083  -0.0042821180
        0.0013471972   0.0019518925   0.0022682825  -0.0006394278   0.0016145036
       -0.0008557011  -0.0008705308  -0.0002311170   0.0027935824   0.0011958170
       -0.0001832509  -0.0027938983  -0.0008051450   0.0006100937   0.0003090335
       -0.0004096965  -0.0007026715  -0.0013495571   0.0000292143  -0.0011252845
        0.0018356729   0.0014855582   0.0015912148  -0.0012610633  -0.0016869547
       -0.0010678633  -0.0008912607   0.0005411172   0.0002189133   0.0007490410
        0.0001755789  -0.0022903680  -0.0002413106   0.0015886729   0.0023716537
       -0.0001537310  -0.0018206208  -0.0009985529   0.0017164765   0.0006048102
       -0.0011712409  -0.0017919304  -0.0004951763   0.0062383167  -0.0019559978
        0.0002584647  -0.0060023081   0.0022358451  -0.0002849148   0.0050108279
       -0.0018697732   0.0008107258  -0.0044333198   0.0003171022   0.0033564923
        0.0006104418  -0.0198794614  -0.0067977963  -0.0817037980   0.0559371642
       -0.0793135577   0.0002924472  -0.0004738948  -0.0000080134   0.0002088920
       -0.0002686523   0.0002113712   0.0000611790  -0.0000091197  -0.0000588899
        0.0001429210   0.0001459004  -0.0000791687  -0.0000668337   0.0000950828
       -0.0000245850  -0.0000157953   0.0000846390   0.0000027823  -0.0000821622
       -0.0000453963   0.0001314092   0.0000127756  -0.0000248048  -0.0001148982
        0.0000519760  -0.0001417773  -0.0001654366  -0.0000458658   0.0001044195
        0.0000015286  -0.0000014745  -0.0000270340  -0.0000009383   0.0000137919
        0.0000011049  -0.0000146224   0.0000682515   0.0000497400   0.0000065353
        0.0000503945   0.0000592713  -0.0000281711   0.0000001073  -0.0000005197
        0.0000051454   0.0000230996  -0.0000531640  -0.0000590087   0.0000170404
       -0.0000555292  -0.0000616368  -0.0001279555   0.0000094659   0.0002046814
        0.0000432405  -0.0012401859  -0.0001451318
       -0.0343801503   0.0039821236  -0.0202767399   0.0202903988  -0.0590920401
       -0.0056620126  -0.1768092502  -0.0186077268  -0.1147183700   0.4913748167
       -0.0255939836   0.2726283782  -0.1759710961   0.0646440613  -0.0631982869
        0.0068254600   0.0438340322   0.0219660679  -0.0385670290  -0.0114351087
       -0.0358954808   0.0061864718  -0.0042495655   0.0012209727  -0.0015027473
        0.0006425092  -0.0005987959   0.0059827066  -0.0007078672   0.0038704126
       -0.0098080133   0.0007483231  -0.0092764953  -0.0085444265  -0.0168212718
       -0.0145219673  -0.0788462568   0.0134342629  -0.0216080457   0.0091389186
        0.0050366742   0.0116066055  -0.0035305272   0.0100361957  -0.0018208256
        0.0071548127  -0.0029198158   0.0002025571  -0.0054547892   0.0032890871
       -0.0010248675   0.0043126491  -0.0007025222   0.0001543381   0.0011086983
       -0.0063837166   0.0018377708  -0.0001980084  -0.0005326451   0.0002848809
        0.0033568493  -0.0047624549  -0.0002684416  -0.0001532334   0.0071422685
       -0.0022819405  -0.0029532952  -0.0035877473   0.0010063698  -0.0023892538
        0.0015015041   0.0012776319   0.0002478494  -0.0041031748  -0.0015985838
        0.0002804517   0.0039901771   0.0012076344  -0.0009987993  -0.0003973934
        0.0006773165   0.0011241101   0.0018087134  -0.0001582316   0.0015243294
       -0.0024910211  -0.0020384235  -0.0020832957   0.0017765753   0.0022666143
        0.0014176648   0.0013697883  -0.0006487866  -0.0003030735  -0.0012111502
       -0.0003159539   0.0033264517   0.0003264598  -0.0023386890  -0.0034020759
        0.0001807019   0.0026309080   0.0015259159  -0.0024865416  -0.0009137704
        0.0015351984   0.0022902183   0.0007893026  -0.0079773832   0.0034077862
       -0.0004320993   0.0063777421  -0.0049274826   0.0001318653  -0.0067301992
        0.0038210308  -0.0030093425  -0.0004165675   0.0001131166  -0.0004058833
        0.0034837657   0.0022561480  -0.0024305581  -0.0173386158  -0.0063571002
       -0.0161440181   0.0033015276   0.0014263820  -0.0032746673  -0.0001615734
        0.0002483570  -0.0001953645  -0.0001530658  -0.0002044283   0.0000508233
       -0.0003904664  -0.0000608992  -0.0001418638   0.0000226501   0.0002693005
        0.0002217594  -0.0002272135  -0.0003701767   0.0000816955  -0.0000528112
        0.0001227906   0.0001187208   0.0000186370   0.0000640073   0.0001623944
       -0.0000468386   0.0001517435   0.0002899424   0.0000152774  -0.0000587537
       -0.0000608528   0.0000191249  -0.0000082523  -0.0000483429  -0.0000076609
        0.0000183069   0.0000113984  -0.0000737956  -0.0000628496  -0.0000126531
       -0.0000573400  -0.0000729354   0.0000376089   0.0000111423  -0.0000027438
       -0.0000208131  -0.0000249148   0.0000666367   0.0000782073  -0.0000262520
        0.0000503445   0.0000485783   0.0000133228  -0.0001187927  -0.0001334721
       -0.0003969240   0.0002805343   0.0006138841
       -0.0029698307   0.0074284181   0.0016944990  -0.0123127490  -0.0443736009
       -0.0260037388  -0.0589263752  -0.0904207007  -0.0649698320  -0.0255939836
        0.5453136492   0.1306817811   0.0894108622  -0.1231666564   0.0423666381