      -----------------------------------------------------------      
     |                   =====================                   |     
     |                           x T B                           |     
     |                   =====================                   |     
     |                         S. Grimme                         |     
     |          Mulliken Center for Theoretical Chemistry        |     
     |                    University of Bonn                     |     
      -----------------------------------------------------------      

   * xtb version 6.7.1 (edcfbbe) compiled by 'albert@albert-system' on 2024-07-22

   xtb is free software: you can redistribute it and/or modify it under
   the terms of the GNU Lesser General Public License as published by
   the Free Software Foundation, either version 3 of the License, or
   (at your option) any later version.
   
   xtb is distributed in the hope that it will be useful,
   but WITHOUT ANY WARRANTY; without even the implied warranty of
   MERCHANTABILITY or FITNESS FOR A PARTICULAR PURPOSE.  See the
   GNU Lesser General Public License for more details.
   
   Cite this work as:
   * C. Bannwarth, E. Caldeweyher, S. Ehlert, A. Hansen, P. Pracht,
     J. Seibert, S. Spicher, S. Grimme, WIREs Comput. Mol. Sci., 2020, 11,
     e01493. DOI: 10.1002/wcms.1493
   
   for GFN2-xTB:
   * C. Bannwarth, S. Ehlert and S. Grimme., J. Chem. Theory Comput., 2019,
     15, 1652-1671. DOI: 10.1021/acs.jctc.8b01176
   for GFN1-xTB:
   * S. Grimme, C. Bannwarth, P. Shushkov, J. Chem. Theory Comput., 2017,
     13, 1989-2009. DOI: 10.1021/acs.jctc.7b00118
   for GFN0-xTB:
   * P. Pracht, E. Caldeweyher, S. Ehlert, S. Grimme, ChemRxiv, 2019, preprint.
     DOI: 10.26434/chemrxiv.8326202.v1
   for GFN-FF:
   * S. Spicher and S. Grimme, Angew. Chem. Int. Ed., 2020, 59, 15665-15673.
     DOI: 10.1002/anie.202004239
   
   for ALPB and GBSA implicit solvation:
   * S. Ehlert, M. Stahn, S. Spicher, S. Grimme, J. Chem. Theory Comput.,
     2021, 17, 4250-4261. DOI: 10.1021/acs.jctc.1c00471
   
   for ddCOSMO and CPCM-X implicit solvation:
   * M. Stahn, S. Ehlert, S. Grimme, J. Phys. Chem. A,
     2023, XX, XXXX-XXXX. DOI: 10.1021/acs.jpca.3c04382
   
   for DFT-D4:
   * E. Caldeweyher, C. Bannwarth and S. Grimme, J. Chem. Phys., 2017,
     147, 034112. DOI: 10.1063/1.4993215
   * E. Caldeweyher, S. Ehlert, A. Hansen, H. Neugebauer, S. Spicher,
     C. Bannwarth and S. Grimme, J. Chem. Phys., 2019, 150, 154122.
     DOI: 10.1063/1.5090222
   * E. Caldeweyher, J.-M. Mewes, S. Ehlert and S. Grimme, Phys. Chem. Chem. Phys.
     2020, 22, 8499-8512. DOI: 10.1039/D0CP00502A
   
   for sTDA-xTB:
   * S. Grimme and C. Bannwarth, J. Chem. Phys., 2016, 145, 054103.
     DOI: 10.1063/1.4959605
   
   in the mass-spec context:
   * V. Asgeirsson, C. Bauer and S. Grimme, Chem. Sci., 2017, 8, 4879.
     DOI: 10.1039/c7sc00601b
   * J. Koopman and S. Grimme, ACS Omega 2019, 4, 12, 15120-15133.
     DOI: 10.1021/acsomega.9b02011
   
   for metadynamics refer to:
   * S. Grimme, J. Chem. Theory Comput., 2019, 155, 2847-2862
     DOI: 10.1021/acs.jctc.9b00143
   
   for SPH calculations refer to:
   * S. Spicher and S. Grimme, J. Chem. Theory Comput., 2021, 17, 1701-1714
     DOI: 10.1021/acs.jctc.0c01306
   
   for ONIOM refer to:
   * C. Plett, A. Katbashev, S. Ehlert, S. Grimme, M. Bursch,
     Phys. Chem. Chem. Phys., 2023, 25, 17860-17868. DOI: 10.1039/D3CP02178E
   
   for DIPRO refer to:
   * J. Kohn, N. Gildemeister, S. Grimme, D. Fazzi, A. Hansen,
     J. Chem. Phys., 2023, just accepted.
   
   for PTB refer to:
   * S. Grimme, M. Mueller, A. Hansen, J. Chem. Phys., 2023, 158, 124111.
     DOI: 10.1063/5.0137838
   
   with help from (in alphabetical order)
   P. Atkinson, C. Bannwarth, F. Bohle, G. Brandenburg, E. Caldeweyher
   M. Checinski, S. Dohm, S. Ehlert, S. Ehrlich, I. Gerasimov, C. Hölzer
   A. Katbashev, J. Kohn, J. Koopman, C. Lavigne, S. Lehtola, F. März, M. Müller,
   F. Musil, H. Neugebauer, J. Pisarek, C. Plett, P. Pracht, F. Pultar,
   J. Seibert, P. Shushkov, S. Spicher, M. Stahn, M. Steiner, T. Strunk,
   J. Stückrath, T. Rose, and J. Unsleber
   
 * started run on 2025/09/14 at 13:27:37.649     
   ID    Z sym.   atoms
    1    6 C      1-6, 8-13, 15-19, 22-26, 28-33, 35-42, 44, 45
    2    8 O      7, 34, 43
    3    7 N      14, 20, 21, 27
    4    1 H      46-69

           -------------------------------------------------
          |                Calculation Setup                |
           -------------------------------------------------

          program call               : xtb data2507/gas/PTZ–TAZ/PTZ–TAZ_gas_S0_crest.xyz --gfn 2 --ohess vtight --parallel 40 --molden --ceasefiles --namespace data2507/gas/PTZ–TAZ/PTZ–TAZ_gas_S0_finalOpt
          calculation namespace      : data2507/gas/PTZ–TAZ/PTZ–TAZ_gas_S0_finalOpt
          coordinate file            : data2507/gas/PTZ–TAZ/PTZ–TAZ_gas_S0_crest.xyz
          omp threads                :                    40


           -------------------------------------------------
          |                 G F N 2 - x T B                 |
           -------------------------------------------------

        Reference                      10.1021/acs.jctc.8b01176
      * Hamiltonian:
        H0-scaling (s, p, d)           1.850000    2.230000    2.230000
        zeta-weighting                 0.500000
      * Dispersion:
        s8                             2.700000
        a1                             0.520000
        a2                             5.000000
        s9                             5.000000
      * Repulsion:
        kExp                           1.500000    1.000000
        rExp                           1.000000
      * Coulomb:
        alpha                          2.000000
        third order                    shell-resolved
        anisotropic                    true
        a3                             3.000000
        a5                             4.000000
        cn-shift                       1.200000
        cn-exp                         4.000000
        max-rad                        5.000000


          ...................................................
          :                      SETUP                      :
          :.................................................:
          :  # basis functions                 204          :
          :  # atomic orbitals                 204          :
          :  # shells                          114          :
          :  # electrons                       214          :
          :  max. iterations                   250          :
          :  Hamiltonian                  GFN2-xTB          :
          :  restarted?                      false          :
          :  GBSA solvation                  false          :
          :  PC potential                    false          :
          :  electronic temp.          300.0000000     K    :
          :  accuracy                    1.0000000          :
          :  -> integral cutoff          0.2500000E+02      :
          :  -> integral neglect         0.1000000E-07      :
          :  -> SCF convergence          0.1000000E-05 Eh   :
          :  -> wf. convergence          0.1000000E-03 e    :
          :  Broyden damping             0.4000000          :
          :  net charge                          0          :
          :  unpaired electrons                  0          :
          ...................................................

 iter      E             dE          RMSdq      gap      omega  full diag
   1   -119.4241394 -0.119424E+03  0.438E+00    1.71       0.0  T
   2   -119.4866875 -0.625481E-01  0.273E+00    1.87       1.0  T
   3   -119.4204586  0.662289E-01  0.103E+00    1.18       1.0  T
   4   -119.4952634 -0.748048E-01  0.360E-01    1.59       1.0  T
   5   -119.5036261 -0.836263E-02  0.107E-01    1.50       1.0  T
   6   -119.5041876 -0.561527E-03  0.435E-02    1.53       1.0  T
   7   -119.5042527 -0.651371E-04  0.179E-02    1.53       1.0  T
   8   -119.5042536 -0.839428E-06  0.827E-03    1.54       1.5  T
   9   -119.5042551 -0.152082E-05  0.283E-03    1.53       4.3  T
  10   -119.5042554 -0.293824E-06  0.773E-04    1.53      15.6  T
  11   -119.5042554 -0.152454E-07  0.426E-04    1.53      28.3  T

   *** convergence criteria satisfied after 11 iterations ***

         #    Occupation            Energy/Eh            Energy/eV
      -------------------------------------------------------------
         1        2.0000           -0.7707608             -20.9735
       ...           ...                  ...                  ...
       101        2.0000           -0.4147210             -11.2851
       102        2.0000           -0.4023706             -10.9491
       103        2.0000           -0.3924817             -10.6800
       104        2.0000           -0.3915089             -10.6535
       105        2.0000           -0.3889603             -10.5841
       106        2.0000           -0.3465777              -9.4309
       107        2.0000           -0.3455144              -9.4019 (HOMO)
       108                         -0.2891268              -7.8675 (LUMO)
       109                         -0.2655062              -7.2248
       110                         -0.2458210              -6.6891
       111                         -0.2457494              -6.6872
       112                         -0.2404464              -6.5429
       ...                                ...                  ...
       204                          0.6732024              18.3188
      -------------------------------------------------------------
                  HL-Gap            0.0563876 Eh            1.5344 eV
             Fermi-level           -0.3171860 Eh           -8.6311 eV

 SCC (total)                   0 d,  0 h,  0 min,  0.111 sec
 SCC setup                      ...        0 min,  0.001 sec (  0.455%)
 Dispersion                     ...        0 min,  0.002 sec (  2.030%)
 classical contributions        ...        0 min,  0.000 sec (  0.049%)
 integral evaluation            ...        0 min,  0.006 sec (  5.613%)
 iterations                     ...        0 min,  0.091 sec ( 82.288%)
 molecular gradient             ...        0 min,  0.010 sec (  8.591%)
 printout                       ...        0 min,  0.001 sec (  0.880%)

         :::::::::::::::::::::::::::::::::::::::::::::::::::::
         ::                     SUMMARY                     ::
         :::::::::::::::::::::::::::::::::::::::::::::::::::::
         :: total energy            -117.554558234527 Eh    ::
         :: gradient norm              0.000326452308 Eh/a0 ::
         :: HOMO-LUMO gap              1.534384068445 eV    ::
         ::.................................................::
         :: SCC energy              -119.504971655334 Eh    ::
         :: -> isotropic ES            0.060514312018 Eh    ::
         :: -> anisotropic ES          0.008683212268 Eh    ::
         :: -> anisotropic XC          0.057817946523 Eh    ::
         :: -> dispersion             -0.092480190178 Eh    ::
         :: repulsion energy           1.950413420807 Eh    ::
         :: add. restraining           0.000000000000 Eh    ::
         :: total charge               0.000000000000 e     ::
         :::::::::::::::::::::::::::::::::::::::::::::::::::::

      ----------------------------------------------------------- 
     |                   =====================                   |
     |                        A N C O P T                        |
     |                   =====================                   |
     |               Approximate Normal Coordinate               |
     |                Rational Function Optimizer                |
      ----------------------------------------------------------- 

Optimization log is written to '/dev/null'
      ----------------------------------------------------------- 
     |                   =====================                   |
     |                        A N C O P T                        |
     |                   =====================                   |
     |               Approximate Normal Coordinate               |
     |                Rational Function Optimizer                |
      ----------------------------------------------------------- 

          ...................................................
          :                      SETUP                      :
          :.................................................:
          :   optimization level         verytight          :
          :   max. optcycles                  1380          :
          :   ANC micro-cycles                  20          :
          :   degrees of freedom               201          :
          :.................................................:
          :   RF solver                   davidson          :
          :   write xtbopt.log                true          :
          :   linear?                        false          :
          :   energy convergence         0.1000000E-06 Eh   :
          :   grad. convergence          0.2000000E-03 Eh/α :
          :   maxmium RF displ.          1.0000000          :
          :   Hlow (freq-cutoff)         0.1000000E-01      :
          :   Hmax (freq-cutoff)         5.0000000          :
          :   S6 in model hess.         20.0000000          :
          ...................................................

generating ANC from exact Hessian ...
Using Lindh-Hessian (1995)
 Shifting diagonal of input Hessian by   9.916755737867780E-003
 Lowest  eigenvalues of input Hessian
    0.000000    0.000000    0.000000    0.000000    0.000000    0.000000
    0.010000    0.010024    0.010133    0.010222    0.010867    0.011098
    0.011478    0.011639    0.012204    0.012240    0.012472    0.013608
 Highest eigenvalues
    2.122979    2.191902    2.205919    2.218861    2.219041    2.242969
 

........................................................................
.............................. CYCLE    1 ..............................
........................................................................

 iter      E             dE          RMSdq      gap      omega  full diag
   1   -119.5042554 -0.119504E+03  0.897E-05    1.53       0.0  T
   2   -119.5042554 -0.137007E-09  0.537E-05    1.53     224.4  T
   3   -119.5042554 -0.811724E-10  0.336E-05    1.53     358.1  T
     SCC iter.                  ...        0 min,  0.022 sec
     gradient                   ...        0 min,  0.009 sec
 * total energy  :  -117.5545582 Eh     change       -0.2201176E-08 Eh
   gradient norm :     0.0003264 Eh/α   predicted     0.0000000E+00 (-100.00%)
   displ. norm   :     0.0118814 α      lambda       -0.1130423E-06
   maximum displ.:     0.0061695 α      in ANC's #8, #3, #6, ...

........................................................................
.............................. CYCLE    2 ..............................
........................................................................

 iter      E             dE          RMSdq      gap      omega  full diag
   1   -119.5043461 -0.119504E+03  0.325E-03    1.53       0.0  T
   2   -119.5043461 -0.333587E-08  0.192E-03    1.53       6.3  T
   3   -119.5043461  0.334691E-08  0.244E-04    1.53      49.3  T
   4   -119.5043461 -0.452290E-08  0.586E-05    1.53     205.3  T
     SCC iter.                  ...        0 min,  0.029 sec
     gradient                   ...        0 min,  0.009 sec
 * total energy  :  -117.5545594 Eh     change       -0.1119224E-05 Eh
   gradient norm :     0.0001679 Eh/α   predicted    -0.5438082E-06 ( -51.41%)
   displ. norm   :     0.0276398 α      lambda       -0.1443794E-05
   maximum displ.:     0.0147357 α      in ANC's #8, #3, #6, ...

........................................................................
.............................. CYCLE    3 ..............................
........................................................................

 iter      E             dE          RMSdq      gap      omega  full diag
   1   -119.5044049 -0.119504E+03  0.597E-03    1.53       0.0  T
   2   -119.5044049 -0.979873E-08  0.349E-03    1.53       3.4  T
   3   -119.5044049  0.681818E-08  0.379E-04    1.53      31.7  T
   4   -119.5044049 -0.102707E-07  0.102E-04    1.53     118.1  T
     SCC iter.                  ...        0 min,  0.029 sec
     gradient                   ...        0 min,  0.009 sec
 * total energy  :  -117.5545612 Eh     change       -0.1876068E-05 Eh
   gradient norm :     0.0003303 Eh/α   predicted    -0.7256209E-06 ( -61.32%)
   displ. norm   :     0.0606375 α      lambda       -0.2748869E-05
   maximum displ.:     0.0308517 α      in ANC's #8, #3, #6, ...

........................................................................
.............................. CYCLE    4 ..............................
........................................................................

 iter      E             dE          RMSdq      gap      omega  full diag
   1   -119.5043527 -0.119504E+03  0.128E-02    1.53       0.0  T
   2   -119.5043527 -0.380638E-07  0.750E-03    1.54       1.6  T
   3   -119.5043527  0.172637E-07  0.676E-04    1.54      17.8  T
   4   -119.5043527 -0.318399E-07  0.221E-04    1.54      54.6  T
     SCC iter.                  ...        0 min,  0.029 sec
     gradient                   ...        0 min,  0.009 sec
 * total energy  :  -117.5545645 Eh     change       -0.3314557E-05 Eh
   gradient norm :     0.0004136 Eh/α   predicted    -0.1388700E-05 ( -58.10%)
   displ. norm   :     0.0799132 α      lambda       -0.2562021E-05
   maximum displ.:     0.0410035 α      in ANC's #3, #8, #6, ...

........................................................................
.............................. CYCLE    5 ..............................
........................................................................

 iter      E             dE          RMSdq      gap      omega  full diag
   1   -119.5042925 -0.119504E+03  0.164E-02    1.54       0.0  T
   2   -119.5042925 -0.577913E-07  0.964E-03    1.54       1.2  T
   3   -119.5042925  0.433875E-07  0.913E-04    1.54      13.2  T
   4   -119.5042925 -0.678917E-07  0.288E-04    1.54      41.8  T
     SCC iter.                  ...        0 min,  0.029 sec
     gradient                   ...        0 min,  0.009 sec
 * total energy  :  -117.5545672 Eh     change       -0.2683099E-05 Eh
   gradient norm :     0.0003509 Eh/α   predicted    -0.1284800E-05 ( -52.12%)
   displ. norm   :     0.0799132 α      lambda        0.0000000E+00
   maximum displ.:     0.0410035 α      in ANC's #3, #8, #6, ...

........................................................................
.............................. CYCLE    6 ..............................
........................................................................

 iter      E             dE          RMSdq      gap      omega  full diag
   1   -119.5041579 -0.119504E+03  0.165E-02    1.54       0.0  T
   2   -119.5041579 -0.569063E-07  0.964E-03    1.54       1.2  T
   3   -119.5041579  0.422287E-07  0.894E-04    1.54      13.5  T
   4   -119.5041580 -0.664145E-07  0.290E-04    1.54      41.4  T
     SCC iter.                  ...        0 min,  0.029 sec
     gradient                   ...        0 min,  0.009 sec
 * total energy  :  -117.5545675 Eh     change       -0.2960767E-06 Eh
   gradient norm :     0.0003876 Eh/α   predicted     0.3455470E-08 (-101.17%)
   displ. norm   :     0.0187657 α      lambda       -0.9488073E-06
   maximum displ.:     0.0109842 α      in ANC's #8, #6, #13, ...

........................................................................
.............................. CYCLE    7 ..............................
........................................................................

 iter      E             dE          RMSdq      gap      omega  full diag
   1   -119.5043216 -0.119504E+03  0.473E-03    1.54       0.0  T
   2   -119.5043216 -0.752820E-08  0.277E-03    1.54       4.4  T
   3   -119.5043216  0.993617E-08  0.421E-04    1.54      28.6  T
   4   -119.5043216 -0.128461E-07  0.799E-05    1.54     150.7  T
     SCC iter.                  ...        0 min,  0.029 sec
     gradient                   ...        0 min,  0.009 sec
 * total energy  :  -117.5545686 Eh     change       -0.1117512E-05 Eh
   gradient norm :     0.0002028 Eh/α   predicted    -0.4772975E-06 ( -57.29%)
   displ. norm   :     0.0281961 α      lambda       -0.1651565E-05
   maximum displ.:     0.0152735 α      in ANC's #13, #12, #5, ...

........................................................................
.............................. CYCLE    8 ..............................
........................................................................

 iter      E             dE          RMSdq      gap      omega  full diag
   1   -119.5044346 -0.119504E+03  0.705E-03    1.54       0.0  T
   2   -119.5044346 -0.177533E-07  0.412E-03    1.54       2.9  T
   3   -119.5044346  0.303026E-07  0.707E-04    1.54      17.0  T
   4   -119.5044346 -0.372159E-07  0.114E-04    1.54     105.4  T
     SCC iter.                  ...        0 min,  0.029 sec
     gradient                   ...        0 min,  0.009 sec
 * total energy  :  -117.5545704 Eh     change       -0.1777351E-05 Eh
   gradient norm :     0.0001978 Eh/α   predicted    -0.8281842E-06 ( -53.40%)
   displ. norm   :     0.0343683 α      lambda       -0.1050888E-05
   maximum displ.:     0.0187631 α      in ANC's #5, #3, #13, ...

........................................................................
.............................. CYCLE    9 ..............................
........................................................................

 iter      E             dE          RMSdq      gap      omega  full diag
   1   -119.5043962 -0.119504E+03  0.682E-03    1.54       0.0  T
   2   -119.5043962 -0.877777E-08  0.400E-03    1.54       3.0  T
   3   -119.5043962  0.114781E-07  0.442E-04    1.54      27.3  T
   4   -119.5043962 -0.154239E-07  0.101E-04    1.54     118.7  T
     SCC iter.                  ...        0 min,  0.029 sec
     gradient                   ...        0 min,  0.009 sec
 * total energy  :  -117.5545716 Eh     change       -0.1215531E-05 Eh
   gradient norm :     0.0003150 Eh/α   predicted    -0.5277428E-06 ( -56.58%)
   displ. norm   :     0.0417784 α      lambda       -0.9353566E-06
   maximum displ.:     0.0238661 α      in ANC's #3, #5, #4, ...

........................................................................
.............................. CYCLE   10 ..............................
........................................................................

 iter      E             dE          RMSdq      gap      omega  full diag
   1   -119.5043610 -0.119504E+03  0.746E-03    1.54       0.0  T
   2   -119.5043610 -0.816118E-08  0.438E-03    1.54       2.7  T
   3   -119.5043610  0.898309E-08  0.418E-04    1.54      28.8  T
   4   -119.5043610 -0.131334E-07  0.112E-04    1.54     107.3  T
     SCC iter.                  ...        0 min,  0.029 sec
     gradient                   ...        0 min,  0.009 sec
 * total energy  :  -117.5545728 Eh     change       -0.1188675E-05 Eh
   gradient norm :     0.0002710 Eh/α   predicted    -0.4686608E-06 ( -60.57%)
   displ. norm   :     0.0606389 α      lambda       -0.1191915E-05
   maximum displ.:     0.0354202 α      in ANC's #3, #5, #4, ...

........................................................................
.............................. CYCLE   11 ..............................
........................................................................

 iter      E             dE          RMSdq      gap      omega  full diag
   1   -119.5042913 -0.119504E+03  0.106E-02    1.54       0.0  T
   2   -119.5042914 -0.175414E-07  0.622E-03    1.54       1.9  T
   3   -119.5042913  0.213934E-07  0.646E-04    1.54      18.6  T
   4   -119.5042914 -0.303490E-07  0.161E-04    1.54      75.0  T
     SCC iter.                  ...        0 min,  0.029 sec
     gradient                   ...        0 min,  0.009 sec
 * total energy  :  -117.5545744 Eh     change       -0.1539811E-05 Eh
   gradient norm :     0.0001440 Eh/α   predicted    -0.6005515E-06 ( -61.00%)
   displ. norm   :     0.0834978 α      lambda       -0.1398386E-05
   maximum displ.:     0.0488159 α      in ANC's #3, #5, #4, ...

........................................................................
.............................. CYCLE   12 ..............................
........................................................................

 iter      E             dE          RMSdq      gap      omega  full diag
   1   -119.5042688 -0.119504E+03  0.145E-02    1.54       0.0  T
   2   -119.5042689 -0.300380E-07  0.853E-03    1.54       1.4  T
   3   -119.5042688  0.324087E-07  0.818E-04    1.54      14.7  T
   4   -119.5042689 -0.483442E-07  0.209E-04    1.54      57.5  T
     SCC iter.                  ...        0 min,  0.029 sec
     gradient                   ...        0 min,  0.009 sec
 * total energy  :  -117.5545760 Eh     change       -0.1659973E-05 Eh
   gradient norm :     0.0001649 Eh/α   predicted    -0.7037754E-06 ( -57.60%)
   displ. norm   :     0.0787372 α      lambda       -0.9642945E-06
   maximum displ.:     0.0461431 α      in ANC's #3, #5, #2, ...

........................................................................
.............................. CYCLE   13 ..............................
........................................................................

 iter      E             dE          RMSdq      gap      omega  full diag
   1   -119.5042866 -0.119504E+03  0.136E-02    1.54       0.0  T
   2   -119.5042866 -0.260709E-07  0.800E-03    1.54       1.5  T
   3   -119.5042866  0.236959E-07  0.715E-04    1.54      16.8  T
   4   -119.5042866 -0.375093E-07  0.197E-04    1.54      61.2  T
     SCC iter.                  ...        0 min,  0.029 sec
     gradient                   ...        0 min,  0.009 sec
 * total energy  :  -117.5545771 Eh     change       -0.1057220E-05 Eh
   gradient norm :     0.0002025 Eh/α   predicted    -0.4850902E-06 ( -54.12%)
   displ. norm   :     0.0497734 α      lambda       -0.4389396E-06
   maximum displ.:     0.0293577 α      in ANC's #3, #5, #2, ...

........................................................................
.............................. CYCLE   14 ..............................
........................................................................

 iter      E             dE          RMSdq      gap      omega  full diag
   1   -119.5043318 -0.119504E+03  0.849E-03    1.54       0.0  T
   2   -119.5043318 -0.100456E-07  0.498E-03    1.54       2.4  T
   3   -119.5043318  0.100093E-07  0.451E-04    1.54      26.7  T
   4   -119.5043318 -0.153349E-07  0.124E-04    1.54      97.5  T
     SCC iter.                  ...        0 min,  0.029 sec
     gradient                   ...        0 min,  0.009 sec
 * total energy  :  -117.5545776 Eh     change       -0.4792162E-06 Eh
   gradient norm :     0.0001447 Eh/α   predicted    -0.2217877E-06 ( -53.72%)
   displ. norm   :     0.0497734 α      lambda        0.0000000E+00
   maximum displ.:     0.0293577 α      in ANC's #3, #5, #2, ...

........................................................................
.............................. CYCLE   15 ..............................
........................................................................

 iter      E             dE          RMSdq      gap      omega  full diag
   1   -119.5043556 -0.119504E+03  0.849E-03    1.54       0.0  T
   2   -119.5043556 -0.990840E-08  0.498E-03    1.54       2.4  T
   3   -119.5043556  0.694662E-08  0.416E-04    1.54      28.9  T
   4   -119.5043556 -0.120152E-07  0.120E-04    1.54     100.5  T
     SCC iter.                  ...        0 min,  0.029 sec
     gradient                   ...        0 min,  0.009 sec
 * total energy  :  -117.5545777 Eh     change       -0.9284864E-07 Eh
   gradient norm :     0.0001550 Eh/α   predicted     0.2545392E-08 (-102.74%)
   displ. norm   :     0.0089534 α      lambda       -0.1647962E-06
   maximum displ.:     0.0043226 α      in ANC's #4, #5, #3, ...

   *** GEOMETRY OPTIMIZATION CONVERGED AFTER 15 ITERATIONS ***

------------------------------------------------------------------------
 total energy gain   :        -0.0000194 Eh       -0.0122 kcal/mol
 total RMSD          :         0.0732465 a0        0.0388 Å
 total power (kW/mol):        -0.0033990 (step)   -0.0751 (real)
------------------------------------------------------------------------

 ANCopt (total)                0 d,  0 h,  0 min,  0.679 sec
 optimizer setup                ...        0 min,  0.000 sec (  0.040%)
 model hessian                  ...        0 min,  0.026 sec (  3.782%)
 ANC generation                 ...        0 min,  0.004 sec (  0.593%)
 coordinate transformation      ...        0 min,  0.001 sec (  0.203%)
 single point calculation       ...        0 min,  0.638 sec ( 94.001%)
 optimization log               ...        0 min,  0.004 sec (  0.539%)
 hessian update                 ...        0 min,  0.002 sec (  0.312%)
 rational function              ...        0 min,  0.002 sec (  0.305%)

================
 final structure:
================
69
 xtb: 6.7.1 (edcfbbe)
C           -9.02630780749288       -3.03942812181437        0.81468026272493
C           -7.71229773935908       -3.09394698246365        1.23283807479934
C           -6.82883655703060       -2.07683738832356        0.90475712517288
C           -7.24909748352279       -0.98062940723925        0.16199196794079
C           -8.57524960851497       -0.95391825230306       -0.28944285838842
C           -9.45297899897805       -1.96926208789907        0.04280151528678
O           -9.06286120350323        0.05076894475078       -1.08691631672933
C           -8.20132415153250        1.06205633519096       -1.42950381701949
C           -8.71000142227091        2.07430177443257       -2.22217265178280
C           -7.91262207648682        3.15031312322435       -2.58212734785552
C           -6.61181772644304        3.21402866738426       -2.12591558408350
C           -6.09619838525277        2.20026485025611       -1.33271787309453
C           -6.87046787463665        1.09813437962549       -0.99240383571778
N           -6.38359170187354        0.05986372044871       -0.19181404131808
C           -5.05040574951175        0.06650554899559        0.25840816847684
C           -4.77053062047517        0.10553308831731        1.62502814121489
C           -3.46607849762905        0.11020708741552        2.06706338717153
C           -2.41631826847388        0.07696714264296        1.14676901145427
C           -1.05736225388616        0.08154334755735        1.62613879993119
N           -0.66765319899200        0.11679384689104        2.86881711962736
N            0.66848211484379        0.10538815606660        2.86928678198144
C            1.05843496949824        0.06334736936303        1.62691447747611
C            2.41732913882281        0.03234768984688        1.14845938238165
C            2.69562270530190       -0.00857859121631       -0.21797782261100
C            4.00234885866467       -0.04152319814194       -0.65627535723382
C            5.05127868710631       -0.03606079442441        0.26202015562531
N            6.38381528306525       -0.07306908084785       -0.18839187019014
C            7.26550872856817        0.97232615847545        0.10611012433677
C            6.86545379133441        2.11091059609965        0.79429699740302
C            7.76492759956387        3.13108917457499        1.06417347790320
C            9.07510187605720        3.03705367741479        0.64099893655683
C            9.48171634488248        1.92298855158363       -0.07773105208299
C            8.58799005678846        0.90423490732313       -0.35182387819918
O            9.05657156084002       -0.14638684518604       -1.10005427357916
C            8.18070379253261       -1.16432842681705       -1.38076223357492
C            8.67121143719355       -2.22459952039506       -2.12034683294612
C            7.85856520390820       -3.30912837901300       -2.41458936454758
C            6.56105435499849       -3.33243025476125       -1.94529994266853
C            6.06355415663383       -2.27036690337243       -1.20554110239300
C            6.85294189556806       -1.16013079397814       -0.93300128236844
C            4.77130541865800        0.00505329314478        1.62856126403155
C            3.46691721305448        0.03990419496024        2.06952161301631
O            0.00057496907638        0.04648622769243        0.77950361728011
C           -2.69450738804392        0.03930504063922       -0.21977300051907
C           -4.00136314222781        0.03346306518410       -0.65907961660452
H           -9.71880692109304       -3.82523981129788        1.07158716942663
H           -7.35848561348075       -3.93023746258606        1.81574245713997
H           -5.80057923085080       -2.14295655202075        1.22373027088214
H          -10.46667425441686       -1.90537548988543       -0.31902416799256
H           -9.73725343880984        2.00363906299660       -2.54208262430070
H           -8.31718124068064        3.93369281574745       -3.20318496296615
H           -5.98491705309851        4.05538465931132       -2.37812884404291
H           -5.08410658068746        2.27431856613569       -0.96711685685117
H           -5.58673370413227        0.14042263093086        2.33100734345844
H           -3.23097761392956        0.14696655194414        3.11852748774632
H            1.88358566903333       -0.00646558157891       -0.92931349462940
H            4.22305214137633       -0.06421015151770       -1.71319956188513
H            5.84044627630957        2.20782625711174        1.11580919372057
H            7.42663080101643        4.00090135196093        1.60577530314345
H            9.77992995031755        3.82536472770221        0.85274169833206
H           10.49175741260329        1.82667962697811       -0.44262811018812
H            9.69651962360246       -2.18394206454850       -2.45147349034257
H            8.24896960762219       -4.13016669855141       -2.99470814018540
H            5.92267347784458       -4.17913926596709       -2.14543926579205
H            5.05369367401651       -2.31207580211090       -0.82881959820088
H            5.58706247452973       -0.00077501463189        2.33587804009995
H            3.23158071600908        0.06402248371594        3.12130320409825
H           -1.88216688699681        0.00640695055475       -0.93000619294170
H           -4.22179799872745       -0.00546442279865       -1.71558103701611
 
 Bond Distances (Angstroems)
 ---------------------------
C1-C2=1.3800         C1-C6=1.3868         C1-H46=1.0785        C2-C1=1.3800         C2-C3=1.3866         C2-H47=1.0790        
C3-C2=1.3866         C3-C4=1.3892         C3-H48=1.0786        C4-C3=1.3892         C4-C5=1.4011         C4-N14=1.3989        
C5-C4=1.4011         C5-C6=1.3826         C5-O7=1.3723         C6-C1=1.3868         C6-C5=1.3826         C6-H49=1.0782        
O7-C5=1.3723         O7-C8=1.3720         C8-O7=1.3720         C8-C9=1.3826         C8-C13=1.4013        C9-C8=1.3826         
C9-C10=1.3868        C9-H50=1.0782        C10-C9=1.3868        C10-C11=1.3800       C10-H51=1.0785       C11-C10=1.3800       
C11-C12=1.3866       C11-H52=1.0791       C12-C11=1.3866       C12-C13=1.3892       C12-H53=1.0786       C13-C8=1.4013        
C13-C12=1.3892       C13-N14=1.3986       N14-C4=1.3989        N14-C13=1.3986       N14-C15=1.4072       C15-N14=1.4072       
C15-C16=1.3955       C15-C45=1.3940       C16-C15=1.3955       C16-C17=1.3773       C16-H54=1.0797       C17-C16=1.3773       
C17-C18=1.3964       C17-H55=1.0781       C18-C17=1.3964       C18-C19=1.4410       C18-C44=1.3951       C19-C18=1.4410       
C19-N20=1.3028       C19-O43=1.3555       N20-C19=1.3028       N20-N21=1.3362       N21-N20=1.3362       N21-C22=1.3028       
C22-N21=1.3028       C22-C23=1.4410       C22-O43=1.3555       C23-C22=1.4410       C23-C24=1.3951       C23-C42=1.3964       
C24-C23=1.3951       C24-C25=1.3787       C24-H56=1.0795       C25-C24=1.3787       C25-C26=1.3941       C25-H57=1.0800       
C26-C25=1.3941       C26-N27=1.4071       C26-C41=1.3955       N27-C26=1.4071       N27-C28=1.3989       N27-C40=1.3987       
C28-N27=1.3989       C28-C29=1.3893       C28-C33=1.4012       C29-C28=1.3893       C29-C30=1.3866       C29-H58=1.0786       
C30-C29=1.3866       C30-C31=1.3800       C30-H59=1.0791       C31-C30=1.3800       C31-C32=1.3867       C31-H60=1.0784       
C32-C31=1.3867       C32-C33=1.3827       C32-H61=1.0782       C33-C28=1.4012       C33-C32=1.3827       C33-O34=1.3723       
O34-C33=1.3723       O34-C35=1.3719       C35-O34=1.3719       C35-C36=1.3827       C35-C40=1.4012       C36-C35=1.3827       
C36-C37=1.3868       C36-H62=1.0782       C37-C36=1.3868       C37-C38=1.3800       C37-H63=1.0785       C38-C37=1.3800       
C38-C39=1.3866       C38-H64=1.0791       C39-C38=1.3866       C39-C40=1.3893       C39-H65=1.0786       C40-N27=1.3987       
C40-C35=1.4012       C40-C39=1.3893       C41-C26=1.3955       C41-C42=1.3773       C41-H66=1.0797       C42-C23=1.3964       
C42-C41=1.3773       C42-H67=1.0781       O43-C19=1.3555       O43-C22=1.3555       C44-C18=1.3951       C44-C45=1.3787       
C44-H68=1.0795       C45-C15=1.3940       C45-C44=1.3787       C45-H69=1.0800       H46-C1=1.0785        H47-C2=1.0790        
H48-C3=1.0786        H49-C6=1.0782        H50-C9=1.0782        H51-C10=1.0785       H52-C11=1.0791       H53-C12=1.0786       
H54-C16=1.0797       H55-C17=1.0781       H56-C24=1.0795       H57-C25=1.0800       H58-C29=1.0786       H59-C30=1.0791       
H60-C31=1.0784       H61-C32=1.0782       H62-C36=1.0782       H63-C37=1.0785       H64-C38=1.0791       H65-C39=1.0786       
H66-C41=1.0797       H67-C42=1.0781       H68-C44=1.0795       H69-C45=1.0800       
 C  H  Rav=1.0788 sigma=0.0006  Rmin=1.0781  Rmax=1.0800    24
 C  C  Rav=1.3911 sigma=0.0137  Rmin=1.3773  Rmax=1.4410    38
 N  C  Rav=1.3769 sigma=0.0429  Rmin=1.3028  Rmax=1.4072     8
 N  N  Rav=1.3362 sigma=0.0000  Rmin=1.3362  Rmax=1.3362     1
 O  C  Rav=1.3666 sigma=0.0078  Rmin=1.3555  Rmax=1.3723     6
 
 selected bond angles (degree)
 --------------------
C6-C1-C2=119.48                H46-C1-C2=120.69               H46-C1-C6=119.82               C3-C2-C1=120.40                
H47-C2-C1=120.43               H47-C2-C3=119.17               C4-C3-C2=120.83                H48-C3-C2=119.50               
H48-C3-C4=119.66               C5-C4-C3=118.27                N14-C4-C3=122.34               N14-C4-C5=119.34               
C6-C5-C4=120.63                O7-C5-C4=122.51                O7-C5-C6=116.85                C5-C6-C1=120.34                
H49-C6-C1=121.45               H49-C6-C5=118.21               C8-O7-C5=117.49                C9-C8-O7=116.86                
C13-C8-O7=122.51               C13-C8-C9=120.62               C10-C9-C8=120.35               H50-C9-C8=118.20               
H50-C9-C10=121.44              C11-C10-C9=119.47              H51-C10-C9=119.83              H51-C10-C11=120.69             
 
 selected dihedral angles (degree)
 ---------------------------------
C3-C2-C1-C6=  1.10            C3-C2-C1-H46=180.33           H47-C2-C1-C6=181.34           H47-C2-C1-H46=  0.57          
C4-C3-C2-C1=  0.59            C4-C3-C2-H47=180.35           H48-C3-C2-C1=181.12           H48-C3-C2-H47=  0.88          
C5-C4-C3-C2=357.64            C5-C4-C3-H48=177.11           N14-C4-C3-C2=180.30           N14-C4-C3-H48=359.77          
C6-C5-C4-C3=  2.49            C6-C5-C4-N14=179.92           O7-C5-C4-C3=183.46            O7-C5-C4-N14=  0.88           
C5-C6-C1-C2=359.04            C5-C6-C1-H46=179.80           H49-C6-C1-C2=178.65           H49-C6-C1-H46=359.42          
C1-C6-C5-C4=359.14            C1-C6-C5-O7=178.23            H49-C6-C5-C4=179.51           H49-C6-C5-O7=358.60           
C8-O7-C5-C4=359.35            C8-O7-C5-C6=180.28            C9-C8-O7-C5=180.63            C13-C8-O7-C5=359.73           
C10-C9-C8-O7=178.29           C10-C9-C8-C13=359.17          H50-C9-C8-O7=358.69           H50-C9-C8-C13=179.57          
C11-C10-C9-C8=359.01          C11-C10-C9-H50=178.60         H51-C10-C9-C8=179.82          H51-C10-C9-H50=359.40         
           -------------------------------------------------
          |                Final Singlepoint                |
           -------------------------------------------------

          ...................................................
          :                      SETUP                      :
          :.................................................:
          :  # basis functions                 204          :
          :  # atomic orbitals                 204          :
          :  # shells                          114          :
          :  # electrons                       214          :
          :  max. iterations                   250          :
          :  Hamiltonian                  GFN2-xTB          :
          :  restarted?                      false          :
          :  GBSA solvation                  false          :
          :  PC potential                    false          :
          :  electronic temp.          300.0000000     K    :
          :  accuracy                    1.0000000          :
          :  -> integral cutoff          0.2500000E+02      :
          :  -> integral neglect         0.1000000E-07      :
          :  -> SCF convergence          0.1000000E-05 Eh   :
          :  -> wf. convergence          0.1000000E-03 e    :
          :  Broyden damping             0.4000000          :
          :  net charge                          0          :
          :  unpaired electrons                  0          :
          ...................................................

 iter      E             dE          RMSdq      gap      omega  full diag
   1   -119.5043556 -0.119504E+03  0.631E-05    1.54       0.0  T
   2   -119.5043556 -0.415099E-10  0.456E-05    1.54     264.0  T
   3   -119.5043556 -0.116088E-09  0.258E-05    1.54     467.1  T

   *** convergence criteria satisfied after 3 iterations ***

         #    Occupation            Energy/Eh            Energy/eV
      -------------------------------------------------------------
         1        2.0000           -0.7707212             -20.9724
       ...           ...                  ...                  ...
       101        2.0000           -0.4147659             -11.2864
       102        2.0000           -0.4023568             -10.9487
       103        2.0000           -0.3925065             -10.6806
       104        2.0000           -0.3915223             -10.6539
       105        2.0000           -0.3888925             -10.5823
       106        2.0000           -0.3466174              -9.4319
       107        2.0000           -0.3455505              -9.4029 (HOMO)
       108                         -0.2890687              -7.8660 (LUMO)
       109                         -0.2654694              -7.2238
       110                         -0.2457560              -6.6874
       111                         -0.2457387              -6.6869
       112                         -0.2404388              -6.5427
       ...                                ...                  ...
       204                          0.6732504              18.3201
      -------------------------------------------------------------
                  HL-Gap            0.0564818 Eh            1.5369 eV
             Fermi-level           -0.3171681 Eh           -8.6306 eV

 SCC (total)                   0 d,  0 h,  0 min,  0.036 sec
 SCC setup                      ...        0 min,  0.000 sec (  0.490%)
 Dispersion                     ...        0 min,  0.001 sec (  2.147%)
 classical contributions        ...        0 min,  0.000 sec (  0.112%)
 integral evaluation            ...        0 min,  0.003 sec (  9.341%)
 iterations                     ...        0 min,  0.022 sec ( 61.343%)
 molecular gradient             ...        0 min,  0.009 sec ( 25.119%)
 printout                       ...        0 min,  0.000 sec (  1.223%)

         :::::::::::::::::::::::::::::::::::::::::::::::::::::
         ::                     SUMMARY                     ::
         :::::::::::::::::::::::::::::::::::::::::::::::::::::
         :: total energy            -117.554577654038 Eh    ::
         :: gradient norm              0.000155181455 Eh/a0 ::
         :: HOMO-LUMO gap              1.536947076494 eV    ::
         ::.................................................::
         :: SCC energy              -119.505074182757 Eh    ::
         :: -> isotropic ES            0.060504754306 Eh    ::
         :: -> anisotropic ES          0.008694550291 Eh    ::
         :: -> anisotropic XC          0.057814638312 Eh    ::
         :: -> dispersion             -0.092487506781 Eh    ::
         :: repulsion energy           1.950496528719 Eh    ::
         :: add. restraining           0.000000000000 Eh    ::
         :: total charge               0.000000000000 e     ::
         :::::::::::::::::::::::::::::::::::::::::::::::::::::

           ------------------------------------------------- 
          |                Numerical Hessian                |
           ------------------------------------------------- 
step length          :   0.00500
SCC accuracy         :   0.30000
Hessian scale factor :   1.00000
frozen atoms in %    :   0.00000    0
RMS gradient         :   0.00016
estimated CPU  time     21.33 min
estimated wall time      0.53 min

writing file <hessian>.

 projected vibrational frequencies (cm⁻¹)
eigval :       -0.00    -0.00     0.00     0.00     0.00     0.00
eigval :        8.31     8.86    14.36    24.28    26.44    36.08
eigval :       41.58    50.21    59.29    64.68    69.16    92.15
eigval :      103.57   111.62   118.55   122.26   122.41   178.68
eigval :      189.25   191.35   202.91   242.87   249.68   253.72
eigval :      255.01   270.51   274.05   281.49   332.99   351.31
eigval :      370.49   373.70   376.79   377.70   389.78   395.27
eigval :      404.47   422.43   423.27   430.45   431.18   432.66
eigval :      445.24   449.74   466.35   489.34   498.97   502.14
eigval :      509.91   509.97   522.71   522.83   549.16   551.87
eigval :      587.02   587.53   591.42   603.23   608.63   609.66
eigval :      653.53   658.93   661.69   661.70   661.84   666.67
eigval :      676.88   680.41   709.88   715.27   720.86   728.96
eigval :      779.12   779.15   779.49   779.53   802.46   804.01
eigval :      824.32   825.54   855.71   855.73   863.93   863.99
eigval :      866.75   866.82   876.51   877.00   897.64   897.70
eigval :      898.86   898.92   908.83   913.52   913.96   914.13
eigval :      915.33   915.36   917.25   917.33   925.98   926.43
eigval :      934.88   935.12   971.66   974.48  1009.10  1019.30
eigval :     1081.64  1090.67  1090.69  1091.55  1091.59  1097.76
eigval :     1108.60  1108.61  1121.00  1121.07  1126.59  1127.46
eigval :     1171.08  1171.13  1175.58  1175.59  1178.87  1180.83
eigval :     1185.16  1188.90  1190.92  1202.25  1202.27  1222.27
eigval :     1224.36  1243.07  1243.11  1258.23  1259.72  1262.27
eigval :     1262.35  1275.99  1299.09  1310.44  1310.54  1317.72
eigval :     1318.56  1320.56  1326.96  1338.97  1339.05  1355.55
eigval :     1355.74  1407.79  1408.54  1424.49  1424.51  1442.31
eigval :     1442.40  1460.43  1460.77  1487.46  1487.73  1503.19
eigval :     1503.98  1533.74  1535.38  1557.71  1560.18  1568.18
eigval :     1568.22  1580.60  1580.63  1585.26  1585.34  1591.17
eigval :     1591.36  1602.97  1603.01  3087.22  3087.58  3089.66
eigval :     3089.68  3090.44  3090.45  3092.94  3093.05  3098.48
eigval :     3099.00  3099.66  3099.70  3099.95  3099.98  3106.52
eigval :     3106.57  3107.30  3107.35  3113.53  3113.54  3114.09
eigval :     3114.13  3116.76  3116.89
           -------------------------------------------------
          |                Property Printout                |
           -------------------------------------------------

    * Orbital Energies and Occupations

         #    Occupation            Energy/Eh            Energy/eV
      -------------------------------------------------------------
         1        2.0000           -0.7707212             -20.9724
       ...           ...                  ...                  ...
        95        2.0000           -0.4246610             -11.5556
        96        2.0000           -0.4244337             -11.5494
        97        2.0000           -0.4230955             -11.5130
        98        2.0000           -0.4179120             -11.3720
        99        2.0000           -0.4178726             -11.3709
       100        2.0000           -0.4147996             -11.2873
       101        2.0000           -0.4147659             -11.2864
       102        2.0000           -0.4023568             -10.9487
       103        2.0000           -0.3925065             -10.6806
       104        2.0000           -0.3915223             -10.6539
       105        2.0000           -0.3888924             -10.5823
       106        2.0000           -0.3466175              -9.4319
       107        2.0000           -0.3455506              -9.4029 (HOMO)
       108                         -0.2890687              -7.8660 (LUMO)
       109                         -0.2654694              -7.2238
       110                         -0.2457560              -6.6874
       111                         -0.2457387              -6.6869
       112                         -0.2404389              -6.5427
       113                         -0.2403938              -6.5414
       114                         -0.2316979              -6.3048
       115                         -0.2316593              -6.3038
       116                         -0.2187546              -5.9526
       117                         -0.2177064              -5.9241
       118                         -0.2027664              -5.5176
       ...                                ...                  ...
       204                          0.6732504              18.3201
      -------------------------------------------------------------
                  HL-Gap            0.0564818 Eh            1.5369 eV
             Fermi-level           -0.3171681 Eh           -8.6306 eV

     #   Z          covCN         q      C6AA      α(0)
     1   6 C        2.919    -0.039    28.979     8.828
     2   6 C        2.919    -0.038    28.950     8.823
     3   6 C        2.924    -0.060    29.484     8.905
     4   6 C        2.922     0.042    27.064     8.531
     5   6 C        2.884     0.125    25.253     8.239
     6   6 C        2.920    -0.056    29.386     8.889
     7   8 O        1.709    -0.254    18.200     5.760
     8   6 C        2.884     0.125    25.250     8.238
     9   6 C        2.920    -0.056    29.387     8.890
    10   6 C        2.919    -0.040    28.983     8.828
    11   6 C        2.919    -0.038    28.957     8.824
    12   6 C        2.924    -0.060    29.487     8.905
    13   6 C        2.922     0.042    27.061     8.531
    14   7 N        2.751    -0.068    22.565     7.055
    15   6 C        2.921     0.071    26.422     8.429
    16   6 C        2.921    -0.037    28.927     8.820
    17   6 C        2.924    -0.028    28.702     8.786
    18   6 C        2.975    -0.007    28.201     8.711
    19   6 C        3.170     0.213    23.193     7.867
    20   7 N        2.048    -0.197    25.989     7.562
    21   7 N        2.048    -0.197    25.989     7.562
    22   6 C        3.170     0.213    23.193     7.868
    23   6 C        2.975    -0.007    28.201     8.711
    24   6 C        2.922    -0.027    28.672     8.781
    25   6 C        2.921    -0.040    28.991     8.830
    26   6 C        2.921     0.071    26.423     8.429
    27   7 N        2.751    -0.068    22.564     7.055
    28   6 C        2.922     0.042    27.064     8.531
    29   6 C        2.924    -0.060    29.485     8.905
    30   6 C        2.919    -0.038    28.950     8.823
    31   6 C        2.919    -0.039    28.979     8.828
    32   6 C        2.920    -0.056    29.385     8.889
    33   6 C        2.884     0.125    25.253     8.239
    34   8 O        1.709    -0.254    18.200     5.760
    35   6 C        2.884     0.125    25.250     8.238
    36   6 C        2.920    -0.056    29.388     8.890
    37   6 C        2.919    -0.040    28.983     8.828
    38   6 C        2.919    -0.038    28.957     8.824
    39   6 C        2.924    -0.060    29.486     8.905
    40   6 C        2.922     0.042    27.062     8.531
    41   6 C        2.920    -0.037    28.929     8.820
    42   6 C        2.924    -0.028    28.702     8.786
    43   8 O        1.721    -0.229    17.796     5.696
    44   6 C        2.922    -0.027    28.672     8.781
    45   6 C        2.920    -0.040    28.991     8.830
    46   1 H        0.926     0.039     2.456     2.451
    47   1 H        0.926     0.038     2.481     2.463
    48   1 H        0.926     0.036     2.507     2.476
    49   1 H        0.926     0.052     2.301     2.372
    50   1 H        0.926     0.052     2.301     2.372
    51   1 H        0.926     0.039     2.460     2.452
    52   1 H        0.926     0.037     2.493     2.469
    53   1 H        0.926     0.035     2.522     2.483
    54   1 H        0.926     0.051     2.302     2.373
    55   1 H        0.926     0.067     2.121     2.277
    56   1 H        0.926     0.049     2.328     2.386
    57   1 H        0.926     0.048     2.349     2.397
    58   1 H        0.926     0.036     2.505     2.475
    59   1 H        0.926     0.038     2.480     2.463
    60   1 H        0.926     0.039     2.456     2.451
    61   1 H        0.926     0.052     2.301     2.372
    62   1 H        0.926     0.052     2.301     2.372
    63   1 H        0.926     0.039     2.459     2.452
    64   1 H        0.926     0.037     2.493     2.469
    65   1 H        0.926     0.035     2.522     2.483
    66   1 H        0.926     0.051     2.302     2.372
    67   1 H        0.926     0.067     2.121     2.277
    68   1 H        0.926     0.049     2.327     2.386
    69   1 H        0.926     0.048     2.348     2.396

 Mol. C6AA /au·bohr⁶  :      72935.705469
 Mol. C8AA /au·bohr⁸  :    1842851.029125
 Mol. α(0) /au        :        433.700043


MOs/occ written to file <molden.input>


molecular dipole:
                 x           y           z       tot (Debye)
 q only:        0.005      -0.017      -0.497
   full:        0.005      -0.032      -1.048       2.664
molecular quadrupole (traceless):
                xx          xy          yy          xz          yz          zz
 q only:       -3.541       2.454       6.983       0.022      -0.387      -3.442
  q+dip:       -0.711       3.552       7.685      -0.028      -0.555      -6.974
   full:       -6.948       2.211      13.128       0.013      -0.712      -6.180

           -------------------------------------------------
          |                Geometry Summary                 |
           -------------------------------------------------

      molecular mass/u    :      584.6235698
   center of mass at/Å    :       -0.0003801       0.0006605       0.0004415
  moments of inertia/u·Å² :        0.2844199E+04   0.2601029E+05   0.2648615E+05
rotational constants/cm⁻¹ :        0.5927022E-02   0.6481140E-03   0.6364698E-03

 * 76 selected distances

     #   Z          #   Z                                           value/Å
     1   6 C        2   6 C                                       1.3800185
     2   6 C        3   6 C                                       1.3865977
     3   6 C        4   6 C                                       1.3892414
     4   6 C        5   6 C                                       1.4011376
     1   6 C        6   6 C                                       1.3867591
     5   6 C        6   6 C                                       1.3826491
     5   6 C        7   8 O                                       1.3722703
     7   8 O        8   6 C                                       1.3719748
     8   6 C        9   6 C                                       1.3826488
     9   6 C       10   6 C                                       1.3867884
    10   6 C       11   6 C                                       1.3799569
    11   6 C       12   6 C                                       1.3866302
     8   6 C       13   6 C                                       1.4012626
    12   6 C       13   6 C                                       1.3892440
     4   6 C       14   7 N                                       1.3988943
    13   6 C       14   7 N                                       1.3985703
    14   7 N       15   6 C                                       1.4071707
    15   6 C       16   6 C                                       1.3955299
    16   6 C       17   6 C                                       1.3773208
    17   6 C       18   6 C                                       1.3964396
    18   6 C       19   6 C                                       1.4410337 (max)
    19   6 C       20   7 N                                       1.3028298
    21   7 N       22   6 C                                       1.3028123
    22   6 C       23   6 C                                       1.4409976
    23   6 C       24   6 C                                       1.3950890
    24   6 C       25   6 C                                       1.3786674
    25   6 C       26   6 C                                       1.3941128
    26   6 C       27   7 N                                       1.4070873
    27   7 N       28   6 C                                       1.3989161
    28   6 C       29   6 C                                       1.3892516
    29   6 C       30   6 C                                       1.3865970
    30   6 C       31   6 C                                       1.3800277
    31   6 C       32   6 C                                       1.3867406
    28   6 C       33   6 C                                       1.4011771
    32   6 C       33   6 C                                       1.3826543
    33   6 C       34   8 O                                       1.3723060
    34   8 O       35   6 C                                       1.3719135
    35   6 C       36   6 C                                       1.3826635
    36   6 C       37   6 C                                       1.3867861
    37   6 C       38   6 C                                       1.3799675
    38   6 C       39   6 C                                       1.3866249
    27   7 N       40   6 C                                       1.3986517
    35   6 C       40   6 C                                       1.4012350
    39   6 C       40   6 C                                       1.3892572
    26   6 C       41   6 C                                       1.3955323
    23   6 C       42   6 C                                       1.3964413
    41   6 C       42   6 C                                       1.3773487
    19   6 C       43   8 O                                       1.3554526
    22   6 C       43   8 O                                       1.3555285
    18   6 C       44   6 C                                       1.3950789
    15   6 C       45   6 C                                       1.3940468
    44   6 C       45   6 C                                       1.3787301
     1   6 C       46   1 H                                       1.0784509
     2   6 C       47   1 H                                       1.0790470
     3   6 C       48   1 H                                       1.0786236
     6   6 C       49   1 H                                       1.0782289
     9   6 C       50   1 H                                       1.0782312
    10   6 C       51   1 H                                       1.0784547
    11   6 C       52   1 H                                       1.0791182
    12   6 C       53   1 H                                       1.0786464
    16   6 C       54   1 H                                       1.0797276
    17   6 C       55   1 H                                       1.0780541 (min)
    24   6 C       56   1 H                                       1.0795403
    25   6 C       57   1 H                                       1.0799600
    29   6 C       58   1 H                                       1.0786118
    30   6 C       59   1 H                                       1.0790508
    31   6 C       60   1 H                                       1.0784490
    32   6 C       61   1 H                                       1.0782432
    36   6 C       62   1 H                                       1.0782184
    37   6 C       63   1 H                                       1.0784515
    38   6 C       64   1 H                                       1.0791211
    39   6 C       65   1 H                                       1.0786460
    41   6 C       66   1 H                                       1.0797179
    42   6 C       67   1 H                                       1.0780583
    44   6 C       68   1 H                                       1.0795419
    45   6 C       69   1 H                                       1.0799548

 * 4 distinct bonds (by element types)

   Z      Z             #   av. dist./Å        max./Å        min./Å
   1 H    6 C          24     1.0788395     1.0799600     1.0780541
   6 C    6 C          38     1.3911128     1.4410337     1.3773208
   6 C    7 N           8     1.3768666     1.4071707     1.3028123
   6 C    8 O           6     1.3665743     1.3723060     1.3554526

           -------------------------------------------------
          |               Frequency Printout                |
           -------------------------------------------------
 projected vibrational frequencies (cm⁻¹)
eigval :       -0.00    -0.00     0.00     0.00     0.00     0.00
eigval :        8.31     8.86    14.36    24.28    26.44    36.08
eigval :       41.58    50.21    59.29    64.68    69.16    92.15
eigval :      103.57   111.62   118.55   122.26   122.41   178.68
eigval :      189.25   191.35   202.91   242.87   249.68   253.72
eigval :      255.01   270.51   274.05   281.49   332.99   351.31
eigval :      370.49   373.70   376.79   377.70   389.78   395.27
eigval :      404.47   422.43   423.27   430.45   431.18   432.66
eigval :      445.24   449.74   466.35   489.34   498.97   502.14
eigval :      509.91   509.97   522.71   522.83   549.16   551.87
eigval :      587.02   587.53   591.42   603.23   608.63   609.66
eigval :      653.53   658.93   661.69   661.70   661.84   666.67
eigval :      676.88   680.41   709.88   715.27   720.86   728.96
eigval :      779.12   779.15   779.49   779.53   802.46   804.01
eigval :      824.32   825.54   855.71   855.73   863.93   863.99
eigval :      866.75   866.82   876.51   877.00   897.64   897.70
eigval :      898.86   898.92   908.83   913.52   913.96   914.13
eigval :      915.33   915.36   917.25   917.33   925.98   926.43
eigval :      934.88   935.12   971.66   974.48  1009.10  1019.30
eigval :     1081.64  1090.67  1090.69  1091.55  1091.59  1097.76
eigval :     1108.60  1108.61  1121.00  1121.07  1126.59  1127.46
eigval :     1171.08  1171.13  1175.58  1175.59  1178.87  1180.83
eigval :     1185.16  1188.90  1190.92  1202.25  1202.27  1222.27
eigval :     1224.36  1243.07  1243.11  1258.23  1259.72  1262.27
eigval :     1262.35  1275.99  1299.09  1310.44  1310.54  1317.72
eigval :     1318.56  1320.56  1326.96  1338.97  1339.05  1355.55
eigval :     1355.74  1407.79  1408.54  1424.49  1424.51  1442.31
eigval :     1442.40  1460.43  1460.77  1487.46  1487.73  1503.19
eigval :     1503.98  1533.74  1535.38  1557.71  1560.18  1568.18
eigval :     1568.22  1580.60  1580.63  1585.26  1585.34  1591.17
eigval :     1591.36  1602.97  1603.01  3087.22  3087.58  3089.66
eigval :     3089.68  3090.44  3090.45  3092.94  3093.05  3098.48
eigval :     3099.00  3099.66  3099.70  3099.95  3099.98  3106.52
eigval :     3106.57  3107.30  3107.35  3113.53  3113.54  3114.09
eigval :     3114.13  3116.76  3116.89
 reduced masses (amu)
   1: 11.97   2: 11.90   3: 12.01   4: 12.06   5: 11.41   6: 12.04   7: 10.88   8: 11.62
   9: 11.99  10: 11.20  11: 11.42  12: 11.63  13: 12.34  14: 11.94  15: 11.90  16: 10.76
  17:  9.88  18: 12.90  19: 11.58  20: 11.40  21: 10.09  22: 11.11  23: 10.77  24: 11.64
  25: 12.23  26: 11.88  27: 12.04  28: 10.78  29: 10.45  30: 11.53  31: 10.70  32: 11.69
  33: 11.43  34: 11.80  35: 12.19  36: 11.49  37: 11.62  38: 11.58  39:  9.21  40:  9.20
  41: 11.42  42: 11.29  43: 10.82  44: 11.07  45: 10.85  46:  9.81  47: 11.20  48: 10.11
  49: 10.72  50: 10.86  51: 12.17  52: 10.95  53: 12.53  54: 11.26  55: 10.22  56: 10.22
  57: 10.72  58: 10.72  59: 11.32  60: 11.10  61: 11.27  62: 11.22  63: 12.04  64: 11.90
  65: 11.44  66: 11.53  67: 11.62  68: 11.66  69: 11.76  70: 11.76  71: 11.69  72: 11.64
  73: 11.51  74: 11.67  75: 11.51  76: 12.23  77: 12.16  78: 11.79  79:  3.23  80:  3.23
  81:  3.28  82:  3.28  83: 12.44  84: 12.40  85:  5.22  86:  5.29  87: 12.44  88: 12.44
  89:  3.34  90:  3.34  91:  3.32  92:  3.32  93:  3.34  94:  3.31  95:  3.86  96:  3.86
  97:  3.88  98:  3.88  99: 11.90 100: 10.82 101:  3.62 102:  4.53 103:  3.10 104:  3.11
 105: 10.78 106: 10.93 107:  3.23 108:  3.14 109:  3.69 110:  3.67 111: 13.74 112: 13.09
 113:  9.97 114:  9.76 115:  9.93 116:  5.47 117:  5.47 118:  5.95 119:  5.94 120: 10.77
 121:  8.61 122:  8.61 123:  8.41 124:  8.39 125:  3.11 126:  3.30 127:  3.82 128:  3.69
 129:  1.97 130:  1.97 131:  1.82 132:  1.94 133: 11.98 134:  4.54 135:  5.73 136:  7.04
 137:  7.04 138:  8.54 139:  8.62 140:  4.60 141:  4.62 142:  3.63 143:  3.46 144:  4.84
 145:  4.74 146: 10.21 147: 10.33 148: 11.74 149: 11.75 150: 11.73 151: 11.39 152: 11.46
 153: 12.03 154: 10.38 155: 10.37 156: 11.06 157: 11.08 158: 10.11 159: 10.14 160:  9.41
 161:  9.42 162:  9.50 163:  9.50 164: 10.06 165: 10.08 166: 10.72 167: 10.73 168: 10.54
 169: 10.55 170: 12.00 171: 11.88 172: 11.74 173: 11.74 174: 11.50 175: 11.50 176: 11.58
 177: 11.58 178: 11.50 179: 11.50 180: 11.61 181: 11.61 182: 11.72 183: 11.72 184:  1.79
 185:  1.79 186:  1.77 187:  1.77 188:  1.77 189:  1.77 190:  1.81 191:  1.81 192:  1.88
 193:  1.88 194:  1.81 195:  1.82 196:  1.81 197:  1.81 198:  1.86 199:  1.86 200:  1.86
 201:  1.86 202:  1.89 203:  1.89 204:  1.89 205:  1.89 206:  1.86 207:  1.86
 IR intensities (km·mol⁻¹)
   1:  0.00   2:  0.02   3:  0.01   4:  0.00   5:  0.08   6:  0.00   7:  0.00   8:  0.01
   9:  0.02  10:  0.00  11:  0.09  12:  0.52  13:  3.23  14:  1.25  15:  0.37  16:  6.96
  17:  0.40  18:  4.16  19:  0.01  20:  0.06  21:  4.34  22:  1.84  23:  1.38  24:  0.19
  25:  0.01  26:  1.11  27:  0.25  28:  0.50  29: 12.28  30:  0.13  31:  0.17  32:  0.59
  33:  1.65  34:  3.91  35:  4.36  36:  1.02  37:  2.69  38:  1.43  39: 31.94  40:  0.85
  41:  0.12  42:  0.04  43:  0.14  44:  2.30  45:  0.16  46: 12.45  47:  0.96  48:  0.01
  49:  1.93  50:  3.26  51:  7.33  52:  1.49  53:  0.57  54:  0.12  55:  9.86  56:  0.54
  57:  0.08  58:  0.01  59:  7.45  60:  0.33  61:  3.75  62:  0.10  63:  0.30  64:  1.00
  65:  0.00  66:  1.82  67:  0.00  68:  6.23  69:  0.21  70:  0.23  71:  0.63  72:  9.70
  73: 18.54  74:  1.45  75:  0.01  76:  1.48  77: 24.18  78:  1.39  79: 15.21  80: 21.66
  81: 58.43  82: 64.53  83:  2.78  84: 42.66  85:  0.84  86:  6.72  87:  6.90  88: 16.27
  89:  0.06  90:  1.94  91:  1.45  92:  1.34  93:  0.81  94: 20.49  95:  1.00  96:  0.21
  97:  3.55  98:  3.43  99:  0.63 100:  2.67 101:  0.26 102:  4.29 103:  0.39 104:  0.64
 105:  7.97 106: 52.16 107:  0.98 108:  1.79 109:  0.23 110:  0.54 111:  0.88 112:  2.61
 113:  5.43 114:  1.49 115:  0.03 116:  0.05 117:  0.05 118: 14.77 119:  1.48 120:  2.23
 121:  1.65 122:  3.69 123: 84.36 124:  7.59 125:  0.69 126:  7.53 127:  0.63 128:  1.30
 129:  0.68 130:  1.48 131: 60.25 132:  2.47 133: 44.77 134: 78.96 135:  0.03 136: 10.46
 137: 16.95 138:117.91 139: 14.60 140: 19.40 141:  5.36 142: 12.30 143:  0.41 144:  3.22
 145:  0.21 146: 72.33 147: 58.07 148: 84.17 149:301.81 150:579.80 151: 35.70 152:267.46
 153:  2.63 154:102.31 155:231.02 156: 69.65 157:  1.30 158: 28.74 159:  2.63 160:  4.75
 161:  0.47 162: 38.97 163:  5.27 164: 52.26 165:419.94 166:221.85 167:939.77 168:131.46
 169:  9.56 170: 54.49 171:  5.34 172:  5.94 173: 21.28 174: 12.97 175:  5.75 176: 10.49
 177: 11.95 178:534.93 179: 40.29 180:  1.06 181:  1.09 182:  8.36 183:  7.84 184: 17.65
 185:  9.52 186:  7.87 187:  3.70 188:  5.81 189:  3.82 190: 39.30 191:  8.31 192:  0.68
 193: 37.10 194: 33.93 195: 26.05 196: 43.18 197: 13.86 198: 11.68 199: 63.37 200: 27.84
 201: 48.64 202: 11.64 203: 35.29 204: 78.79 205:  8.54 206:  0.63 207:  7.42
 Raman intensities (Ä⁴*amu⁻¹)
   1:  0.00   2:  0.00   3:  0.00   4:  0.00   5:  0.00   6:  0.00   7:  0.00   8:  0.00
   9:  0.00  10:  0.00  11:  0.00  12:  0.00  13:  0.00  14:  0.00  15:  0.00  16:  0.00
  17:  0.00  18:  0.00  19:  0.00  20:  0.00  21:  0.00  22:  0.00  23:  0.00  24:  0.00
  25:  0.00  26:  0.00  27:  0.00  28:  0.00  29:  0.00  30:  0.00  31:  0.00  32:  0.00
  33:  0.00  34:  0.00  35:  0.00  36:  0.00  37:  0.00  38:  0.00  39:  0.00  40:  0.00
  41:  0.00  42:  0.00  43:  0.00  44:  0.00  45:  0.00  46:  0.00  47:  0.00  48:  0.00
  49:  0.00  50:  0.00  51:  0.00  52:  0.00  53:  0.00  54:  0.00  55:  0.00  56:  0.00
  57:  0.00  58:  0.00  59:  0.00  60:  0.00  61:  0.00  62:  0.00  63:  0.00  64:  0.00
  65:  0.00  66:  0.00  67:  0.00  68:  0.00  69:  0.00  70:  0.00  71:  0.00  72:  0.00
  73:  0.00  74:  0.00  75:  0.00  76:  0.00  77:  0.00  78:  0.00  79:  0.00  80:  0.00
  81:  0.00  82:  0.00  83:  0.00  84:  0.00  85:  0.00  86:  0.00  87:  0.00  88:  0.00
  89:  0.00  90:  0.00  91:  0.00  92:  0.00  93:  0.00  94:  0.00  95:  0.00  96:  0.00
  97:  0.00  98:  0.00  99:  0.00 100:  0.00 101:  0.00 102:  0.00 103:  0.00 104:  0.00
 105:  0.00 106:  0.00 107:  0.00 108:  0.00 109:  0.00 110:  0.00 111:  0.00 112:  0.00
 113:  0.00 114:  0.00 115:  0.00 116:  0.00 117:  0.00 118:  0.00 119:  0.00 120:  0.00
 121:  0.00 122:  0.00 123:  0.00 124:  0.00 125:  0.00 126:  0.00 127:  0.00 128:  0.00
 129:  0.00 130:  0.00 131:  0.00 132:  0.00 133:  0.00 134:  0.00 135:  0.00 136:  0.00
 137:  0.00 138:  0.00 139:  0.00 140:  0.00 141:  0.00 142:  0.00 143:  0.00 144:  0.00
 145:  0.00 146:  0.00 147:  0.00 148:  0.00 149:  0.00 150:  0.00 151:  0.00 152:  0.00
 153:  0.00 154:  0.00 155:  0.00 156:  0.00 157:  0.00 158:  0.00 159:  0.00 160:  0.00
 161:  0.00 162:  0.00 163:  0.00 164:  0.00 165:  0.00 166:  0.00 167:  0.00 168:  0.00
 169:  0.00 170:  0.00 171:  0.00 172:  0.00 173:  0.00 174:  0.00 175:  0.00 176:  0.00
 177:  0.00 178:  0.00 179:  0.00 180:  0.00 181:  0.00 182:  0.00 183:  0.00 184:  0.00
 185:  0.00 186:  0.00 187:  0.00 188:  0.00 189:  0.00 190:  0.00 191:  0.00 192:  0.00
 193:  0.00 194:  0.00 195:  0.00 196:  0.00 197:  0.00 198:  0.00 199:  0.00 200:  0.00
 201:  0.00 202:  0.00 203:  0.00 204:  0.00 205:  0.00 206:  0.00 207:  0.00
 output can be read by thermo (or use thermo option).
 writing <g98.out> molden fake output.
 recommended (thermochemical) frequency scaling factor: 1.0
           -------------------------------------------------
          |             Thermodynamic Functions             |
           -------------------------------------------------

Refinement of some symmetry elements was terminated before convergence was reached.
Some symmetry elements may remain unidentified.
Molecule has no symmetry elements
It seems to be the C1 point group
c1  symmetry found (for desy threshold:  0.10E+00) used in thermo

          ...................................................
          :                      SETUP                      :
          :.................................................:
          :  # frequencies                         201      :
          :  # imaginary freq.                       0      :
          :  linear?                             false      :
          :  only rotor calc.                    false      :
          :  symmetry                               c1      :
          :  rotational number                       1      :
          :  scaling factor                  1.0000000      :
          :  rotor cutoff                   50.0000000 cm⁻¹ :
          :  imag. cutoff                  -20.0000000 cm⁻¹ :
          :.................................................:

    mode    ω/cm⁻¹     T·S(HO)/kcal·mol⁻¹    T·S(FR)/kcal·mol⁻¹   T·S(vib)
   ------------------------------------------------------------------------
       1      8.31    -2.49792 (  0.08%)    -1.58802 ( 99.92%)    -1.58872
       2      8.86    -2.46004 (  0.10%)    -1.56908 ( 99.90%)    -1.56996
       3     14.36    -2.17432 (  0.67%)    -1.42620 ( 99.33%)    -1.43125
       4     24.28    -1.86325 (  5.27%)    -1.27056 ( 94.73%)    -1.30177
       5     26.44    -1.81274 (  7.25%)    -1.24528 ( 92.75%)    -1.28644
       6     36.08    -1.62894 ( 21.33%)    -1.15321 ( 78.67%)    -1.25468
       7     41.58    -1.54516 ( 32.35%)    -1.11119 ( 67.65%)    -1.25157
       8     50.21    -1.43385 ( 50.42%)    -1.05532 ( 49.58%)    -1.24616
       9     59.29    -1.33596 ( 66.40%)    -1.00608 ( 33.60%)    -1.22513
      10     64.68    -1.28472 ( 73.69%)    -0.98027 ( 26.31%)    -1.20462
      11     69.16    -1.24544 ( 78.54%)    -0.96046 ( 21.46%)    -1.18428
      12     92.15    -1.07746 ( 92.02%)    -0.87541 (  7.98%)    -1.06135
      13    103.57    -1.00955 ( 94.85%)    -0.84083 (  5.15%)    -1.00086
      14    111.62    -0.96618 ( 96.13%)    -0.81865 (  3.87%)    -0.96047
      15    118.55    -0.93136 ( 96.93%)    -0.80079 (  3.07%)    -0.92736
      16    122.26    -0.91362 ( 97.28%)    -0.79167 (  2.72%)    -0.91030
      17    122.41    -0.91295 ( 97.29%)    -0.79132 (  2.71%)    -0.90965
      18    178.68    -0.69830 ( 99.39%)    -0.67926 (  0.61%)    -0.69819
      19    189.25    -0.66640 ( 99.52%)    -0.66223 (  0.48%)    -0.66638
      20    191.35    -0.66032 ( 99.54%)    -0.65897 (  0.46%)    -0.66032
      21    202.91    -0.62808 ( 99.63%)    -0.64160 (  0.37%)    -0.62813
      22    242.87    -0.53122 ( 99.82%)    -0.58833 (  0.18%)    -0.53132
      23    249.68    -0.51665 ( 99.84%)    -0.58015 (  0.16%)    -0.51676
      24    253.72    -0.50822 ( 99.85%)    -0.57539 (  0.15%)    -0.50832
      25    255.01    -0.50557 ( 99.85%)    -0.57389 (  0.15%)    -0.50567
      26    270.51    -0.47494 ( 99.88%)    -0.55641 (  0.12%)    -0.47503
      27    274.05    -0.46824 ( 99.89%)    -0.55255 (  0.11%)    -0.46834
      28    281.49    -0.45455 ( 99.90%)    -0.54462 (  0.10%)    -0.45464
   ------------------------------------------------------------------------

   temp. (K)  partition function   enthalpy   heat capacity  entropy
                                   cal/mol     cal/K/mol   cal/K/mol   J/K/mol
 298.15  VIB  0.124E+17            19992.911    127.000    124.674
         ROT  0.107E+09              888.752      2.981     39.721
         INT  0.133E+25            20881.664    129.980    164.395
         TR   0.137E+29             1481.254      4.968     44.961
         TOT                       22362.9175   134.9486   209.3561   875.9460

       T/K    H(0)-H(T)+PV         H(T)/Eh          T*S/Eh         G(T)/Eh
   ------------------------------------------------------------------------
    298.15    0.356376E-01    0.548089E+00    0.994718E-01    0.448617E+00
   ------------------------------------------------------------------------

         :::::::::::::::::::::::::::::::::::::::::::::::::::::
         ::                  THERMODYNAMIC                  ::
         :::::::::::::::::::::::::::::::::::::::::::::::::::::
         :: total free energy        -117.105960651554 Eh   ::
         ::.................................................::
         :: total energy             -117.554577654046 Eh   ::
         :: zero point energy           0.512451270120 Eh   ::
         :: G(RRHO) w/o ZPVE           -0.063834267628 Eh   ::
         :: G(RRHO) contrib.            0.448617002492 Eh   ::
         :::::::::::::::::::::::::::::::::::::::::::::::::::::

optimized geometry written to: xtbopt.xyz


           -------------------------------------------------
          | TOTAL ENERGY             -117.554577654046 Eh   |
          | TOTAL ENTHALPY           -117.006488806402 Eh   |
          | TOTAL FREE ENERGY        -117.105960651554 Eh   |
          | GRADIENT NORM               0.000155232188 Eh/α |
          | HOMO-LUMO GAP               1.536948995941 eV   |
           -------------------------------------------------

------------------------------------------------------------------------
 * finished run on 2025/09/14 at 13:27:41.483     
------------------------------------------------------------------------
 total:
 * wall-time:     0 d,  0 h,  0 min,  3.833 sec
 *  cpu-time:     0 d,  0 h,  2 min, 14.017 sec
 * ratio c/w:    34.964 speedup
 SCF:
 * wall-time:     0 d,  0 h,  0 min,  0.111 sec
 *  cpu-time:     0 d,  0 h,  0 min,  4.414 sec
 * ratio c/w:    39.745 speedup
 ANC optimizer:
 * wall-time:     0 d,  0 h,  0 min,  0.716 sec
 *  cpu-time:     0 d,  0 h,  0 min, 28.655 sec
 * ratio c/w:    39.999 speedup
 analytical hessian:
 * wall-time:     0 d,  0 h,  0 min,  2.670 sec
 *  cpu-time:     0 d,  0 h,  1 min, 32.244 sec
 * ratio c/w:    34.548 speedup

