      -----------------------------------------------------------      
     |                   =====================                   |     
     |                           x T B                           |     
     |                   =====================                   |     
     |                         S. Grimme                         |     
     |          Mulliken Center for Theoretical Chemistry        |     
     |                    University of Bonn                     |     
      -----------------------------------------------------------      

   * xtb version 6.7.1 (edcfbbe) compiled by 'albert@albert-system' on 2024-07-22

   xtb is free software: you can redistribute it and/or modify it under
   the terms of the GNU Lesser General Public License as published by
   the Free Software Foundation, either version 3 of the License, or
   (at your option) any later version.
   
   xtb is distributed in the hope that it will be useful,
   but WITHOUT ANY WARRANTY; without even the implied warranty of
   MERCHANTABILITY or FITNESS FOR A PARTICULAR PURPOSE.  See the
   GNU Lesser General Public License for more details.
   
   Cite this work as:
   * C. Bannwarth, E. Caldeweyher, S. Ehlert, A. Hansen, P. Pracht,
     J. Seibert, S. Spicher, S. Grimme, WIREs Comput. Mol. Sci., 2020, 11,
     e01493. DOI: 10.1002/wcms.1493
   
   for GFN2-xTB:
   * C. Bannwarth, S. Ehlert and S. Grimme., J. Chem. Theory Comput., 2019,
     15, 1652-1671. DOI: 10.1021/acs.jctc.8b01176
   for GFN1-xTB:
   * S. Grimme, C. Bannwarth, P. Shushkov, J. Chem. Theory Comput., 2017,
     13, 1989-2009. DOI: 10.1021/acs.jctc.7b00118
   for GFN0-xTB:
   * P. Pracht, E. Caldeweyher, S. Ehlert, S. Grimme, ChemRxiv, 2019, preprint.
     DOI: 10.26434/chemrxiv.8326202.v1
   for GFN-FF:
   * S. Spicher and S. Grimme, Angew. Chem. Int. Ed., 2020, 59, 15665-15673.
     DOI: 10.1002/anie.202004239
   
   for ALPB and GBSA implicit solvation:
   * S. Ehlert, M. Stahn, S. Spicher, S. Grimme, J. Chem. Theory Comput.,
     2021, 17, 4250-4261. DOI: 10.1021/acs.jctc.1c00471
   
   for ddCOSMO and CPCM-X implicit solvation:
   * M. Stahn, S. Ehlert, S. Grimme, J. Phys. Chem. A,
     2023, XX, XXXX-XXXX. DOI: 10.1021/acs.jpca.3c04382
   
   for DFT-D4:
   * E. Caldeweyher, C. Bannwarth and S. Grimme, J. Chem. Phys., 2017,
     147, 034112. DOI: 10.1063/1.4993215
   * E. Caldeweyher, S. Ehlert, A. Hansen, H. Neugebauer, S. Spicher,
     C. Bannwarth and S. Grimme, J. Chem. Phys., 2019, 150, 154122.
     DOI: 10.1063/1.5090222
   * E. Caldeweyher, J.-M. Mewes, S. Ehlert and S. Grimme, Phys. Chem. Chem. Phys.
     2020, 22, 8499-8512. DOI: 10.1039/D0CP00502A
   
   for sTDA-xTB:
   * S. Grimme and C. Bannwarth, J. Chem. Phys., 2016, 145, 054103.
     DOI: 10.1063/1.4959605
   
   in the mass-spec context:
   * V. Asgeirsson, C. Bauer and S. Grimme, Chem. Sci., 2017, 8, 4879.
     DOI: 10.1039/c7sc00601b
   * J. Koopman and S. Grimme, ACS Omega 2019, 4, 12, 15120-15133.
     DOI: 10.1021/acsomega.9b02011
   
   for metadynamics refer to:
   * S. Grimme, J. Chem. Theory Comput., 2019, 155, 2847-2862
     DOI: 10.1021/acs.jctc.9b00143
   
   for SPH calculations refer to:
   * S. Spicher and S. Grimme, J. Chem. Theory Comput., 2021, 17, 1701-1714
     DOI: 10.1021/acs.jctc.0c01306
   
   for ONIOM refer to:
   * C. Plett, A. Katbashev, S. Ehlert, S. Grimme, M. Bursch,
     Phys. Chem. Chem. Phys., 2023, 25, 17860-17868. DOI: 10.1039/D3CP02178E
   
   for DIPRO refer to:
   * J. Kohn, N. Gildemeister, S. Grimme, D. Fazzi, A. Hansen,
     J. Chem. Phys., 2023, just accepted.
   
   for PTB refer to:
   * S. Grimme, M. Mueller, A. Hansen, J. Chem. Phys., 2023, 158, 124111.
     DOI: 10.1063/5.0137838
   
   with help from (in alphabetical order)
   P. Atkinson, C. Bannwarth, F. Bohle, G. Brandenburg, E. Caldeweyher
   M. Checinski, S. Dohm, S. Ehlert, S. Ehrlich, I. Gerasimov, C. Hölzer
   A. Katbashev, J. Kohn, J. Koopman, C. Lavigne, S. Lehtola, F. März, M. Müller,
   F. Musil, H. Neugebauer, J. Pisarek, C. Plett, P. Pracht, F. Pultar,
   J. Seibert, P. Shushkov, S. Spicher, M. Stahn, M. Steiner, T. Strunk,
   J. Stückrath, T. Rose, and J. Unsleber
   
 * started run on 2025/07/20 at 06:50:47.891     
   ID    Z sym.   atoms
    1    8 O      1, 10
    2    6 C      2-9, 11-15, 17-21, 23-41, 43-56, 58
    3    7 N      16, 22, 42, 57
    4    1 H      59-92

           -------------------------------------------------
          |                Calculation Setup                |
           -------------------------------------------------

          program call               : xtb data2507/toluene/TPA-2/TPA-2.xyz --gfn 2 --gbsa toluene --ohess vtight --parallel 40 --molden --ceasefiles --namespace data2507/toluene/TPA-2/TPA-2_toluene_S0_preOpt
          calculation namespace      : data2507/toluene/TPA-2/TPA-2_toluene_S0_preOpt
          coordinate file            : data2507/toluene/TPA-2/TPA-2.xyz
          omp threads                :                    40


           -------------------------------------------------
          |                 G F N 2 - x T B                 |
           -------------------------------------------------

        Reference                      10.1021/acs.jctc.8b01176
      * Hamiltonian:
        H0-scaling (s, p, d)           1.850000    2.230000    2.230000
        zeta-weighting                 0.500000
      * Dispersion:
        s8                             2.700000
        a1                             0.520000
        a2                             5.000000
        s9                             5.000000
      * Repulsion:
        kExp                           1.500000    1.000000
        rExp                           1.000000
      * Coulomb:
        alpha                          2.000000
        third order                    shell-resolved
        anisotropic                    true
        a3                             3.000000
        a5                             4.000000
        cn-shift                       1.200000
        cn-exp                         4.000000
        max-rad                        5.000000

      * Solvation model:               GBSA
        Solvent                        toluene
        Parameter file                 internal GFN2-xTB/GBSA
        Dielectric constant                7.0000E+00
        Reference state                gsolv [1 M gas/solution]
        Free energy shift                  4.5239E-03 Eh       2.8388E+00 kcal/mol
        Temperature                        2.9815E+02 K
        Density                            8.6700E-01 kg/L
        Solvent mass                       9.2140E+01 g/mol
        Interaction kernel             Still
        Born radius scaling (c1)           1.5686E+00
        Born radii integrator          GBOBC
        Born offset                        0.0000E+00 a0       0.0000E+00 AA
        H-bond correction              false
        Ion screening                  false
        Surface tension                    1.0000E-05 Eh       1.5569E+01 dyn/cm
        Grid points                               230 per atom

          ...................................................
          :                      SETUP                      :
          :.................................................:
          :  # basis functions                 266          :
          :  # atomic orbitals                 266          :
          :  # shells                          150          :
          :  # electrons                       274          :
          :  max. iterations                   250          :
          :  Hamiltonian                  GFN2-xTB          :
          :  restarted?                      false          :
          :  GBSA solvation                   true          :
          :  PC potential                    false          :
          :  electronic temp.          300.0000000     K    :
          :  accuracy                    1.0000000          :
          :  -> integral cutoff          0.2500000E+02      :
          :  -> integral neglect         0.1000000E-07      :
          :  -> SCF convergence          0.1000000E-05 Eh   :
          :  -> wf. convergence          0.1000000E-03 e    :
          :  Broyden damping             0.4000000          :
          :  net charge                          0          :
          :  unpaired electrons                  0          :
          ...................................................

 iter      E             dE          RMSdq      gap      omega  full diag
   1   -150.8624344 -0.150862E+03  0.468E+00    0.12       0.0  T
   2   -150.9850751 -0.122641E+00  0.281E+00    0.84       1.0  T
   3   -150.8374187  0.147656E+00  0.134E+00    0.11       1.0  T
   4   -150.9948340 -0.157415E+00  0.494E-01    0.75       1.0  T
   5   -151.0199020 -0.250680E-01  0.192E-01    0.63       1.0  T
   6   -151.0217693 -0.186727E-02  0.941E-02    0.51       1.0  T
   7   -151.0220574 -0.288160E-03  0.560E-02    0.45       1.0  T
   8   -151.0220986 -0.411570E-04  0.285E-02    0.42       1.0  T
   9   -151.0221400 -0.413769E-04  0.852E-03    0.42       1.2  T
  10   -151.0221445 -0.457764E-05  0.438E-03    0.42       2.4  T
  11   -151.0221453 -0.753150E-06  0.208E-03    0.42       5.0  T
  12   -151.0221453 -0.599426E-07  0.121E-03    0.43       8.6  T
  13   -151.0221454 -0.462466E-07  0.461E-04    0.43      22.6  T
  14   -151.0221454 -0.534106E-08  0.231E-04    0.43      45.2  T

   *** convergence criteria satisfied after 14 iterations ***

         #    Occupation            Energy/Eh            Energy/eV
      -------------------------------------------------------------
         1        2.0000           -0.7218420             -19.6423
       ...           ...                  ...                  ...
       131        2.0000           -0.4053266             -11.0295
       132        2.0000           -0.4046954             -11.0123
       133        2.0000           -0.4039939             -10.9932
       134        2.0000           -0.4026487             -10.9566
       135        2.0000           -0.3652585              -9.9392
       136        1.9997           -0.3566108              -9.7039
       137        1.9996           -0.3561065              -9.6902 (HOMO)
       138        0.0007           -0.3404832              -9.2650 (LUMO)
       139                         -0.3050717              -8.3014
       140                         -0.2838101              -7.7229
       141                         -0.2612589              -7.1092
       142                         -0.2439391              -6.6379
       ...                                ...                  ...
       266                          0.7107015              19.3392
      -------------------------------------------------------------
                  HL-Gap            0.0156233 Eh            0.4251 eV
             Fermi-level           -0.3480750 Eh           -9.4716 eV

 SCC (total)                   0 d,  0 h,  0 min,  0.266 sec
 SCC setup                      ...        0 min,  0.011 sec (  4.095%)
 Dispersion                     ...        0 min,  0.008 sec (  2.997%)
 classical contributions        ...        0 min,  0.000 sec (  0.108%)
 integral evaluation            ...        0 min,  0.011 sec (  4.095%)
 iterations                     ...        0 min,  0.219 sec ( 82.336%)
 molecular gradient             ...        0 min,  0.015 sec (  5.705%)
 printout                       ...        0 min,  0.002 sec (  0.629%)

         :::::::::::::::::::::::::::::::::::::::::::::::::::::
         ::                     SUMMARY                     ::
         :::::::::::::::::::::::::::::::::::::::::::::::::::::
         :: total energy            -148.546292704448 Eh    ::
         :: total w/o Gsasa/hb      -148.488995846085 Eh    ::
         :: gradient norm              0.122859568340 Eh/a0 ::
         :: HOMO-LUMO gap              0.425130682392 eV    ::
         ::.................................................::
         :: SCC energy              -151.021749413989 Eh    ::
         :: -> isotropic ES            0.086742031263 Eh    ::
         :: -> anisotropic ES          0.011624780337 Eh    ::
         :: -> anisotropic XC          0.093556135720 Eh    ::
         :: -> dispersion             -0.128722043552 Eh    ::
         :: -> Gsolv                  -0.067864482369 Eh    ::
         ::    -> Gelec               -0.010567624005 Eh    ::
         ::    -> Gsasa               -0.061820738235 Eh    ::
         ::    -> Ghb                  0.000000000000 Eh    ::
         ::    -> Gshift               0.004523879872 Eh    ::
         :: repulsion energy           2.475456709541 Eh    ::
         :: add. restraining           0.000000000000 Eh    ::
         :: total charge               0.000000000033 e     ::
         :::::::::::::::::::::::::::::::::::::::::::::::::::::

      ----------------------------------------------------------- 
     |                   =====================                   |
     |                        A N C O P T                        |
     |                   =====================                   |
     |               Approximate Normal Coordinate               |
     |                Rational Function Optimizer                |
      ----------------------------------------------------------- 

Optimization log is written to '/dev/null'
      ----------------------------------------------------------- 
     |                   =====================                   |
     |                        A N C O P T                        |
     |                   =====================                   |
     |               Approximate Normal Coordinate               |
     |                Rational Function Optimizer                |
      ----------------------------------------------------------- 

          ...................................................
          :                      SETUP                      :
          :.................................................:
          :   optimization level         verytight          :
          :   max. optcycles                  1840          :
          :   ANC micro-cycles                  20          :
          :   degrees of freedom               270          :
          :.................................................:
          :   RF solver                   davidson          :
          :   write xtbopt.log                true          :
          :   linear?                        false          :
          :   energy convergence         0.1000000E-06 Eh   :
          :   grad. convergence          0.2000000E-03 Eh/α :
          :   maxmium RF displ.          1.0000000          :
          :   Hlow (freq-cutoff)         0.1000000E-01      :
          :   Hmax (freq-cutoff)         5.0000000          :
          :   S6 in model hess.         20.0000000          :
          ...................................................

generating ANC from exact Hessian ...
Using Lindh-Hessian (1995)
 Shifting diagonal of input Hessian by   9.929732139643084E-003
 Lowest  eigenvalues of input Hessian
    0.000000    0.000000    0.000000    0.000000    0.000000    0.000000
    0.010000    0.010029    0.010061    0.010095    0.010225    0.010358
    0.010589    0.010693    0.010790    0.010946    0.010975    0.011140
 Highest eigenvalues
    2.009647    2.022372    2.067252    2.136720    2.170769    2.248452
 

........................................................................
.............................. CYCLE    1 ..............................
........................................................................

 iter      E             dE          RMSdq      gap      omega  full diag
   1   -151.0221454 -0.151022E+03  0.946E-05    0.42       0.0  T
   2   -151.0221454 -0.262389E-09  0.599E-05    0.42     174.0  T
   3   -151.0221454 -0.154813E-09  0.361E-05    0.42     289.0  T
     SCC iter.                  ...        0 min,  0.041 sec
     gradient                   ...        0 min,  0.014 sec
 * total energy  :  -148.5462927 Eh     change       -0.3040157E-08 Eh
   gradient norm :     0.1228606 Eh/α   predicted     0.0000000E+00 (-100.00%)
   displ. norm   :     0.4346816 α      lambda       -0.2467534E-01
   maximum displ.:     0.2031361 α      in ANC's #30, #44, #49, ...

........................................................................
.............................. CYCLE    2 ..............................
........................................................................

 iter      E             dE          RMSdq      gap      omega  full diag
   1   -151.1246577 -0.151125E+03  0.138E-01    0.40       0.0  T
   2   -151.1249719 -0.314249E-03  0.970E-02    0.45       1.0  T
   3   -151.1250562 -0.843161E-04  0.513E-02    0.43       1.0  T
   4   -151.1251189 -0.626230E-04  0.148E-02    0.44       1.0  T
   5   -151.1251335 -0.146504E-04  0.310E-03    0.44       3.4  T
   6   -151.1251343 -0.789898E-06  0.157E-03    0.44       6.6  T
   7   -151.1251344 -0.731772E-07  0.696E-04    0.44      15.0  T
   8   -151.1251344 -0.232090E-07  0.262E-04    0.44      39.8  T
     SCC iter.                  ...        0 min,  0.098 sec
     gradient                   ...        0 min,  0.014 sec
 * total energy  :  -148.5646453 Eh     change       -0.1835261E-01 Eh
   gradient norm :     0.0595979 Eh/α   predicted    -0.1470461E-01 ( -19.88%)
   displ. norm   :     0.5141123 α      lambda       -0.1219383E-01
   maximum displ.:     0.2838872 α      in ANC's #30, #44, #49, ...

........................................................................
.............................. CYCLE    3 ..............................
........................................................................

 iter      E             dE          RMSdq      gap      omega  full diag
   1   -151.1931959 -0.151193E+03  0.121E-01    0.40       0.0  T
   2   -151.1936180 -0.422054E-03  0.915E-02    0.45       1.0  T
   3   -151.1937979 -0.179982E-03  0.480E-02    0.43       1.0  T
   4   -151.1938027 -0.478285E-05  0.193E-02    0.44       1.0  T
   5   -151.1938224 -0.196249E-04  0.348E-03    0.43       3.0  T
   6   -151.1938236 -0.125999E-05  0.146E-03    0.43       7.1  T
   7   -151.1938237 -0.670603E-07  0.634E-04    0.43      16.4  T
   8   -151.1938237 -0.175632E-07  0.255E-04    0.43      40.9  T
     SCC iter.                  ...        0 min,  0.095 sec
     gradient                   ...        0 min,  0.014 sec
 * total energy  :  -148.5726082 Eh     change       -0.7962879E-02 Eh
   gradient norm :     0.0149369 Eh/α   predicted    -0.7710322E-02 (  -3.17%)
   displ. norm   :     0.4449583 α      lambda       -0.3604079E-02
   maximum displ.:     0.2440725 α      in ANC's #30, #24, #23, ...

........................................................................
.............................. CYCLE    4 ..............................
........................................................................

 iter      E             dE          RMSdq      gap      omega  full diag
   1   -151.2127537 -0.151213E+03  0.868E-02    0.41       0.0  T
   2   -151.2128634 -0.109743E-03  0.596E-02    0.44       1.0  T
   3   -151.2128758 -0.123286E-04  0.311E-02    0.43       1.0  T
   4   -151.2129127 -0.369725E-04  0.899E-03    0.44       1.2  T
   5   -151.2129186 -0.586272E-05  0.197E-03    0.44       5.3  T
   6   -151.2129190 -0.395364E-06  0.736E-04    0.44      14.2  T
   7   -151.2129190 -0.988570E-08  0.356E-04    0.44      29.3  T
     SCC iter.                  ...        0 min,  0.087 sec
     gradient                   ...        0 min,  0.014 sec
 * total energy  :  -148.5753158 Eh     change       -0.2707588E-02 Eh
   gradient norm :     0.0150725 Eh/α   predicted    -0.2158833E-02 ( -20.27%)
   displ. norm   :     0.5068767 α      lambda       -0.2518588E-02
   maximum displ.:     0.2305702 α      in ANC's #30, #17, #20, ...

........................................................................
.............................. CYCLE    5 ..............................
........................................................................

 iter      E             dE          RMSdq      gap      omega  full diag
   1   -151.2205039 -0.151221E+03  0.104E-01    0.42       0.0  T
   2   -151.2205550 -0.511107E-04  0.635E-02    0.45       1.0  T
   3   -151.2204856  0.693849E-04  0.297E-02    0.43       1.0  T
   4   -151.2205747 -0.891333E-04  0.543E-03    0.45       1.9  T
   5   -151.2205777 -0.294752E-05  0.145E-03    0.44       7.2  T
   6   -151.2205778 -0.118848E-06  0.717E-04    0.44      14.5  T
   7   -151.2205778 -0.128755E-07  0.287E-04    0.44      36.3  T
     SCC iter.                  ...        0 min,  0.083 sec
     gradient                   ...        0 min,  0.014 sec
 * total energy  :  -148.5771608 Eh     change       -0.1845039E-02 Eh
   gradient norm :     0.0106405 Eh/α   predicted    -0.1582840E-02 ( -14.21%)
   displ. norm   :     0.4718157 α      lambda       -0.1401061E-02
   maximum displ.:     0.2099257 α      in ANC's #20, #17, #23, ...

........................................................................
.............................. CYCLE    6 ..............................
........................................................................

 iter      E             dE          RMSdq      gap      omega  full diag
   1   -151.2241713 -0.151224E+03  0.103E-01    0.45       0.0  T
   2   -151.2241935 -0.221648E-04  0.608E-02    0.46       1.0  T
   3   -151.2241534  0.400676E-04  0.203E-02    0.45       1.0  T
   4   -151.2241997 -0.462433E-04  0.369E-03    0.46       2.8  T
   5   -151.2242010 -0.134154E-05  0.121E-03    0.46       8.6  T
   6   -151.2242011 -0.414202E-07  0.686E-04    0.46      15.2  T
   7   -151.2242011 -0.157980E-07  0.222E-04    0.46      47.0  T
     SCC iter.                  ...        0 min,  0.084 sec
     gradient                   ...        0 min,  0.014 sec
 * total energy  :  -148.5781997 Eh     change       -0.1038895E-02 Eh
   gradient norm :     0.0072026 Eh/α   predicted    -0.8564903E-03 ( -17.56%)
   displ. norm   :     0.4592772 α      lambda       -0.9706445E-03
   maximum displ.:     0.2392264 α      in ANC's #20, #17, #19, ...

........................................................................
.............................. CYCLE    7 ..............................
........................................................................

 iter      E             dE          RMSdq      gap      omega  full diag
   1   -151.2264571 -0.151226E+03  0.107E-01    0.47       0.0  T
   2   -151.2264736 -0.164668E-04  0.626E-02    0.48       1.0  T
   3   -151.2264470  0.266228E-04  0.174E-02    0.47       1.0  T
   4   -151.2264779 -0.309572E-04  0.306E-03    0.48       3.4  T
   5   -151.2264787 -0.774702E-06  0.127E-03    0.48       8.2  T
   6   -151.2264787 -0.539050E-07  0.671E-04    0.48      15.5  T
   7   -151.2264788 -0.175910E-07  0.217E-04    0.48      48.0  T
     SCC iter.                  ...        0 min,  0.089 sec
     gradient                   ...        0 min,  0.016 sec
 * total energy  :  -148.5789459 Eh     change       -0.7461486E-03 Eh
   gradient norm :     0.0068835 Eh/α   predicted    -0.5876985E-03 ( -21.24%)
   displ. norm   :     0.4758642 α      lambda       -0.8638721E-03
   maximum displ.:     0.2702206 α      in ANC's #20, #17, #19, ...

........................................................................
.............................. CYCLE    8 ..............................
........................................................................

 iter      E             dE          RMSdq      gap      omega  full diag
   1   -151.2277149 -0.151228E+03  0.116E-01    0.49       0.0  T
   2   -151.2277294 -0.144867E-04  0.676E-02    0.50       1.0  T
   3   -151.2277031  0.263280E-04  0.178E-02    0.49       1.0  T
   4   -151.2277339 -0.308152E-04  0.285E-03    0.50       3.7  T
   5   -151.2277345 -0.561854E-06  0.140E-03    0.50       7.4  T
   6   -151.2277345 -0.796635E-07  0.706E-04    0.50      14.8  T
   7   -151.2277346 -0.241069E-07  0.243E-04    0.50      42.9  T
     SCC iter.                  ...        0 min,  0.083 sec
     gradient                   ...        0 min,  0.014 sec
 * total energy  :  -148.5796140 Eh     change       -0.6680988E-03 Eh
   gradient norm :     0.0070156 Eh/α   predicted    -0.5297535E-03 ( -20.71%)
   displ. norm   :     0.4443515 α      lambda       -0.7231457E-03
   maximum displ.:     0.2501915 α      in ANC's #20, #17, #19, ...

........................................................................
.............................. CYCLE    9 ..............................
........................................................................

 iter      E             dE          RMSdq      gap      omega  full diag
   1   -151.2283594 -0.151228E+03  0.110E-01    0.50       0.0  T
   2   -151.2283689 -0.948892E-05  0.639E-02    0.51       1.0  T
   3   -151.2283457  0.231537E-04  0.163E-02    0.51       1.0  T
   4   -151.2283725 -0.267633E-04  0.252E-03    0.51       4.1  T
   5   -151.2283729 -0.434719E-06  0.132E-03    0.51       7.9  T
   6   -151.2283730 -0.820031E-07  0.659E-04    0.51      15.8  T
   7   -151.2283730 -0.199068E-07  0.224E-04    0.51      46.6  T
     SCC iter.                  ...        0 min,  0.085 sec
     gradient                   ...        0 min,  0.014 sec
 * total energy  :  -148.5801669 Eh     change       -0.5528849E-03 Eh
   gradient norm :     0.0061373 Eh/α   predicted    -0.4329824E-03 ( -21.69%)
   displ. norm   :     0.4309703 α      lambda       -0.5440151E-03
   maximum displ.:     0.2346567 α      in ANC's #20, #19, #18, ...

........................................................................
.............................. CYCLE   10 ..............................
........................................................................

 iter      E             dE          RMSdq      gap      omega  full diag
   1   -151.2275220 -0.151228E+03  0.105E-01    0.51       0.0  T
   2   -151.2275305 -0.844992E-05  0.613E-02    0.51       1.0  T
   3   -151.2275026  0.278898E-04  0.168E-02    0.51       1.0  T
   4   -151.2275342 -0.316132E-04  0.255E-03    0.51       4.1  T
   5   -151.2275347 -0.555820E-06  0.123E-03    0.51       8.5  T
   6   -151.2275348 -0.732778E-07  0.649E-04    0.51      16.1  T
   7   -151.2275348 -0.142381E-07  0.211E-04    0.51      49.3  T
     SCC iter.                  ...        0 min,  0.084 sec
     gradient                   ...        0 min,  0.014 sec
 * total energy  :  -148.5805773 Eh     change       -0.4104488E-03 Eh
   gradient norm :     0.0055919 Eh/α   predicted    -0.3225677E-03 ( -21.41%)
   displ. norm   :     0.4108128 α      lambda       -0.4094474E-03
   maximum displ.:     0.2096938 α      in ANC's #20, #19, #14, ...

........................................................................
.............................. CYCLE   11 ..............................
........................................................................

 iter      E             dE          RMSdq      gap      omega  full diag
   1   -151.2263564 -0.151226E+03  0.993E-02    0.52       0.0  T
   2   -151.2263629 -0.654293E-05  0.581E-02    0.52       1.0  T
   3   -151.2263424  0.205305E-04  0.143E-02    0.52       1.0  T
   4   -151.2263656 -0.231761E-04  0.236E-03    0.52       4.4  T
   5   -151.2263661 -0.483476E-06  0.111E-03    0.52       9.4  T
   6   -151.2263661 -0.574882E-07  0.605E-04    0.52      17.2  T
   7   -151.2263661 -0.119464E-07  0.189E-04    0.52      55.3  T
     SCC iter.                  ...        0 min,  0.083 sec
     gradient                   ...        0 min,  0.014 sec
 * total energy  :  -148.5808909 Eh     change       -0.3136069E-03 Eh
   gradient norm :     0.0059542 Eh/α   predicted    -0.2392762E-03 ( -23.70%)
   displ. norm   :     0.4263319 α      lambda       -0.3701428E-03
   maximum displ.:     0.2005679 α      in ANC's #20, #14, #19, ...

........................................................................
.............................. CYCLE   12 ..............................
........................................................................

 iter      E             dE          RMSdq      gap      omega  full diag
   1   -151.2256230 -0.151226E+03  0.102E-01    0.53       0.0  T
   2   -151.2256280 -0.496254E-05  0.600E-02    0.53       1.0  T
   3   -151.2256152  0.127624E-04  0.118E-02    0.53       1.0  T
   4   -151.2256299 -0.146859E-04  0.208E-03    0.53       5.0  T
   5   -151.2256302 -0.310211E-06  0.109E-03    0.53       9.6  T
   6   -151.2256303 -0.512966E-07  0.592E-04    0.53      17.6  T
   7   -151.2256303 -0.128465E-07  0.183E-04    0.53      56.8  T
     SCC iter.                  ...        0 min,  0.084 sec
     gradient                   ...        0 min,  0.014 sec
 * total energy  :  -148.5811774 Eh     change       -0.2865190E-03 Eh
   gradient norm :     0.0058335 Eh/α   predicted    -0.2187142E-03 ( -23.67%)
   displ. norm   :     0.4247035 α      lambda       -0.3534158E-03
   maximum displ.:     0.1910684 α      in ANC's #14, #20, #19, ...

........................................................................
.............................. CYCLE   13 ..............................
........................................................................

 iter      E             dE          RMSdq      gap      omega  full diag
   1   -151.2260764 -0.151226E+03  0.101E-01    0.54       0.0  T
   2   -151.2260801 -0.369383E-05  0.592E-02    0.54       1.0  T
   3   -151.2260736  0.653867E-05  0.935E-03    0.54       1.1  T
   4   -151.2260816 -0.797998E-05  0.174E-03    0.54       6.0  T
   5   -151.2260817 -0.133104E-06  0.102E-03    0.54      10.2  T
   6   -151.2260817 -0.414033E-07  0.528E-04    0.54      19.8  T
   7   -151.2260818 -0.106692E-07  0.179E-04    0.54      58.2  T
     SCC iter.                  ...        0 min,  0.084 sec
     gradient                   ...        0 min,  0.014 sec
 * total energy  :  -148.5814489 Eh     change       -0.2714481E-03 Eh
   gradient norm :     0.0059800 Eh/α   predicted    -0.2085824E-03 ( -23.16%)
   displ. norm   :     0.3887508 α      lambda       -0.3138056E-03
   maximum displ.:     0.1816340 α      in ANC's #14, #20, #3, ...

........................................................................
.............................. CYCLE   14 ..............................
........................................................................

 iter      E             dE          RMSdq      gap      omega  full diag
   1   -151.2274899 -0.151227E+03  0.897E-02    0.55       0.0  T
   2   -151.2274931 -0.322533E-05  0.526E-02    0.55       1.0  T
   3   -151.2274860  0.715648E-05  0.951E-03    0.56       1.1  T
   4   -151.2274945 -0.857354E-05  0.151E-03    0.55       6.9  T
   5   -151.2274946 -0.982373E-07  0.904E-04    0.55      11.5  T
   6   -151.2274947 -0.285364E-07  0.438E-04    0.55      23.8  T
     SCC iter.                  ...        0 min,  0.071 sec
     gradient                   ...        0 min,  0.014 sec
 * total energy  :  -148.5816827 Eh     change       -0.2338326E-03 Eh
   gradient norm :     0.0048264 Eh/α   predicted    -0.1806159E-03 ( -22.76%)
   displ. norm   :     0.3538589 α      lambda       -0.2440826E-03
   maximum displ.:     0.1596201 α      in ANC's #14, #3, #6, ...

........................................................................
.............................. CYCLE   15 ..............................
........................................................................

 iter      E             dE          RMSdq      gap      omega  full diag
   1   -151.2286801 -0.151229E+03  0.794E-02    0.56       0.0  T
   2   -151.2286830 -0.283220E-05  0.466E-02    0.56       1.0  T
   3   -151.2286782  0.473056E-05  0.772E-03    0.57       1.4  T
   4   -151.2286839 -0.566461E-05  0.148E-03    0.56       7.1  T
   5   -151.2286840 -0.133343E-06  0.764E-04    0.56      13.6  T
   6   -151.2286840 -0.165334E-07  0.436E-04    0.56      23.9  T
     SCC iter.                  ...        0 min,  0.070 sec
     gradient                   ...        0 min,  0.014 sec
 * total energy  :  -148.5818605 Eh     change       -0.1778021E-03 Eh
   gradient norm :     0.0062103 Eh/α   predicted    -0.1373330E-03 ( -22.76%)
   displ. norm   :     0.3346432 α      lambda       -0.2298491E-03
   maximum displ.:     0.1388581 α      in ANC's #14, #3, #6, ...

........................................................................
.............................. CYCLE   16 ..............................
........................................................................

 iter      E             dE          RMSdq      gap      omega  full diag
   1   -151.2322968 -0.151232E+03  0.705E-02    0.58       0.0  T
   2   -151.2323027 -0.598239E-05  0.416E-02    0.58       1.0  T
   3   -151.2322930  0.975650E-05  0.106E-02    0.58       1.0  T
   4   -151.2323041 -0.111467E-04  0.190E-03    0.58       5.5  T
   5   -151.2323044 -0.310784E-06  0.856E-04    0.58      12.2  T
   6   -151.2323045 -0.439453E-07  0.415E-04    0.58      25.1  T
     SCC iter.                  ...        0 min,  0.071 sec
     gradient                   ...        0 min,  0.017 sec
 * total energy  :  -148.5819899 Eh     change       -0.1293844E-03 Eh
   gradient norm :     0.0062741 Eh/α   predicted    -0.1277967E-03 (  -1.23%)
   displ. norm   :     0.3763365 α      lambda       -0.1890911E-03
   maximum displ.:     0.1476436 α      in ANC's #14, #6, #3, ...

........................................................................
.............................. CYCLE   17 ..............................
........................................................................

 iter      E             dE          RMSdq      gap      omega  full diag
   1   -151.2278883 -0.151228E+03  0.841E-02    0.58       0.0  T
   2   -151.2278971 -0.879982E-05  0.493E-02    0.58       1.0  T
   3   -151.2278835  0.136040E-04  0.120E-02    0.59       1.0  T
   4   -151.2278985 -0.150516E-04  0.278E-03    0.59       3.8  T
   5   -151.2278994 -0.828240E-06  0.112E-03    0.59       9.3  T
   6   -151.2278994 -0.738591E-07  0.564E-04    0.59      18.5  T
   7   -151.2278994 -0.577475E-08  0.231E-04    0.59      45.1  T
     SCC iter.                  ...        0 min,  0.086 sec
     gradient                   ...        0 min,  0.015 sec
 * total energy  :  -148.5820771 Eh     change       -0.8719366E-04 Eh
   gradient norm :     0.0069936 Eh/α   predicted    -0.1079365E-03 (  23.79%)
   displ. norm   :     0.1339544 α      lambda       -0.1276910E-03
   maximum displ.:     0.0479536 α      in ANC's #17, #9, #3, ...

........................................................................
.............................. CYCLE   18 ..............................
........................................................................

 iter      E             dE          RMSdq      gap      omega  full diag
   1   -151.2325190 -0.151233E+03  0.287E-02    0.59       0.0  T
   2   -151.2325199 -0.872863E-06  0.170E-02    0.58       1.0  T
   3   -151.2325176  0.223893E-05  0.469E-03    0.58       2.2  T
   4   -151.2325202 -0.255662E-05  0.828E-04    0.58      12.6  T
   5   -151.2325202 -0.500868E-07  0.354E-04    0.58      29.5  T
   6   -151.2325202 -0.406612E-08  0.174E-04    0.58      60.1  T
     SCC iter.                  ...        0 min,  0.075 sec
     gradient                   ...        0 min,  0.014 sec
 * total energy  :  -148.5821646 Eh     change       -0.8752712E-04 Eh
   gradient norm :     0.0049948 Eh/α   predicted    -0.6499396E-04 ( -25.74%)
   displ. norm   :     0.2251953 α      lambda       -0.1555675E-03
   maximum displ.:     0.0980306 α      in ANC's #3, #6, #10, ...

........................................................................
.............................. CYCLE   19 ..............................
........................................................................

 iter      E             dE          RMSdq      gap      omega  full diag
   1   -151.2332193 -0.151233E+03  0.420E-02    0.59       0.0  T
   2   -151.2332227 -0.333330E-05  0.248E-02    0.59       1.0  T
   3   -151.2332165  0.613324E-05  0.791E-03    0.59       1.3  T
   4   -151.2332236 -0.703624E-05  0.165E-03    0.59       6.3  T
   5   -151.2332238 -0.228133E-06  0.725E-04    0.59      14.4  T
   6   -151.2332238 -0.306212E-07  0.357E-04    0.59      29.2  T
     SCC iter.                  ...        0 min,  0.070 sec
     gradient                   ...        0 min,  0.014 sec
 * total energy  :  -148.5822638 Eh     change       -0.9919538E-04 Eh
   gradient norm :     0.0042474 Eh/α   predicted    -0.8175454E-04 ( -17.58%)
   displ. norm   :     0.3218996 α      lambda       -0.1162815E-03
   maximum displ.:     0.1424577 α      in ANC's #3, #6, #10, ...

........................................................................
.............................. CYCLE   20 ..............................
........................................................................

 iter      E             dE          RMSdq      gap      omega  full diag
   1   -151.2327004 -0.151233E+03  0.604E-02    0.59       0.0  T
   2   -151.2327021 -0.168277E-05  0.354E-02    0.59       1.0  T
   3   -151.2327006  0.148692E-05  0.435E-03    0.59       2.4  T
   4   -151.2327025 -0.195283E-05  0.137E-03    0.59       7.6  T
   5   -151.2327027 -0.122173E-06  0.685E-04    0.59      15.2  T
   6   -151.2327027 -0.156970E-07  0.336E-04    0.59      31.0  T
     SCC iter.                  ...        0 min,  0.071 sec
     gradient                   ...        0 min,  0.014 sec
 * total energy  :  -148.5823491 Eh     change       -0.8527141E-04 Eh
   gradient norm :     0.0038893 Eh/α   predicted    -0.6417295E-04 ( -24.74%)
   displ. norm   :     0.3320846 α      lambda       -0.1213865E-03
   maximum displ.:     0.1552534 α      in ANC's #3, #6, #10, ...
 * RMSD in coord.:     0.5655171 α      energy gain  -0.3605638E-01 Eh

generating ANC from exact Hessian ...
Using Lindh-Hessian (1995)
 Shifting diagonal of input Hessian by   9.925579942159422E-003
 Lowest  eigenvalues of input Hessian
    0.000000    0.000000    0.000000    0.000000    0.000000    0.000000
    0.010000    0.010026    0.010046    0.010148    0.010326    0.010381
    0.010731    0.010789    0.010885    0.010977    0.011197    0.011433
 Highest eigenvalues
    2.146619    2.165759    2.170372    2.177365    2.218975    2.272208
 

........................................................................
.............................. CYCLE   21 ..............................
........................................................................

 iter      E             dE          RMSdq      gap      omega  full diag
   1   -151.2307880 -0.151231E+03  0.620E-02    0.59       0.0  T
   2   -151.2307907 -0.262966E-05  0.362E-02    0.59       1.0  T
   3   -151.2307892  0.144161E-05  0.468E-03    0.59       2.2  T
   4   -151.2307912 -0.198152E-05  0.151E-03    0.59       6.9  T
   5   -151.2307913 -0.151158E-06  0.694E-04    0.59      15.0  T
   6   -151.2307914 -0.898433E-08  0.374E-04    0.59      27.9  T
     SCC iter.                  ...        0 min,  0.071 sec
     gradient                   ...        0 min,  0.014 sec
 * total energy  :  -148.5824385 Eh     change       -0.8941517E-04 Eh
   gradient norm :     0.0034205 Eh/α   predicted     0.0000000E+00 (-100.00%)
   displ. norm   :     0.0491915 α      lambda       -0.3707896E-04
   maximum displ.:     0.0173549 α      in ANC's #4, #3, #14, ...

........................................................................
.............................. CYCLE   22 ..............................
........................................................................

 iter      E             dE          RMSdq      gap      omega  full diag
   1   -151.2317151 -0.151232E+03  0.111E-02    0.59       0.0  T
   2   -151.2317153 -0.131521E-06  0.659E-03    0.59       1.6  T
   3   -151.2317147  0.540786E-06  0.214E-03    0.59       4.9  T
   4   -151.2317153 -0.613308E-06  0.311E-04    0.59      33.5  T
   5   -151.2317153 -0.798985E-08  0.138E-04    0.59      75.8  T
     SCC iter.                  ...        0 min,  0.061 sec
     gradient                   ...        0 min,  0.014 sec
 * total energy  :  -148.5824774 Eh     change       -0.3894669E-04 Eh
   gradient norm :     0.0016859 Eh/α   predicted    -0.2314925E-04 ( -40.56%)
   displ. norm   :     0.2565992 α      lambda       -0.1036196E-03
   maximum displ.:     0.0957739 α      in ANC's #4, #3, #14, ...

........................................................................
.............................. CYCLE   23 ..............................
........................................................................

 iter      E             dE          RMSdq      gap      omega  full diag
   1   -151.2329221 -0.151233E+03  0.521E-02    0.60       0.0  T
   2   -151.2329233 -0.120494E-05  0.307E-02    0.60       1.0  T
   3   -151.2329187  0.465682E-05  0.641E-03    0.60       1.6  T
   4   -151.2329239 -0.528773E-05  0.103E-03    0.60      10.1  T
   5   -151.2329240 -0.751562E-07  0.518E-04    0.60      20.1  T
   6   -151.2329240 -0.104055E-07  0.279E-04    0.60      37.4  T
     SCC iter.                  ...        0 min,  0.070 sec
     gradient                   ...        0 min,  0.014 sec
 * total energy  :  -148.5825529 Eh     change       -0.7546153E-04 Eh
   gradient norm :     0.0042864 Eh/α   predicted    -0.5332681E-04 ( -29.33%)
   displ. norm   :     0.0660657 α      lambda       -0.3215618E-04
   maximum displ.:     0.0292085 α      in ANC's #4, #3, #6, ...

........................................................................
.............................. CYCLE   24 ..............................
........................................................................

 iter      E             dE          RMSdq      gap      omega  full diag
   1   -151.2324284 -0.151232E+03  0.122E-02    0.60       0.0  T
   2   -151.2324285 -0.125498E-06  0.720E-03    0.60       1.4  T
   3   -151.2324280  0.527445E-06  0.212E-03    0.60       4.9  T
   4   -151.2324285 -0.595943E-06  0.276E-04    0.60      37.8  T
   5   -151.2324286 -0.623922E-08  0.120E-04    0.60      86.6  T
     SCC iter.                  ...        0 min,  0.058 sec
     gradient                   ...        0 min,  0.014 sec
 * total energy  :  -148.5825827 Eh     change       -0.2978267E-04 Eh
   gradient norm :     0.0033913 Eh/α   predicted    -0.1614871E-04 ( -45.78%)
   displ. norm   :     0.2900234 α      lambda       -0.1301989E-03
   maximum displ.:     0.1277171 α      in ANC's #4, #3, #6, ...

........................................................................
.............................. CYCLE   25 ..............................
........................................................................

 iter      E             dE          RMSdq      gap      omega  full diag
   1   -151.2305594 -0.151231E+03  0.526E-02    0.59       0.0  T
   2   -151.2305615 -0.212750E-05  0.310E-02    0.59       1.0  T
   3   -151.2305533  0.816173E-05  0.841E-03    0.59       1.2  T
   4   -151.2305625 -0.920136E-05  0.119E-03    0.59       8.8  T
   5   -151.2305627 -0.125659E-06  0.508E-04    0.59      20.5  T
   6   -151.2305627 -0.948538E-08  0.304E-04    0.59      34.3  T
     SCC iter.                  ...        0 min,  0.069 sec
     gradient                   ...        0 min,  0.014 sec
 * total energy  :  -148.5826778 Eh     change       -0.9506360E-04 Eh
   gradient norm :     0.0018938 Eh/α   predicted    -0.7058045E-04 ( -25.75%)
   displ. norm   :     0.4448358 α      lambda       -0.7644834E-04
   maximum displ.:     0.2009339 α      in ANC's #4, #3, #6, ...

........................................................................
.............................. CYCLE   26 ..............................
........................................................................

 iter      E             dE          RMSdq      gap      omega  full diag
   1   -151.2283242 -0.151228E+03  0.781E-02    0.58       0.0  T
   2   -151.2283270 -0.283563E-05  0.458E-02    0.59       1.0  T
   3   -151.2283191  0.795665E-05  0.880E-03    0.58       1.2  T
   4   -151.2283283 -0.918776E-05  0.140E-03    0.59       7.5  T
   5   -151.2283284 -0.130923E-06  0.697E-04    0.59      15.0  T
   6   -151.2283284 -0.110226E-07  0.414E-04    0.59      25.2  T
     SCC iter.                  ...        0 min,  0.073 sec
     gradient                   ...        0 min,  0.015 sec
 * total energy  :  -148.5827510 Eh     change       -0.7319989E-04 Eh
   gradient norm :     0.0047224 Eh/α   predicted    -0.4160871E-04 ( -43.16%)
   displ. norm   :     0.1676164 α      lambda       -0.5416623E-04
   maximum displ.:     0.0800880 α      in ANC's #4, #3, #6, ...

........................................................................
.............................. CYCLE   27 ..............................
........................................................................

 iter      E             dE          RMSdq      gap      omega  full diag
   1   -151.2291642 -0.151229E+03  0.279E-02    0.59       0.0  T
   2   -151.2291644 -0.226946E-06  0.164E-02    0.59       1.0  T
   3   -151.2291642  0.249371E-06  0.193E-03    0.59       5.4  T
   4   -151.2291645 -0.343551E-06  0.440E-04    0.59      23.7  T
   5   -151.2291645 -0.514407E-08  0.253E-04    0.59      41.2  T
     SCC iter.                  ...        0 min,  0.060 sec
     gradient                   ...        0 min,  0.014 sec
 * total energy  :  -148.5828004 Eh     change       -0.4940633E-04 Eh
   gradient norm :     0.0040422 Eh/α   predicted    -0.2784497E-04 ( -43.64%)
   displ. norm   :     0.3534792 α      lambda       -0.1346758E-03
   maximum displ.:     0.1746138 α      in ANC's #3, #4, #6, ...

........................................................................
.............................. CYCLE   28 ..............................
........................................................................

 iter      E             dE          RMSdq      gap      omega  full diag
   1   -151.2313827 -0.151231E+03  0.578E-02    0.59       0.0  T
   2   -151.2313841 -0.137462E-05  0.339E-02    0.59       1.0  T
   3   -151.2313800  0.404680E-05  0.606E-03    0.59       1.7  T
   4   -151.2313847 -0.472313E-05  0.117E-03    0.59       8.9  T
   5   -151.2313848 -0.756305E-07  0.621E-04    0.59      16.8  T
   6   -151.2313848 -0.837267E-08  0.333E-04    0.59      31.3  T
     SCC iter.                  ...        0 min,  0.070 sec
     gradient                   ...        0 min,  0.014 sec
 * total energy  :  -148.5829057 Eh     change       -0.1053573E-03 Eh
   gradient norm :     0.0017262 Eh/α   predicted    -0.7575192E-04 ( -28.10%)
   displ. norm   :     0.6207494 α      lambda       -0.1014186E-03
   maximum displ.:     0.3141035 α      in ANC's #3, #4, #6, ...

........................................................................
.............................. CYCLE   29 ..............................
........................................................................

 iter      E             dE          RMSdq      gap      omega  full diag
   1   -151.2310937 -0.151231E+03  0.999E-02    0.58       0.0  T
   2   -151.2310976 -0.387075E-05  0.585E-02    0.59       1.0  T
   3   -151.2310877  0.987817E-05  0.971E-03    0.59       1.1  T
   4   -151.2310994 -0.116332E-04  0.197E-03    0.59       5.3  T
   5   -151.2310996 -0.198262E-06  0.107E-03    0.59       9.8  T
   6   -151.2310996 -0.316701E-07  0.556E-04    0.59      18.8  T
   7   -151.2310996 -0.134865E-07  0.172E-04    0.59      60.7  T
     SCC iter.                  ...        0 min,  0.082 sec
     gradient                   ...        0 min,  0.014 sec
 * total energy  :  -148.5830083 Eh     change       -0.1026200E-03 Eh
   gradient norm :     0.0034747 Eh/α   predicted    -0.5939835E-04 ( -42.12%)
   displ. norm   :     0.2177038 α      lambda       -0.5493408E-04
   maximum displ.:     0.1178189 α      in ANC's #3, #4, #6, ...

........................................................................
.............................. CYCLE   30 ..............................
........................................................................

 iter      E             dE          RMSdq      gap      omega  full diag
   1   -151.2320533 -0.151232E+03  0.348E-02    0.59       0.0  T
   2   -151.2320537 -0.428544E-06  0.204E-02    0.59       1.0  T
   3   -151.2320534  0.324822E-06  0.226E-03    0.59       4.6  T
   4   -151.2320539 -0.467857E-06  0.659E-04    0.59      15.8  T
   5   -151.2320539 -0.159235E-07  0.350E-04    0.59      29.8  T
     SCC iter.                  ...        0 min,  0.057 sec
     gradient                   ...        0 min,  0.014 sec
 * total energy  :  -148.5830568 Eh     change       -0.4841913E-04 Eh
   gradient norm :     0.0024829 Eh/α   predicted    -0.2877211E-04 ( -40.58%)
   displ. norm   :     0.3859091 α      lambda       -0.1018092E-03
   maximum displ.:     0.2108901 α      in ANC's #3, #4, #6, ...

........................................................................
.............................. CYCLE   31 ..............................
........................................................................

 iter      E             dE          RMSdq      gap      omega  full diag
   1   -151.2326659 -0.151233E+03  0.624E-02    0.59       0.0  T
   2   -151.2326671 -0.121401E-05  0.366E-02    0.59       1.0  T
   3   -151.2326657  0.147476E-05  0.421E-03    0.59       2.5  T
   4   -151.2326676 -0.195644E-05  0.109E-03    0.59       9.6  T
   5   -151.2326677 -0.457696E-07  0.565E-04    0.59      18.5  T
   6   -151.2326677 -0.473781E-08  0.300E-04    0.59      34.7  T
     SCC iter.                  ...        0 min,  0.070 sec
     gradient                   ...        0 min,  0.014 sec
 * total energy  :  -148.5831440 Eh     change       -0.8720593E-04 Eh
   gradient norm :     0.0015694 Eh/α   predicted    -0.5848674E-04 ( -32.93%)
   displ. norm   :     0.7178293 α      lambda       -0.1073636E-03
   maximum displ.:     0.4008793 α      in ANC's #3, #4, #6, ...

........................................................................
.............................. CYCLE   32 ..............................
........................................................................

 iter      E             dE          RMSdq      gap      omega  full diag
   1   -151.2311214 -0.151231E+03  0.116E-01    0.59       0.0  T
   2   -151.2311255 -0.417194E-05  0.681E-02    0.59       1.0  T
   3   -151.2311204  0.516260E-05  0.762E-03    0.59       1.4  T
   4   -151.2311271 -0.673672E-05  0.212E-03    0.59       4.9  T
   5   -151.2311273 -0.217356E-06  0.106E-03    0.59       9.9  T
   6   -151.2311273 -0.186517E-07  0.543E-04    0.59      19.2  T
   7   -151.2311274 -0.164989E-07  0.188E-04    0.59      55.5  T
     SCC iter.                  ...        0 min,  0.084 sec
     gradient                   ...        0 min,  0.014 sec
 * total energy  :  -148.5832652 Eh     change       -0.1212704E-03 Eh
   gradient norm :     0.0030815 Eh/α   predicted    -0.6597639E-04 ( -45.60%)
   displ. norm   :     0.3559878 α      lambda       -0.7283530E-04
   maximum displ.:     0.2068332 α      in ANC's #3, #4, #6, ...

........................................................................
.............................. CYCLE   33 ..............................
........................................................................

 iter      E             dE          RMSdq      gap      omega  full diag
   1   -151.2317855 -0.151232E+03  0.573E-02    0.59       0.0  T
   2   -151.2317863 -0.827124E-06  0.335E-02    0.59       1.0  T
   3   -151.2317859  0.415622E-06  0.272E-03    0.59       3.8  T
   4   -151.2317866 -0.718936E-06  0.943E-04    0.59      11.1  T
   5   -151.2317866 -0.306479E-07  0.489E-04    0.59      21.3  T
     SCC iter.                  ...        0 min,  0.059 sec
     gradient                   ...        0 min,  0.014 sec
 * total energy  :  -148.5833261 Eh     change       -0.6090846E-04 Eh
   gradient norm :     0.0027296 Eh/α   predicted    -0.4103480E-04 ( -32.63%)
   displ. norm   :     0.4153168 α      lambda       -0.8448262E-04
   maximum displ.:     0.2471255 α      in ANC's #3, #4, #6, ...

........................................................................
.............................. CYCLE   34 ..............................
........................................................................

 iter      E             dE          RMSdq      gap      omega  full diag
   1   -151.2323625 -0.151232E+03  0.651E-02    0.60       0.0  T
   2   -151.2323636 -0.108725E-05  0.381E-02    0.60       1.0  T
   3   -151.2323632  0.364514E-06  0.292E-03    0.60       3.6  T
   4   -151.2323639 -0.739675E-06  0.107E-03    0.60       9.8  T
   5   -151.2323640 -0.385639E-07  0.540E-04    0.60      19.3  T
   6   -151.2323640 -0.929040E-08  0.238E-04    0.60      43.8  T
     SCC iter.                  ...        0 min,  0.071 sec
     gradient                   ...        0 min,  0.014 sec
 * total energy  :  -148.5833993 Eh     change       -0.7316431E-04 Eh
   gradient norm :     0.0022848 Eh/α   predicted    -0.4953034E-04 ( -32.30%)
   displ. norm   :     0.4741149 α      lambda       -0.1009212E-03
   maximum displ.:     0.2863744 α      in ANC's #3, #4, #6, ...

........................................................................
.............................. CYCLE   35 ..............................
........................................................................

 iter      E             dE          RMSdq      gap      omega  full diag
   1   -151.2320943 -0.151232E+03  0.728E-02    0.60       0.0  T
   2   -151.2320958 -0.143255E-05  0.426E-02    0.60       1.0  T
   3   -151.2320950  0.739694E-06  0.352E-03    0.60       3.0  T
   4   -151.2320962 -0.119418E-05  0.128E-03    0.60       8.2  T
   5   -151.2320963 -0.786132E-07  0.616E-04    0.60      16.9  T
   6   -151.2320963 -0.103871E-07  0.270E-04    0.60      38.6  T
     SCC iter.                  ...        0 min,  0.070 sec
     gradient                   ...        0 min,  0.014 sec
 * total energy  :  -148.5834843 Eh     change       -0.8497567E-04 Eh
   gradient norm :     0.0015130 Eh/α   predicted    -0.6180691E-04 ( -27.27%)
   displ. norm   :     0.7239894 α      lambda       -0.1123249E-03
   maximum displ.:     0.4484747 α      in ANC's #3, #4, #6, ...

........................................................................
.............................. CYCLE   36 ..............................
........................................................................

 iter      E             dE          RMSdq      gap      omega  full diag
   1   -151.2329558 -0.151233E+03  0.112E-01    0.60       0.0  T
   2   -151.2329592 -0.342273E-05  0.655E-02    0.60       1.0  T
   3   -151.2329578  0.140495E-05  0.566E-03    0.60       1.8  T
   4   -151.2329603 -0.246624E-05  0.178E-03    0.60       5.9  T
   5   -151.2329604 -0.967780E-07  0.848E-04    0.60      12.3  T
   6   -151.2329604 -0.198890E-07  0.365E-04    0.60      28.6  T
     SCC iter.                  ...        0 min,  0.071 sec
     gradient                   ...        0 min,  0.014 sec
 * total energy  :  -148.5836011 Eh     change       -0.1168067E-03 Eh
   gradient norm :     0.0037018 Eh/α   predicted    -0.6924729E-04 ( -40.72%)
   displ. norm   :     0.4688896 α      lambda       -0.8388735E-04
   maximum displ.:     0.2837236 α      in ANC's #3, #4, #6, ...

........................................................................
.............................. CYCLE   37 ..............................
........................................................................

 iter      E             dE          RMSdq      gap      omega  full diag
   1   -151.2294316 -0.151229E+03  0.717E-02    0.60       0.0  T
   2   -151.2294351 -0.346683E-05  0.419E-02    0.60       1.0  T
   3   -151.2294286  0.645224E-05  0.781E-03    0.60       1.3  T
   4   -151.2294361 -0.745664E-05  0.157E-03    0.60       6.6  T
   5   -151.2294363 -0.172382E-06  0.723E-04    0.60      14.4  T
   6   -151.2294363 -0.186242E-07  0.391E-04    0.60      26.7  T
     SCC iter.                  ...        0 min,  0.070 sec
     gradient                   ...        0 min,  0.014 sec
 * total energy  :  -148.5836545 Eh     change       -0.5341643E-04 Eh
   gradient norm :     0.0039903 Eh/α   predicted    -0.5117037E-04 (  -4.20%)
   displ. norm   :     0.3495601 α      lambda       -0.8209041E-04
   maximum displ.:     0.2191365 α      in ANC's #3, #4, #6, ...

........................................................................
.............................. CYCLE   38 ..............................
........................................................................

 iter      E             dE          RMSdq      gap      omega  full diag
   1   -151.2312777 -0.151231E+03  0.554E-02    0.60       0.0  T
   2   -151.2312790 -0.126176E-05  0.324E-02    0.61       1.0  T
   3   -151.2312759  0.309266E-05  0.543E-03    0.61       1.9  T
   4   -151.2312794 -0.358094E-05  0.980E-04    0.61      10.6  T
   5   -151.2312795 -0.663612E-07  0.453E-04    0.61      23.0  T
   6   -151.2312795 -0.264481E-08  0.243E-04    0.61      42.9  T
     SCC iter.                  ...        0 min,  0.070 sec
     gradient                   ...        0 min,  0.014 sec
 * total energy  :  -148.5837163 Eh     change       -0.6178014E-04 Eh
   gradient norm :     0.0036847 Eh/α   predicted    -0.4606331E-04 ( -25.44%)
   displ. norm   :     0.4971910 α      lambda       -0.8328405E-04
   maximum displ.:     0.3159164 α      in ANC's #3, #4, #6, ...

........................................................................
.............................. CYCLE   39 ..............................
........................................................................

 iter      E             dE          RMSdq      gap      omega  full diag
   1   -151.2307923 -0.151231E+03  0.754E-02    0.61       0.0  T
   2   -151.2307960 -0.372508E-05  0.441E-02    0.61       1.0  T
   3   -151.2307878  0.819315E-05  0.872E-03    0.61       1.2  T
   4   -151.2307972 -0.931945E-05  0.161E-03    0.61       6.5  T
   5   -151.2307974 -0.205876E-06  0.639E-04    0.61      16.3  T
   6   -151.2307974 -0.135413E-07  0.340E-04    0.61      30.7  T
     SCC iter.                  ...        0 min,  0.070 sec
     gradient                   ...        0 min,  0.014 sec
 * total energy  :  -148.5837691 Eh     change       -0.5283032E-04 Eh
   gradient norm :     0.0026376 Eh/α   predicted    -0.5193911E-04 (  -1.69%)
   displ. norm   :     0.2949361 α      lambda       -0.4728700E-04
   maximum displ.:     0.1933119 α      in ANC's #3, #4, #1, ...

........................................................................
.............................. CYCLE   40 ..............................
........................................................................

 iter      E             dE          RMSdq      gap      omega  full diag
   1   -151.2328397 -0.151233E+03  0.437E-02    0.61       0.0  T
   2   -151.2328406 -0.895948E-06  0.256E-02    0.62       1.0  T
   3   -151.2328378  0.276068E-05  0.498E-03    0.61       2.1  T
   4   -151.2328410 -0.318102E-05  0.800E-04    0.62      13.0  T
   5   -151.2328410 -0.380539E-07  0.381E-04    0.61      27.4  T
   6   -151.2328410 -0.189942E-08  0.204E-04    0.62      51.1  T
     SCC iter.                  ...        0 min,  0.072 sec
     gradient                   ...        0 min,  0.014 sec
 * total energy  :  -148.5837992 Eh     change       -0.3004773E-04 Eh
   gradient norm :     0.0017210 Eh/α   predicted    -0.2570118E-04 ( -14.47%)
   displ. norm   :     0.5610431 α      lambda       -0.4086452E-04
   maximum displ.:     0.3717849 α      in ANC's #3, #4, #1, ...

........................................................................
.............................. CYCLE   41 ..............................
........................................................................

 iter      E             dE          RMSdq      gap      omega  full diag
   1   -151.2321141 -0.151232E+03  0.818E-02    0.61       0.0  T
   2   -151.2321164 -0.232724E-05  0.478E-02    0.62       1.0  T
   3   -151.2321103  0.609702E-05  0.738E-03    0.61       1.4  T
   4   -151.2321174 -0.712776E-05  0.138E-03    0.62       7.5  T
   5   -151.2321175 -0.880775E-07  0.682E-04    0.62      15.3  T
   6   -151.2321175 -0.968120E-08  0.351E-04    0.62      29.7  T
     SCC iter.                  ...        0 min,  0.069 sec
     gradient                   ...        0 min,  0.014 sec
 * total energy  :  -148.5838343 Eh     change       -0.3511394E-04 Eh
   gradient norm :     0.0029495 Eh/α   predicted    -0.2329344E-04 ( -33.66%)
   displ. norm   :     0.1485935 α      lambda       -0.4540188E-04
   maximum displ.:     0.0915189 α      in ANC's #3, #1, #4, ...

........................................................................
.............................. CYCLE   42 ..............................
........................................................................

 iter      E             dE          RMSdq      gap      omega  full diag
   1   -151.2353206 -0.151235E+03  0.253E-02    0.62       0.0  T
   2   -151.2353208 -0.254788E-06  0.149E-02    0.62       1.0  T
   3   -151.2353196  0.124461E-05  0.321E-03    0.62       3.3  T
   4   -151.2353210 -0.138904E-05  0.533E-04    0.62      19.6  T
   5   -151.2353210 -0.206011E-07  0.256E-04    0.62      40.8  T
   6   -151.2353210 -0.210628E-08  0.121E-04    0.62      86.1  T
     SCC iter.                  ...        0 min,  0.070 sec
     gradient                   ...        0 min,  0.014 sec
 * total energy  :  -148.5838643 Eh     change       -0.3003095E-04 Eh
   gradient norm :     0.0023868 Eh/α   predicted    -0.2320341E-04 ( -22.73%)
   displ. norm   :     0.3204878 α      lambda       -0.5391930E-04
   maximum displ.:     0.2146479 α      in ANC's #3, #4, #1, ...
 * RMSD in coord.:     0.7883618 α      energy gain  -0.1515223E-02 Eh

generating ANC from exact Hessian ...
Using Lindh-Hessian (1995)
 Shifting diagonal of input Hessian by   9.929104751003335E-003
 Lowest  eigenvalues of input Hessian
    0.000000    0.000000    0.000000    0.000000    0.000000    0.000000
    0.010000    0.010027    0.010043    0.010174    0.010270    0.010352
    0.010704    0.010815    0.010868    0.011030    0.011205    0.011425
 Highest eigenvalues
    2.147109    2.161585    2.168057    2.176293    2.222954    2.273481
 

........................................................................
.............................. CYCLE   43 ..............................
........................................................................

 iter      E             dE          RMSdq      gap      omega  full diag
   1   -151.2339379 -0.151234E+03  0.503E-02    0.61       0.0  T
   2   -151.2339388 -0.880367E-06  0.295E-02    0.61       1.0  T
   3   -151.2339367  0.209554E-05  0.445E-03    0.61       2.3  T
   4   -151.2339391 -0.245657E-05  0.967E-04    0.61      10.8  T
   5   -151.2339392 -0.538159E-07  0.498E-04    0.61      20.9  T
   6   -151.2339392 -0.679159E-08  0.257E-04    0.61      40.6  T
     SCC iter.                  ...        0 min,  0.063 sec
     gradient                   ...        0 min,  0.014 sec
 * total energy  :  -148.5838967 Eh     change       -0.3243603E-04 Eh
   gradient norm :     0.0027698 Eh/α   predicted     0.0000000E+00 (-100.00%)
   displ. norm   :     0.0272824 α      lambda       -0.1719830E-04
   maximum displ.:     0.0105273 α      in ANC's #3, #24, #21, ...

........................................................................
.............................. CYCLE   44 ..............................
........................................................................

 iter      E             dE          RMSdq      gap      omega  full diag
   1   -151.2340808 -0.151234E+03  0.619E-03    0.62       0.0  T
   2   -151.2340809 -0.131289E-06  0.382E-03    0.62       2.7  T
   3   -151.2340806  0.289546E-06  0.172E-03    0.62       6.1  T
   4   -151.2340810 -0.341792E-06  0.328E-04    0.62      31.8  T
   5   -151.2340810 -0.798877E-08  0.149E-04    0.62      69.9  T
     SCC iter.                  ...        0 min,  0.052 sec
     gradient                   ...        0 min,  0.014 sec
 * total energy  :  -148.5839121 Eh     change       -0.1534749E-04 Eh
   gradient norm :     0.0010157 Eh/α   predicted    -0.9858281E-05 ( -35.77%)
   displ. norm   :     0.1001830 α      lambda       -0.2483432E-04
   maximum displ.:     0.0418480 α      in ANC's #3, #24, #21, ...

........................................................................
.............................. CYCLE   45 ..............................
........................................................................

 iter      E             dE          RMSdq      gap      omega  full diag
   1   -151.2338014 -0.151234E+03  0.192E-02    0.62       0.0  T
   2   -151.2338019 -0.440863E-06  0.114E-02    0.62       1.0  T
   3   -151.2338005  0.142531E-05  0.371E-03    0.62       2.8  T
   4   -151.2338021 -0.163380E-05  0.638E-04    0.61      16.3  T
   5   -151.2338021 -0.237645E-07  0.325E-04    0.62      32.1  T
   6   -151.2338021 -0.633852E-08  0.143E-04    0.62      72.8  T
     SCC iter.                  ...        0 min,  0.063 sec
     gradient                   ...        0 min,  0.014 sec
 * total energy  :  -148.5839306 Eh     change       -0.1852887E-04 Eh
   gradient norm :     0.0024818 Eh/α   predicted    -0.1247280E-04 ( -32.68%)
   displ. norm   :     0.0319002 α      lambda       -0.8289863E-05
   maximum displ.:     0.0161176 α      in ANC's #3, #5, #6, ...

........................................................................
.............................. CYCLE   46 ..............................
........................................................................

 iter      E             dE          RMSdq      gap      omega  full diag
   1   -151.2335263 -0.151234E+03  0.557E-03    0.61       0.0  T
   2   -151.2335263 -0.373705E-07  0.328E-03    0.61       3.2  T
   3   -151.2335262  0.721562E-07  0.886E-04    0.61      11.8  T
   4   -151.2335263 -0.839708E-07  0.147E-04    0.61      70.9  T
     SCC iter.                  ...        0 min,  0.042 sec
     gradient                   ...        0 min,  0.014 sec
 * total energy  :  -148.5839385 Eh     change       -0.7833914E-05 Eh
   gradient norm :     0.0017496 Eh/α   predicted    -0.4371925E-05 ( -44.19%)
   displ. norm   :     0.1860651 α      lambda       -0.2827352E-04
   maximum displ.:     0.0931356 α      in ANC's #3, #5, #6, ...

........................................................................
.............................. CYCLE   47 ..............................
........................................................................

 iter      E             dE          RMSdq      gap      omega  full diag
   1   -151.2322445 -0.151232E+03  0.326E-02    0.61       0.0  T
   2   -151.2322454 -0.899368E-06  0.192E-02    0.61       1.0  T
   3   -151.2322430  0.244001E-05  0.489E-03    0.61       2.1  T
   4   -151.2322458 -0.279963E-05  0.772E-04    0.61      13.5  T
   5   -151.2322458 -0.444462E-07  0.397E-04    0.61      26.2  T
   6   -151.2322458 -0.823275E-08  0.208E-04    0.61      50.1  T
     SCC iter.                  ...        0 min,  0.063 sec
     gradient                   ...        0 min,  0.014 sec
 * total energy  :  -148.5839609 Eh     change       -0.2246800E-04 Eh
   gradient norm :     0.0022615 Eh/α   predicted    -0.1435935E-04 ( -36.09%)
   displ. norm   :     0.0532289 α      lambda       -0.9058997E-05
   maximum displ.:     0.0290852 α      in ANC's #3, #5, #6, ...

........................................................................
.............................. CYCLE   48 ..............................
........................................................................

 iter      E             dE          RMSdq      gap      omega  full diag
   1   -151.2323711 -0.151232E+03  0.912E-03    0.61       0.0  T
   2   -151.2323711 -0.221992E-07  0.535E-03    0.61       1.9  T
   3   -151.2323711  0.246442E-07  0.587E-04    0.61      17.8  T
   4   -151.2323711 -0.340156E-07  0.150E-04    0.61      69.4  T
     SCC iter.                  ...        0 min,  0.042 sec
     gradient                   ...        0 min,  0.014 sec
 * total energy  :  -148.5839692 Eh     change       -0.8315142E-05 Eh
   gradient norm :     0.0019122 Eh/α   predicted    -0.4542561E-05 ( -45.37%)
   displ. norm   :     0.2406603 α      lambda       -0.2999713E-04
   maximum displ.:     0.1304148 α      in ANC's #3, #5, #6, ...

........................................................................
.............................. CYCLE   49 ..............................
........................................................................

 iter      E             dE          RMSdq      gap      omega  full diag
   1   -151.2333887 -0.151233E+03  0.414E-02    0.61       0.0  T
   2   -151.2333893 -0.596425E-06  0.243E-02    0.61       1.0  T
   3   -151.2333885  0.837067E-06  0.318E-03    0.61       3.3  T
   4   -151.2333896 -0.105820E-05  0.741E-04    0.61      14.1  T
   5   -151.2333896 -0.229038E-07  0.404E-04    0.61      25.8  T
   6   -151.2333896 -0.560303E-08  0.170E-04    0.61      61.4  T
     SCC iter.                  ...        0 min,  0.063 sec
     gradient                   ...        0 min,  0.014 sec
 * total energy  :  -148.5839975 Eh     change       -0.2821725E-04 Eh
   gradient norm :     0.0011286 Eh/α   predicted    -0.1540924E-04 ( -45.39%)
   displ. norm   :     0.1456286 α      lambda       -0.8602464E-05
   maximum displ.:     0.0836682 α      in ANC's #3, #5, #6, ...

........................................................................
.............................. CYCLE   50 ..............................
........................................................................

 iter      E             dE          RMSdq      gap      omega  full diag
   1   -151.2333963 -0.151233E+03  0.237E-02    0.61       0.0  T
   2   -151.2333965 -0.164242E-06  0.139E-02    0.61       1.0  T
   3   -151.2333961  0.353529E-06  0.192E-03    0.61       5.4  T
   4   -151.2333965 -0.432672E-06  0.369E-04    0.61      28.3  T
   5   -151.2333965 -0.421502E-08  0.213E-04    0.61      49.0  T
     SCC iter.                  ...        0 min,  0.053 sec
     gradient                   ...        0 min,  0.014 sec
 * total energy  :  -148.5840078 Eh     change       -0.1038098E-04 Eh
   gradient norm :     0.0009299 Eh/α   predicted    -0.4347284E-05 ( -58.12%)
   displ. norm   :     0.1094801 α      lambda       -0.7883779E-05
   maximum displ.:     0.0668350 α      in ANC's #3, #5, #2, ...

........................................................................
.............................. CYCLE   51 ..............................
........................................................................

 iter      E             dE          RMSdq      gap      omega  full diag
   1   -151.2336035 -0.151234E+03  0.163E-02    0.61       0.0  T
   2   -151.2336036 -0.754488E-07  0.957E-03    0.61       1.1  T
   3   -151.2336034  0.149348E-06  0.129E-03    0.60       8.1  T
   4   -151.2336036 -0.186107E-06  0.234E-04    0.61      44.5  T
   5   -151.2336036 -0.120775E-08  0.137E-04    0.61      75.9  T
     SCC iter.                  ...        0 min,  0.053 sec
     gradient                   ...        0 min,  0.014 sec
 * total energy  :  -148.5840180 Eh     change       -0.1014105E-04 Eh
   gradient norm :     0.0004829 Eh/α   predicted    -0.3963337E-05 ( -60.92%)
   displ. norm   :     0.1310595 α      lambda       -0.1043273E-04
   maximum displ.:     0.0815918 α      in ANC's #3, #5, #1, ...

........................................................................
.............................. CYCLE   52 ..............................
........................................................................

 iter      E             dE          RMSdq      gap      omega  full diag
   1   -151.2335831 -0.151234E+03  0.184E-02    0.60       0.0  T
   2   -151.2335832 -0.933770E-07  0.108E-02    0.60       1.0  T
   3   -151.2335830  0.168348E-06  0.140E-03    0.60       7.4  T
   4   -151.2335833 -0.211662E-06  0.265E-04    0.60      39.3  T
   5   -151.2335833 -0.185531E-08  0.159E-04    0.60      65.5  T
     SCC iter.                  ...        0 min,  0.052 sec
     gradient                   ...        0 min,  0.014 sec
 * total energy  :  -148.5840307 Eh     change       -0.1275695E-04 Eh
   gradient norm :     0.0006873 Eh/α   predicted    -0.5257465E-05 ( -58.79%)
   displ. norm   :     0.1538166 α      lambda       -0.1152021E-04
   maximum displ.:     0.0957036 α      in ANC's #3, #1, #2, ...

........................................................................
.............................. CYCLE   53 ..............................
........................................................................

 iter      E             dE          RMSdq      gap      omega  full diag
   1   -151.2332869 -0.151233E+03  0.210E-02    0.60       0.0  T
   2   -151.2332870 -0.924086E-07  0.123E-02    0.60       1.0  T
   3   -151.2332869  0.946679E-07  0.124E-03    0.60       8.4  T
   4   -151.2332871 -0.135639E-06  0.279E-04    0.60      37.4  T
   5   -151.2332871 -0.140284E-08  0.160E-04    0.60      65.1  T
     SCC iter.                  ...        0 min,  0.053 sec
     gradient                   ...        0 min,  0.014 sec
 * total energy  :  -148.5840450 Eh     change       -0.1425285E-04 Eh
   gradient norm :     0.0009454 Eh/α   predicted    -0.5821147E-05 ( -59.16%)
   displ. norm   :     0.1809325 α      lambda       -0.1311896E-04
   maximum displ.:     0.1115251 α      in ANC's #3, #1, #2, ...

........................................................................
.............................. CYCLE   54 ..............................
........................................................................

 iter      E             dE          RMSdq      gap      omega  full diag
   1   -151.2331672 -0.151233E+03  0.244E-02    0.60       0.0  T
   2   -151.2331673 -0.129942E-06  0.143E-02    0.60       1.0  T
   3   -151.2331671  0.157339E-06  0.158E-03    0.60       6.6  T
   4   -151.2331673 -0.214357E-06  0.328E-04    0.60      31.8  T
   5   -151.2331674 -0.225674E-08  0.196E-04    0.60      53.3  T
     SCC iter.                  ...        0 min,  0.052 sec
     gradient                   ...        0 min,  0.014 sec
 * total energy  :  -148.5840621 Eh     change       -0.1712036E-04 Eh
   gradient norm :     0.0010490 Eh/α   predicted    -0.6655750E-05 ( -61.12%)
   displ. norm   :     0.2551753 α      lambda       -0.1804809E-04
   maximum displ.:     0.1562793 α      in ANC's #3, #1, #2, ...

........................................................................
.............................. CYCLE   55 ..............................
........................................................................

 iter      E             dE          RMSdq      gap      omega  full diag
   1   -151.2329251 -0.151233E+03  0.338E-02    0.61       0.0  T
   2   -151.2329254 -0.286129E-06  0.198E-02    0.61       1.0  T
   3   -151.2329250  0.402280E-06  0.239E-03    0.61       4.4  T
   4   -151.2329255 -0.521562E-06  0.470E-04    0.61      22.2  T
   5   -151.2329255 -0.646611E-08  0.278E-04    0.61      37.6  T
     SCC iter.                  ...        0 min,  0.053 sec
     gradient                   ...        0 min,  0.014 sec
 * total energy  :  -148.5840848 Eh     change       -0.2269353E-04 Eh
   gradient norm :     0.0008620 Eh/α   predicted    -0.9286306E-05 ( -59.08%)
   displ. norm   :     0.2921600 α      lambda       -0.1744227E-04
   maximum displ.:     0.1801428 α      in ANC's #3, #1, #2, ...

........................................................................
.............................. CYCLE   56 ..............................
........................................................................

 iter      E             dE          RMSdq      gap      omega  full diag
   1   -151.2327082 -0.151233E+03  0.371E-02    0.61       0.0  T
   2   -151.2327086 -0.410604E-06  0.217E-02    0.61       1.0  T
   3   -151.2327078  0.752617E-06  0.297E-03    0.61       3.5  T
   4   -151.2327088 -0.919575E-06  0.557E-04    0.61      18.7  T
   5   -151.2327088 -0.138642E-07  0.309E-04    0.61      33.8  T
     SCC iter.                  ...        0 min,  0.052 sec
     gradient                   ...        0 min,  0.014 sec
 * total energy  :  -148.5841057 Eh     change       -0.2087486E-04 Eh
   gradient norm :     0.0005414 Eh/α   predicted    -0.9054969E-05 ( -56.62%)
   displ. norm   :     0.2697001 α      lambda       -0.1261824E-04
   maximum displ.:     0.1681614 α      in ANC's #3, #1, #2, ...

........................................................................
.............................. CYCLE   57 ..............................
........................................................................

 iter      E             dE          RMSdq      gap      omega  full diag
   1   -151.2329297 -0.151233E+03  0.323E-02    0.61       0.0  T
   2   -151.2329300 -0.317371E-06  0.189E-02    0.61       1.0  T
   3   -151.2329295  0.575822E-06  0.254E-03    0.61       4.1  T
   4   -151.2329302 -0.702280E-06  0.488E-04    0.61      21.4  T
   5   -151.2329302 -0.115918E-07  0.270E-04    0.61      38.7  T
     SCC iter.                  ...        0 min,  0.052 sec
     gradient                   ...        0 min,  0.014 sec
 * total energy  :  -148.5841212 Eh     change       -0.1551761E-04 Eh
   gradient norm :     0.0004434 Eh/α   predicted    -0.6516036E-05 ( -58.01%)
   displ. norm   :     0.2449650 α      lambda       -0.1032689E-04
   maximum displ.:     0.1537119 α      in ANC's #3, #1, #2, ...

........................................................................
.............................. CYCLE   58 ..............................
........................................................................

 iter      E             dE          RMSdq      gap      omega  full diag
   1   -151.2330673 -0.151233E+03  0.274E-02    0.61       0.0  T
   2   -151.2330675 -0.202959E-06  0.161E-02    0.61       1.0  T
   3   -151.2330670  0.431348E-06  0.208E-03    0.61       5.0  T
   4   -151.2330676 -0.519594E-06  0.406E-04    0.61      25.7  T
   5   -151.2330676 -0.853339E-08  0.219E-04    0.61      47.6  T
     SCC iter.                  ...        0 min,  0.053 sec
     gradient                   ...        0 min,  0.014 sec
 * total energy  :  -148.5841346 Eh     change       -0.1342977E-04 Eh
   gradient norm :     0.0005847 Eh/α   predicted    -0.5305373E-05 ( -60.50%)
   displ. norm   :     0.2492925 α      lambda       -0.1117303E-04
   maximum displ.:     0.1563655 α      in ANC's #3, #1, #2, ...

[...]
    56   6 C       92   1 H                                       1.0793642

 * 4 distinct bonds (by element types)

   Z      Z             #   av. dist./Å        max./Å        min./Å
   1 H    6 C          34     1.0798796     1.0803504     1.0789049
   6 C    6 C          48     1.3907889     1.4286952     1.3683684
   6 C    7 N          10     1.3698343     1.4051520     1.3126922
   6 C    8 O           2     1.2232047     1.2247081     1.2217014

           -------------------------------------------------
          |               Frequency Printout                |
           -------------------------------------------------
 projected vibrational frequencies (cm⁻¹)
eigval :       -0.00    -0.00    -0.00    -0.00     0.00     0.00
eigval :        8.47    11.07    14.81    21.07    22.26    25.29
eigval :       29.01    39.37    43.41    44.94    45.73    51.85
eigval :       57.93    65.11    70.28    74.67    81.34    83.85
eigval :      102.74   104.15   105.23   118.61   127.09   145.39
eigval :      154.42   165.93   170.22   182.64   198.88   213.96
eigval :      232.67   233.78   241.55   247.25   252.90   279.90
eigval :      297.54   300.80   311.21   320.24   321.68   344.12
eigval :      348.12   364.49   366.36   371.33   377.35   379.30
eigval :      379.68   382.75   385.05   387.83   394.49   397.84
eigval :      399.11   406.09   416.28   430.58   443.45   468.97
eigval :      472.52   481.76   488.24   493.18   496.94   505.48
eigval :      517.53   537.09   551.60   566.73   572.49   584.11
eigval :      585.56   585.96   587.98   593.38   594.55   604.52
eigval :      609.74   614.96   623.87   639.39   650.96   657.09
eigval :      659.90   660.84   665.09   670.61   676.13   681.54
eigval :      689.74   691.22   708.31   721.30   741.49   749.77
eigval :      757.73   758.76   759.95   763.51   765.60   771.75
eigval :      789.16   821.88   824.21   833.03   847.23   865.82
eigval :      869.49   873.93   874.99   875.99   879.25   879.81
eigval :      894.35   895.71   895.97   896.35   896.71   904.87
eigval :      909.21   909.92   917.40   917.62   920.24   923.99
eigval :      925.93   928.19   928.95   929.43   930.04   930.18
eigval :      931.91   932.65   933.02   934.19   936.14   940.30
eigval :      959.65   982.13   989.91  1004.25  1004.48  1008.38
eigval :     1021.21  1031.78  1068.11  1080.30  1080.71  1081.86
eigval :     1082.36  1084.99  1098.10  1113.24  1119.10  1120.13
eigval :     1121.00  1122.23  1140.50  1141.62  1158.48  1172.00
eigval :     1174.68  1177.26  1179.64  1180.61  1181.17  1183.33
eigval :     1190.52  1192.25  1193.20  1193.98  1200.05  1211.01
eigval :     1213.80  1218.51  1241.95  1254.24  1265.05  1266.44
eigval :     1268.19  1274.46  1275.72  1278.55  1280.06  1293.06
eigval :     1297.73  1301.43  1306.18  1314.41  1315.66  1317.44
eigval :     1322.60  1323.41  1326.00  1326.79  1331.30  1334.53
eigval :     1336.94  1366.59  1383.30  1413.52  1416.94  1418.79
eigval :     1424.83  1433.22  1434.40  1438.45  1439.82  1448.90
eigval :     1455.58  1464.90  1466.58  1468.60  1469.99  1482.17
eigval :     1484.28  1488.74  1510.26  1538.55  1541.44  1559.15
eigval :     1570.11  1574.11  1576.09  1576.29  1578.33  1579.79
eigval :     1581.94  1586.76  1589.22  1589.97  1595.91  1597.16
eigval :     1624.81  1644.23  3074.24  3074.92  3075.38  3076.37
eigval :     3076.70  3077.22  3078.43  3081.08  3082.67  3083.96
eigval :     3084.44  3084.46  3084.82  3084.86  3086.14  3086.68
eigval :     3087.44  3087.55  3088.01  3088.75  3089.17  3090.06
eigval :     3090.82  3093.00  3094.20  3095.77  3096.44  3096.52
eigval :     3097.02  3098.37  3098.82  3100.15  3103.42  3104.63
 reduced masses (amu)
   1: 11.56   2: 11.83   3: 11.72   4: 11.82   5: 11.48   6: 11.86   7: 11.21   8: 11.09
   9: 11.04  10: 11.93  11: 11.02  12: 11.48  13: 12.94  14: 10.86  15: 11.72  16: 10.94
  17: 11.01  18: 10.86  19: 10.88  20: 10.82  21: 10.58  22: 10.56  23: 10.71  24: 10.48
  25: 10.37  26: 11.01  27: 11.06  28: 11.36  29: 12.30  30: 11.33  31: 11.34  32: 11.74
  33: 11.64  34: 11.25  35: 10.94  36: 10.59  37: 10.35  38: 10.36  39: 11.06  40: 11.81
  41: 11.07  42: 12.43  43: 11.52  44: 11.62  45: 11.03  46: 11.25  47: 11.12  48: 11.60
  49: 11.26  50: 10.89  51: 10.55  52: 13.65  53:  9.06  54:  9.29  55:  9.44  56: 10.06
  57:  9.13  58:  9.63  59: 10.89  60: 10.96  61: 10.10  62: 11.32  63: 11.07  64: 11.58
  65: 11.12  66: 12.33  67: 11.58  68: 10.00  69: 10.58  70: 10.45  71: 10.76  72: 10.59
  73: 10.69  74: 10.84  75: 11.30  76: 11.66  77: 11.67  78: 11.17  79: 11.13  80: 11.15
  81: 11.25  82: 11.29  83: 11.21  84: 11.83  85: 11.59  86: 11.52  87: 11.68  88: 11.15
  89: 11.60  90: 11.12  91: 10.16  92: 10.15  93:  9.93  94: 10.44  95: 11.15  96: 10.72
  97: 11.57  98: 10.64  99: 11.39 100: 11.53 101: 10.99 102: 11.44 103:  7.57 104:  4.11
 105:  5.02 106:  6.91 107:  5.65 108: 11.71 109:  4.76 110:  5.23 111:  4.98 112:  5.04
 113: 11.63 114:  3.28 115:  3.36 116:  3.32 117:  3.29 118:  3.29 119:  3.45 120: 11.58
 121:  5.00 122:  4.03 123:  3.97 124:  4.08 125:  3.55 126: 10.30 127: 11.39 128: 11.47
 129:  4.86 130:  7.82 131:  4.89 132:  3.03 133:  3.60 134:  3.65 135:  3.54 136:  3.60
 137:  3.40 138:  4.07 139:  3.28 140:  3.33 141:  3.49 142:  3.62 143:  3.48 144:  3.11
 145: 11.47 146: 10.87 147: 10.96 148: 10.58 149: 10.59 150: 10.07 151:  9.02 152:  8.63
 153: 10.37 154:  6.73 155:  6.71 156:  6.56 157:  6.58 158:  5.84 159:  8.05 160:  7.62
 161:  4.00 162:  4.02 163:  3.97 164:  3.97 165:  3.09 166:  3.08 167:  4.87 168:  1.58
 169:  1.32 170:  1.30 171:  1.32 172:  1.63 173:  4.64 174:  4.80 175:  2.20 176:  1.92
 177:  1.98 178:  1.89 179:  6.39 180:  6.05 181:  5.94 182:  7.00 183:  5.69 184:  9.12
 185:  4.11 186:  4.07 187:  9.16 188:  4.17 189:  4.13 190:  4.08 191:  4.11 192: 10.98
 193: 10.86 194: 10.35 195: 10.45 196: 11.18 197: 11.37 198: 10.31 199: 11.93 200: 11.91
 201: 11.18 202: 11.06 203: 11.41 204: 11.93 205: 11.34 206: 11.86 207: 11.87 208: 10.78
 209:  9.79 210: 10.32 211: 10.95 212:  9.21 213:  9.21 214:  9.12 215:  9.13 216: 10.74
 217:  9.91 218:  9.10 219:  9.00 220:  9.19 221:  9.20 222: 10.69 223: 10.54 224: 11.60
 225: 11.81 226: 11.63 227: 11.63 228: 11.74 229: 11.54 230: 11.70 231: 11.49 232: 11.48
 233: 11.56 234: 11.55 235: 11.54 236: 11.59 237: 11.46 238: 11.46 239: 11.50 240: 11.52
 241: 13.43 242: 13.35 243:  1.76 244:  1.76 245:  1.75 246:  1.78 247:  1.77 248:  1.77
 249:  1.77 250:  1.77 251:  1.78 252:  1.78 253:  1.76 254:  1.82 255:  1.83 256:  1.83
 257:  1.83 258:  1.79 259:  1.87 260:  1.80 261:  1.87 262:  1.87 263:  1.80 264:  1.80
 265:  1.88 266:  1.86 267:  1.88 268:  1.88 269:  1.92 270:  1.92 271:  1.92 272:  1.88
 273:  1.92 274:  1.92 275:  1.87 276:  1.87
 IR intensities (km·mol⁻¹)
   1:  0.06   2:  0.01   3:  0.20   4:  0.18   5:  0.02   6:  0.01   7:  0.31   8:  0.31
   9:  0.13  10:  0.09  11:  1.68  12:  0.27  13:  4.79  14:  1.91  15:  3.01  16:  0.52
  17:  1.25  18:  3.99  19:  0.90  20:  2.20  21:  3.41  22:  0.43  23:  2.43  24:  8.08
  25:  2.93  26:  1.41  27:  1.14  28:  3.80  29: 15.15  30:  3.05  31:  0.41  32:  7.69
  33:  8.71  34:  0.41  35:  1.56  36:  0.72  37: 14.85  38: 11.87  39:  5.06  40:  4.57
  41:  9.72  42:  2.01  43:  2.93  44:  3.02  45:  4.93  46:  6.59  47:  6.40  48: 15.88
  49:  9.95  50: 24.80  51:  2.93  52: 63.54  53:  1.98  54:  4.72  55:  7.23  56:  3.83
  57:  1.18  58:  3.93  59:  2.57  60:  5.69  61:  1.65  62:  1.63  63:  4.17  64:  2.59
  65: 33.89  66: 15.87  67:  8.30  68: 23.93  69: 24.08  70: 24.78  71:  7.90  72:  0.60
  73: 25.28  74:  2.92  75:  8.29  76: 13.54  77: 23.80  78:  0.78  79: 15.81  80:  2.79
  81:  1.10  82:  0.71  83: 14.97  84: 16.19  85: 24.29  86:  6.42  87: 11.14  88:  1.88
  89:  1.92  90: 16.42  91:  5.63  92:  1.76  93: 10.81  94: 25.31  95:  1.77  96: 57.81
  97: 11.45  98: 11.71  99:  3.18 100:  5.43 101: 24.24 102:  2.48 103:  5.53 104: 86.70
 105:  1.71 106:  1.10 107:  0.51 108:  0.96 109:  5.23 110:  2.82 111: 15.17 112: 34.46
 113: 14.06 114:139.63 115: 55.48 116:  2.76 117:  8.79 118: 11.58 119: 16.29 120: 34.95
 121:  0.83 122:  0.76 123:  1.89 124:  1.24 125:  0.28 126:  6.82 127:  3.31 128:  2.58
 129:  0.33 130: 10.65 131:  1.45 132:  0.98 133:  4.88 134:  1.97 135:  6.35 136:  7.00
 137:  1.28 138:  0.33 139:  7.27 140:  1.70 141:  0.34 142:  2.20 143:  3.43 144:  4.61
 145: 20.27 146:  2.54 147: 44.48 148:  8.26 149:  4.82 150:111.25 151:257.17 152:152.07
 153: 31.33 154:  7.91 155:  2.74 156:  0.79 157:  1.00 158:  7.06 159: 23.73 160: 79.16
 161:  1.60 162:  1.50 163:  0.18 164:  0.19 165:  2.35 166:  1.38 167:  6.38 168: 22.29
 169:  0.04 170:  0.48 171:  1.72 172:  7.32 173:137.37 174:109.89 175:119.44 176: 32.83
 177:303.21 178: 35.22 179:154.22 180: 21.23 181: 12.85 182: 15.89 183: 40.07 184:******
 185:  4.86 186: 69.56 187:493.26 188: 48.12 189: 17.82 190:165.34 191: 79.91 192:347.08
 193:206.00 194:303.48 195:234.49 196: 84.69 197: 66.64 198:563.82 199:117.16 200: 68.48
 201:694.72 202:****** 203:167.24 204: 16.18 205:619.09 206: 52.64 207:****** 208: 70.52
 209: 12.72 210:130.63 211:161.19 212: 76.16 213: 21.86 214: 84.86 215: 63.37 216:764.54
 217:119.57 218:109.72 219:188.12 220:228.43 221:157.93 222: 22.62 223:188.17 224:400.05
 225:272.75 226: 26.24 227:  7.80 228:275.60 229:163.59 230:425.86 231:  7.10 232:  3.16
 233:971.27 234: 66.73 235:651.07 236:395.58 237:113.27 238:118.30 239: 86.98 240: 26.63
 241:****** 242:532.37 243: 14.17 244: 16.94 245: 13.96 246:  8.72 247:  5.10 248: 10.66
 249:  4.59 250:  5.31 251: 13.37 252: 53.17 253:  0.19 254: 56.90 255:129.92 256: 50.13
 257: 82.34 258:  3.02 259:140.77 260:  1.86 261:131.39 262:114.46 263: 19.64 264: 14.94
 265:138.63 266: 35.70 267: 67.86 268:  6.07 269:  5.41 270:196.44 271:126.22 272: 42.73
 273: 74.04 274:106.16 275: 19.94 276: 32.58
 Raman intensities (Ä⁴*amu⁻¹)
   1:  0.00   2:  0.00   3:  0.00   4:  0.00   5:  0.00   6:  0.00   7:  0.00   8:  0.00
   9:  0.00  10:  0.00  11:  0.00  12:  0.00  13:  0.00  14:  0.00  15:  0.00  16:  0.00
  17:  0.00  18:  0.00  19:  0.00  20:  0.00  21:  0.00  22:  0.00  23:  0.00  24:  0.00
  25:  0.00  26:  0.00  27:  0.00  28:  0.00  29:  0.00  30:  0.00  31:  0.00  32:  0.00
  33:  0.00  34:  0.00  35:  0.00  36:  0.00  37:  0.00  38:  0.00  39:  0.00  40:  0.00
  41:  0.00  42:  0.00  43:  0.00  44:  0.00  45:  0.00  46:  0.00  47:  0.00  48:  0.00
  49:  0.00  50:  0.00  51:  0.00  52:  0.00  53:  0.00  54:  0.00  55:  0.00  56:  0.00
  57:  0.00  58:  0.00  59:  0.00  60:  0.00  61:  0.00  62:  0.00  63:  0.00  64:  0.00
  65:  0.00  66:  0.00  67:  0.00  68:  0.00  69:  0.00  70:  0.00  71:  0.00  72:  0.00
  73:  0.00  74:  0.00  75:  0.00  76:  0.00  77:  0.00  78:  0.00  79:  0.00  80:  0.00
  81:  0.00  82:  0.00  83:  0.00  84:  0.00  85:  0.00  86:  0.00  87:  0.00  88:  0.00
  89:  0.00  90:  0.00  91:  0.00  92:  0.00  93:  0.00  94:  0.00  95:  0.00  96:  0.00
  97:  0.00  98:  0.00  99:  0.00 100:  0.00 101:  0.00 102:  0.00 103:  0.00 104:  0.00
 105:  0.00 106:  0.00 107:  0.00 108:  0.00 109:  0.00 110:  0.00 111:  0.00 112:  0.00
 113:  0.00 114:  0.00 115:  0.00 116:  0.00 117:  0.00 118:  0.00 119:  0.00 120:  0.00
 121:  0.00 122:  0.00 123:  0.00 124:  0.00 125:  0.00 126:  0.00 127:  0.00 128:  0.00
 129:  0.00 130:  0.00 131:  0.00 132:  0.00 133:  0.00 134:  0.00 135:  0.00 136:  0.00
 137:  0.00 138:  0.00 139:  0.00 140:  0.00 141:  0.00 142:  0.00 143:  0.00 144:  0.00
 145:  0.00 146:  0.00 147:  0.00 148:  0.00 149:  0.00 150:  0.00 151:  0.00 152:  0.00
 153:  0.00 154:  0.00 155:  0.00 156:  0.00 157:  0.00 158:  0.00 159:  0.00 160:  0.00
 161:  0.00 162:  0.00 163:  0.00 164:  0.00 165:  0.00 166:  0.00 167:  0.00 168:  0.00
 169:  0.00 170:  0.00 171:  0.00 172:  0.00 173:  0.00 174:  0.00 175:  0.00 176:  0.00
 177:  0.00 178:  0.00 179:  0.00 180:  0.00 181:  0.00 182:  0.00 183:  0.00 184:  0.00
 185:  0.00 186:  0.00 187:  0.00 188:  0.00 189:  0.00 190:  0.00 191:  0.00 192:  0.00
 193:  0.00 194:  0.00 195:  0.00 196:  0.00 197:  0.00 198:  0.00 199:  0.00 200:  0.00
 201:  0.00 202:  0.00 203:  0.00 204:  0.00 205:  0.00 206:  0.00 207:  0.00 208:  0.00
 209:  0.00 210:  0.00 211:  0.00 212:  0.00 213:  0.00 214:  0.00 215:  0.00 216:  0.00
 217:  0.00 218:  0.00 219:  0.00 220:  0.00 221:  0.00 222:  0.00 223:  0.00 224:  0.00
 225:  0.00 226:  0.00 227:  0.00 228:  0.00 229:  0.00 230:  0.00 231:  0.00 232:  0.00
 233:  0.00 234:  0.00 235:  0.00 236:  0.00 237:  0.00 238:  0.00 239:  0.00 240:  0.00
 241:  0.00 242:  0.00 243:  0.00 244:  0.00 245:  0.00 246:  0.00 247:  0.00 248:  0.00
 249:  0.00 250:  0.00 251:  0.00 252:  0.00 253:  0.00 254:  0.00 255:  0.00 256:  0.00
 257:  0.00 258:  0.00 259:  0.00 260:  0.00 261:  0.00 262:  0.00 263:  0.00 264:  0.00
 265:  0.00 266:  0.00 267:  0.00 268:  0.00 269:  0.00 270:  0.00 271:  0.00 272:  0.00
 273:  0.00 274:  0.00 275:  0.00 276:  0.00
 output can be read by thermo (or use thermo option).
 writing <g98.out> molden fake output.
 recommended (thermochemical) frequency scaling factor: 1.0
           -------------------------------------------------
          |             Thermodynamic Functions             |
           -------------------------------------------------

Molecule has no symmetry elements
It seems to be the C1 point group
c1  symmetry found (for desy threshold:  0.10E+00) used in thermo

          ...................................................
          :                      SETUP                      :
          :.................................................:
          :  # frequencies                         270      :
          :  # imaginary freq.                       0      :
          :  linear?                             false      :
          :  only rotor calc.                    false      :
          :  symmetry                               c1      :
          :  rotational number                       1      :
          :  scaling factor                  1.0000000      :
          :  rotor cutoff                   50.0000000 cm⁻¹ :
          :  imag. cutoff                  -20.0000000 cm⁻¹ :
          :.................................................:

    mode    ω/cm⁻¹     T·S(HO)/kcal·mol⁻¹    T·S(FR)/kcal·mol⁻¹   T·S(vib)
   ------------------------------------------------------------------------
       1      8.47    -2.48714 (  0.08%)    -1.58263 ( 99.92%)    -1.58338
       2     11.07    -2.32803 (  0.24%)    -1.50307 ( 99.76%)    -1.50505
       3     14.81    -2.15595 (  0.76%)    -1.41701 ( 99.24%)    -1.42265
       4     21.07    -1.94711 (  3.06%)    -1.31253 ( 96.94%)    -1.33193
       5     22.26    -1.91461 (  3.78%)    -1.29627 ( 96.22%)    -1.31964
       6     25.29    -1.83898 (  6.15%)    -1.25841 ( 93.85%)    -1.29410
       7     29.01    -1.75796 ( 10.17%)    -1.21785 ( 89.83%)    -1.27280
       8     39.37    -1.57743 ( 27.76%)    -1.12738 ( 72.24%)    -1.25231
       9     43.41    -1.51970 ( 36.23%)    -1.09842 ( 63.77%)    -1.25105
      10     44.94    -1.49918 ( 39.50%)    -1.08812 ( 60.50%)    -1.25049
      11     45.73    -1.48896 ( 41.17%)    -1.08299 ( 58.83%)    -1.25011
      12     51.85    -1.41490 ( 53.62%)    -1.04579 ( 46.38%)    -1.24372
      13     57.93    -1.34954 ( 64.31%)    -1.01292 ( 35.69%)    -1.22942
      14     65.11    -1.28084 ( 74.20%)    -0.97832 ( 25.80%)    -1.20278
      15     70.28    -1.23601 ( 79.60%)    -0.95570 ( 20.40%)    -1.17883
      16     74.67    -1.20048 ( 83.26%)    -0.93775 ( 16.74%)    -1.15649
      17     81.34    -1.15032 ( 87.51%)    -0.91238 ( 12.49%)    -1.12060
      18     83.85    -1.13256 ( 88.78%)    -0.90338 ( 11.22%)    -1.10684
      19    102.74    -1.01418 ( 94.69%)    -0.84319 (  5.31%)    -1.00510
      20    104.15    -1.00628 ( 94.96%)    -0.83916 (  5.04%)    -0.99785
      21    105.23    -1.00029 ( 95.15%)    -0.83609 (  4.85%)    -0.99232
      22    118.61    -0.93110 ( 96.94%)    -0.80065 (  3.06%)    -0.92710
      23    127.09    -0.89136 ( 97.66%)    -0.78020 (  2.34%)    -0.88876
      24    145.39    -0.81444 ( 98.62%)    -0.74033 (  1.38%)    -0.81342
      25    154.42    -0.78029 ( 98.91%)    -0.72250 (  1.09%)    -0.77966
      26    165.93    -0.73975 ( 99.18%)    -0.70120 (  0.82%)    -0.73944
      27    170.22    -0.72542 ( 99.26%)    -0.69363 (  0.74%)    -0.72518
      28    182.64    -0.68612 ( 99.44%)    -0.67277 (  0.56%)    -0.68605
      29    198.88    -0.63907 ( 99.60%)    -0.64754 (  0.40%)    -0.63911
      30    213.96    -0.59916 ( 99.70%)    -0.62588 (  0.30%)    -0.59924
      31    232.67    -0.55403 ( 99.79%)    -0.60105 (  0.21%)    -0.55413
      32    233.78    -0.55150 ( 99.79%)    -0.59964 (  0.21%)    -0.55160
      33    241.55    -0.53411 ( 99.82%)    -0.58995 (  0.18%)    -0.53421
      34    247.25    -0.52180 ( 99.83%)    -0.58305 (  0.17%)    -0.52190
      35    252.90    -0.50991 ( 99.85%)    -0.57635 (  0.15%)    -0.51001
      36    279.90    -0.45745 ( 99.90%)    -0.54630 (  0.10%)    -0.45754
      37    297.54    -0.42657 ( 99.92%)    -0.52820 (  0.08%)    -0.42665
   ------------------------------------------------------------------------

   temp. (K)  partition function   enthalpy   heat capacity  entropy
                                   cal/mol     cal/K/mol   cal/K/mol   J/K/mol
 298.15  VIB  0.171E+23            27432.482    170.018    172.475
         ROT  0.177E+09              888.752      2.981     40.720
         INT  0.302E+31            28321.235    172.999    213.196
         TR   0.197E+29             1481.254      4.968     45.691
         TOT                       29802.4887   177.9674   258.8864  1083.1808

       T/K    H(0)-H(T)+PV         H(T)/Eh          T*S/Eh         G(T)/Eh
   ------------------------------------------------------------------------
    298.15    0.474933E-01    0.742344E+00    0.123005E+00    0.619339E+00
   ------------------------------------------------------------------------

         :::::::::::::::::::::::::::::::::::::::::::::::::::::
         ::                  THERMODYNAMIC                  ::
         :::::::::::::::::::::::::::::::::::::::::::::::::::::
         :: total free energy        -147.966067427932 Eh   ::
         ::.................................................::
         :: total energy             -148.585406207321 Eh   ::
         :: zero point energy           0.694850785397 Eh   ::
         :: G(RRHO) w/o ZPVE           -0.075512006008 Eh   ::
         :: G(RRHO) contrib.            0.619338779389 Eh   ::
         :::::::::::::::::::::::::::::::::::::::::::::::::::::

optimized geometry written to: xtbopt.xyz


           -------------------------------------------------
          | TOTAL ENERGY             -148.585406207321 Eh   |
          | TOTAL ENTHALPY           -147.843062133098 Eh   |
          | TOTAL FREE ENERGY        -147.966067427932 Eh   |
          | GRADIENT NORM               0.000040285408 Eh/α |
          | HOMO-LUMO GAP               0.599444832794 eV   |
           -------------------------------------------------

------------------------------------------------------------------------
 * finished run on 2025/07/20 at 06:51:20.171     
------------------------------------------------------------------------
 total:
 * wall-time:     0 d,  0 h,  0 min, 32.278 sec
 *  cpu-time:     0 d,  0 h, 21 min,  0.360 sec
 * ratio c/w:    39.047 speedup
 SCF:
 * wall-time:     0 d,  0 h,  0 min,  0.268 sec
 *  cpu-time:     0 d,  0 h,  0 min,  9.876 sec
 * ratio c/w:    36.914 speedup
 ANC optimizer:
 * wall-time:     0 d,  0 h,  0 min, 26.336 sec
 *  cpu-time:     0 d,  0 h, 17 min, 33.379 sec
 * ratio c/w:    39.997 speedup
 analytical hessian:
 * wall-time:     0 d,  0 h,  0 min,  5.422 sec
 *  cpu-time:     0 d,  0 h,  3 min,  8.284 sec
 * ratio c/w:    34.728 speedup

